<?xml version="1.0" encoding="ISO-8859-1"?>
<modeling>
 <generator>
  <i name="program" type="string">vasp </i>
  <i name="version" type="string">5.4.4.18Apr17-6-g9f103f2a35  </i>
  <i name="subversion" type="string">(build Aug 24 2017 11:22:49) complex            parallel </i>
  <i name="platform" type="string">LinuxIFC </i>
  <i name="date" type="string">2023 12 25 </i>
  <i name="time" type="string">13:07:33 </i>
 </generator>
 <incar>
  <i type="string" name="PREC">accurate</i>
  <i type="string" name="ALGO"> Normal</i>
  <i type="int" name="NELM">   100</i>
  <i type="int" name="IBRION">     8</i>
  <i name="EDIFF">      0.00000001</i>
  <i name="SYMPREC">      0.00000001</i>
  <i name="ENCUT">    520.00000000</i>
  <i type="logical" name="LREAL"> F  </i>
  <i type="int" name="ISMEAR">     0</i>
  <i name="SIGMA">      0.01000000</i>
  <i type="logical" name="LWAVE"> F  </i>
  <v type="int" name="KPOINT_BSE">    -1     0     0     0</v>
  <i type="int" name="NELM">   100</i>
  <i type="logical" name="LPEAD"> T  </i>
  <i type="logical" name="LEPSILON"> T  </i>
 </incar>
 <structure name="primitive_cell" >
  <crystal>
   <varray name="basis" >
    <v>      -2.95197616       0.00000000       2.95197616 </v>
    <v>       0.00000000       2.95197616       2.95197616 </v>
    <v>      -2.95197616       2.95197616       0.00000000 </v>
   </varray>
   <i name="volume">     51.44800428 </i>
   <varray name="rec_basis" >
    <v>      -0.16937806      -0.16937806       0.16937806 </v>
    <v>       0.16937806       0.16937806       0.16937806 </v>
    <v>      -0.16937806       0.16937806      -0.16937806 </v>
   </varray>
  </crystal>
  <varray name="positions" >
   <v>       0.00000000       0.00000000       0.00000000 </v>
   <v>       0.25000002       0.25000010       0.24999994 </v>
  </varray>
 </structure>
 <varray name="primitive_index" >
  <v type="int" >        1 </v>
  <v type="int" >        2 </v>
 </varray>
 <kpoints>
  <generation param="Gamma">
   <v type="int" name="divisions">      12       12       12 </v>
   <v name="usershift">      0.00000000       0.00000000       0.00000000 </v>
   <v name="genvec1">      0.08333333       0.00000000       0.00000000 </v>
   <v name="genvec2">      0.00000000       0.08333333      -0.00000000 </v>
   <v name="genvec3">     -0.00000000      -0.00000000       0.08333333 </v>
   <v name="shift">      0.00000000       0.00000000       0.00000000 </v>
  </generation>
  <varray name="kpointlist" >
   <v>       0.00000000       0.00000000       0.00000000 </v>
   <v>       0.08333333      -0.00000000      -0.00000000 </v>
   <v>       0.16666667      -0.00000000      -0.00000000 </v>
   <v>       0.25000000       0.00000000       0.00000000 </v>
   <v>       0.33333333      -0.00000000      -0.00000000 </v>
   <v>       0.41666667       0.00000000       0.00000000 </v>
   <v>       0.50000000       0.00000000       0.00000000 </v>
   <v>      -0.00000000       0.08333333       0.00000000 </v>
   <v>       0.08333333       0.08333333       0.00000000 </v>
   <v>       0.16666667       0.08333333       0.00000000 </v>
   <v>       0.25000000       0.08333333      -0.00000000 </v>
   <v>       0.33333333       0.08333333       0.00000000 </v>
   <v>       0.41666667       0.08333333      -0.00000000 </v>
   <v>       0.50000000       0.08333333       0.00000000 </v>
   <v>      -0.41666667       0.08333333      -0.00000000 </v>
   <v>      -0.33333333       0.08333333       0.00000000 </v>
   <v>      -0.25000000       0.08333333       0.00000000 </v>
   <v>      -0.16666667       0.08333333      -0.00000000 </v>
   <v>      -0.08333333       0.08333333       0.00000000 </v>
   <v>       0.00000000       0.16666667       0.00000000 </v>
   <v>       0.08333333       0.16666667       0.00000000 </v>
   <v>       0.16666667       0.16666667       0.00000000 </v>
   <v>       0.25000000       0.16666667       0.00000000 </v>
   <v>       0.33333333       0.16666667       0.00000000 </v>
   <v>       0.41666667       0.16666667       0.00000000 </v>
   <v>       0.50000000       0.16666667      -0.00000000 </v>
   <v>      -0.41666667       0.16666667       0.00000000 </v>
   <v>      -0.33333333       0.16666667      -0.00000000 </v>
   <v>      -0.25000000       0.16666667       0.00000000 </v>
   <v>      -0.16666667       0.16666667       0.00000000 </v>
   <v>      -0.08333333       0.16666667      -0.00000000 </v>
   <v>       0.00000000       0.25000000      -0.00000000 </v>
   <v>       0.08333333       0.25000000       0.00000000 </v>
   <v>       0.16666667       0.25000000       0.00000000 </v>
   <v>       0.25000000       0.25000000       0.00000000 </v>
   <v>       0.33333333       0.25000000       0.00000000 </v>
   <v>       0.41666667       0.25000000       0.00000000 </v>
   <v>       0.50000000       0.25000000       0.00000000 </v>
   <v>      -0.41666667       0.25000000       0.00000000 </v>
   <v>      -0.33333333       0.25000000       0.00000000 </v>
   <v>      -0.25000000       0.25000000      -0.00000000 </v>
   <v>      -0.16666667       0.25000000       0.00000000 </v>
   <v>      -0.08333333       0.25000000       0.00000000 </v>
   <v>      -0.00000000       0.33333333       0.00000000 </v>
   <v>       0.08333333       0.33333333      -0.00000000 </v>
   <v>       0.16666667       0.33333333       0.00000000 </v>
   <v>       0.25000000       0.33333333       0.00000000 </v>
   <v>       0.33333333       0.33333333       0.00000000 </v>
   <v>       0.41666667       0.33333333       0.00000000 </v>
   <v>       0.50000000       0.33333333       0.00000000 </v>
   <v>      -0.41666667       0.33333333       0.00000000 </v>
   <v>      -0.33333333       0.33333333       0.00000000 </v>
   <v>      -0.25000000       0.33333333       0.00000000 </v>
   <v>      -0.16666667       0.33333333      -0.00000000 </v>
   <v>      -0.08333333       0.33333333      -0.00000000 </v>
   <v>       0.00000000       0.41666667       0.00000000 </v>
   <v>       0.08333333       0.41666667       0.00000000 </v>
   <v>       0.16666667       0.41666667      -0.00000000 </v>
   <v>       0.25000000       0.41666667       0.00000000 </v>
   <v>       0.33333333       0.41666667       0.00000000 </v>
   <v>       0.41666667       0.41666667       0.00000000 </v>
   <v>       0.50000000       0.41666667       0.00000000 </v>
   <v>      -0.41666667       0.41666667       0.00000000 </v>
   <v>      -0.33333333       0.41666667       0.00000000 </v>
   <v>      -0.25000000       0.41666667       0.00000000 </v>
   <v>      -0.16666667       0.41666667       0.00000000 </v>
   <v>      -0.08333333       0.41666667      -0.00000000 </v>
   <v>       0.00000000       0.50000000      -0.00000000 </v>
   <v>       0.08333333       0.50000000       0.00000000 </v>
   <v>       0.16666667       0.50000000       0.00000000 </v>
   <v>       0.25000000       0.50000000       0.00000000 </v>
   <v>       0.33333333       0.50000000       0.00000000 </v>
   <v>       0.41666667       0.50000000       0.00000000 </v>
   <v>       0.50000000       0.50000000       0.00000000 </v>
   <v>       0.00000000       0.00000000       0.08333333 </v>
   <v>       0.08333333       0.00000000       0.08333333 </v>
   <v>       0.16666667       0.00000000       0.08333333 </v>
   <v>       0.25000000       0.00000000       0.08333333 </v>
   <v>       0.33333333       0.00000000       0.08333333 </v>
   <v>       0.41666667       0.00000000       0.08333333 </v>
   <v>       0.50000000      -0.00000000       0.08333333 </v>
   <v>      -0.41666667      -0.00000000       0.08333333 </v>
   <v>      -0.33333333       0.00000000       0.08333333 </v>
   <v>      -0.25000000      -0.00000000       0.08333333 </v>
   <v>      -0.16666667      -0.00000000       0.08333333 </v>
   <v>      -0.08333333      -0.00000000       0.08333333 </v>
   <v>       0.00000000       0.16666667       0.08333333 </v>
   <v>       0.08333333       0.16666667       0.08333333 </v>
   <v>       0.16666667       0.16666667       0.08333333 </v>
   <v>       0.25000000       0.16666667       0.08333333 </v>
   <v>       0.33333333       0.16666667       0.08333333 </v>
   <v>       0.41666667       0.16666667       0.08333333 </v>
   <v>       0.50000000       0.16666667       0.08333333 </v>
   <v>      -0.41666667       0.16666667       0.08333333 </v>
   <v>      -0.33333333       0.16666667       0.08333333 </v>
   <v>      -0.25000000       0.16666667       0.08333333 </v>
   <v>      -0.16666667       0.16666667       0.08333333 </v>
   <v>      -0.08333333       0.16666667       0.08333333 </v>
   <v>       0.00000000       0.25000000       0.08333333 </v>
   <v>       0.08333333       0.25000000       0.08333333 </v>
   <v>       0.16666667       0.25000000       0.08333333 </v>
   <v>       0.25000000       0.25000000       0.08333333 </v>
   <v>       0.33333333       0.25000000       0.08333333 </v>
   <v>       0.41666667       0.25000000       0.08333333 </v>
   <v>       0.50000000       0.25000000       0.08333333 </v>
   <v>      -0.41666667       0.25000000       0.08333333 </v>
   <v>      -0.33333333       0.25000000       0.08333333 </v>
   <v>      -0.25000000       0.25000000       0.08333333 </v>
   <v>      -0.16666667       0.25000000       0.08333333 </v>
   <v>      -0.08333333       0.25000000       0.08333333 </v>
   <v>       0.00000000       0.33333333       0.08333333 </v>
   <v>       0.08333333       0.33333333       0.08333333 </v>
   <v>       0.16666667       0.33333333       0.08333333 </v>
   <v>       0.25000000       0.33333333       0.08333333 </v>
   <v>       0.33333333       0.33333333       0.08333333 </v>
   <v>       0.41666667       0.33333333       0.08333333 </v>
   <v>       0.50000000       0.33333333       0.08333333 </v>
   <v>      -0.41666667       0.33333333       0.08333333 </v>
   <v>      -0.33333333       0.33333333       0.08333333 </v>
   <v>      -0.25000000       0.33333333       0.08333333 </v>
   <v>      -0.16666667       0.33333333       0.08333333 </v>
   <v>      -0.08333333       0.33333333       0.08333333 </v>
   <v>       0.00000000       0.41666667       0.08333333 </v>
   <v>       0.08333333       0.41666667       0.08333333 </v>
   <v>       0.16666667       0.41666667       0.08333333 </v>
   <v>       0.25000000       0.41666667       0.08333333 </v>
   <v>       0.33333333       0.41666667       0.08333333 </v>
   <v>       0.41666667       0.41666667       0.08333333 </v>
   <v>       0.50000000       0.41666667       0.08333333 </v>
   <v>      -0.41666667       0.41666667       0.08333333 </v>
   <v>      -0.33333333       0.41666667       0.08333333 </v>
   <v>      -0.25000000       0.41666667       0.08333333 </v>
   <v>      -0.16666667       0.41666667       0.08333333 </v>
   <v>      -0.08333333       0.41666667       0.08333333 </v>
   <v>       0.00000000       0.50000000       0.08333333 </v>
   <v>       0.08333333       0.50000000       0.08333333 </v>
   <v>       0.16666667       0.50000000       0.08333333 </v>
   <v>       0.25000000       0.50000000       0.08333333 </v>
   <v>       0.33333333       0.50000000       0.08333333 </v>
   <v>       0.41666667       0.50000000       0.08333333 </v>
   <v>       0.50000000       0.50000000       0.08333333 </v>
   <v>      -0.41666667       0.50000000       0.08333333 </v>
   <v>      -0.33333333       0.50000000       0.08333333 </v>
   <v>      -0.25000000       0.50000000       0.08333333 </v>
   <v>      -0.16666667       0.50000000       0.08333333 </v>
   <v>      -0.08333333       0.50000000       0.08333333 </v>
   <v>      -0.00000000      -0.00000000       0.16666667 </v>
   <v>       0.08333333       0.00000000       0.16666667 </v>
   <v>       0.16666667       0.00000000       0.16666667 </v>
   <v>       0.25000000       0.00000000       0.16666667 </v>
   <v>       0.33333333       0.00000000       0.16666667 </v>
   <v>       0.41666667       0.00000000       0.16666667 </v>
   <v>       0.50000000      -0.00000000       0.16666667 </v>
   <v>      -0.41666667       0.00000000       0.16666667 </v>
   <v>      -0.33333333      -0.00000000       0.16666667 </v>
   <v>      -0.25000000       0.00000000       0.16666667 </v>
   <v>      -0.16666667       0.00000000       0.16666667 </v>
   <v>      -0.08333333      -0.00000000       0.16666667 </v>
   <v>       0.00000000       0.08333333       0.16666667 </v>
   <v>       0.08333333       0.08333333       0.16666667 </v>
   <v>       0.25000000       0.08333333       0.16666667 </v>
   <v>       0.33333333       0.08333333       0.16666667 </v>
   <v>       0.41666667       0.08333333       0.16666667 </v>
   <v>       0.50000000       0.08333333       0.16666667 </v>
   <v>      -0.41666667       0.08333333       0.16666667 </v>
   <v>       0.00000000       0.25000000       0.16666667 </v>
   <v>       0.08333333       0.25000000       0.16666667 </v>
   <v>       0.16666667       0.25000000       0.16666667 </v>
   <v>       0.25000000       0.25000000       0.16666667 </v>
   <v>       0.33333333       0.25000000       0.16666667 </v>
   <v>       0.41666667       0.25000000       0.16666667 </v>
   <v>       0.50000000       0.25000000       0.16666667 </v>
   <v>      -0.41666667       0.25000000       0.16666667 </v>
   <v>      -0.33333333       0.25000000       0.16666667 </v>
   <v>      -0.25000000       0.25000000       0.16666667 </v>
   <v>      -0.16666667       0.25000000       0.16666667 </v>
   <v>      -0.08333333       0.25000000       0.16666667 </v>
   <v>       0.00000000       0.33333333       0.16666667 </v>
   <v>       0.08333333       0.33333333       0.16666667 </v>
   <v>       0.16666667       0.33333333       0.16666667 </v>
   <v>       0.25000000       0.33333333       0.16666667 </v>
   <v>       0.33333333       0.33333333       0.16666667 </v>
   <v>       0.41666667       0.33333333       0.16666667 </v>
   <v>       0.50000000       0.33333333       0.16666667 </v>
   <v>      -0.41666667       0.33333333       0.16666667 </v>
   <v>      -0.33333333       0.33333333       0.16666667 </v>
   <v>      -0.25000000       0.33333333       0.16666667 </v>
   <v>      -0.16666667       0.33333333       0.16666667 </v>
   <v>      -0.08333333       0.33333333       0.16666667 </v>
   <v>       0.00000000       0.41666667       0.16666667 </v>
   <v>       0.08333333       0.41666667       0.16666667 </v>
   <v>       0.16666667       0.41666667       0.16666667 </v>
   <v>       0.25000000       0.41666667       0.16666667 </v>
   <v>       0.33333333       0.41666667       0.16666667 </v>
   <v>       0.41666667       0.41666667       0.16666667 </v>
   <v>       0.50000000       0.41666667       0.16666667 </v>
   <v>      -0.41666667       0.41666667       0.16666667 </v>
   <v>      -0.33333333       0.41666667       0.16666667 </v>
   <v>      -0.25000000       0.41666667       0.16666667 </v>
   <v>      -0.16666667       0.41666667       0.16666667 </v>
   <v>      -0.08333333       0.41666667       0.16666667 </v>
   <v>      -0.00000000       0.50000000       0.16666667 </v>
   <v>       0.08333333       0.50000000       0.16666667 </v>
   <v>       0.16666667       0.50000000       0.16666667 </v>
   <v>       0.25000000       0.50000000       0.16666667 </v>
   <v>       0.33333333       0.50000000       0.16666667 </v>
   <v>       0.41666667       0.50000000       0.16666667 </v>
   <v>       0.50000000       0.50000000       0.16666667 </v>
   <v>      -0.41666667       0.50000000       0.16666667 </v>
   <v>      -0.33333333       0.50000000       0.16666667 </v>
   <v>      -0.25000000       0.50000000       0.16666667 </v>
   <v>      -0.16666667       0.50000000       0.16666667 </v>
   <v>      -0.08333333       0.50000000       0.16666667 </v>
   <v>       0.00000000      -0.41666667       0.16666667 </v>
   <v>       0.08333333      -0.41666667       0.16666667 </v>
   <v>       0.25000000      -0.41666667       0.16666667 </v>
   <v>       0.33333333      -0.41666667       0.16666667 </v>
   <v>       0.41666667      -0.41666667       0.16666667 </v>
   <v>       0.50000000      -0.41666667       0.16666667 </v>
   <v>      -0.41666667      -0.41666667       0.16666667 </v>
   <v>       0.00000000      -0.00000000       0.25000000 </v>
   <v>       0.08333333      -0.00000000       0.25000000 </v>
   <v>       0.16666667       0.00000000       0.25000000 </v>
   <v>       0.25000000       0.00000000       0.25000000 </v>
   <v>       0.33333333       0.00000000       0.25000000 </v>
   <v>       0.41666667       0.00000000       0.25000000 </v>
   <v>       0.50000000       0.00000000       0.25000000 </v>
   <v>      -0.41666667       0.00000000       0.25000000 </v>
   <v>      -0.33333333       0.00000000       0.25000000 </v>
   <v>      -0.25000000      -0.00000000       0.25000000 </v>
   <v>      -0.16666667       0.00000000       0.25000000 </v>
   <v>      -0.08333333       0.00000000       0.25000000 </v>
   <v>      -0.00000000       0.08333333       0.25000000 </v>
   <v>       0.08333333       0.08333333       0.25000000 </v>
   <v>       0.16666667       0.08333333       0.25000000 </v>
   <v>       0.25000000       0.08333333       0.25000000 </v>
   <v>       0.33333333       0.08333333       0.25000000 </v>
   <v>       0.41666667       0.08333333       0.25000000 </v>
   <v>       0.50000000       0.08333333       0.25000000 </v>
   <v>      -0.41666667       0.08333333       0.25000000 </v>
   <v>      -0.33333333       0.08333333       0.25000000 </v>
   <v>      -0.25000000       0.08333333       0.25000000 </v>
   <v>      -0.16666667       0.08333333       0.25000000 </v>
   <v>      -0.08333333       0.08333333       0.25000000 </v>
   <v>       0.00000000       0.33333333       0.25000000 </v>
   <v>       0.08333333       0.33333333       0.25000000 </v>
   <v>       0.16666667       0.33333333       0.25000000 </v>
   <v>       0.25000000       0.33333333       0.25000000 </v>
   <v>       0.33333333       0.33333333       0.25000000 </v>
   <v>       0.41666667       0.33333333       0.25000000 </v>
   <v>       0.50000000       0.33333333       0.25000000 </v>
   <v>      -0.41666667       0.33333333       0.25000000 </v>
   <v>      -0.33333333       0.33333333       0.25000000 </v>
   <v>      -0.25000000       0.33333333       0.25000000 </v>
   <v>      -0.16666667       0.33333333       0.25000000 </v>
   <v>      -0.08333333       0.33333333       0.25000000 </v>
   <v>       0.00000000       0.41666667       0.25000000 </v>
   <v>       0.08333333       0.41666667       0.25000000 </v>
   <v>       0.16666667       0.41666667       0.25000000 </v>
   <v>       0.25000000       0.41666667       0.25000000 </v>
   <v>       0.33333333       0.41666667       0.25000000 </v>
   <v>       0.41666667       0.41666667       0.25000000 </v>
   <v>       0.50000000       0.41666667       0.25000000 </v>
   <v>      -0.41666667       0.41666667       0.25000000 </v>
   <v>      -0.33333333       0.41666667       0.25000000 </v>
   <v>      -0.25000000       0.41666667       0.25000000 </v>
   <v>      -0.16666667       0.41666667       0.25000000 </v>
   <v>      -0.08333333       0.41666667       0.25000000 </v>
   <v>       0.00000000       0.50000000       0.25000000 </v>
   <v>       0.08333333       0.50000000       0.25000000 </v>
   <v>       0.16666667       0.50000000       0.25000000 </v>
   <v>       0.25000000       0.50000000       0.25000000 </v>
   <v>       0.33333333       0.50000000       0.25000000 </v>
   <v>       0.41666667       0.50000000       0.25000000 </v>
   <v>       0.50000000       0.50000000       0.25000000 </v>
   <v>      -0.41666667       0.50000000       0.25000000 </v>
   <v>      -0.33333333       0.50000000       0.25000000 </v>
   <v>      -0.25000000       0.50000000       0.25000000 </v>
   <v>      -0.16666667       0.50000000       0.25000000 </v>
   <v>      -0.08333333       0.50000000       0.25000000 </v>
   <v>      -0.00000000      -0.41666667       0.25000000 </v>
   <v>       0.08333333      -0.41666667       0.25000000 </v>
   <v>       0.16666667      -0.41666667       0.25000000 </v>
   <v>       0.25000000      -0.41666667       0.25000000 </v>
   <v>       0.33333333      -0.41666667       0.25000000 </v>
   <v>       0.41666667      -0.41666667       0.25000000 </v>
   <v>       0.50000000      -0.41666667       0.25000000 </v>
   <v>      -0.41666667      -0.41666667       0.25000000 </v>
   <v>      -0.33333333      -0.41666667       0.25000000 </v>
   <v>      -0.25000000      -0.41666667       0.25000000 </v>
   <v>      -0.16666667      -0.41666667       0.25000000 </v>
   <v>      -0.08333333      -0.41666667       0.25000000 </v>
   <v>       0.00000000       0.00000000       0.33333333 </v>
   <v>       0.08333333      -0.00000000       0.33333333 </v>
   <v>       0.16666667       0.00000000       0.33333333 </v>
   <v>       0.25000000       0.00000000       0.33333333 </v>
   <v>       0.33333333       0.00000000       0.33333333 </v>
   <v>       0.41666667       0.00000000       0.33333333 </v>
   <v>       0.50000000       0.00000000       0.33333333 </v>
   <v>      -0.41666667      -0.00000000       0.33333333 </v>
   <v>      -0.33333333       0.00000000       0.33333333 </v>
   <v>      -0.25000000       0.00000000       0.33333333 </v>
   <v>      -0.16666667      -0.00000000       0.33333333 </v>
   <v>      -0.08333333      -0.00000000       0.33333333 </v>
   <v>       0.00000000       0.08333333       0.33333333 </v>
   <v>       0.08333333       0.08333333       0.33333333 </v>
   <v>       0.16666667       0.08333333       0.33333333 </v>
   <v>       0.25000000       0.08333333       0.33333333 </v>
   <v>       0.33333333       0.08333333       0.33333333 </v>
   <v>       0.41666667       0.08333333       0.33333333 </v>
   <v>       0.50000000       0.08333333       0.33333333 </v>
   <v>      -0.41666667       0.08333333       0.33333333 </v>
   <v>      -0.33333333       0.08333333       0.33333333 </v>
   <v>      -0.25000000       0.08333333       0.33333333 </v>
   <v>      -0.16666667       0.08333333       0.33333333 </v>
   <v>      -0.08333333       0.08333333       0.33333333 </v>
   <v>       0.00000000       0.16666667       0.33333333 </v>
   <v>       0.08333333       0.16666667       0.33333333 </v>
   <v>       0.16666667       0.16666667       0.33333333 </v>
   <v>       0.41666667       0.16666667       0.33333333 </v>
   <v>       0.50000000       0.16666667       0.33333333 </v>
   <v>      -0.41666667       0.16666667       0.33333333 </v>
   <v>      -0.33333333       0.16666667       0.33333333 </v>
   <v>       0.00000000       0.41666667       0.33333333 </v>
   <v>       0.08333333       0.41666667       0.33333333 </v>
   <v>       0.16666667       0.41666667       0.33333333 </v>
   <v>       0.25000000       0.41666667       0.33333333 </v>
   <v>       0.33333333       0.41666667       0.33333333 </v>
   <v>       0.41666667       0.41666667       0.33333333 </v>
   <v>       0.50000000       0.41666667       0.33333333 </v>
   <v>      -0.41666667       0.41666667       0.33333333 </v>
   <v>      -0.33333333       0.41666667       0.33333333 </v>
   <v>      -0.25000000       0.41666667       0.33333333 </v>
   <v>      -0.16666667       0.41666667       0.33333333 </v>
   <v>      -0.08333333       0.41666667       0.33333333 </v>
   <v>       0.00000000       0.50000000       0.33333333 </v>
   <v>       0.08333333       0.50000000       0.33333333 </v>
   <v>       0.16666667       0.50000000       0.33333333 </v>
   <v>       0.25000000       0.50000000       0.33333333 </v>
   <v>       0.33333333       0.50000000       0.33333333 </v>
   <v>       0.41666667       0.50000000       0.33333333 </v>
   <v>       0.50000000       0.50000000       0.33333333 </v>
   <v>      -0.41666667       0.50000000       0.33333333 </v>
   <v>      -0.33333333       0.50000000       0.33333333 </v>
   <v>      -0.25000000       0.50000000       0.33333333 </v>
   <v>      -0.16666667       0.50000000       0.33333333 </v>
   <v>      -0.08333333       0.50000000       0.33333333 </v>
   <v>       0.00000000      -0.41666667       0.33333333 </v>
   <v>       0.08333333      -0.41666667       0.33333333 </v>
   <v>       0.16666667      -0.41666667       0.33333333 </v>
   <v>       0.25000000      -0.41666667       0.33333333 </v>
   <v>       0.33333333      -0.41666667       0.33333333 </v>
   <v>       0.41666667      -0.41666667       0.33333333 </v>
   <v>       0.50000000      -0.41666667       0.33333333 </v>
   <v>      -0.41666667      -0.41666667       0.33333333 </v>
   <v>      -0.33333333      -0.41666667       0.33333333 </v>
   <v>      -0.25000000      -0.41666667       0.33333333 </v>
   <v>      -0.16666667      -0.41666667       0.33333333 </v>
   <v>      -0.08333333      -0.41666667       0.33333333 </v>
   <v>       0.00000000      -0.33333333       0.33333333 </v>
   <v>       0.08333333      -0.33333333       0.33333333 </v>
   <v>       0.16666667      -0.33333333       0.33333333 </v>
   <v>       0.41666667      -0.33333333       0.33333333 </v>
   <v>       0.50000000      -0.33333333       0.33333333 </v>
   <v>      -0.41666667      -0.33333333       0.33333333 </v>
   <v>      -0.33333333      -0.33333333       0.33333333 </v>
   <v>       0.00000000       0.00000000       0.41666667 </v>
   <v>       0.08333333       0.00000000       0.41666667 </v>
   <v>       0.16666667      -0.00000000       0.41666667 </v>
   <v>       0.25000000      -0.00000000       0.41666667 </v>
   <v>       0.33333333       0.00000000       0.41666667 </v>
   <v>       0.41666667       0.00000000       0.41666667 </v>
   <v>       0.50000000       0.00000000       0.41666667 </v>
   <v>      -0.41666667       0.00000000       0.41666667 </v>
   <v>      -0.33333333      -0.00000000       0.41666667 </v>
   <v>      -0.25000000       0.00000000       0.41666667 </v>
   <v>      -0.16666667       0.00000000       0.41666667 </v>
   <v>      -0.08333333      -0.00000000       0.41666667 </v>
   <v>       0.00000000       0.08333333       0.41666667 </v>
   <v>       0.08333333       0.08333333       0.41666667 </v>
   <v>       0.16666667       0.08333333       0.41666667 </v>
   <v>       0.25000000       0.08333333       0.41666667 </v>
   <v>       0.33333333       0.08333333       0.41666667 </v>
   <v>       0.41666667       0.08333333       0.41666667 </v>
   <v>       0.50000000       0.08333333       0.41666667 </v>
   <v>      -0.41666667       0.08333333       0.41666667 </v>
   <v>      -0.33333333       0.08333333       0.41666667 </v>
   <v>      -0.25000000       0.08333333       0.41666667 </v>
   <v>      -0.16666667       0.08333333       0.41666667 </v>
   <v>      -0.08333333       0.08333333       0.41666667 </v>
   <v>       0.00000000       0.16666667       0.41666667 </v>
   <v>       0.08333333       0.16666667       0.41666667 </v>
   <v>       0.16666667       0.16666667       0.41666667 </v>
   <v>       0.25000000       0.16666667       0.41666667 </v>
   <v>       0.33333333       0.16666667       0.41666667 </v>
   <v>       0.41666667       0.16666667       0.41666667 </v>
   <v>       0.50000000       0.16666667       0.41666667 </v>
   <v>      -0.41666667       0.16666667       0.41666667 </v>
   <v>      -0.33333333       0.16666667       0.41666667 </v>
   <v>      -0.25000000       0.16666667       0.41666667 </v>
   <v>      -0.16666667       0.16666667       0.41666667 </v>
   <v>      -0.08333333       0.16666667       0.41666667 </v>
   <v>       0.00000000       0.50000000       0.41666667 </v>
   <v>       0.08333333       0.50000000       0.41666667 </v>
   <v>       0.16666667       0.50000000       0.41666667 </v>
   <v>       0.25000000       0.50000000       0.41666667 </v>
   <v>       0.33333333       0.50000000       0.41666667 </v>
   <v>       0.41666667       0.50000000       0.41666667 </v>
   <v>       0.50000000       0.50000000       0.41666667 </v>
   <v>      -0.41666667       0.50000000       0.41666667 </v>
   <v>      -0.33333333       0.50000000       0.41666667 </v>
   <v>      -0.25000000       0.50000000       0.41666667 </v>
   <v>      -0.16666667       0.50000000       0.41666667 </v>
   <v>      -0.08333333       0.50000000       0.41666667 </v>
   <v>       0.00000000      -0.41666667       0.41666667 </v>
   <v>       0.08333333      -0.41666667       0.41666667 </v>
   <v>       0.16666667      -0.41666667       0.41666667 </v>
   <v>       0.25000000      -0.41666667       0.41666667 </v>
   <v>       0.33333333      -0.41666667       0.41666667 </v>
   <v>       0.41666667      -0.41666667       0.41666667 </v>
   <v>       0.50000000      -0.41666667       0.41666667 </v>
   <v>      -0.41666667      -0.41666667       0.41666667 </v>
   <v>      -0.33333333      -0.41666667       0.41666667 </v>
   <v>      -0.25000000      -0.41666667       0.41666667 </v>
   <v>      -0.16666667      -0.41666667       0.41666667 </v>
   <v>      -0.08333333      -0.41666667       0.41666667 </v>
   <v>      -0.00000000      -0.33333333       0.41666667 </v>
   <v>       0.08333333      -0.33333333       0.41666667 </v>
   <v>       0.16666667      -0.33333333       0.41666667 </v>
   <v>       0.25000000      -0.33333333       0.41666667 </v>
   <v>       0.33333333      -0.33333333       0.41666667 </v>
   <v>       0.41666667      -0.33333333       0.41666667 </v>
   <v>       0.50000000      -0.33333333       0.41666667 </v>
   <v>      -0.41666667      -0.33333333       0.41666667 </v>
   <v>      -0.33333333      -0.33333333       0.41666667 </v>
   <v>      -0.25000000      -0.33333333       0.41666667 </v>
   <v>      -0.16666667      -0.33333333       0.41666667 </v>
   <v>      -0.08333333      -0.33333333       0.41666667 </v>
   <v>       0.00000000      -0.00000000       0.50000000 </v>
   <v>       0.08333333       0.00000000       0.50000000 </v>
   <v>       0.16666667       0.00000000       0.50000000 </v>
   <v>       0.25000000       0.00000000       0.50000000 </v>
   <v>       0.33333333       0.00000000       0.50000000 </v>
   <v>       0.41666667       0.00000000       0.50000000 </v>
   <v>       0.50000000       0.00000000       0.50000000 </v>
   <v>       0.00000000       0.08333333       0.50000000 </v>
   <v>       0.08333333       0.08333333       0.50000000 </v>
   <v>       0.16666667       0.08333333       0.50000000 </v>
   <v>       0.25000000       0.08333333       0.50000000 </v>
   <v>       0.33333333       0.08333333       0.50000000 </v>
   <v>       0.41666667       0.08333333       0.50000000 </v>
   <v>       0.50000000       0.08333333       0.50000000 </v>
   <v>      -0.41666667       0.08333333       0.50000000 </v>
   <v>      -0.33333333       0.08333333       0.50000000 </v>
   <v>      -0.25000000       0.08333333       0.50000000 </v>
   <v>      -0.16666667       0.08333333       0.50000000 </v>
   <v>      -0.08333333       0.08333333       0.50000000 </v>
   <v>       0.00000000       0.16666667       0.50000000 </v>
   <v>       0.08333333       0.16666667       0.50000000 </v>
   <v>       0.16666667       0.16666667       0.50000000 </v>
   <v>       0.25000000       0.16666667       0.50000000 </v>
   <v>       0.33333333       0.16666667       0.50000000 </v>
   <v>       0.41666667       0.16666667       0.50000000 </v>
   <v>       0.50000000       0.16666667       0.50000000 </v>
   <v>      -0.41666667       0.16666667       0.50000000 </v>
   <v>      -0.33333333       0.16666667       0.50000000 </v>
   <v>      -0.25000000       0.16666667       0.50000000 </v>
   <v>      -0.16666667       0.16666667       0.50000000 </v>
   <v>      -0.08333333       0.16666667       0.50000000 </v>
   <v>       0.00000000       0.25000000       0.50000000 </v>
   <v>       0.08333333       0.25000000       0.50000000 </v>
   <v>       0.16666667       0.25000000       0.50000000 </v>
   <v>       0.25000000       0.25000000       0.50000000 </v>
   <v>      -0.41666667       0.25000000       0.50000000 </v>
   <v>      -0.33333333       0.25000000       0.50000000 </v>
   <v>      -0.25000000       0.25000000       0.50000000 </v>
  </varray>
  <varray name="weights" >
   <v>       0.00057870 </v>
   <v>       0.00115741 </v>
   <v>       0.00115741 </v>
   <v>       0.00115741 </v>
   <v>       0.00115741 </v>
   <v>       0.00115741 </v>
   <v>       0.00057870 </v>
   <v>       0.00115741 </v>
   <v>       0.00115741 </v>
   <v>       0.00115741 </v>
   <v>       0.00115741 </v>
   <v>       0.00115741 </v>
   <v>       0.00115741 </v>
   <v>       0.00115741 </v>
   <v>       0.00115741 </v>
   <v>       0.00115741 </v>
   <v>       0.00115741 </v>
   <v>       0.00115741 </v>
   <v>       0.00115741 </v>
   <v>       0.00115741 </v>
   <v>       0.00115741 </v>
   <v>       0.00115741 </v>
   <v>       0.00115741 </v>
   <v>       0.00115741 </v>
   <v>       0.00115741 </v>
   <v>       0.00115741 </v>
   <v>       0.00115741 </v>
   <v>       0.00115741 </v>
   <v>       0.00115741 </v>
   <v>       0.00115741 </v>
   <v>       0.00115741 </v>
   <v>       0.00115741 </v>
   <v>       0.00115741 </v>
   <v>       0.00115741 </v>
   <v>       0.00115741 </v>
   <v>       0.00115741 </v>
   <v>       0.00115741 </v>
   <v>       0.00115741 </v>
   <v>       0.00115741 </v>
   <v>       0.00115741 </v>
   <v>       0.00115741 </v>
   <v>       0.00115741 </v>
   <v>       0.00115741 </v>
   <v>       0.00115741 </v>
   <v>       0.00115741 </v>
   <v>       0.00115741 </v>
   <v>       0.00115741 </v>
   <v>       0.00115741 </v>
   <v>       0.00115741 </v>
   <v>       0.00115741 </v>
   <v>       0.00115741 </v>
   <v>       0.00115741 </v>
   <v>       0.00115741 </v>
   <v>       0.00115741 </v>
   <v>       0.00115741 </v>
   <v>       0.00115741 </v>
   <v>       0.00115741 </v>
   <v>       0.00115741 </v>
   <v>       0.00115741 </v>
   <v>       0.00115741 </v>
   <v>       0.00115741 </v>
   <v>       0.00115741 </v>
   <v>       0.00115741 </v>
   <v>       0.00115741 </v>
   <v>       0.00115741 </v>
   <v>       0.00115741 </v>
   <v>       0.00115741 </v>
   <v>       0.00057870 </v>
   <v>       0.00115741 </v>
   <v>       0.00115741 </v>
   <v>       0.00115741 </v>
   <v>       0.00115741 </v>
   <v>       0.00115741 </v>
   <v>       0.00057870 </v>
   <v>       0.00231481 </v>
   <v>       0.00231481 </v>
   <v>       0.00231481 </v>
   <v>       0.00231481 </v>
   <v>       0.00231481 </v>
   <v>       0.00231481 </v>
   <v>       0.00231481 </v>
   <v>       0.00231481 </v>
   <v>       0.00231481 </v>
   <v>       0.00231481 </v>
   <v>       0.00231481 </v>
   <v>       0.00231481 </v>
   <v>       0.00231481 </v>
   <v>       0.00231481 </v>
   <v>       0.00231481 </v>
   <v>       0.00231481 </v>
   <v>       0.00231481 </v>
   <v>       0.00231481 </v>
   <v>       0.00231481 </v>
   <v>       0.00231481 </v>
   <v>       0.00231481 </v>
   <v>       0.00231481 </v>
   <v>       0.00231481 </v>
   <v>       0.00231481 </v>
   <v>       0.00231481 </v>
   <v>       0.00231481 </v>
   <v>       0.00231481 </v>
   <v>       0.00231481 </v>
   <v>       0.00231481 </v>
   <v>       0.00231481 </v>
   <v>       0.00231481 </v>
   <v>       0.00231481 </v>
   <v>       0.00231481 </v>
   <v>       0.00231481 </v>
   <v>       0.00231481 </v>
   <v>       0.00231481 </v>
   <v>       0.00231481 </v>
   <v>       0.00231481 </v>
   <v>       0.00231481 </v>
   <v>       0.00231481 </v>
   <v>       0.00231481 </v>
   <v>       0.00231481 </v>
   <v>       0.00231481 </v>
   <v>       0.00231481 </v>
   <v>       0.00231481 </v>
   <v>       0.00231481 </v>
   <v>       0.00231481 </v>
   <v>       0.00231481 </v>
   <v>       0.00231481 </v>
   <v>       0.00231481 </v>
   <v>       0.00231481 </v>
   <v>       0.00231481 </v>
   <v>       0.00231481 </v>
   <v>       0.00231481 </v>
   <v>       0.00231481 </v>
   <v>       0.00231481 </v>
   <v>       0.00231481 </v>
   <v>       0.00231481 </v>
   <v>       0.00231481 </v>
   <v>       0.00231481 </v>
   <v>       0.00231481 </v>
   <v>       0.00231481 </v>
   <v>       0.00231481 </v>
   <v>       0.00231481 </v>
   <v>       0.00231481 </v>
   <v>       0.00231481 </v>
   <v>       0.00231481 </v>
   <v>       0.00231481 </v>
   <v>       0.00231481 </v>
   <v>       0.00231481 </v>
   <v>       0.00231481 </v>
   <v>       0.00231481 </v>
   <v>       0.00231481 </v>
   <v>       0.00231481 </v>
   <v>       0.00231481 </v>
   <v>       0.00231481 </v>
   <v>       0.00231481 </v>
   <v>       0.00231481 </v>
   <v>       0.00231481 </v>
   <v>       0.00231481 </v>
   <v>       0.00231481 </v>
   <v>       0.00231481 </v>
   <v>       0.00231481 </v>
   <v>       0.00231481 </v>
   <v>       0.00231481 </v>
   <v>       0.00115741 </v>
   <v>       0.00231481 </v>
   <v>       0.00231481 </v>
   <v>       0.00231481 </v>
   <v>       0.00231481 </v>
   <v>       0.00115741 </v>
   <v>       0.00231481 </v>
   <v>       0.00231481 </v>
   <v>       0.00231481 </v>
   <v>       0.00231481 </v>
   <v>       0.00231481 </v>
   <v>       0.00231481 </v>
   <v>       0.00231481 </v>
   <v>       0.00231481 </v>
   <v>       0.00231481 </v>
   <v>       0.00231481 </v>
   <v>       0.00231481 </v>
   <v>       0.00231481 </v>
   <v>       0.00231481 </v>
   <v>       0.00231481 </v>
   <v>       0.00231481 </v>
   <v>       0.00231481 </v>
   <v>       0.00231481 </v>
   <v>       0.00231481 </v>
   <v>       0.00231481 </v>
   <v>       0.00231481 </v>
   <v>       0.00231481 </v>
   <v>       0.00231481 </v>
   <v>       0.00231481 </v>
   <v>       0.00231481 </v>
   <v>       0.00231481 </v>
   <v>       0.00231481 </v>
   <v>       0.00231481 </v>
   <v>       0.00231481 </v>
   <v>       0.00231481 </v>
   <v>       0.00231481 </v>
   <v>       0.00231481 </v>
   <v>       0.00231481 </v>
   <v>       0.00231481 </v>
   <v>       0.00231481 </v>
   <v>       0.00231481 </v>
   <v>       0.00231481 </v>
   <v>       0.00231481 </v>
   <v>       0.00231481 </v>
   <v>       0.00231481 </v>
   <v>       0.00231481 </v>
   <v>       0.00231481 </v>
   <v>       0.00231481 </v>
   <v>       0.00231481 </v>
   <v>       0.00231481 </v>
   <v>       0.00231481 </v>
   <v>       0.00231481 </v>
   <v>       0.00231481 </v>
   <v>       0.00231481 </v>
   <v>       0.00231481 </v>
   <v>       0.00115741 </v>
   <v>       0.00231481 </v>
   <v>       0.00231481 </v>
   <v>       0.00231481 </v>
   <v>       0.00231481 </v>
   <v>       0.00115741 </v>
   <v>       0.00231481 </v>
   <v>       0.00231481 </v>
   <v>       0.00231481 </v>
   <v>       0.00231481 </v>
   <v>       0.00231481 </v>
   <v>       0.00231481 </v>
   <v>       0.00231481 </v>
   <v>       0.00231481 </v>
   <v>       0.00231481 </v>
   <v>       0.00231481 </v>
   <v>       0.00231481 </v>
   <v>       0.00231481 </v>
   <v>       0.00231481 </v>
   <v>       0.00231481 </v>
   <v>       0.00231481 </v>
   <v>       0.00231481 </v>
   <v>       0.00231481 </v>
   <v>       0.00231481 </v>
   <v>       0.00231481 </v>
   <v>       0.00231481 </v>
   <v>       0.00231481 </v>
   <v>       0.00231481 </v>
   <v>       0.00231481 </v>
   <v>       0.00231481 </v>
   <v>       0.00231481 </v>
   <v>       0.00231481 </v>
   <v>       0.00231481 </v>
   <v>       0.00231481 </v>
   <v>       0.00231481 </v>
   <v>       0.00231481 </v>
   <v>       0.00231481 </v>
   <v>       0.00231481 </v>
   <v>       0.00231481 </v>
   <v>       0.00231481 </v>
   <v>       0.00231481 </v>
   <v>       0.00231481 </v>
   <v>       0.00231481 </v>
   <v>       0.00231481 </v>
   <v>       0.00231481 </v>
   <v>       0.00231481 </v>
   <v>       0.00231481 </v>
   <v>       0.00231481 </v>
   <v>       0.00231481 </v>
   <v>       0.00231481 </v>
   <v>       0.00231481 </v>
   <v>       0.00231481 </v>
   <v>       0.00231481 </v>
   <v>       0.00231481 </v>
   <v>       0.00231481 </v>
   <v>       0.00231481 </v>
   <v>       0.00231481 </v>
   <v>       0.00231481 </v>
   <v>       0.00231481 </v>
   <v>       0.00231481 </v>
   <v>       0.00231481 </v>
   <v>       0.00231481 </v>
   <v>       0.00231481 </v>
   <v>       0.00231481 </v>
   <v>       0.00231481 </v>
   <v>       0.00231481 </v>
   <v>       0.00231481 </v>
   <v>       0.00231481 </v>
   <v>       0.00231481 </v>
   <v>       0.00231481 </v>
   <v>       0.00231481 </v>
   <v>       0.00231481 </v>
   <v>       0.00231481 </v>
   <v>       0.00231481 </v>
   <v>       0.00231481 </v>
   <v>       0.00231481 </v>
   <v>       0.00231481 </v>
   <v>       0.00231481 </v>
   <v>       0.00231481 </v>
   <v>       0.00231481 </v>
   <v>       0.00231481 </v>
   <v>       0.00231481 </v>
   <v>       0.00231481 </v>
   <v>       0.00231481 </v>
   <v>       0.00231481 </v>
   <v>       0.00231481 </v>
   <v>       0.00231481 </v>
   <v>       0.00231481 </v>
   <v>       0.00231481 </v>
   <v>       0.00231481 </v>
   <v>       0.00231481 </v>
   <v>       0.00231481 </v>
   <v>       0.00231481 </v>
   <v>       0.00231481 </v>
   <v>       0.00231481 </v>
   <v>       0.00231481 </v>
   <v>       0.00231481 </v>
   <v>       0.00231481 </v>
   <v>       0.00231481 </v>
   <v>       0.00231481 </v>
   <v>       0.00231481 </v>
   <v>       0.00231481 </v>
   <v>       0.00231481 </v>
   <v>       0.00231481 </v>
   <v>       0.00115741 </v>
   <v>       0.00231481 </v>
   <v>       0.00231481 </v>
   <v>       0.00231481 </v>
   <v>       0.00115741 </v>
   <v>       0.00231481 </v>
   <v>       0.00231481 </v>
   <v>       0.00231481 </v>
   <v>       0.00231481 </v>
   <v>       0.00231481 </v>
   <v>       0.00231481 </v>
   <v>       0.00231481 </v>
   <v>       0.00231481 </v>
   <v>       0.00231481 </v>
   <v>       0.00231481 </v>
   <v>       0.00231481 </v>
   <v>       0.00231481 </v>
   <v>       0.00231481 </v>
   <v>       0.00231481 </v>
   <v>       0.00231481 </v>
   <v>       0.00231481 </v>
   <v>       0.00231481 </v>
   <v>       0.00231481 </v>
   <v>       0.00231481 </v>
   <v>       0.00231481 </v>
   <v>       0.00231481 </v>
   <v>       0.00231481 </v>
   <v>       0.00231481 </v>
   <v>       0.00231481 </v>
   <v>       0.00231481 </v>
   <v>       0.00231481 </v>
   <v>       0.00231481 </v>
   <v>       0.00231481 </v>
   <v>       0.00231481 </v>
   <v>       0.00231481 </v>
   <v>       0.00231481 </v>
   <v>       0.00231481 </v>
   <v>       0.00231481 </v>
   <v>       0.00231481 </v>
   <v>       0.00231481 </v>
   <v>       0.00231481 </v>
   <v>       0.00231481 </v>
   <v>       0.00231481 </v>
   <v>       0.00115741 </v>
   <v>       0.00231481 </v>
   <v>       0.00231481 </v>
   <v>       0.00231481 </v>
   <v>       0.00115741 </v>
   <v>       0.00231481 </v>
   <v>       0.00231481 </v>
   <v>       0.00231481 </v>
   <v>       0.00231481 </v>
   <v>       0.00231481 </v>
   <v>       0.00231481 </v>
   <v>       0.00231481 </v>
   <v>       0.00231481 </v>
   <v>       0.00231481 </v>
   <v>       0.00231481 </v>
   <v>       0.00231481 </v>
   <v>       0.00231481 </v>
   <v>       0.00231481 </v>
   <v>       0.00231481 </v>
   <v>       0.00231481 </v>
   <v>       0.00231481 </v>
   <v>       0.00231481 </v>
   <v>       0.00231481 </v>
   <v>       0.00231481 </v>
   <v>       0.00231481 </v>
   <v>       0.00231481 </v>
   <v>       0.00231481 </v>
   <v>       0.00231481 </v>
   <v>       0.00231481 </v>
   <v>       0.00231481 </v>
   <v>       0.00231481 </v>
   <v>       0.00231481 </v>
   <v>       0.00231481 </v>
   <v>       0.00231481 </v>
   <v>       0.00231481 </v>
   <v>       0.00231481 </v>
   <v>       0.00231481 </v>
   <v>       0.00231481 </v>
   <v>       0.00231481 </v>
   <v>       0.00231481 </v>
   <v>       0.00231481 </v>
   <v>       0.00231481 </v>
   <v>       0.00231481 </v>
   <v>       0.00231481 </v>
   <v>       0.00231481 </v>
   <v>       0.00231481 </v>
   <v>       0.00231481 </v>
   <v>       0.00231481 </v>
   <v>       0.00231481 </v>
   <v>       0.00231481 </v>
   <v>       0.00231481 </v>
   <v>       0.00231481 </v>
   <v>       0.00231481 </v>
   <v>       0.00231481 </v>
   <v>       0.00231481 </v>
   <v>       0.00231481 </v>
   <v>       0.00231481 </v>
   <v>       0.00231481 </v>
   <v>       0.00231481 </v>
   <v>       0.00231481 </v>
   <v>       0.00231481 </v>
   <v>       0.00231481 </v>
   <v>       0.00231481 </v>
   <v>       0.00231481 </v>
   <v>       0.00231481 </v>
   <v>       0.00231481 </v>
   <v>       0.00231481 </v>
   <v>       0.00231481 </v>
   <v>       0.00231481 </v>
   <v>       0.00231481 </v>
   <v>       0.00231481 </v>
   <v>       0.00231481 </v>
   <v>       0.00231481 </v>
   <v>       0.00231481 </v>
   <v>       0.00231481 </v>
   <v>       0.00231481 </v>
   <v>       0.00231481 </v>
   <v>       0.00115741 </v>
   <v>       0.00231481 </v>
   <v>       0.00231481 </v>
   <v>       0.00231481 </v>
   <v>       0.00231481 </v>
   <v>       0.00231481 </v>
   <v>       0.00115741 </v>
   <v>       0.00231481 </v>
   <v>       0.00231481 </v>
   <v>       0.00231481 </v>
   <v>       0.00231481 </v>
   <v>       0.00231481 </v>
   <v>       0.00231481 </v>
   <v>       0.00231481 </v>
   <v>       0.00231481 </v>
   <v>       0.00231481 </v>
   <v>       0.00231481 </v>
   <v>       0.00231481 </v>
   <v>       0.00231481 </v>
   <v>       0.00231481 </v>
   <v>       0.00231481 </v>
   <v>       0.00231481 </v>
   <v>       0.00231481 </v>
   <v>       0.00231481 </v>
   <v>       0.00231481 </v>
   <v>       0.00231481 </v>
   <v>       0.00231481 </v>
   <v>       0.00231481 </v>
   <v>       0.00231481 </v>
   <v>       0.00231481 </v>
   <v>       0.00231481 </v>
   <v>       0.00231481 </v>
   <v>       0.00231481 </v>
   <v>       0.00231481 </v>
   <v>       0.00115741 </v>
   <v>       0.00231481 </v>
   <v>       0.00231481 </v>
   <v>       0.00115741 </v>
  </varray>
 </kpoints>
 <parameters>
  <separator name="general" >
   <i type="string" name="SYSTEM">unknown system</i>
   <i type="logical" name="LCOMPAT"> F  </i>
  </separator>
  <separator name="electronic" >
   <i type="string" name="PREC">accura</i>
   <i name="ENMAX">    520.00000000</i>
   <i name="ENAUG">    449.70400000</i>
   <i name="EDIFF">      0.00000001</i>
   <i type="int" name="IALGO">    38</i>
   <i type="int" name="IWAVPR">    11</i>
   <i type="int" name="NBANDS">    16</i>
   <i name="NELECT">     18.00000000</i>
   <i type="int" name="TURBO">     0</i>
   <i type="int" name="IRESTART">     0</i>
   <i type="int" name="NREBOOT">     0</i>
   <i type="int" name="NMIN">     0</i>
   <i name="EREF">      0.00000000</i>
   <separator name="electronic smearing" >
    <i type="int" name="ISMEAR">     0</i>
    <i name="SIGMA">      0.01000000</i>
    <i name="KSPACING">      0.50000000</i>
    <i type="logical" name="KGAMMA"> T  </i>
   </separator>
   <separator name="electronic projectors" >
    <i type="logical" name="LREAL"> F  </i>
    <v name="ROPT">      0.00000000      0.00000000</v>
    <i type="int" name="LMAXPAW">  -100</i>
    <i type="int" name="LMAXMIX">     2</i>
    <i type="logical" name="NLSPLINE"> F  </i>
   </separator>
   <separator name="electronic startup" >
    <i type="int" name="ISTART">     0</i>
    <i type="int" name="ICHARG">     2</i>
    <i type="int" name="INIWAV">     1</i>
   </separator>
   <separator name="electronic spin" >
    <i type="int" name="ISPIN">     1</i>
    <i type="logical" name="LNONCOLLINEAR"> F  </i>
    <v name="MAGMOM">      1.00000000      1.00000000</v>
    <i name="NUPDOWN">     -1.00000000</i>
    <i type="logical" name="LSORBIT"> F  </i>
    <v name="SAXIS">      0.00000000      0.00000000      1.00000000</v>
    <i type="logical" name="LSPIRAL"> F  </i>
    <v name="QSPIRAL">      0.00000000      0.00000000      0.00000000</v>
    <i type="logical" name="LZEROZ"> F  </i>
   </separator>
   <separator name="electronic exchange-correlation" >
    <i type="logical" name="LASPH"> F  </i>
    <i type="logical" name="LMETAGGA"> F  </i>
   </separator>
   <separator name="electronic convergence" >
    <i type="int" name="NELM">   100</i>
    <i type="int" name="NELMDL">    -5</i>
    <i type="int" name="NELMIN">     2</i>
    <i name="ENINI">    520.00000000</i>
    <separator name="electronic convergence detail" >
     <i type="logical" name="LDIAG"> T  </i>
     <i type="logical" name="LSUBROT"> F  </i>
     <i name="WEIMIN">      0.00100000</i>
     <i name="EBREAK">      0.00000000</i>
     <i name="DEPER">      0.30000000</i>
     <i type="int" name="NRMM">     4</i>
     <i name="TIME">      0.40000000</i>
    </separator>
   </separator>
   <separator name="electronic mixer" >
    <i name="AMIX">      0.40000000</i>
    <i name="BMIX">      1.00000000</i>
    <i name="AMIN">      0.10000000</i>
    <i name="AMIX_MAG">      1.60000000</i>
    <i name="BMIX_MAG">      1.00000000</i>
    <separator name="electronic mixer details" >
     <i type="int" name="IMIX">     4</i>
     <i type="logical" name="MIXFIRST"> F  </i>
     <i type="int" name="MAXMIX">   -45</i>
     <i name="WC">    100.00000000</i>
     <i type="int" name="INIMIX">     1</i>
     <i type="int" name="MIXPRE">     1</i>
     <i type="int" name="MREMOVE">     5</i>
    </separator>
   </separator>
   <separator name="electronic dipolcorrection" >
    <i type="logical" name="LDIPOL"> F  </i>
    <i type="logical" name="LMONO"> F  </i>
    <i type="int" name="IDIPOL">     0</i>
    <i name="EPSILON">      1.00000000</i>
    <v name="DIPOL">   -100.00000000   -100.00000000   -100.00000000</v>
    <i name="EFIELD">      0.00000000</i>
   </separator>
  </separator>
  <separator name="grids" >
   <i type="int" name="NGX">    32</i>
   <i type="int" name="NGY">    32</i>
   <i type="int" name="NGZ">    32</i>
   <i type="int" name="NGXF">    64</i>
   <i type="int" name="NGYF">    64</i>
   <i type="int" name="NGZF">    64</i>
   <i type="logical" name="ADDGRID"> F  </i>
  </separator>
  <separator name="ionic" >
   <i type="int" name="NSW">     1</i>
   <i type="int" name="IBRION">     8</i>
   <i type="int" name="MDALGO">     0</i>
   <i type="int" name="ISIF">     2</i>
   <i name="PSTRESS">      0.00000000</i>
   <i name="EDIFFG">      0.00000010</i>
   <i type="int" name="NFREE">     0</i>
   <i name="POTIM">      0.50000000</i>
   <i name="SMASS">     -3.00000000</i>
   <i name="SCALEE">      1.00000000</i>
  </separator>
  <separator name="ionic md" >
   <i name="TEBEG">      0.00010000</i>
   <i name="TEEND">      0.00010000</i>
   <i type="int" name="NBLOCK">     1</i>
   <i type="int" name="KBLOCK">     1</i>
   <i type="int" name="NPACO">   256</i>
   <i name="APACO">     16.00000000</i>
  </separator>
  <separator name="symmetry" >
   <i type="int" name="ISYM">     2</i>
   <i name="SYMPREC">      0.00000001</i>
  </separator>
  <separator name="dos" >
   <i type="int" name="LORBIT">     0</i>
   <v name="RWIGS">     -1.00000000     -1.00000000</v>
   <i type="int" name="NEDOS">   301</i>
   <i name="EMIN">     10.00000000</i>
   <i name="EMAX">    -10.00000000</i>
   <i name="EFERMI">      0.00000000</i>
  </separator>
  <separator name="writing" >
   <i type="int" name="NWRITE">     2</i>
   <i type="logical" name="LWAVE"> F  </i>
   <i type="logical" name="LDOWNSAMPLE"> F  </i>
   <i type="logical" name="LCHARG"> T  </i>
   <i type="logical" name="LPARD"> F  </i>
   <i type="logical" name="LVTOT"> F  </i>
   <i type="logical" name="LVHAR"> F  </i>
   <i type="logical" name="LELF"> F  </i>
   <i type="logical" name="LOPTICS"> F  </i>
   <v name="STM">      0.00000000      0.00000000      0.00000000      0.00000000      0.00000000      0.00000000      0.00000000</v>
  </separator>
  <separator name="performance" >
   <i type="int" name="NPAR">     8</i>
   <i type="int" name="NSIM">     4</i>
   <i type="int" name="NBLK">    -1</i>
   <i type="logical" name="LPLANE"> T  </i>
   <i type="logical" name="LSCALAPACK"> T  </i>
   <i type="logical" name="LSCAAWARE"> F  </i>
   <i type="logical" name="LSCALU"> F  </i>
   <i type="logical" name="LASYNC"> F  </i>
   <i type="logical" name="LORBITALREAL"> F  </i>
  </separator>
  <separator name="miscellaneous" >
   <i type="int" name="IDIOT">     3</i>
   <i type="int" name="ISPECIAL">     0</i>
   <i type="logical" name="LMUSIC"> F  </i>
   <v name="POMASS">    114.82000000     30.97400000</v>
   <v name="DARWINR">      0.00000000      0.00000000</v>
   <v name="DARWINV">      1.00000000      1.00000000</v>
   <i type="logical" name="LCORR"> T  </i>
  </separator>
  <i type="logical" name="GGA_COMPAT"> T  </i>
  <i type="logical" name="LBERRY"> F  </i>
  <i type="int" name="ICORELEVEL">     0</i>
  <i type="logical" name="LDAU"> F  </i>
  <i type="int" name="I_CONSTRAINED_M">     0</i>
  <separator name="electronic exchange-correlation" >
   <i type="string" name="GGA">--</i>
   <i type="int" name="VOSKOWN">     0</i>
   <i type="logical" name="LHFCALC"> F  </i>
   <i type="string" name="PRECFOCK"></i>
   <i type="logical" name="LSYMGRAD"> F  </i>
   <i type="logical" name="LHFONE"> F  </i>
   <i type="logical" name="LRHFCALC"> F  </i>
   <i type="logical" name="LTHOMAS"> F  </i>
   <i type="logical" name="LMODELHF"> F  </i>
   <i name="ENCUT4O">     -1.00000000</i>
   <i type="int" name="EXXOEP">     0</i>
   <i type="int" name="FOURORBIT">     0</i>
   <i name="AEXX">      0.00000000</i>
   <i name="HFALPHA">      0.00000000</i>
   <i name="MCALPHA">      0.00000000</i>
   <i name="ALDAX">      1.00000000</i>
   <i name="AGGAX">      1.00000000</i>
   <i name="ALDAC">      1.00000000</i>
   <i name="AGGAC">      1.00000000</i>
   <i type="int" name="NKREDX">     1</i>
   <i type="int" name="NKREDY">     1</i>
   <i type="int" name="NKREDZ">     1</i>
   <i type="logical" name="SHIFTRED"> F  </i>
   <i type="logical" name="ODDONLY"> F  </i>
   <i type="logical" name="EVENONLY"> F  </i>
   <i type="int" name="LMAXFOCK">     0</i>
   <i type="int" name="NMAXFOCKAE">     0</i>
   <i type="logical" name="LFOCKAEDFT"> F  </i>
   <i name="HFSCREEN">      0.00000000</i>
   <i name="HFSCREENC">      0.00000000</i>
   <i type="int" name="NBANDSGWLOW">     0</i>
  </separator>
  <separator name="vdW DFT" >
   <i type="logical" name="LUSE_VDW"> F  </i>
   <i name="Zab_VDW">     -0.84910000</i>
   <i name="PARAM1">      0.12340000</i>
   <i name="PARAM2">      1.00000000</i>
   <i name="PARAM3">      0.00000000</i>
  </separator>
  <separator name="model GW" >
   <i type="int" name="MODEL_GW">     0</i>
   <i name="MODEL_EPS0">     15.43440128</i>
   <i name="MODEL_ALPHA">      1.00000000</i>
  </separator>
  <separator name="linear response parameters" >
   <i type="logical" name="LEPSILON"> T  </i>
   <i type="logical" name="LRPA"> F  </i>
   <i type="logical" name="LNABLA"> F  </i>
   <i type="logical" name="LVEL"> F  </i>
   <i type="int" name="KINTER">     0</i>
   <i name="CSHIFT">      0.10000000</i>
   <i name="OMEGAMAX">     -1.00000000</i>
   <i name="DEG_THRESHOLD">      0.00200000</i>
   <i name="RTIME">     -0.10000000</i>
   <i name="WPLASMAI">      0.00000000</i>
   <v name="DFIELD">      0.00000000      0.00000000      0.00000000</v>
   <v name="WPLASMA">      0.00000000      0.00000000      0.00000000      0.00000000      0.00000000      0.00000000      0.00000000      0.00000000      0.00000000</v>
  </separator>
  <separator name="orbital magnetization" >
   <i type="logical" name="NUCIND"> F  </i>
   <v name="MAGPOS">      0.00000000      0.00000000      0.00000000</v>
   <i type="logical" name="LNICSALL"> T  </i>
   <i type="logical" name="ORBITALMAG"> F  </i>
   <i type="logical" name="LMAGBLOCH"> F  </i>
   <i type="logical" name="LCHIMAG"> F  </i>
   <i type="logical" name="LGAUGE"> T  </i>
   <i type="int" name="MAGATOM">     0</i>
   <v name="MAGDIPOL">      0.00000000      0.00000000      0.00000000</v>
   <v name="AVECCONST">      0.00000000      0.00000000      0.00000000</v>
  </separator>
  <separator name="response functions" >
   <i type="logical" name="LADDER"> F  </i>
   <i type="logical" name="LRPAFORCE"> F  </i>
   <i type="logical" name="LFXC"> F  </i>
   <i type="logical" name="LHARTREE"> T  </i>
   <i type="int" name="IBSE">     0</i>
   <v type="int" name="KPOINT">    -1     0     0     0</v>
   <i type="logical" name="LTCTE"> F  </i>
   <i type="logical" name="LTETE"> F  </i>
   <i type="logical" name="LTRIPLET"> F  </i>
   <i type="logical" name="LFXCEPS"> F  </i>
   <i type="logical" name="LFXHEG"> F  </i>
   <i type="int" name="NATURALO">     2</i>
   <i type="logical" name="L2ORDER"> F  </i>
   <i type="logical" name="LMP2LT"> F  </i>
   <i type="logical" name="LUSEW"> F  </i>
   <i name="ENCUTGW">     -2.00000000</i>
   <i name="ENCUTGWSOFT">     -2.00000000</i>
   <i name="ENCUTLF">     -1.00000000</i>
   <i type="int" name="LMAXMP2">    -1</i>
   <i name="SCISSOR">      0.00000000</i>
   <i type="int" name="NOMEGA">     0</i>
   <i type="int" name="NOMEGAR">     0</i>
   <i type="int" name="NBANDSGW">    -1</i>
   <i type="int" name="NBANDSO">    -1</i>
   <i type="int" name="NBANDSV">    -1</i>
   <i type="int" name="NELM">   100</i>
   <i type="int" name="NELMHF">     1</i>
   <i type="int" name="DIM">     3</i>
   <i type="int" name="ANTIRES">     0</i>
   <i name="OMEGAMAX">    -30.00000000</i>
   <i name="OMEGAMIN">    -30.00000000</i>
   <i name="OMEGATL">   -200.00000000</i>
   <i type="int" name="OMEGAGRID">   140</i>
   <i name="CSHIFT">     -0.10000000</i>
   <i type="logical" name="SELFENERGY"> F  </i>
   <i type="logical" name="LSPECTRAL"> F  </i>
   <i type="logical" name="LSPECTRALGW"> F  </i>
   <i type="logical" name="LSINGLES"> F  </i>
   <i type="logical" name="LFERMIGW"> F  </i>
   <i type="logical" name="ODDONLYGW"> F  </i>
   <i type="logical" name="EVENONLYGW"> F  </i>
   <i type="int" name="NKREDLFX">     1</i>
   <i type="int" name="NKREDLFY">     1</i>
   <i type="int" name="NKREDLFZ">     1</i>
   <i type="int" name="MAXMEM">  2800</i>
   <i type="int" name="TELESCOPE">     0</i>
   <i type="int" name="TAUPAR">     1</i>
   <i type="int" name="OMEGAPAR">    -1</i>
   <i name="LAMBDA">      1.00000000</i>
  </separator>
  <separator name="External order field" >
   <i name="OFIELD_KAPPA">      0.00000000</i>
   <v name="OFIELD_K">      0.00000000      0.00000000      0.00000000</v>
   <i name="OFIELD_Q6_NEAR">      0.00000000</i>
   <i name="OFIELD_Q6_FAR">      0.00000000</i>
   <i name="OFIELD_A">      0.00000000</i>
  </separator>
 </parameters>
 <atominfo>
  <atoms>       2 </atoms>
  <types>       2 </types>
  <array name="atoms" >
   <dimension dim="1">ion</dimension>
   <field type="string">element</field>
   <field type="int">atomtype</field>
   <set>
    <rc><c>In</c><c>   1</c></rc>
    <rc><c>P </c><c>   2</c></rc>
   </set>
  </array>
  <array name="atomtypes" >
   <dimension dim="1">type</dimension>
   <field type="int">atomspertype</field>
   <field type="string">element</field>
   <field>mass</field>
   <field>valence</field>
   <field type="string">pseudopotential</field>
   <set>
    <rc><c>   1</c><c>In</c><c>    114.82000000</c><c>     13.00000000</c><c>  PAW_PBE In_d 06Sep2000                </c></rc>
    <rc><c>   1</c><c>P </c><c>     30.97400000</c><c>      5.00000000</c><c>  PAW_PBE P 06Sep2000                   </c></rc>
   </set>
  </array>
 </atominfo>
 <structure name="initialpos" >
  <crystal>
   <varray name="basis" >
    <v>      -2.95197616       0.00000000       2.95197616 </v>
    <v>       0.00000000       2.95197616       2.95197616 </v>
    <v>      -2.95197616       2.95197616       0.00000000 </v>
   </varray>
   <i name="volume">     51.44800428 </i>
   <varray name="rec_basis" >
    <v>      -0.16937806      -0.16937806       0.16937806 </v>
    <v>       0.16937806       0.16937806       0.16937806 </v>
    <v>      -0.16937806       0.16937806      -0.16937806 </v>
   </varray>
  </crystal>
  <varray name="positions" >
   <v>       0.00000000       0.00000000       0.00000000 </v>
   <v>       0.25000002       0.25000010       0.24999994 </v>
  </varray>
 </structure>
 <calculation>
  <scstep>
   <time name="dav">    2.94    2.97</time>
   <time name="total">    2.96    2.99</time>
   <energy>
    <i name="alphaZ">     31.71722330 </i>
    <i name="ewald">  -1211.83934761 </i>
    <i name="hartreedc">   -558.38465625 </i>
    <i name="XCdc">     45.01060323 </i>
    <i name="pawpsdc">   1520.70025292 </i>
    <i name="pawaedc">  -1503.23157204 </i>
    <i name="eentropy">     -0.00005541 </i>
    <i name="bandstr">     35.60504482 </i>
    <i name="atom">   1752.86928457 </i>
    <i name="e_fr_energy">    112.44677753 </i>
    <i name="e_wo_entrp">    112.44683293 </i>
    <i name="e_0_energy">    112.44680523 </i>
   </energy>
  </scstep>
  <scstep>
   <time name="dav">    3.14    3.16</time>
   <time name="total">    3.14    3.16</time>
   <energy>
    <i name="e_fr_energy">     -1.21240396 </i>
    <i name="e_wo_entrp">     -1.21239355 </i>
    <i name="e_0_energy">     -1.21239876 </i>
   </energy>
  </scstep>
  <scstep>
   <time name="dav">    3.53    3.56</time>
   <time name="total">    3.53    3.56</time>
   <energy>
    <i name="e_fr_energy">     -8.60670003 </i>
    <i name="e_wo_entrp">     -8.60670003 </i>
    <i name="e_0_energy">     -8.60670003 </i>
   </energy>
  </scstep>
  <scstep>
   <time name="dav">    3.53    3.56</time>
   <time name="total">    3.53    3.56</time>
   <energy>
    <i name="e_fr_energy">     -8.80297595 </i>
    <i name="e_wo_entrp">     -8.80297595 </i>
    <i name="e_0_energy">     -8.80297595 </i>
   </energy>
  </scstep>
  <scstep>
   <time name="dav">    3.93    3.95</time>
   <time name="total">    4.23    4.25</time>
   <energy>
    <i name="e_fr_energy">     -8.81236153 </i>
    <i name="e_wo_entrp">     -8.81236153 </i>
    <i name="e_0_energy">     -8.81236153 </i>
   </energy>
  </scstep>
  <scstep>
   <time name="dav">    4.11    4.14</time>
   <time name="total">    4.43    4.47</time>
   <energy>
    <i name="e_fr_energy">     -8.42541280 </i>
    <i name="e_wo_entrp">     -8.42541280 </i>
    <i name="e_0_energy">     -8.42541280 </i>
   </energy>
  </scstep>
  <scstep>
   <time name="dav">    3.83    3.85</time>
   <time name="total">    4.16    4.18</time>
   <energy>
    <i name="e_fr_energy">     -8.39854791 </i>
    <i name="e_wo_entrp">     -8.39854791 </i>
    <i name="e_0_energy">     -8.39854791 </i>
   </energy>
  </scstep>
  <scstep>
   <time name="dav">    3.40    3.43</time>
   <time name="total">    3.73    3.76</time>
   <energy>
    <i name="e_fr_energy">     -8.39901127 </i>
    <i name="e_wo_entrp">     -8.39901127 </i>
    <i name="e_0_energy">     -8.39901127 </i>
   </energy>
  </scstep>
  <scstep>
   <time name="dav">    3.57    3.59</time>
   <time name="total">    3.89    3.92</time>
   <energy>
    <i name="e_fr_energy">     -8.39964101 </i>
    <i name="e_wo_entrp">     -8.39964101 </i>
    <i name="e_0_energy">     -8.39964101 </i>
   </energy>
  </scstep>
  <scstep>
   <time name="dav">    4.01    4.03</time>
   <time name="total">    4.33    4.35</time>
   <energy>
    <i name="e_fr_energy">     -8.39978429 </i>
    <i name="e_wo_entrp">     -8.39978429 </i>
    <i name="e_0_energy">     -8.39978429 </i>
   </energy>
  </scstep>
  <scstep>
   <time name="dav">    3.35    3.37</time>
   <time name="total">    3.67    3.69</time>
   <energy>
    <i name="e_fr_energy">     -8.39986109 </i>
    <i name="e_wo_entrp">     -8.39986109 </i>
    <i name="e_0_energy">     -8.39986109 </i>
   </energy>
  </scstep>
  <scstep>
   <time name="dav">    3.37    3.39</time>
   <time name="total">    3.70    3.72</time>
   <energy>
    <i name="e_fr_energy">     -8.39986079 </i>
    <i name="e_wo_entrp">     -8.39986079 </i>
    <i name="e_0_energy">     -8.39986079 </i>
   </energy>
  </scstep>
  <scstep>
   <time name="dav">    3.52    3.54</time>
   <time name="total">    3.85    3.87</time>
   <energy>
    <i name="e_fr_energy">     -8.39986119 </i>
    <i name="e_wo_entrp">     -8.39986119 </i>
    <i name="e_0_energy">     -8.39986119 </i>
   </energy>
  </scstep>
  <scstep>
   <time name="dav">    3.64    3.66</time>
   <time name="total">    3.96    3.98</time>
   <energy>
    <i name="e_fr_energy">     -8.39986138 </i>
    <i name="e_wo_entrp">     -8.39986138 </i>
    <i name="e_0_energy">     -8.39986138 </i>
   </energy>
  </scstep>
  <scstep>
   <time name="dav">    3.24    3.27</time>
   <time name="total">    3.56    3.59</time>
   <energy>
    <i name="e_fr_energy">     -8.39986140 </i>
    <i name="e_wo_entrp">     -8.39986140 </i>
    <i name="e_0_energy">     -8.39986140 </i>
   </energy>
  </scstep>
  <scstep>
   <time name="dav">    3.11    3.13</time>
   <time name="total">    3.13    3.15</time>
   <energy>
    <i name="alphaZ">     31.71722330 </i>
    <i name="ewald">  -1211.83934761 </i>
    <i name="hartreedc">   -555.13269169 </i>
    <i name="XCdc">     45.25735034 </i>
    <i name="pawpsdc">   2630.23923664 </i>
    <i name="pawaedc">  -2613.55142405 </i>
    <i name="eentropy">     -0.00000000 </i>
    <i name="bandstr">    -87.95949292 </i>
    <i name="atom">   1752.86928457 </i>
    <i name="e_fr_energy">     -8.39986141 </i>
    <i name="e_wo_entrp">     -8.39986141 </i>
    <i name="e_0_energy">     -8.39986141 </i>
   </energy>
  </scstep>
  <structure>
   <crystal>
    <varray name="basis" >
     <v>      -2.95197616       0.00000000       2.95197616 </v>
     <v>       0.00000000       2.95197616       2.95197616 </v>
     <v>      -2.95197616       2.95197616       0.00000000 </v>
    </varray>
    <i name="volume">     51.44800428 </i>
    <varray name="rec_basis" >
     <v>      -0.16937806      -0.16937806       0.16937806 </v>
     <v>       0.16937806       0.16937806       0.16937806 </v>
     <v>      -0.16937806       0.16937806      -0.16937806 </v>
    </varray>
   </crystal>
   <varray name="positions" >
    <v>       0.00000000       0.00000000       0.00000000 </v>
    <v>       0.25000002       0.25000010       0.24999994 </v>
   </varray>
  </structure>
  <varray name="forces" >
   <v>       0.00000098       0.00000098       0.00000120 </v>
   <v>      -0.00000098      -0.00000098      -0.00000120 </v>
  </varray>
  <varray name="stress" >
   <v>      17.42236923      -0.00009121       0.00002782 </v>
   <v>      -0.00009121      17.42236923       0.00002782 </v>
   <v>       0.00002830       0.00002830      17.42237176 </v>
  </varray>
  <energy>
   <i name="e_fr_energy">     -8.39986141 </i>
   <i name="e_wo_entrp">     -8.39986141 </i>
   <i name="e_0_energy">     -0.00000000 </i>
  </energy>
  <scstep>
   <time name="total">    3.33    3.33</time>
   <energy>
    <i name="e_fr_energy">     -1.15003682 </i>
    <i name="e_wo_entrp">     -1.15003682 </i>
    <i name="e_0_energy">     -1.15003682 </i>
   </energy>
  </scstep>
  <scstep>
   <time name="total">    3.35    3.35</time>
   <energy>
    <i name="e_fr_energy">     -1.39760360 </i>
    <i name="e_wo_entrp">     -1.39760360 </i>
    <i name="e_0_energy">     -1.39760360 </i>
   </energy>
  </scstep>
  <scstep>
   <time name="total">    3.56    3.57</time>
   <energy>
    <i name="e_fr_energy">     -1.39964464 </i>
    <i name="e_wo_entrp">     -1.39964464 </i>
    <i name="e_0_energy">     -1.39964464 </i>
   </energy>
  </scstep>
  <scstep>
   <time name="total">    3.49    3.49</time>
   <energy>
    <i name="e_fr_energy">     -1.39974831 </i>
    <i name="e_wo_entrp">     -1.39974831 </i>
    <i name="e_0_energy">     -1.39974831 </i>
   </energy>
  </scstep>
  <scstep>
   <time name="total">    3.68    3.68</time>
   <energy>
    <i name="e_fr_energy">     -1.39975545 </i>
    <i name="e_wo_entrp">     -1.39975545 </i>
    <i name="e_0_energy">     -1.39975545 </i>
   </energy>
  </scstep>
  <scstep>
   <time name="total">    3.63    3.63</time>
   <energy>
    <i name="e_fr_energy">     -1.39975575 </i>
    <i name="e_wo_entrp">     -1.39975575 </i>
    <i name="e_0_energy">     -1.39975575 </i>
   </energy>
  </scstep>
  <scstep>
   <time name="total">    3.56    3.56</time>
   <energy>
    <i name="e_fr_energy">     -1.39975589 </i>
    <i name="e_wo_entrp">     -1.39975589 </i>
    <i name="e_0_energy">     -1.39975589 </i>
   </energy>
  </scstep>
  <scstep>
   <time name="total">    2.87    2.87</time>
   <energy>
    <i name="e_fr_energy">     -1.39975588 </i>
    <i name="e_wo_entrp">     -1.39975588 </i>
    <i name="e_0_energy">     -1.39975588 </i>
   </energy>
  </scstep>
  <scstep>
   <time name="total">    2.85    2.85</time>
   <energy>
    <i name="e_fr_energy">     -1.39975589 </i>
    <i name="e_wo_entrp">     -1.39975589 </i>
    <i name="e_0_energy">     -1.39975589 </i>
   </energy>
  </scstep>
  <scstep>
   <time name="total">    2.58    2.58</time>
   <energy>
    <i name="e_fr_energy">     -1.39975589 </i>
    <i name="e_wo_entrp">     -1.39975589 </i>
    <i name="e_0_energy">     -1.39975589 </i>
   </energy>
  </scstep>
  <scstep>
   <time name="total">    3.32    3.32</time>
   <energy>
    <i name="e_fr_energy">     -1.31858346 </i>
    <i name="e_wo_entrp">     -1.31858346 </i>
    <i name="e_0_energy">     -1.31858346 </i>
   </energy>
  </scstep>
  <scstep>
   <time name="total">    3.33    3.33</time>
   <energy>
    <i name="e_fr_energy">     -1.61797742 </i>
    <i name="e_wo_entrp">     -1.61797742 </i>
    <i name="e_0_energy">     -1.61797742 </i>
   </energy>
  </scstep>
  <scstep>
   <time name="total">    3.61    3.61</time>
   <energy>
    <i name="e_fr_energy">     -1.62014449 </i>
    <i name="e_wo_entrp">     -1.62014449 </i>
    <i name="e_0_energy">     -1.62014449 </i>
   </energy>
  </scstep>
  <scstep>
   <time name="total">    3.49    3.49</time>
   <energy>
    <i name="e_fr_energy">     -1.62027055 </i>
    <i name="e_wo_entrp">     -1.62027055 </i>
    <i name="e_0_energy">     -1.62027055 </i>
   </energy>
  </scstep>
  <scstep>
   <time name="total">    3.74    3.75</time>
   <energy>
    <i name="e_fr_energy">     -1.62027853 </i>
    <i name="e_wo_entrp">     -1.62027853 </i>
    <i name="e_0_energy">     -1.62027853 </i>
   </energy>
  </scstep>
  <scstep>
   <time name="total">    3.64    3.64</time>
   <energy>
    <i name="e_fr_energy">     -1.62027889 </i>
    <i name="e_wo_entrp">     -1.62027889 </i>
    <i name="e_0_energy">     -1.62027889 </i>
   </energy>
  </scstep>
  <scstep>
   <time name="total">    3.66    3.66</time>
   <energy>
    <i name="e_fr_energy">     -1.62027903 </i>
    <i name="e_wo_entrp">     -1.62027903 </i>
    <i name="e_0_energy">     -1.62027903 </i>
   </energy>
  </scstep>
  <scstep>
   <time name="total">    2.94    2.94</time>
   <energy>
    <i name="e_fr_energy">     -1.62027902 </i>
    <i name="e_wo_entrp">     -1.62027902 </i>
    <i name="e_0_energy">     -1.62027902 </i>
   </energy>
  </scstep>
  <scstep>
   <time name="total">    3.01    3.01</time>
   <energy>
    <i name="e_fr_energy">     -1.62027903 </i>
    <i name="e_wo_entrp">     -1.62027903 </i>
    <i name="e_0_energy">     -1.62027903 </i>
   </energy>
  </scstep>
  <scstep>
   <time name="total">    2.73    2.73</time>
   <energy>
    <i name="e_fr_energy">     -1.62027903 </i>
    <i name="e_wo_entrp">     -1.62027903 </i>
    <i name="e_0_energy">     -1.62027903 </i>
   </energy>
  </scstep>
  <scstep>
   <time name="total">    3.32    3.32</time>
   <energy>
    <i name="e_fr_energy">     -1.23606603 </i>
    <i name="e_wo_entrp">     -1.23606603 </i>
    <i name="e_0_energy">     -1.23606603 </i>
   </energy>
  </scstep>
  <scstep>
   <time name="total">    3.34    3.34</time>
   <energy>
    <i name="e_fr_energy">     -1.50742985 </i>
    <i name="e_wo_entrp">     -1.50742985 </i>
    <i name="e_0_energy">     -1.50742985 </i>
   </energy>
  </scstep>
  <scstep>
   <time name="total">    3.58    3.58</time>
   <energy>
    <i name="e_fr_energy">     -1.50957901 </i>
    <i name="e_wo_entrp">     -1.50957901 </i>
    <i name="e_0_energy">     -1.50957901 </i>
   </energy>
  </scstep>
  <scstep>
   <time name="total">    3.54    3.54</time>
   <energy>
    <i name="e_fr_energy">     -1.50969428 </i>
    <i name="e_wo_entrp">     -1.50969428 </i>
    <i name="e_0_energy">     -1.50969428 </i>
   </energy>
  </scstep>
  <scstep>
   <time name="total">    3.65    3.65</time>
   <energy>
    <i name="e_fr_energy">     -1.50970213 </i>
    <i name="e_wo_entrp">     -1.50970213 </i>
    <i name="e_0_energy">     -1.50970213 </i>
   </energy>
  </scstep>
  <scstep>
   <time name="total">    3.65    3.65</time>
   <energy>
    <i name="e_fr_energy">     -1.50970240 </i>
    <i name="e_wo_entrp">     -1.50970240 </i>
    <i name="e_0_energy">     -1.50970240 </i>
   </energy>
  </scstep>
  <scstep>
   <time name="total">    3.56    3.56</time>
   <energy>
    <i name="e_fr_energy">     -1.50970259 </i>
    <i name="e_wo_entrp">     -1.50970259 </i>
    <i name="e_0_energy">     -1.50970259 </i>
   </energy>
  </scstep>
  <scstep>
   <time name="total">    2.87    2.87</time>
   <energy>
    <i name="e_fr_energy">     -1.50970257 </i>
    <i name="e_wo_entrp">     -1.50970257 </i>
    <i name="e_0_energy">     -1.50970257 </i>
   </energy>
  </scstep>
  <scstep>
   <time name="total">    2.84    2.84</time>
   <energy>
    <i name="e_fr_energy">     -1.50970259 </i>
    <i name="e_wo_entrp">     -1.50970259 </i>
    <i name="e_0_energy">     -1.50970259 </i>
   </energy>
  </scstep>
  <scstep>
   <time name="total">    2.56    2.56</time>
   <energy>
    <i name="e_fr_energy">     -1.50970259 </i>
    <i name="e_wo_entrp">     -1.50970259 </i>
    <i name="e_0_energy">     -1.50970259 </i>
   </energy>
  </scstep>
  <varray name="epsilon_rpa" >
   <v>      11.62207460      -0.00515089      -0.00007811 </v>
   <v>      -0.00515089      11.62207460      -0.00007811 </v>
   <v>       0.00007767       0.00007767      11.61985977 </v>
  </varray>
  <kpoints>
   <generation param="Gamma">
    <v type="int" name="divisions">      12       12       12 </v>
    <v name="usershift">      0.00000000       0.00000000       0.00000000 </v>
    <v name="genvec1">      0.08333333       0.00000000       0.00000000 </v>
    <v name="genvec2">      0.00000000       0.08333333      -0.00000000 </v>
    <v name="genvec3">     -0.00000000      -0.00000000       0.08333333 </v>
    <v name="shift">      0.00000000       0.00000000       0.00000000 </v>
   </generation>
   <varray name="kpointlist" >
    <v>       0.00000000       0.00000000       0.00000000 </v>
    <v>       0.08333333      -0.00000000      -0.00000000 </v>
    <v>       0.16666667      -0.00000000      -0.00000000 </v>
    <v>       0.25000000       0.00000000       0.00000000 </v>
    <v>       0.33333333      -0.00000000      -0.00000000 </v>
    <v>       0.41666667       0.00000000       0.00000000 </v>
    <v>       0.50000000       0.00000000       0.00000000 </v>
    <v>      -0.00000000       0.08333333       0.00000000 </v>
    <v>       0.08333333       0.08333333       0.00000000 </v>
    <v>       0.16666667       0.08333333       0.00000000 </v>
    <v>       0.25000000       0.08333333      -0.00000000 </v>
    <v>       0.33333333       0.08333333       0.00000000 </v>
    <v>       0.41666667       0.08333333      -0.00000000 </v>
    <v>       0.50000000       0.08333333       0.00000000 </v>
    <v>      -0.41666667       0.08333333      -0.00000000 </v>
    <v>      -0.33333333       0.08333333       0.00000000 </v>
    <v>      -0.25000000       0.08333333       0.00000000 </v>
    <v>      -0.16666667       0.08333333      -0.00000000 </v>
    <v>      -0.08333333       0.08333333       0.00000000 </v>
    <v>       0.00000000       0.16666667       0.00000000 </v>
    <v>       0.08333333       0.16666667       0.00000000 </v>
    <v>       0.16666667       0.16666667       0.00000000 </v>
    <v>       0.25000000       0.16666667       0.00000000 </v>
    <v>       0.33333333       0.16666667       0.00000000 </v>
    <v>       0.41666667       0.16666667       0.00000000 </v>
    <v>       0.50000000       0.16666667      -0.00000000 </v>
    <v>      -0.41666667       0.16666667       0.00000000 </v>
    <v>      -0.33333333       0.16666667      -0.00000000 </v>
    <v>      -0.25000000       0.16666667       0.00000000 </v>
    <v>      -0.16666667       0.16666667       0.00000000 </v>
    <v>      -0.08333333       0.16666667      -0.00000000 </v>
    <v>       0.00000000       0.25000000      -0.00000000 </v>
    <v>       0.08333333       0.25000000       0.00000000 </v>
    <v>       0.16666667       0.25000000       0.00000000 </v>
    <v>       0.25000000       0.25000000       0.00000000 </v>
    <v>       0.33333333       0.25000000       0.00000000 </v>
    <v>       0.41666667       0.25000000       0.00000000 </v>
    <v>       0.50000000       0.25000000       0.00000000 </v>
    <v>      -0.41666667       0.25000000       0.00000000 </v>
    <v>      -0.33333333       0.25000000       0.00000000 </v>
    <v>      -0.25000000       0.25000000      -0.00000000 </v>
    <v>      -0.16666667       0.25000000       0.00000000 </v>
    <v>      -0.08333333       0.25000000       0.00000000 </v>
    <v>      -0.00000000       0.33333333       0.00000000 </v>
    <v>       0.08333333       0.33333333      -0.00000000 </v>
    <v>       0.16666667       0.33333333       0.00000000 </v>
    <v>       0.25000000       0.33333333       0.00000000 </v>
    <v>       0.33333333       0.33333333       0.00000000 </v>
    <v>       0.41666667       0.33333333       0.00000000 </v>
    <v>       0.50000000       0.33333333       0.00000000 </v>
    <v>      -0.41666667       0.33333333       0.00000000 </v>
    <v>      -0.33333333       0.33333333       0.00000000 </v>
    <v>      -0.25000000       0.33333333       0.00000000 </v>
    <v>      -0.16666667       0.33333333      -0.00000000 </v>
    <v>      -0.08333333       0.33333333      -0.00000000 </v>
    <v>       0.00000000       0.41666667       0.00000000 </v>
    <v>       0.08333333       0.41666667       0.00000000 </v>
    <v>       0.16666667       0.41666667      -0.00000000 </v>
    <v>       0.25000000       0.41666667       0.00000000 </v>
    <v>       0.33333333       0.41666667       0.00000000 </v>
    <v>       0.41666667       0.41666667       0.00000000 </v>
    <v>       0.50000000       0.41666667       0.00000000 </v>
    <v>      -0.41666667       0.41666667       0.00000000 </v>
    <v>      -0.33333333       0.41666667       0.00000000 </v>
    <v>      -0.25000000       0.41666667       0.00000000 </v>
    <v>      -0.16666667       0.41666667       0.00000000 </v>
    <v>      -0.08333333       0.41666667      -0.00000000 </v>
    <v>       0.00000000       0.50000000      -0.00000000 </v>
    <v>       0.08333333       0.50000000       0.00000000 </v>
    <v>       0.16666667       0.50000000       0.00000000 </v>
    <v>       0.25000000       0.50000000       0.00000000 </v>
    <v>       0.33333333       0.50000000       0.00000000 </v>
    <v>       0.41666667       0.50000000       0.00000000 </v>
    <v>       0.50000000       0.50000000       0.00000000 </v>
    <v>       0.00000000       0.00000000       0.08333333 </v>
    <v>       0.08333333       0.00000000       0.08333333 </v>
    <v>       0.16666667       0.00000000       0.08333333 </v>
    <v>       0.25000000       0.00000000       0.08333333 </v>
[...]
       <r>   11.1057    0.0000 </r>
       <r>   11.5803    0.0000 </r>
       <r>   14.2959    0.0000 </r>
       <r>   15.6699    0.0000 </r>
       <r>   16.8178    0.0000 </r>
      </set>
      <set comment="kpoint 471">
       <r>   -9.3115    1.0000 </r>
       <r>   -9.1424    1.0000 </r>
       <r>   -9.1286    1.0000 </r>
       <r>   -9.0636    1.0000 </r>
       <r>   -9.0330    1.0000 </r>
       <r>   -4.7062    1.0000 </r>
       <r>   -0.0780    1.0000 </r>
       <r>    2.5408    1.0000 </r>
       <r>    3.3899    1.0000 </r>
       <r>    7.8768    0.0000 </r>
       <r>    9.1713    0.0000 </r>
       <r>   10.4155    0.0000 </r>
       <r>   11.6394    0.0000 </r>
       <r>   13.8830    0.0000 </r>
       <r>   16.0779    0.0000 </r>
       <r>   16.1106    0.0000 </r>
      </set>
      <set comment="kpoint 472">
       <r>   -9.3003    1.0000 </r>
       <r>   -9.1485    1.0000 </r>
       <r>   -9.1359    1.0000 </r>
       <r>   -9.0570    1.0000 </r>
       <r>   -9.0393    1.0000 </r>
       <r>   -4.8379    1.0000 </r>
       <r>    0.1434    1.0000 </r>
       <r>    2.3607    1.0000 </r>
       <r>    3.7458    1.0000 </r>
       <r>    8.0883    0.0000 </r>
       <r>    9.3935    0.0000 </r>
       <r>   10.1532    0.0000 </r>
       <r>   11.3991    0.0000 </r>
       <r>   13.2507    0.0000 </r>
       <r>   15.4410    0.0000 </r>
       <r>   16.4720    0.0000 </r>
      </set>
      <set comment="kpoint 473">
       <r>   -9.2955    1.0000 </r>
       <r>   -9.1483    1.0000 </r>
       <r>   -9.1414    1.0000 </r>
       <r>   -9.0512    1.0000 </r>
       <r>   -9.0453    1.0000 </r>
       <r>   -4.8842    1.0000 </r>
       <r>    0.2523    1.0000 </r>
       <r>    2.2150    1.0000 </r>
       <r>    3.9598    1.0000 </r>
       <r>    7.9059    0.0000 </r>
       <r>    9.9786    0.0000 </r>
       <r>   10.4889    0.0000 </r>
       <r>   10.5653    0.0000 </r>
       <r>   13.0398    0.0000 </r>
       <r>   15.2386    0.0000 </r>
       <r>   16.7072    0.0000 </r>
      </set>
      <set comment="kpoint 474">
       <r>   -9.3292    1.0000 </r>
       <r>   -9.1316    1.0000 </r>
       <r>   -9.1119    1.0000 </r>
       <r>   -9.0705    1.0000 </r>
       <r>   -9.0320    1.0000 </r>
       <r>   -4.3011    1.0000 </r>
       <r>   -0.4319    1.0000 </r>
       <r>    2.0127    1.0000 </r>
       <r>    2.9960    1.0000 </r>
       <r>    7.7651    0.0000 </r>
       <r>    9.3000    0.0000 </r>
       <r>   10.9292    0.0000 </r>
       <r>   12.4596    0.0000 </r>
       <r>   13.6330    0.0000 </r>
       <r>   15.8017    0.0000 </r>
       <r>   16.6735    0.0000 </r>
      </set>
      <set comment="kpoint 475">
       <r>   -9.3314    1.0000 </r>
       <r>   -9.1339    1.0000 </r>
       <r>   -9.1042    1.0000 </r>
       <r>   -9.0698    1.0000 </r>
       <r>   -9.0348    1.0000 </r>
       <r>   -4.1309    1.0000 </r>
       <r>   -0.5243    1.0000 </r>
       <r>    1.9228    1.0000 </r>
       <r>    2.5285    1.0000 </r>
       <r>    8.5491    0.0000 </r>
       <r>    9.3109    0.0000 </r>
       <r>   10.6310    0.0000 </r>
       <r>   11.8734    0.0000 </r>
       <r>   14.2199    0.0000 </r>
       <r>   16.1478    0.0000 </r>
       <r>   16.5514    0.0000 </r>
      </set>
      <set comment="kpoint 476">
       <r>   -9.3316    1.0000 </r>
       <r>   -9.1353    1.0000 </r>
       <r>   -9.1017    1.0000 </r>
       <r>   -9.0689    1.0000 </r>
       <r>   -9.0362    1.0000 </r>
       <r>   -4.0646    1.0000 </r>
       <r>   -0.5577    1.0000 </r>
       <r>    2.0911    1.0000 </r>
       <r>    2.1388    1.0000 </r>
       <r>    9.2410    0.0000 </r>
       <r>    9.2421    0.0000 </r>
       <r>   10.4682    0.0000 </r>
       <r>   11.1663    0.0000 </r>
       <r>   14.9701    0.0000 </r>
       <r>   16.1706    0.0000 </r>
       <r>   16.8846    0.0000 </r>
      </set>
     </set>
    </set>
   </array>
  </eigenvalues>
  <separator name="orbital magnetization" >
   <v name="MAGDIPOLOUT">      0.00000000      0.00000000      0.00000000</v>
  </separator>
  <dos>
   <i name="efermi">      5.02200436 </i>
   <total>
    <array>
     <dimension dim="1">gridpoints</dimension>
     <dimension dim="2">spin</dimension>
     <field>energy</field>
     <field>total</field>
     <field>integrated</field>
     <set>
      <set comment="spin 1">
       <r>   -10.7397     0.0000     0.0000 </r>
       <r>   -10.6388     0.0000     0.0000 </r>
       <r>   -10.5378     0.0000     0.0000 </r>
       <r>   -10.4369     0.0000     0.0000 </r>
       <r>   -10.3359     0.0000     0.0000 </r>
       <r>   -10.2350     0.0000     0.0000 </r>
       <r>   -10.1340     0.0000     0.0000 </r>
       <r>   -10.0331     0.0000     0.0000 </r>
       <r>    -9.9321     0.0000     0.0000 </r>
       <r>    -9.8311     0.0000     0.0000 </r>
       <r>    -9.7302     0.0000     0.0000 </r>
       <r>    -9.6292     0.0000     0.0000 </r>
       <r>    -9.5283     0.0000     0.0000 </r>
       <r>    -9.4273     0.0000     0.0000 </r>
       <r>    -9.3264     4.9251     0.4972 </r>
       <r>    -9.2254     8.2611     1.9417 </r>
       <r>    -9.1244    28.7903     4.8961 </r>
       <r>    -9.0235    39.5225     9.7957 </r>
       <r>    -8.9225     0.0000    10.0000 </r>
       <r>    -8.8216     0.0000    10.0000 </r>
       <r>    -8.7206     0.0000    10.0000 </r>
       <r>    -8.6197     0.0000    10.0000 </r>
       <r>    -8.5187     0.0000    10.0000 </r>
       <r>    -8.4178     0.0000    10.0000 </r>
       <r>    -8.3168     0.0000    10.0000 </r>
       <r>    -8.2158     0.0000    10.0000 </r>
       <r>    -8.1149     0.0000    10.0000 </r>
       <r>    -8.0139     0.0000    10.0000 </r>
       <r>    -7.9130     0.0000    10.0000 </r>
       <r>    -7.8120     0.0000    10.0000 </r>
       <r>    -7.7111     0.0000    10.0000 </r>
       <r>    -7.6101     0.0000    10.0000 </r>
       <r>    -7.5092     0.0000    10.0000 </r>
       <r>    -7.4082     0.0000    10.0000 </r>
       <r>    -7.3072     0.0000    10.0000 </r>
       <r>    -7.2063     0.0000    10.0000 </r>
       <r>    -7.1053     0.0000    10.0000 </r>
       <r>    -7.0044     0.0000    10.0000 </r>
       <r>    -6.9034     0.0000    10.0000 </r>
       <r>    -6.8025     0.0000    10.0000 </r>
       <r>    -6.7015     0.0000    10.0000 </r>
       <r>    -6.6005     0.0000    10.0000 </r>
       <r>    -6.4996     0.0000    10.0000 </r>
       <r>    -6.3986     0.0114    10.0012 </r>
       <r>    -6.2977     0.1601    10.0173 </r>
       <r>    -6.1967     0.1368    10.0312 </r>
       <r>    -6.0958     0.3667    10.0683 </r>
       <r>    -5.9948     0.0687    10.0752 </r>
       <r>    -5.8939     0.5503    10.1308 </r>
       <r>    -5.7929     0.2752    10.1586 </r>
       <r>    -5.6919     0.3669    10.1956 </r>
       <r>    -5.5910     0.1976    10.2155 </r>
       <r>    -5.4900     0.3439    10.2998 </r>
       <r>    -5.3891     0.6811    10.3685 </r>
       <r>    -5.2881     0.0917    10.3924 </r>
       <r>    -5.1872     0.8292    10.4761 </r>
       <r>    -5.0862     0.6548    10.5974 </r>
       <r>    -4.9853     0.3035    10.6452 </r>
       <r>    -4.8843     0.4350    10.7210 </r>
       <r>    -4.7833     1.7866    10.9084 </r>
       <r>    -4.6824     1.1004    11.0382 </r>
       <r>    -4.5814     1.0965    11.1489 </r>
       <r>    -4.4805     1.9420    11.3454 </r>
       <r>    -4.3795     0.7602    11.4761 </r>
       <r>    -4.2786     1.4468    11.6634 </r>
       <r>    -4.1776     0.8191    11.8084 </r>
       <r>    -4.0767     1.2493    11.9907 </r>
       <r>    -3.9757     0.0000    12.0000 </r>
       <r>    -3.8747     0.0000    12.0000 </r>
       <r>    -3.7738     0.0000    12.0000 </r>
       <r>    -3.6728     0.0000    12.0000 </r>
       <r>    -3.5719     0.0000    12.0000 </r>
       <r>    -3.4709     0.0000    12.0000 </r>
       <r>    -3.3700     0.0000    12.0000 </r>
       <r>    -3.2690     0.0000    12.0000 </r>
       <r>    -3.1680     0.0000    12.0000 </r>
       <r>    -3.0671     0.0000    12.0000 </r>
       <r>    -2.9661     0.0000    12.0000 </r>
       <r>    -2.8652     0.0000    12.0000 </r>
       <r>    -2.7642     0.0000    12.0000 </r>
       <r>    -2.6633     0.0000    12.0000 </r>
       <r>    -2.5623     0.0000    12.0000 </r>
       <r>    -2.4614     0.0000    12.0000 </r>
       <r>    -2.3604     0.0000    12.0000 </r>
       <r>    -2.2594     0.0000    12.0000 </r>
       <r>    -2.1585     0.0000    12.0000 </r>
       <r>    -2.0575     0.0000    12.0000 </r>
       <r>    -1.9566     0.0000    12.0000 </r>
       <r>    -1.8556     0.0000    12.0000 </r>
       <r>    -1.7547     0.0000    12.0000 </r>
       <r>    -1.6537     0.0000    12.0000 </r>
       <r>    -1.5528     0.0000    12.0000 </r>
       <r>    -1.4518     0.0000    12.0000 </r>
       <r>    -1.3508     0.0000    12.0000 </r>
       <r>    -1.2499     0.0000    12.0000 </r>
       <r>    -1.1489     0.0000    12.0000 </r>
       <r>    -1.0480     0.0000    12.0000 </r>
       <r>    -0.9470     0.0000    12.0000 </r>
       <r>    -0.8461     0.0000    12.0000 </r>
       <r>    -0.7451     0.0000    12.0000 </r>
       <r>    -0.6441     0.2448    12.0247 </r>
       <r>    -0.5432     1.8561    12.2233 </r>
       <r>    -0.4422     2.4465    12.5537 </r>
       <r>    -0.3413     1.5896    12.7867 </r>
       <r>    -0.2403     1.4322    12.9536 </r>
       <r>    -0.1394     0.2751    13.0035 </r>
       <r>    -0.0384     1.6402    13.1691 </r>
       <r>     0.0625     0.2751    13.1979 </r>
       <r>     0.1635     0.9291    13.2917 </r>
       <r>     0.2645     0.2692    13.3640 </r>
       <r>     0.3654     0.0000    13.3785 </r>
       <r>     0.4664     0.7319    13.4524 </r>
       <r>     0.5673     0.0686    13.4780 </r>
       <r>     0.6683     0.5503    13.5336 </r>
       <r>     0.7692     0.2752    13.5613 </r>
       <r>     0.8702     0.5503    13.6169 </r>
       <r>     0.9711     0.1779    13.6349 </r>
       <r>     1.0721     0.2751    13.6725 </r>
       <r>     1.1731     0.2749    13.7002 </r>
       <r>     1.2740     0.0000    13.7002 </r>
       <r>     1.3750     0.2630    13.7268 </r>
       <r>     1.4759     0.5503    13.7836 </r>
       <r>     1.5769     0.1589    13.7996 </r>
       <r>     1.6778     0.1862    13.8255 </r>
       <r>     1.7788     0.0144    13.8290 </r>
       <r>     1.8798     0.6769    13.9792 </r>
       <r>     1.9807     1.3752    14.1331 </r>
       <r>     2.0817     1.4690    14.3092 </r>
       <r>     2.1826     0.8942    14.4109 </r>
       <r>     2.2836     1.5001    14.5623 </r>
       <r>     2.3845     1.9258    14.7581 </r>
       <r>     2.4855     0.5503    14.8137 </r>
       <r>     2.5864     1.8135    14.9967 </r>
       <r>     2.6874     0.7572    15.0845 </r>
       <r>     2.7884     1.4547    15.3286 </r>
       <r>     2.8893     1.9233    15.5310 </r>
       <r>     2.9903     1.3316    15.6657 </r>
       <r>     3.0912     0.8768    15.8975 </r>
       <r>     3.1922     1.7884    16.1007 </r>
       <r>     3.2931     0.9489    16.1965 </r>
       <r>     3.3941     1.5047    16.4054 </r>
       <r>     3.4950     1.0294    16.5518 </r>
       <r>     3.5960     1.7286    16.7891 </r>
       <r>     3.6970     0.5340    16.8768 </r>
       <r>     3.7979     2.3335    17.1141 </r>
       <r>     3.8989     1.1418    17.2437 </r>
       <r>     3.9998     1.4942    17.4182 </r>
       <r>     4.1008     0.8254    17.5475 </r>
       <r>     4.2017     0.6800    17.6161 </r>
       <r>     4.3027     1.1004    17.7465 </r>
       <r>     4.4036     0.0137    17.7479 </r>
       <r>     4.5046     0.9635    17.8623 </r>
       <r>     4.6056     0.2751    17.9039 </r>
       <r>     4.7065     0.5163    17.9561 </r>
       <r>     4.8075     0.0000    17.9641 </r>
       <r>     4.9084     0.3210    17.9965 </r>
       <r>     5.0094     0.0344    18.0000 </r>
       <r>     5.1103     0.0000    18.0000 </r>
       <r>     5.2113     0.0000    18.0000 </r>
       <r>     5.3123     0.0000    18.0000 </r>
       <r>     5.4132     0.0000    18.0000 </r>
       <r>     5.5142     0.0000    18.0000 </r>
       <r>     5.6151     0.0115    18.0012 </r>
       <r>     5.7161     0.0000    18.0012 </r>
       <r>     5.8170     0.0000    18.0012 </r>
       <r>     5.9180     0.0000    18.0012 </r>
       <r>     6.0189     0.0000    18.0012 </r>
       <r>     6.1199     0.0000    18.0012 </r>
       <r>     6.2209     0.0132    18.0025 </r>
       <r>     6.3218     0.0000    18.0104 </r>
       <r>     6.4228     0.0466    18.0151 </r>
       <r>     6.5237     0.0688    18.0313 </r>
       <r>     6.6247     0.0917    18.0405 </r>
       <r>     6.7256     0.2574    18.0665 </r>
       <r>     6.8266     0.1029    18.0833 </r>
       <r>     6.9275     0.8237    18.1665 </r>
       <r>     7.0285     0.3011    18.2526 </r>
       <r>     7.1295     0.9673    18.3824 </r>
       <r>     7.2304     0.4434    18.4545 </r>
       <r>     7.3314     0.2803    18.4832 </r>
       <r>     7.4323     0.4682    18.5577 </r>
       <r>     7.5333     3.1787    18.8938 </r>
       <r>     7.6342     1.5849    19.1357 </r>
       <r>     7.7352     1.3984    19.2974 </r>
       <r>     7.8362     1.1694    19.4410 </r>
       <r>     7.9371     2.5658    19.7000 </r>
       <r>     8.0381     0.6612    19.7716 </r>
       <r>     8.1390     1.5562    19.9800 </r>
       <r>     8.2400     0.0603    20.0026 </r>
       <r>     8.3409     0.5586    20.0668 </r>
       <r>     8.4419     0.2852    20.1364 </r>
       <r>     8.5428     1.5815    20.3229 </r>
       <r>     8.6438     1.3487    20.5355 </r>
       <r>     8.7448     0.8939    20.6285 </r>
       <r>     8.8457     0.0001    20.6285 </r>
       <r>     8.9467     0.5502    20.6840 </r>
       <r>     9.0476     0.4371    20.7282 </r>
       <r>     9.1486     0.3692    20.7664 </r>
       <r>     9.2495     1.8725    20.9831 </r>
       <r>     9.3505     4.6750    21.4789 </r>
       <r>     9.4514     1.4679    21.6274 </r>
       <r>     9.5524     0.8361    21.7302 </r>
       <r>     9.6534     0.5573    21.8132 </r>
       <r>     9.7543     1.7856    22.0067 </r>
       <r>     9.8553     1.2082    22.1845 </r>
       <r>     9.9562     0.5507    22.2662 </r>
       <r>    10.0572     1.2406    22.4053 </r>
       <r>    10.1581     1.5207    22.6142 </r>
       <r>    10.2591     1.6985    22.8266 </r>
       <r>    10.3600     1.6610    23.0265 </r>
       <r>    10.4610     1.2142    23.2314 </r>
       <r>    10.5620     0.7315    23.3840 </r>
       <r>    10.6629     1.3430    23.5291 </r>
       <r>    10.7639     1.3757    23.6713 </r>
       <r>    10.8648     1.4469    23.8174 </r>
       <r>    10.9658     1.3769    23.9770 </r>
       <r>    11.0667     0.5502    24.0880 </r>
       <r>    11.1677     0.4059    24.1289 </r>
       <r>    11.2687     0.8843    24.2212 </r>
       <r>    11.3696     0.2759    24.3126 </r>
       <r>    11.4706     0.5511    24.3959 </r>
       <r>    11.5715     1.3270    24.5576 </r>
       <r>    11.6725     0.8382    24.6749 </r>
       <r>    11.7734     0.9211    24.7805 </r>
       <r>    11.8744     0.4659    24.8318 </r>
       <r>    11.9753     1.7405    25.0322 </r>
       <r>    12.0763     1.6142    25.2417 </r>
       <r>    12.1773     0.5537    25.3059 </r>
       <r>    12.2782     0.8132    25.4154 </r>
       <r>    12.3792     1.0130    25.5259 </r>
       <r>    12.4801     0.9587    25.6315 </r>
       <r>    12.5811     0.6191    25.6944 </r>
       <r>    12.6820     1.3240    25.8281 </r>
       <r>    12.7830     0.8631    25.9344 </r>
       <r>    12.8839     1.2163    26.0811 </r>
       <r>    12.9849     1.3563    26.2203 </r>
       <r>    13.0859     0.6732    26.3596 </r>
       <r>    13.1868     0.4061    26.4021 </r>
       <r>    13.2878     2.4631    26.6514 </r>
       <r>    13.3887     1.1012    26.7779 </r>
       <r>    13.4897     0.4821    26.8334 </r>
       <r>    13.5906     1.0130    26.9715 </r>
       <r>    13.6916     0.9969    27.1527 </r>
       <r>    13.7926     0.8967    27.2676 </r>
       <r>    13.8935     2.3416    27.5338 </r>
       <r>    13.9945     0.8175    27.6948 </r>
       <r>    14.0954     0.5719    27.7881 </r>
       <r>    14.1964     0.9102    27.9090 </r>
       <r>    14.2973     2.3573    28.1801 </r>
       <r>    14.3983     0.6050    28.2532 </r>
       <r>    14.4992     1.0317    28.3889 </r>
       <r>    14.6002     0.6183    28.4513 </r>
       <r>    14.7012     1.6101    28.6417 </r>
       <r>    14.8021     0.4335    28.7313 </r>
       <r>    14.9031     1.2748    28.8718 </r>
       <r>    15.0040     1.1663    29.0390 </r>
       <r>    15.1050     0.5503    29.0949 </r>
       <r>    15.2059     1.6477    29.2613 </r>
       <r>    15.3069     0.2064    29.2824 </r>
       <r>    15.4078     1.1705    29.4006 </r>
       <r>    15.5088     1.9703    29.6410 </r>
       <r>    15.6098     2.6169    29.9285 </r>
       <r>    15.7107     0.8560    30.0448 </r>
       <r>    15.8117     1.7600    30.2228 </r>
       <r>    15.9126     0.9665    30.3510 </r>
       <r>    16.0136     1.2418    30.5177 </r>
       <r>    16.1145     1.2209    30.6684 </r>
       <r>    16.2155     1.1691    30.8159 </r>
       <r>    16.3165     0.5496    30.8715 </r>
       <r>    16.4174     0.7924    30.9516 </r>
       <r>    16.5184     1.1006    31.0938 </r>
       <r>    16.6193     1.6503    31.2604 </r>
       <r>    16.7203     1.4054    31.4023 </r>
       <r>    16.8212     0.8835    31.4920 </r>
       <r>    16.9222     0.6675    31.5952 </r>
       <r>    17.0231     0.5503    31.6528 </r>
       <r>    17.1241     0.7056    31.7240 </r>
       <r>    17.2251     0.0000    31.7500 </r>
       <r>    17.3260     0.0000    31.7500 </r>
       <r>    17.4270     0.0036    31.7504 </r>
       <r>    17.5279     1.3758    31.9167 </r>
       <r>    17.6289     0.6190    31.9792 </r>
       <r>    17.7298     0.0000    31.9792 </r>
       <r>    17.8308     0.0000    31.9792 </r>
       <r>    17.9317     0.0000    31.9792 </r>
       <r>    18.0327     0.1376    31.9931 </r>
       <r>    18.1337     0.0000    31.9931 </r>
       <r>    18.2346     0.0688    32.0000 </r>
       <r>    18.3356     0.0000    32.0000 </r>
       <r>    18.4365     0.0000    32.0000 </r>
       <r>    18.5375     0.0000    32.0000 </r>
       <r>    18.6384     0.0000    32.0000 </r>
       <r>    18.7394     0.0000    32.0000 </r>
       <r>    18.8403     0.0000    32.0000 </r>
       <r>    18.9413     0.0000    32.0000 </r>
       <r>    19.0423     0.0000    32.0000 </r>
       <r>    19.1432     0.0000    32.0000 </r>
       <r>    19.2442     0.0000    32.0000 </r>
       <r>    19.3451     0.0000    32.0000 </r>
       <r>    19.4461     0.0000    32.0000 </r>
       <r>    19.5470     0.0000    32.0000 </r>
      </set>
     </set>
    </array>
   </total>
  </dos>
 </calculation>
 <structure name="finalpos" >
  <crystal>
   <varray name="basis" >
    <v>      -2.95197616       0.00000000       2.95197616 </v>
    <v>       0.00000000       2.95197616       2.95197616 </v>
    <v>      -2.95197616       2.95197616       0.00000000 </v>
   </varray>
   <i name="volume">     51.44800428 </i>
   <varray name="rec_basis" >
    <v>      -0.16937806      -0.16937806       0.16937806 </v>
    <v>       0.16937806       0.16937806       0.16937806 </v>
    <v>      -0.16937806       0.16937806      -0.16937806 </v>
   </varray>
  </crystal>
  <varray name="positions" >
   <v>       0.00000000       0.00000000       0.00000000 </v>
   <v>       0.25000002       0.25000010       0.24999994 </v>
  </varray>
 </structure>
</modeling>
