 
             +---------------------------------------------------+
             |                                                   |
             |                   WANNIER90                       |
             |                                                   |
             +---------------------------------------------------+
             |                                                   |
             |        Welcome to the Maximally-Localized         |
             |        Generalized Wannier Functions code         |
             |            http://www.wannier.org                 |
             |                                                   |
             |                                                   |
             |  Wannier90 Developer Group:                       |
             |    Giovanni Pizzi    (EPFL)                       |
             |    Valerio Vitale    (Cambridge)                  |
             |    David Vanderbilt  (Rutgers University)         |
             |    Nicola Marzari    (EPFL)                       |
             |    Ivo Souza         (Universidad del Pais Vasco) |
             |    Arash A. Mostofi  (Imperial College London)    |
             |    Jonathan R. Yates (University of Oxford)       |
             |                                                   |
             |  For the full list of Wannier90 3.x authors,      |
             |  please check the code documentation and the      |
             |  README on the GitHub page of the code            |
             |                                                   |
             |                                                   |
             |  Please cite                                      |
             |                                                   |
             |  [ref] "Wannier90 as a community code:            |
             |        new features and applications",            |
             |        G. Pizzi et al., J. Phys. Cond. Matt. 32,  |
             |        165902 (2020).                             |
             |        http://doi.org/10.1088/1361-648X/ab51ff    |
             |                                                   |
             |  in any publications arising from the use of      |
             |  this code. For the method please cite            |
             |                                                   |
             |  [ref] "Maximally Localized Generalised Wannier   |
             |         Functions for Composite Energy Bands"     |
             |         N. Marzari and D. Vanderbilt              |
             |         Phys. Rev. B 56 12847 (1997)              |
             |                                                   |
             |  [ref] "Maximally Localized Wannier Functions     |
             |         for Entangled Energy Bands"               |
             |         I. Souza, N. Marzari and D. Vanderbilt    |
             |         Phys. Rev. B 65 035109 (2001)             |
             |                                                   |
             |                                                   |
             | Copyright (c) 1996-2020                           |
             |        The Wannier90 Developer Group and          |
             |        individual contributors                    |
             |                                                   |
             |      Release: 3.1.0        5th March    2020      |
             |                                                   |
             | This program is free software; you can            |
             | redistribute it and/or modify it under the terms  |
             | of the GNU General Public License as published by |
             | the Free Software Foundation; either version 2 of |
             | the License, or (at your option) any later version|
             |                                                   |
             | This program is distributed in the hope that it   |
             | will be useful, but WITHOUT ANY WARRANTY; without |
             | even the implied warranty of MERCHANTABILITY or   |
             | FITNESS FOR A PARTICULAR PURPOSE. See the GNU     |
             | General Public License for more details.          |
             |                                                   |
             | You should have received a copy of the GNU General|
             | Public License along with this program; if not,   |
             | write to the Free Software Foundation, Inc.,      |
             | 675 Mass Ave, Cambridge, MA 02139, USA.           |
             |                                                   |
             +---------------------------------------------------+
             |    Execution started on  8Apr2024 at 15:11:38     |
             +---------------------------------------------------+
 
 ******************************************************************************
 * -> Using CODATA 2006 constant values                                       *
 *    (http://physics.nist.gov/cuu/Constants/index.html)                      *
 * -> Using Bohr value from CODATA                                            *
 ******************************************************************************
 

 Running in parallel on  16 CPUs

 
                                    ------
                                    SYSTEM
                                    ------
 
                              Lattice Vectors (Ang)
                    a_1    -2.176996   0.000000   2.176996
                    a_2     0.000000   2.176996   2.176996
                    a_3    -2.176996   2.176996   0.000000
 
                   Unit Cell Volume:      20.63492  (Ang^3)
 
                        Reciprocal-Space Vectors (Ang^-1)
                    b_1    -1.443086  -1.443086   1.443086
                    b_2     1.443086   1.443086   1.443086
                    b_3    -1.443086   1.443086  -1.443086
  
 *----------------------------------------------------------------------------*
 |   Site       Fractional Coordinate          Cartesian Coordinate (Ang)     |
 +----------------------------------------------------------------------------+
 | Si   1   0.25000   0.25000   0.25000   |   -1.08850   1.08850   1.08850    |
 | C    1   0.00000   0.00000   0.00000   |    0.00000   0.00000   0.00000    |
 *----------------------------------------------------------------------------*
                                ------------
                                K-POINT GRID
                                ------------
  
             Grid size = 12 x 12 x 12      Total points = 1728
  
  
 *---------------------------------- MAIN ------------------------------------*
 |  Number of Wannier Functions               :                 3             |
 |  Number of Objective Wannier Functions     :                 3             |
 |  Number of input Bloch states              :                 3             |
 |  Output verbosity (1=low, 5=high)          :                 1             |
 |  Timing Level (1=low, 5=high)              :                 1             |
 |  Optimisation (0=memory, 3=speed)          :                 3             |
 |  Length Unit                               :               Ang             |
 |  Post-processing setup (write *.nnkp)      :                 F             |
 |  Using Gamma-only branch of algorithms     :                 F             |
 *----------------------------------------------------------------------------*
 *------------------------------- WANNIERISE ---------------------------------*
 |  Total number of iterations                :               500             |
 |  Number of CG steps before reset           :                 5             |
 |  Trial step length for line search         :             2.000             |
 |  Convergence tolerence                     :         0.100E-09             |
 |  Convergence window                        :                -1             |
 |  Iterations between writing output         :                 1             |
 |  Iterations between backing up to disk     :               100             |
 |  Write r^2_nm to file                      :                 F             |
 |  Write xyz WF centres to file              :                 F             |
 |  Write on-site energies <0n|H|0n> to file  :                 F             |
 |  Use guiding centre to control phases      :                 F             |
 |  Use phases for initial projections        :                 F             |
 *----------------------------------------------------------------------------*
 Time to read parameters        0.168 (sec)

 *---------------------------------- K-MESH ----------------------------------*
 +----------------------------------------------------------------------------+
 |                    Distance to Nearest-Neighbour Shells                    |
 |                    ------------------------------------                    |
 |          Shell             Distance (Ang^-1)          Multiplicity         |
 |          -----             -----------------          ------------         |
 |             1                   0.208292                      8            |
 |             2                   0.240514                      6            |
 |             3                   0.340139                     12            |
 |             4                   0.398848                     24            |
 |             5                   0.416583                      8            |
 |             6                   0.481029                      6            |
 |             7                   0.524189                     24            |
 |             8                   0.537806                     24            |
 |             9                   0.589137                     24            |
 |            10                   0.624875                     32            |
 |            11                   0.680277                     12            |
 |            12                   0.711451                     48            |
 |            13                   0.721543                     30            |
 |            14                   0.760573                     24            |
 |            15                   0.788579                     24            |
 |            16                   0.797696                     24            |
 |            17                   0.833166                      8            |
 |            18                   0.858808                     48            |
 |            19                   0.867187                     24            |
 |            20                   0.899922                     48            |
 |            21                   0.923713                     72            |
 |            22                   0.962057                      6            |
 |            23                   0.984347                     24            |
 |            24                   0.991666                     48            |
 |            25                   1.020416                     36            |
 |            26                   1.041458                     56            |
 |            27                   1.048378                     24            |
 |            28                   1.075613                     24            |
 |            29                   1.095595                     72            |
 |            30                   1.102175                     48            |
 |            31                   1.128112                     24            |
 |            32                   1.147180                     48            |
 |            33                   1.178275                     24            |
 |            34                   1.196544                     72            |
 |            35                   1.202572                     30            |
 |            36                   1.226387                     72            |
 +----------------------------------------------------------------------------+
 | The b-vectors are chosen automatically                                     |
 | The following shells are used:   1                                         |
 +----------------------------------------------------------------------------+
 |                        Shell   # Nearest-Neighbours                        |
 |                        -----   --------------------                        |
 |                          1               8                                 |
 +----------------------------------------------------------------------------+
 | Completeness relation is fully satisfied [Eq. (B1), PRB 56, 12847 (1997)]  |
 +----------------------------------------------------------------------------+
 |                  b_k Vectors (Ang^-1) and Weights (Ang^2)                  |
 |                  ----------------------------------------                  |
 |            No.         b_k(x)      b_k(y)      b_k(z)        w_b           |
 |            ---        --------------------------------     --------        |
 |             1        -0.120257    0.120257   -0.120257     8.643469        |
 |             2         0.120257    0.120257    0.120257     8.643469        |
 |             3        -0.120257   -0.120257    0.120257     8.643469        |
 |             4        -0.120257    0.120257    0.120257     8.643469        |
 |             5         0.120257   -0.120257    0.120257     8.643469        |
 |             6        -0.120257   -0.120257   -0.120257     8.643469        |
 |             7         0.120257    0.120257   -0.120257     8.643469        |
 |             8         0.120257   -0.120257   -0.120257     8.643469        |
 +----------------------------------------------------------------------------+
 |                           b_k Directions (Ang^-1)                          |
 |                           -----------------------                          |
 |            No.           x           y           z                         |
 |            ---        --------------------------------                     |
 |             1        -0.120257    0.120257   -0.120257                     |
 |             2         0.120257    0.120257    0.120257                     |
 |             3        -0.120257   -0.120257    0.120257                     |
 |             4        -0.120257    0.120257    0.120257                     |
 +----------------------------------------------------------------------------+
  
 Time to get kmesh              0.717 (sec)
 *============================================================================*
 |                              MEMORY ESTIMATE                               |
 |         Maximum RAM allocated during each phase of the calculation         |
 *============================================================================*
 |                            Wannierise:            7.00 Mb                  |
 |                          plot_wannier:            7.00 Mb                  |
 *----------------------------------------------------------------------------*
  
 Starting a new Wannier90 calculation ...


 Reading overlaps from mp-8062.mmn    :  Created on  8Apr2024 at 15:11:10

 Reading projections from mp-8062.amn :  Created on  8Apr2024 at 15:11:10  with SCDM

 Time to read overlaps          0.086 (sec)

 Writing checkpoint file mp-8062.chk... done

 
 *------------------------------- WANNIERISE ---------------------------------*
 +--------------------------------------------------------------------+<-- CONV
 | Iter  Delta Spread     RMS Gradient      Spread (Ang^2)      Time  |<-- CONV
 +--------------------------------------------------------------------+<-- CONV
 
 ------------------------------------------------------------------------------
 Initial State
  WF centre and spread    1  ( -0.208267, -0.108045, -0.108045 )     2.89672620
  WF centre and spread    2  (  0.108045,  0.208267, -0.108044 )     2.89673192
  WF centre and spread    3  (  0.108044, -0.108045,  0.208268 )     2.89673375
  Sum of centres and spreads (  0.007822, -0.007822, -0.007821 )     8.69019187
 
      0     0.869E+01     0.0000000000        8.6901918884       0.00  <-- CONV
        O_D=      1.1159817 O_OD=      1.5226553 O_TOT=      8.6901919 <-- SPRD
 ------------------------------------------------------------------------------
 Cycle:      1
  WF centre and spread    1  ( -0.197069, -0.099907, -0.099907 )     2.53684321
  WF centre and spread    2  (  0.099907,  0.197069, -0.099907 )     2.53683065
  WF centre and spread    3  (  0.099907, -0.099907,  0.197069 )     2.53683761
  Sum of centres and spreads (  0.002745, -0.002745, -0.002744 )     7.61051147
 
      1    -0.108E+01     0.2984895474        7.6105114888       0.00  <-- CONV
        O_D=      0.6350166 O_OD=      0.9239401 O_TOT=      7.6105115 <-- SPRD
 Delta: O_D= -0.4809651E+00 O_OD= -0.5987153E+00 O_TOT= -0.1079680E+01 <-- DLTA
 ------------------------------------------------------------------------------
 Cycle:      2
  WF centre and spread    1  ( -0.185856, -0.093573, -0.093573 )     2.34864561
  WF centre and spread    2  (  0.093573,  0.185857, -0.093573 )     2.34866275
  WF centre and spread    3  (  0.093573, -0.093573,  0.185857 )     2.34861330
  Sum of centres and spreads (  0.001290, -0.001289, -0.001289 )     7.04592167
 
      2    -0.565E+00     0.3021353015        7.0459216845       0.01  <-- CONV
        O_D=      0.3520827 O_OD=      0.6422842 O_TOT=      7.0459217 <-- SPRD
 Delta: O_D= -0.2829339E+00 O_OD= -0.2816559E+00 O_TOT= -0.5645898E+00 <-- DLTA
 ------------------------------------------------------------------------------
 Cycle:      3
  WF centre and spread    1  ( -0.177173, -0.089064, -0.089064 )     2.23374101
  WF centre and spread    2  (  0.089065,  0.177173, -0.089064 )     2.23373136
  WF centre and spread    3  (  0.089064, -0.089065,  0.177173 )     2.23369952
  Sum of centres and spreads (  0.000956, -0.000956, -0.000955 )     6.70117188
 
      3    -0.345E+00     0.2638464942        6.7011718950       0.01  <-- CONV
        O_D=      0.1916223 O_OD=      0.4579947 O_TOT=      6.7011719 <-- SPRD
 Delta: O_D= -0.1604604E+00 O_OD= -0.1842894E+00 O_TOT= -0.3447498E+00 <-- DLTA
 ------------------------------------------------------------------------------
 Cycle:      4
  WF centre and spread    1  ( -0.171258, -0.086165, -0.086165 )     2.16848199
  WF centre and spread    2  (  0.086166,  0.171258, -0.086165 )     2.16845310
  WF centre and spread    3  (  0.086165, -0.086166,  0.171258 )     2.16845176
  Sum of centres and spreads (  0.001073, -0.001073, -0.001072 )     6.50538684
 
      4    -0.196E+00     0.1991624292        6.5053868484       0.01  <-- CONV
        O_D=      0.0990209 O_OD=      0.3548111 O_TOT=      6.5053868 <-- SPRD
 Delta: O_D= -0.9260141E-01 O_OD= -0.1031836E+00 O_TOT= -0.1957850E+00 <-- DLTA
 ------------------------------------------------------------------------------
 Cycle:      5
  WF centre and spread    1  ( -0.167922, -0.084582, -0.084582 )     2.13574650
  WF centre and spread    2  (  0.084583,  0.167921, -0.084582 )     2.13572280
  WF centre and spread    3  (  0.084582, -0.084583,  0.167922 )     2.13572624
  Sum of centres and spreads (  0.001244, -0.001243, -0.001242 )     6.40719554
 
      5    -0.982E-01     0.1453610706        6.4071955463       0.01  <-- CONV
        O_D=      0.0558375 O_OD=      0.2998031 O_TOT=      6.4071955 <-- SPRD
 Delta: O_D= -0.4318334E-01 O_OD= -0.5500796E-01 O_TOT= -0.9819130E-01 <-- DLTA
 ------------------------------------------------------------------------------
 Cycle:      6
  WF centre and spread    1  ( -0.166031, -0.083701, -0.083701 )     2.11916158
  WF centre and spread    2  (  0.083701,  0.166031, -0.083701 )     2.11914227
  WF centre and spread    3  (  0.083701, -0.083701,  0.166031 )     2.11913763
  Sum of centres and spreads (  0.001371, -0.001371, -0.001370 )     6.35744148
 
      6    -0.498E-01     0.1037509095        6.3574414875       0.02  <-- CONV
        O_D=      0.0346636 O_OD=      0.2712230 O_TOT=      6.3574415 <-- SPRD
 Delta: O_D= -0.2117393E-01 O_OD= -0.2858013E-01 O_TOT= -0.4975406E-01 <-- DLTA
 ------------------------------------------------------------------------------
 Cycle:      7
  WF centre and spread    1  ( -0.165925, -0.083652, -0.083652 )     2.11403014
  WF centre and spread    2  (  0.083652,  0.165924, -0.083652 )     2.11401356
  WF centre and spread    3  (  0.083652, -0.083652,  0.165925 )     2.11401082
  Sum of centres and spreads (  0.001380, -0.001380, -0.001379 )     6.34205451
 
      7    -0.154E-01     0.0705310735        6.3420545228       0.02  <-- CONV
        O_D=      0.0277154 O_OD=      0.2627843 O_TOT=      6.3420545 <-- SPRD
 Delta: O_D= -0.6948233E-02 O_OD= -0.8438732E-02 O_TOT= -0.1538696E-01 <-- DLTA
 ------------------------------------------------------------------------------
 Cycle:      8
  WF centre and spread    1  ( -0.165691, -0.083544, -0.083545 )     2.11085270
  WF centre and spread    2  (  0.083545,  0.165691, -0.083545 )     2.11084600
  WF centre and spread    3  (  0.083545, -0.083545,  0.165691 )     2.11084479
  Sum of centres and spreads (  0.001399, -0.001399, -0.001398 )     6.33254349
 
      8    -0.951E-02     0.0449962061        6.3325434969       0.02  <-- CONV
        O_D=      0.0244070 O_OD=      0.2565817 O_TOT=      6.3325435 <-- SPRD
 Delta: O_D= -0.3308427E-02 O_OD= -0.6202599E-02 O_TOT= -0.9511026E-02 <-- DLTA
 ------------------------------------------------------------------------------
 Cycle:      9
  WF centre and spread    1  ( -0.165423, -0.083420, -0.083420 )     2.10927933
  WF centre and spread    2  (  0.083421,  0.165423, -0.083420 )     2.10927730
  WF centre and spread    3  (  0.083421, -0.083421,  0.165423 )     2.10927563
  Sum of centres and spreads (  0.001419, -0.001418, -0.001417 )     6.32783226
 
      9    -0.471E-02     0.0316263437        6.3278322711       0.03  <-- CONV
        O_D=      0.0231224 O_OD=      0.2531550 O_TOT=      6.3278323 <-- SPRD
 Delta: O_D= -0.1284505E-02 O_OD= -0.3426721E-02 O_TOT= -0.4711226E-02 <-- DLTA
 ------------------------------------------------------------------------------
 Cycle:     10
  WF centre and spread    1  ( -0.165136, -0.083288, -0.083288 )     2.10846644
  WF centre and spread    2  (  0.083289,  0.165136, -0.083289 )     2.10846579
  WF centre and spread    3  (  0.083289, -0.083289,  0.165136 )     2.10846431
  Sum of centres and spreads (  0.001442, -0.001442, -0.001441 )     6.32539654
 
     10    -0.244E-02     0.0225539267        6.3253965490       0.03  <-- CONV
        O_D=      0.0226253 O_OD=      0.2512164 O_TOT=      6.3253965 <-- SPRD
 Delta: O_D= -0.4971758E-03 O_OD= -0.1938546E-02 O_TOT= -0.2435722E-02 <-- DLTA
 ------------------------------------------------------------------------------
 Cycle:     11
  WF centre and spread    1  ( -0.164789, -0.083131, -0.083131 )     2.10793320
  WF centre and spread    2  (  0.083132,  0.164789, -0.083131 )     2.10793261
  WF centre and spread    3  (  0.083132, -0.083132,  0.164789 )     2.10793159
  Sum of centres and spreads (  0.001474, -0.001474, -0.001473 )     6.32379741
 
     11    -0.160E-02     0.0169379832        6.3237974188       0.03  <-- CONV
        O_D=      0.0223462 O_OD=      0.2498964 O_TOT=      6.3237974 <-- SPRD
 Delta: O_D= -0.2790834E-03 O_OD= -0.1320047E-02 O_TOT= -0.1599130E-02 <-- DLTA
 ------------------------------------------------------------------------------
 Cycle:     12
  WF centre and spread    1  ( -0.164400, -0.082951, -0.082951 )     2.10753883
  WF centre and spread    2  (  0.082952,  0.164400, -0.082951 )     2.10753844
  WF centre and spread    3  (  0.082951, -0.082952,  0.164400 )     2.10753772
  Sum of centres and spreads (  0.001503, -0.001503, -0.001502 )     6.32261500
 
     12    -0.118E-02     0.0145226430        6.3226150099       0.03  <-- CONV
        O_D=      0.0220521 O_OD=      0.2490081 O_TOT=      6.3226150 <-- SPRD
 Delta: O_D= -0.2941315E-03 O_OD= -0.8882775E-03 O_TOT= -0.1182409E-02 <-- DLTA
 ------------------------------------------------------------------------------
 Cycle:     13
  WF centre and spread    1  ( -0.164335, -0.082911, -0.082911 )     2.10742992
  WF centre and spread    2  (  0.082912,  0.164334, -0.082911 )     2.10742928
  WF centre and spread    3  (  0.082912, -0.082912,  0.164335 )     2.10742863
  Sum of centres and spreads (  0.001489, -0.001488, -0.001487 )     6.32228782
 
     13    -0.327E-03     0.0099743261        6.3222878333       0.04  <-- CONV
        O_D=      0.0219365 O_OD=      0.2487965 O_TOT=      6.3222878 <-- SPRD
 Delta: O_D= -0.1156019E-03 O_OD= -0.2115746E-03 O_TOT= -0.3271766E-03 <-- DLTA
 ------------------------------------------------------------------------------
 Cycle:     14
  WF centre and spread    1  ( -0.164128, -0.082788, -0.082788 )     2.10729204
  WF centre and spread    2  (  0.082788,  0.164128, -0.082788 )     2.10729149
  WF centre and spread    3  (  0.082788, -0.082788,  0.164129 )     2.10729084
  Sum of centres and spreads (  0.001448, -0.001448, -0.001447 )     6.32187437
 
     14    -0.413E-03     0.0077807234        6.3218743764       0.04  <-- CONV
        O_D=      0.0218609 O_OD=      0.2484586 O_TOT=      6.3218744 <-- SPRD
 Delta: O_D= -0.7557992E-04 O_OD= -0.3378770E-03 O_TOT= -0.4134569E-03 <-- DLTA
 ------------------------------------------------------------------------------
 Cycle:     15
  WF centre and spread    1  ( -0.163966, -0.082696, -0.082696 )     2.10722275
  WF centre and spread    2  (  0.082697,  0.163966, -0.082696 )     2.10722232
  WF centre and spread    3  (  0.082697, -0.082697,  0.163967 )     2.10722162
  Sum of centres and spreads (  0.001427, -0.001427, -0.001426 )     6.32166670
 
     15    -0.208E-03     0.0066765453        6.3216667100       0.04  <-- CONV
        O_D=      0.0218082 O_OD=      0.2483036 O_TOT=      6.3216667 <-- SPRD
 Delta: O_D= -0.5266692E-04 O_OD= -0.1549994E-03 O_TOT= -0.2076663E-03 <-- DLTA
 ------------------------------------------------------------------------------
 Cycle:     16
  WF centre and spread    1  ( -0.163830, -0.082625, -0.082625 )     2.10718307
  WF centre and spread    2  (  0.082625,  0.163830, -0.082625 )     2.10718242
  WF centre and spread    3  (  0.082625, -0.082625,  0.163831 )     2.10718181
  Sum of centres and spreads (  0.001420, -0.001420, -0.001419 )     6.32154730
 
     16    -0.119E-03     0.0048204235        6.3215473100       0.04  <-- CONV
        O_D=      0.0217711 O_OD=      0.2482213 O_TOT=      6.3215473 <-- SPRD
 Delta: O_D= -0.3706999E-04 O_OD= -0.8233006E-04 O_TOT= -0.1194001E-03 <-- DLTA
 ------------------------------------------------------------------------------
 Cycle:     17
  WF centre and spread    1  ( -0.163697, -0.082558, -0.082558 )     2.10715295
  WF centre and spread    2  (  0.082559,  0.163697, -0.082558 )     2.10715180
  WF centre and spread    3  (  0.082559, -0.082559,  0.163697 )     2.10715140
  Sum of centres and spreads (  0.001420, -0.001420, -0.001419 )     6.32145615
 
     17    -0.911E-04     0.0039943666        6.3214561628       0.05  <-- CONV
        O_D=      0.0217252 O_OD=      0.2481761 O_TOT=      6.3214562 <-- SPRD
 Delta: O_D= -0.4593750E-04 O_OD= -0.4520969E-04 O_TOT= -0.9114719E-04 <-- DLTA
 ------------------------------------------------------------------------------
 Cycle:     18
  WF centre and spread    1  ( -0.163625, -0.082523, -0.082523 )     2.10713859
  WF centre and spread    2  (  0.082524,  0.163625, -0.082523 )     2.10713795
  WF centre and spread    3  (  0.082523, -0.082524,  0.163625 )     2.10713736
  Sum of centres and spreads (  0.001422, -0.001422, -0.001421 )     6.32141390
 
     18    -0.423E-04     0.0031838380        6.3214139048       0.05  <-- CONV
        O_D=      0.0216983 O_OD=      0.2481608 O_TOT=      6.3214139 <-- SPRD
 Delta: O_D= -0.2694148E-04 O_OD= -0.1531652E-04 O_TOT= -0.4225799E-04 <-- DLTA
 ------------------------------------------------------------------------------
 Cycle:     19
  WF centre and spread    1  ( -0.163621, -0.082521, -0.082521 )     2.10713119
  WF centre and spread    2  (  0.082522,  0.163620, -0.082521 )     2.10713063
  WF centre and spread    3  (  0.082522, -0.082522,  0.163621 )     2.10713001
  Sum of centres and spreads (  0.001423, -0.001422, -0.001421 )     6.32139183
 
     19    -0.221E-04     0.0026870718        6.3213918390       0.05  <-- CONV
        O_D=      0.0216868 O_OD=      0.2481501 O_TOT=      6.3213918 <-- SPRD
 Delta: O_D= -0.1142609E-04 O_OD= -0.1063967E-04 O_TOT= -0.2206576E-04 <-- DLTA
 ------------------------------------------------------------------------------
 Cycle:     20
  WF centre and spread    1  ( -0.163609, -0.082516, -0.082516 )     2.10712445
  WF centre and spread    2  (  0.082517,  0.163609, -0.082516 )     2.10712452
  WF centre and spread    3  (  0.082517, -0.082517,  0.163609 )     2.10712365
  Sum of centres and spreads (  0.001425, -0.001424, -0.001423 )     6.32137262
 
     20    -0.192E-04     0.0019053794        6.3213726309       0.05  <-- CONV
        O_D=      0.0216763 O_OD=      0.2481415 O_TOT=      6.3213726 <-- SPRD
 Delta: O_D= -0.1058062E-04 O_OD= -0.8627488E-05 O_TOT= -0.1920811E-04 <-- DLTA
 ------------------------------------------------------------------------------
 Cycle:     21
  WF centre and spread    1  ( -0.163596, -0.082511, -0.082511 )     2.10712120
  WF centre and spread    2  (  0.082512,  0.163596, -0.082511 )     2.10712150
  WF centre and spread    3  (  0.082511, -0.082512,  0.163597 )     2.10712054
  Sum of centres and spreads (  0.001427, -0.001427, -0.001426 )     6.32136324
 
     21    -0.938E-05     0.0014373524        6.3213632462       0.06  <-- CONV
        O_D=      0.0216679 O_OD=      0.2481405 O_TOT=      6.3213632 <-- SPRD
 Delta: O_D= -0.8337602E-05 O_OD= -0.1047133E-05 O_TOT= -0.9384734E-05 <-- DLTA
 ------------------------------------------------------------------------------
 Cycle:     22
  WF centre and spread    1  ( -0.163580, -0.082504, -0.082504 )     2.10711936
  WF centre and spread    2  (  0.082505,  0.163580, -0.082504 )     2.10711972
  WF centre and spread    3  (  0.082505, -0.082505,  0.163581 )     2.10711873
  Sum of centres and spreads (  0.001429, -0.001429, -0.001428 )     6.32135782
 
     22    -0.542E-05     0.0010381910        6.3213578249       0.06  <-- CONV
        O_D=      0.0216608 O_OD=      0.2481422 O_TOT=      6.3213578 <-- SPRD
 Delta: O_D= -0.7138140E-05 O_OD=  0.1716836E-05 O_TOT= -0.5421304E-05 <-- DLTA
 ------------------------------------------------------------------------------
 Cycle:     23
  WF centre and spread    1  ( -0.163561, -0.082495, -0.082495 )     2.10711808
  WF centre and spread    2  (  0.082496,  0.163560, -0.082495 )     2.10711847
  WF centre and spread    3  (  0.082496, -0.082496,  0.163561 )     2.10711747
  Sum of centres and spreads (  0.001431, -0.001430, -0.001429 )     6.32135403
 
     23    -0.378E-05     0.0008489337        6.3213540403       0.06  <-- CONV
        O_D=      0.0216537 O_OD=      0.2481455 O_TOT=      6.3213540 <-- SPRD
 Delta: O_D= -0.7071006E-05 O_OD=  0.3286409E-05 O_TOT= -0.3784597E-05 <-- DLTA
 ------------------------------------------------------------------------------
 Cycle:     24
  WF centre and spread    1  ( -0.163547, -0.082488, -0.082488 )     2.10711754
  WF centre and spread    2  (  0.082489,  0.163547, -0.082488 )     2.10711795
  WF centre and spread    3  (  0.082489, -0.082489,  0.163547 )     2.10711694
  Sum of centres and spreads (  0.001431, -0.001430, -0.001429 )     6.32135243
 
     24    -0.160E-05     0.0006288411        6.3213524434       0.06  <-- CONV
        O_D=      0.0216504 O_OD=      0.2481472 O_TOT=      6.3213524 <-- SPRD
 Delta: O_D= -0.3300071E-05 O_OD=  0.1703145E-05 O_TOT= -0.1596927E-05 <-- DLTA
 ------------------------------------------------------------------------------
 Cycle:     25
  WF centre and spread    1  ( -0.163543, -0.082486, -0.082486 )     2.10711721
  WF centre and spread    2  (  0.082487,  0.163543, -0.082486 )     2.10711762
  WF centre and spread    3  (  0.082486, -0.082487,  0.163544 )     2.10711661
  Sum of centres and spreads (  0.001430, -0.001430, -0.001429 )     6.32135145
 
     25    -0.984E-06     0.0005231515        6.3213514593       0.07  <-- CONV
        O_D=      0.0216500 O_OD=      0.2481466 O_TOT=      6.3213515 <-- SPRD
 Delta: O_D= -0.4200537E-06 O_OD= -0.5639979E-06 O_TOT= -0.9840516E-06 <-- DLTA
 ------------------------------------------------------------------------------
 Cycle:     26
  WF centre and spread    1  ( -0.163533, -0.082480, -0.082480 )     2.10711686
  WF centre and spread    2  (  0.082481,  0.163533, -0.082480 )     2.10711727
  WF centre and spread    3  (  0.082481, -0.082481,  0.163534 )     2.10711627
  Sum of centres and spreads (  0.001428, -0.001428, -0.001427 )     6.32135041
 
     26    -0.104E-05     0.0004192863        6.3213504151       0.07  <-- CONV
        O_D=      0.0216494 O_OD=      0.2481462 O_TOT=      6.3213504 <-- SPRD
 Delta: O_D= -0.6006997E-06 O_OD= -0.4434716E-06 O_TOT= -0.1044171E-05 <-- DLTA
 ------------------------------------------------------------------------------
 Cycle:     27
  WF centre and spread    1  ( -0.163524, -0.082475, -0.082475 )     2.10711665
  WF centre and spread    2  (  0.082475,  0.163524, -0.082475 )     2.10711706
  WF centre and spread    3  (  0.082475, -0.082475,  0.163524 )     2.10711605
  Sum of centres and spreads (  0.001427, -0.001427, -0.001426 )     6.32134976
 
     27    -0.649E-06     0.0003640411        6.3213497660       0.07  <-- CONV
        O_D=      0.0216483 O_OD=      0.2481466 O_TOT=      6.3213498 <-- SPRD
 Delta: O_D= -0.1082596E-05 O_OD=  0.4334167E-06 O_TOT= -0.6491792E-06 <-- DLTA
 ------------------------------------------------------------------------------
 Cycle:     28
  WF centre and spread    1  ( -0.163516, -0.082471, -0.082471 )     2.10711652
  WF centre and spread    2  (  0.082471,  0.163516, -0.082471 )     2.10711693
  WF centre and spread    3  (  0.082471, -0.082471,  0.163516 )     2.10711593
  Sum of centres and spreads (  0.001426, -0.001426, -0.001425 )     6.32134938
 
     28    -0.378E-06     0.0002792556        6.3213493884       0.07  <-- CONV
        O_D=      0.0216469 O_OD=      0.2481476 O_TOT=      6.3213494 <-- SPRD
 Delta: O_D= -0.1415810E-05 O_OD=  0.1038236E-05 O_TOT= -0.3775737E-06 <-- DLTA
 ------------------------------------------------------------------------------
 Cycle:     29
  WF centre and spread    1  ( -0.163510, -0.082467, -0.082467 )     2.10711644
  WF centre and spread    2  (  0.082468,  0.163509, -0.082468 )     2.10711685
  WF centre and spread    3  (  0.082468, -0.082468,  0.163510 )     2.10711584
  Sum of centres and spreads (  0.001426, -0.001426, -0.001425 )     6.32134913
 
     29    -0.246E-06     0.0002183709        6.3213491424       0.07  <-- CONV
        O_D=      0.0216453 O_OD=      0.2481490 O_TOT=      6.3213491 <-- SPRD
 Delta: O_D= -0.1611440E-05 O_OD=  0.1365436E-05 O_TOT= -0.2460037E-06 <-- DLTA
 ------------------------------------------------------------------------------
 Cycle:     30
  WF centre and spread    1  ( -0.163506, -0.082465, -0.082466 )     2.10711639
  WF centre and spread    2  (  0.082466,  0.163505, -0.082466 )     2.10711681
  WF centre and spread    3  (  0.082466, -0.082466,  0.163506 )     2.10711580
  Sum of centres and spreads (  0.001426, -0.001426, -0.001425 )     6.32134900
 
     30    -0.128E-06     0.0001697598        6.3213490145       0.08  <-- CONV
        O_D=      0.0216441 O_OD=      0.2481500 O_TOT=      6.3213490 <-- SPRD
 Delta: O_D= -0.1142423E-05 O_OD=  0.1014573E-05 O_TOT= -0.1278497E-06 <-- DLTA
 ------------------------------------------------------------------------------
 Cycle:     31
  WF centre and spread    1  ( -0.163505, -0.082465, -0.082465 )     2.10711637
  WF centre and spread    2  (  0.082466,  0.163505, -0.082466 )     2.10711679
  WF centre and spread    3  (  0.082466, -0.082466,  0.163506 )     2.10711578
  Sum of centres and spreads (  0.001427, -0.001426, -0.001425 )     6.32134893
 
     31    -0.758E-07     0.0001613197        6.3213489388       0.08  <-- CONV
        O_D=      0.0216440 O_OD=      0.2481501 O_TOT=      6.3213489 <-- SPRD
 Delta: O_D= -0.1445882E-06 O_OD=  0.6882799E-07 O_TOT= -0.7576017E-07 <-- DLTA
 ------------------------------------------------------------------------------
 Cycle:     32
  WF centre and spread    1  ( -0.163505, -0.082465, -0.082465 )     2.10711635
  WF centre and spread    2  (  0.082466,  0.163504, -0.082465 )     2.10711677
  WF centre and spread    3  (  0.082466, -0.082466,  0.163505 )     2.10711576
  Sum of centres and spreads (  0.001427, -0.001426, -0.001425 )     6.32134887
 
     32    -0.573E-07     0.0001051774        6.3213488815       0.08  <-- CONV
        O_D=      0.0216437 O_OD=      0.2481503 O_TOT=      6.3213489 <-- SPRD
 Delta: O_D= -0.3154369E-06 O_OD=  0.2581386E-06 O_TOT= -0.5729836E-07 <-- DLTA
 ------------------------------------------------------------------------------
 Cycle:     33
  WF centre and spread    1  ( -0.163504, -0.082465, -0.082465 )     2.10711634
  WF centre and spread    2  (  0.082465,  0.163504, -0.082465 )     2.10711676
  WF centre and spread    3  (  0.082465, -0.082466,  0.163504 )     2.10711575
  Sum of centres and spreads (  0.001427, -0.001427, -0.001426 )     6.32134884
 
     33    -0.338E-07     0.0000836944        6.3213488476       0.08  <-- CONV
        O_D=      0.0216433 O_OD=      0.2481507 O_TOT=      6.3213488 <-- SPRD
 Delta: O_D= -0.3797184E-06 O_OD=  0.3458798E-06 O_TOT= -0.3383867E-07 <-- DLTA
 ------------------------------------------------------------------------------
 Cycle:     34
  WF centre and spread    1  ( -0.163503, -0.082464, -0.082465 )     2.10711633
  WF centre and spread    2  (  0.082465,  0.163503, -0.082465 )     2.10711675
  WF centre and spread    3  (  0.082465, -0.082465,  0.163503 )     2.10711574
  Sum of centres and spreads (  0.001427, -0.001427, -0.001426 )     6.32134882
 
     34    -0.194E-07     0.0000593994        6.3213488283       0.09  <-- CONV
        O_D=      0.0216429 O_OD=      0.2481511 O_TOT=      6.3213488 <-- SPRD
 Delta: O_D= -0.3906284E-06 O_OD=  0.3712631E-06 O_TOT= -0.1936531E-07 <-- DLTA
 ------------------------------------------------------------------------------
 Cycle:     35
  WF centre and spread    1  ( -0.163502, -0.082464, -0.082464 )     2.10711632
  WF centre and spread    2  (  0.082465,  0.163502, -0.082464 )     2.10711675
  WF centre and spread    3  (  0.082465, -0.082465,  0.163503 )     2.10711573
  Sum of centres and spreads (  0.001427, -0.001427, -0.001426 )     6.32134881
 
     35    -0.113E-07     0.0000470300        6.3213488170       0.09  <-- CONV
        O_D=      0.0216426 O_OD=      0.2481514 O_TOT=      6.3213488 <-- SPRD
 Delta: O_D= -0.3124674E-06 O_OD=  0.3011725E-06 O_TOT= -0.1129493E-07 <-- DLTA
 ------------------------------------------------------------------------------
 Cycle:     36
  WF centre and spread    1  ( -0.163501, -0.082463, -0.082464 )     2.10711632
  WF centre and spread    2  (  0.082464,  0.163501, -0.082464 )     2.10711675
  WF centre and spread    3  (  0.082464, -0.082464,  0.163501 )     2.10711573
  Sum of centres and spreads (  0.001427, -0.001427, -0.001426 )     6.32134880
 
     36    -0.475E-08     0.0000324886        6.3213488122       0.09  <-- CONV
        O_D=      0.0216423 O_OD=      0.2481516 O_TOT=      6.3213488 <-- SPRD
 Delta: O_D= -0.2538264E-06 O_OD=  0.2490766E-06 O_TOT= -0.4749854E-08 <-- DLTA
 ------------------------------------------------------------------------------
 Cycle:     37
  WF centre and spread    1  ( -0.163501, -0.082463, -0.082463 )     2.10711632
  WF centre and spread    2  (  0.082464,  0.163501, -0.082464 )     2.10711674
  WF centre and spread    3  (  0.082464, -0.082464,  0.163501 )     2.10711573
  Sum of centres and spreads (  0.001427, -0.001427, -0.001426 )     6.32134880
 
     37    -0.514E-08     0.0000451130        6.3213488071       0.09  <-- CONV
        O_D=      0.0216423 O_OD=      0.2481516 O_TOT=      6.3213488 <-- SPRD
 Delta: O_D= -0.6020124E-08 O_OD=  0.8845900E-09 O_TOT= -0.5135534E-08 <-- DLTA
 ------------------------------------------------------------------------------
 Cycle:     38
  WF centre and spread    1  ( -0.163501, -0.082463, -0.082463 )     2.10711632
  WF centre and spread    2  (  0.082464,  0.163501, -0.082464 )     2.10711674
  WF centre and spread    3  (  0.082464, -0.082464,  0.163501 )     2.10711573
  Sum of centres and spreads (  0.001427, -0.001427, -0.001426 )     6.32134880
 
     38    -0.349E-11     0.0000218825        6.3213488071       0.09  <-- CONV
        O_D=      0.0216423 O_OD=      0.2481516 O_TOT=      6.3213488 <-- SPRD
 Delta: O_D= -0.1169186E-10 O_OD=  0.8200746E-11 O_TOT= -0.3491429E-11 <-- DLTA
 ------------------------------------------------------------------------------
 Cycle:     39
  WF centre and spread    1  ( -0.163501, -0.082463, -0.082463 )     2.10711632
  WF centre and spread    2  (  0.082464,  0.163500, -0.082463 )     2.10711674
  WF centre and spread    3  (  0.082464, -0.082464,  0.163501 )     2.10711573
  Sum of centres and spreads (  0.001427, -0.001427, -0.001426 )     6.32134880
 
     39    -0.229E-08     0.0000218683        6.3213488048       0.10  <-- CONV
        O_D=      0.0216423 O_OD=      0.2481516 O_TOT=      6.3213488 <-- SPRD
 Delta: O_D= -0.1626255E-07 O_OD=  0.1397129E-07 O_TOT= -0.2291252E-08 <-- DLTA
 ------------------------------------------------------------------------------
 Cycle:     40
  WF centre and spread    1  ( -0.163500, -0.082463, -0.082463 )     2.10711632
  WF centre and spread    2  (  0.082464,  0.163500, -0.082463 )     2.10711674
  WF centre and spread    3  (  0.082463, -0.082464,  0.163501 )     2.10711573
  Sum of centres and spreads (  0.001427, -0.001427, -0.001426 )     6.32134879
 
     40    -0.587E-09     0.0000253120        6.3213488042       0.10  <-- CONV
        O_D=      0.0216423 O_OD=      0.2481516 O_TOT=      6.3213488 <-- SPRD
 Delta: O_D= -0.2571155E-07 O_OD=  0.2512445E-07 O_TOT= -0.5870975E-09 <-- DLTA
 ------------------------------------------------------------------------------
 Cycle:     41
  WF centre and spread    1  ( -0.163500, -0.082463, -0.082463 )     2.10711632
  WF centre and spread    2  (  0.082463,  0.163499, -0.082463 )     2.10711674
  WF centre and spread    3  (  0.082463, -0.082463,  0.163500 )     2.10711573
  Sum of centres and spreads (  0.001427, -0.001427, -0.001426 )     6.32134879
 
     41    -0.106E-08     0.0000329660        6.3213488031       0.10  <-- CONV
        O_D=      0.0216423 O_OD=      0.2481517 O_TOT=      6.3213488 <-- SPRD
 Delta: O_D= -0.3881674E-07 O_OD=  0.3775675E-07 O_TOT= -0.1059986E-08 <-- DLTA
 ------------------------------------------------------------------------------
 Cycle:     42
  WF centre and spread    1  ( -0.163499, -0.082462, -0.082463 )     2.10711632
  WF centre and spread    2  (  0.082463,  0.163499, -0.082463 )     2.10711674
  WF centre and spread    3  (  0.082463, -0.082463,  0.163500 )     2.10711573
  Sum of centres and spreads (  0.001427, -0.001426, -0.001426 )     6.32134879
 
     42    -0.786E-09     0.0000268769        6.3213488024       0.10  <-- CONV
        O_D=      0.0216422 O_OD=      0.2481517 O_TOT=      6.3213488 <-- SPRD
 Delta: O_D= -0.3511969E-07 O_OD=  0.3433414E-07 O_TOT= -0.7855485E-09 <-- DLTA
 ------------------------------------------------------------------------------
 Cycle:     43
  WF centre and spread    1  ( -0.163499, -0.082462, -0.082463 )     2.10711632
  WF centre and spread    2  (  0.082463,  0.163499, -0.082463 )     2.10711674
  WF centre and spread    3  (  0.082463, -0.082463,  0.163500 )     2.10711573
  Sum of centres and spreads (  0.001427, -0.001426, -0.001426 )     6.32134879
 
     43    -0.338E-11     0.0000216105        6.3213488024       0.10  <-- CONV
        O_D=      0.0216422 O_OD=      0.2481517 O_TOT=      6.3213488 <-- SPRD
 Delta: O_D= -0.4447511E-10 O_OD=  0.4109915E-10 O_TOT= -0.3375966E-11 <-- DLTA
 ------------------------------------------------------------------------------
 Cycle:     44
  WF centre and spread    1  ( -0.163499, -0.082462, -0.082463 )     2.10711632
  WF centre and spread    2  (  0.082463,  0.163499, -0.082463 )     2.10711674
  WF centre and spread    3  (  0.082463, -0.082463,  0.163500 )     2.10711573
  Sum of centres and spreads (  0.001427, -0.001426, -0.001426 )     6.32134879
 
     44    -0.217E-08     0.0000215941        6.3213488002       0.11  <-- CONV
        O_D=      0.0216422 O_OD=      0.2481518 O_TOT=      6.3213488 <-- SPRD
 Delta: O_D= -0.4910786E-07 O_OD=  0.4693319E-07 O_TOT= -0.2174668E-08 <-- DLTA
 ------------------------------------------------------------------------------
 Cycle:     45
  WF centre and spread    1  ( -0.163499, -0.082462, -0.082463 )     2.10711632
  WF centre and spread    2  (  0.082463,  0.163499, -0.082463 )     2.10711674
  WF centre and spread    3  (  0.082463, -0.082463,  0.163500 )     2.10711573
  Sum of centres and spreads (  0.001427, -0.001426, -0.001426 )     6.32134879
 
     45    -0.119E-11     0.0000112799        6.3213488002       0.11  <-- CONV
        O_D=      0.0216422 O_OD=      0.2481518 O_TOT=      6.3213488 <-- SPRD
 Delta: O_D= -0.5178905E-10 O_OD=  0.5059866E-10 O_TOT= -0.1190159E-11 <-- DLTA
 ------------------------------------------------------------------------------
 Cycle:     46
  WF centre and spread    1  ( -0.163499, -0.082462, -0.082463 )     2.10711632
  WF centre and spread    2  (  0.082463,  0.163499, -0.082463 )     2.10711674
  WF centre and spread    3  (  0.082463, -0.082463,  0.163500 )     2.10711573
  Sum of centres and spreads (  0.001427, -0.001427, -0.001426 )     6.32134879
 
     46    -0.556E-09     0.0000112705        6.3213487996       0.11  <-- CONV
        O_D=      0.0216421 O_OD=      0.2481518 O_TOT=      6.3213488 <-- SPRD
 Delta: O_D= -0.5262700E-07 O_OD=  0.5207050E-07 O_TOT= -0.5564980E-09 <-- DLTA
 ------------------------------------------------------------------------------
 Cycle:     47
  WF centre and spread    1  ( -0.163499, -0.082462, -0.082463 )     2.10711632
  WF centre and spread    2  (  0.082463,  0.163499, -0.082463 )     2.10711674
  WF centre and spread    3  (  0.082463, -0.082463,  0.163500 )     2.10711573
  Sum of centres and spreads (  0.001427, -0.001427, -0.001426 )     6.32134879
 
     47    -0.443E-10     0.0000106169        6.3213487996       0.11  <-- CONV
        O_D=      0.0216421 O_OD=      0.2481518 O_TOT=      6.3213488 <-- SPRD
 Delta: O_D= -0.1121867E-07 O_OD=  0.1117439E-07 O_TOT= -0.4428369E-10 <-- DLTA
 ------------------------------------------------------------------------------
 Cycle:     48
  WF centre and spread    1  ( -0.163499, -0.082462, -0.082463 )     2.10711632
  WF centre and spread    2  (  0.082463,  0.163499, -0.082463 )     2.10711674
  WF centre and spread    3  (  0.082463, -0.082463,  0.163500 )     2.10711573
  Sum of centres and spreads (  0.001427, -0.001427, -0.001426 )     6.32134879
 
     48    -0.110E-11     0.0000108501        6.3213487996       0.11  <-- CONV
        O_D=      0.0216421 O_OD=      0.2481518 O_TOT=      6.3213488 <-- SPRD
 Delta: O_D= -0.1020184E-09 O_OD=  0.1009216E-09 O_TOT= -0.1096900E-11 <-- DLTA
 ------------------------------------------------------------------------------
 Cycle:     49
  WF centre and spread    1  ( -0.163499, -0.082462, -0.082463 )     2.10711632
  WF centre and spread    2  (  0.082463,  0.163499, -0.082463 )     2.10711674
  WF centre and spread    3  (  0.082463, -0.082463,  0.163500 )     2.10711573
  Sum of centres and spreads (  0.001427, -0.001427, -0.001426 )     6.32134879
 
     49    -0.177E-09     0.0000108353        6.3213487994       0.11  <-- CONV
        O_D=      0.0216421 O_OD=      0.2481518 O_TOT=      6.3213488 <-- SPRD
 Delta: O_D= -0.3402921E-08 O_OD=  0.3226351E-08 O_TOT= -0.1765699E-09 <-- DLTA
 ------------------------------------------------------------------------------
 Cycle:     50
  WF centre and spread    1  ( -0.163499, -0.082462, -0.082463 )     2.10711632
  WF centre and spread    2  (  0.082463,  0.163499, -0.082463 )     2.10711674
  WF centre and spread    3  (  0.082463, -0.082463,  0.163500 )     2.10711573
  Sum of centres and spreads (  0.001427, -0.001427, -0.001426 )     6.32134879
 
     50    -0.513E-12     0.0000067110        6.3213487994       0.12  <-- CONV
        O_D=      0.0216421 O_OD=      0.2481518 O_TOT=      6.3213488 <-- SPRD
 Delta: O_D= -0.1763944E-10 O_OD=  0.1712688E-10 O_TOT= -0.5133671E-12 <-- DLTA
 ------------------------------------------------------------------------------
 Cycle:     51
  WF centre and spread    1  ( -0.163499, -0.082462, -0.082463 )     2.10711632
  WF centre and spread    2  (  0.082463,  0.163499, -0.082463 )     2.10711674
  WF centre and spread    3  (  0.082463, -0.082463,  0.163500 )     2.10711573
  Sum of centres and spreads (  0.001427, -0.001427, -0.001426 )     6.32134879
 
     51    -0.133E-09     0.0000067001        6.3213487993       0.12  <-- CONV
        O_D=      0.0216421 O_OD=      0.2481518 O_TOT=      6.3213488 <-- SPRD
 Delta: O_D= -0.7143171E-08 O_OD=  0.7010215E-08 O_TOT= -0.1329550E-09 <-- DLTA
 ------------------------------------------------------------------------------
 Cycle:     52
  WF centre and spread    1  ( -0.163499, -0.082462, -0.082463 )     2.10711632
  WF centre and spread    2  (  0.082463,  0.163499, -0.082463 )     2.10711674
  WF centre and spread    3  (  0.082463, -0.082463,  0.163500 )     2.10711573
  Sum of centres and spreads (  0.001427, -0.001427, -0.001426 )     6.32134879
 
     52    -0.341E-12     0.0000049962        6.3213487993       0.12  <-- CONV
        O_D=      0.0216421 O_OD=      0.2481518 O_TOT=      6.3213488 <-- SPRD
 Delta: O_D= -0.2946300E-10 O_OD=  0.2912282E-10 O_TOT= -0.3410605E-12 <-- DLTA
 ------------------------------------------------------------------------------
 Cycle:     53
  WF centre and spread    1  ( -0.163499, -0.082462, -0.082463 )     2.10711632
  WF centre and spread    2  (  0.082463,  0.163499, -0.082463 )     2.10711674
  WF centre and spread    3  (  0.082463, -0.082463,  0.163500 )     2.10711573
  Sum of centres and spreads (  0.001427, -0.001427, -0.001426 )     6.32134879
 
     53    -0.520E-12     0.0000049970        6.3213487993       0.12  <-- CONV
        O_D=      0.0216421 O_OD=      0.2481518 O_TOT=      6.3213488 <-- SPRD
 Delta: O_D= -0.4227418E-10 O_OD=  0.4175402E-10 O_TOT= -0.5195844E-12 <-- DLTA
 ------------------------------------------------------------------------------
 Cycle:     54
  WF centre and spread    1  ( -0.163499, -0.082462, -0.082463 )     2.10711632
  WF centre and spread    2  (  0.082463,  0.163499, -0.082463 )     2.10711674
  WF centre and spread    3  (  0.082463, -0.082463,  0.163500 )     2.10711573
  Sum of centres and spreads (  0.001427, -0.001427, -0.001426 )     6.32134879
 
     54    -0.699E-12     0.0000049952        6.3213487993       0.12  <-- CONV
        O_D=      0.0216421 O_OD=      0.2481518 O_TOT=      6.3213488 <-- SPRD
 Delta: O_D= -0.5504670E-10 O_OD=  0.5434730E-10 O_TOT= -0.6989964E-12 <-- DLTA
 ------------------------------------------------------------------------------
 Cycle:     55
  WF centre and spread    1  ( -0.163499, -0.082462, -0.082463 )     2.10711632
  WF centre and spread    2  (  0.082463,  0.163499, -0.082463 )     2.10711674
  WF centre and spread    3  (  0.082463, -0.082463,  0.163500 )     2.10711573
  Sum of centres and spreads (  0.001427, -0.001427, -0.001426 )     6.32134879
 
     55    -0.180E-12     0.0000049909        6.3213487993       0.12  <-- CONV
        O_D=      0.0216421 O_OD=      0.2481518 O_TOT=      6.3213488 <-- SPRD
 Delta: O_D= -0.1280205E-10 O_OD=  0.1262224E-10 O_TOT= -0.1803002E-12 <-- DLTA
 ------------------------------------------------------------------------------
 Cycle:     56
  WF centre and spread    1  ( -0.163499, -0.082462, -0.082463 )     2.10711632
  WF centre and spread    2  (  0.082463,  0.163499, -0.082463 )     2.10711674
  WF centre and spread    3  (  0.082463, -0.082463,  0.163500 )     2.10711573
  Sum of centres and spreads (  0.001427, -0.001427, -0.001426 )     6.32134879
 
     56    -0.360E-12     0.0000049884        6.3213487993       0.12  <-- CONV
        O_D=      0.0216421 O_OD=      0.2481518 O_TOT=      6.3213488 <-- SPRD
 Delta: O_D= -0.2559068E-10 O_OD=  0.2523118E-10 O_TOT= -0.3597123E-12 <-- DLTA
 ------------------------------------------------------------------------------
 Cycle:     57
  WF centre and spread    1  ( -0.163499, -0.082462, -0.082463 )     2.10711632
  WF centre and spread    2  (  0.082463,  0.163499, -0.082463 )     2.10711674
  WF centre and spread    3  (  0.082463, -0.082463,  0.163500 )     2.10711573
  Sum of centres and spreads (  0.001427, -0.001427, -0.001426 )     6.32134879
 
     57    -0.538E-12     0.0000049834        6.3213487993       0.13  <-- CONV
        O_D=      0.0216421 O_OD=      0.2481518 O_TOT=      6.3213488 <-- SPRD
 Delta: O_D= -0.3833971E-10 O_OD=  0.3780146E-10 O_TOT= -0.5382361E-12 <-- DLTA
 ------------------------------------------------------------------------------
 Cycle:     58
  WF centre and spread    1  ( -0.163499, -0.082462, -0.082463 )     2.10711632
  WF centre and spread    2  (  0.082463,  0.163499, -0.082463 )     2.10711674
  WF centre and spread    3  (  0.082463, -0.082463,  0.163500 )     2.10711573
  Sum of centres and spreads (  0.001427, -0.001427, -0.001426 )     6.32134879
 
     58    -0.714E-12     0.0000049758        6.3213487993       0.13  <-- CONV
        O_D=      0.0216421 O_OD=      0.2481518 O_TOT=      6.3213488 <-- SPRD
 Delta: O_D= -0.5102344E-10 O_OD=  0.5030940E-10 O_TOT= -0.7140954E-12 <-- DLTA
 ------------------------------------------------------------------------------
 Cycle:     59
  WF centre and spread    1  ( -0.163499, -0.082462, -0.082462 )     2.10711632
  WF centre and spread    2  (  0.082463,  0.163499, -0.082463 )     2.10711674
  WF centre and spread    3  (  0.082463, -0.082463,  0.163500 )     2.10711573
  Sum of centres and spreads (  0.001427, -0.001427, -0.001426 )     6.32134879
 
     59    -0.162E-09     0.0000049658        6.3213487991       0.13  <-- CONV
        O_D=      0.0216421 O_OD=      0.2481519 O_TOT=      6.3213488 <-- SPRD
 Delta: O_D= -0.1799162E-07 O_OD=  0.1782918E-07 O_TOT= -0.1624407E-09 <-- DLTA
 ------------------------------------------------------------------------------
 Cycle:     60
  WF centre and spread    1  ( -0.163499, -0.082462, -0.082462 )     2.10711632
  WF centre and spread    2  (  0.082463,  0.163499, -0.082463 )     2.10711674
  WF centre and spread    3  (  0.082463, -0.082463,  0.163500 )     2.10711573
  Sum of centres and spreads (  0.001427, -0.001427, -0.001426 )     6.32134879
 
     60    -0.546E-12     0.0000055703        6.3213487991       0.13  <-- CONV
        O_D=      0.0216421 O_OD=      0.2481519 O_TOT=      6.3213488 <-- SPRD
 Delta: O_D= -0.9215537E-10 O_OD=  0.9160964E-10 O_TOT= -0.5462297E-12 <-- DLTA
 ------------------------------------------------------------------------------
 Cycle:     61
  WF centre and spread    1  ( -0.163499, -0.082462, -0.082462 )     2.10711632
  WF centre and spread    2  (  0.082463,  0.163499, -0.082463 )     2.10711674
  WF centre and spread    3  (  0.082463, -0.082463,  0.163500 )     2.10711573
  Sum of centres and spreads (  0.001427, -0.001427, -0.001426 )     6.32134879
 
     61    -0.225E-12     0.0000055818        6.3213487991       0.13  <-- CONV
        O_D=      0.0216421 O_OD=      0.2481519 O_TOT=      6.3213488 <-- SPRD
 Delta: O_D= -0.1261417E-10 O_OD=  0.1238876E-10 O_TOT= -0.2247091E-12 <-- DLTA
 ------------------------------------------------------------------------------
 Cycle:     62
  WF centre and spread    1  ( -0.163499, -0.082462, -0.082462 )     2.10711632
  WF centre and spread    2  (  0.082463,  0.163499, -0.082463 )     2.10711674
  WF centre and spread    3  (  0.082463, -0.082463,  0.163500 )     2.10711573
  Sum of centres and spreads (  0.001427, -0.001427, -0.001426 )     6.32134879
 
     62    -0.449E-12     0.0000055743        6.3213487991       0.13  <-- CONV
        O_D=      0.0216421 O_OD=      0.2481519 O_TOT=      6.3213488 <-- SPRD
 Delta: O_D= -0.2519263E-10 O_OD=  0.2474440E-10 O_TOT= -0.4485301E-12 <-- DLTA
 ------------------------------------------------------------------------------
 Cycle:     63
  WF centre and spread    1  ( -0.163499, -0.082462, -0.082462 )     2.10711632
  WF centre and spread    2  (  0.082463,  0.163499, -0.082463 )     2.10711674
  WF centre and spread    3  (  0.082463, -0.082463,  0.163500 )     2.10711573
  Sum of centres and spreads (  0.001427, -0.001427, -0.001426 )     6.32134879
 
     63    -0.668E-12     0.0000055594        6.3213487991       0.13  <-- CONV
        O_D=      0.0216421 O_OD=      0.2481519 O_TOT=      6.3213488 <-- SPRD
 Delta: O_D= -0.3766649E-10 O_OD=  0.3699893E-10 O_TOT= -0.6679102E-12 <-- DLTA
 ------------------------------------------------------------------------------
 Cycle:     64
  WF centre and spread    1  ( -0.163499, -0.082462, -0.082462 )     2.10711632
  WF centre and spread    2  (  0.082463,  0.163499, -0.082463 )     2.10711674
  WF centre and spread    3  (  0.082463, -0.082463,  0.163499 )     2.10711573
  Sum of centres and spreads (  0.001427, -0.001427, -0.001426 )     6.32134879
 
     64    -0.635E-10     0.0000055372        6.3213487990       0.13  <-- CONV
        O_D=      0.0216421 O_OD=      0.2481519 O_TOT=      6.3213488 <-- SPRD
 Delta: O_D= -0.1379478E-07 O_OD=  0.1373125E-07 O_TOT= -0.6353140E-10 <-- DLTA
 ------------------------------------------------------------------------------
 Cycle:     65
  WF centre and spread    1  ( -0.163499, -0.082462, -0.082462 )     2.10711632
  WF centre and spread    2  (  0.082463,  0.163499, -0.082463 )     2.10711674
  WF centre and spread    3  (  0.082463, -0.082463,  0.163499 )     2.10711573
  Sum of centres and spreads (  0.001427, -0.001427, -0.001426 )     6.32134879
 
     65    -0.369E-12     0.0000071505        6.3213487990       0.14  <-- CONV
        O_D=      0.0216421 O_OD=      0.2481519 O_TOT=      6.3213488 <-- SPRD
 Delta: O_D= -0.1172371E-10 O_OD=  0.1135425E-10 O_TOT= -0.3685940E-12 <-- DLTA
 ------------------------------------------------------------------------------
 Cycle:     66
  WF centre and spread    1  ( -0.163499, -0.082462, -0.082462 )     2.10711632
  WF centre and spread    2  (  0.082463,  0.163499, -0.082463 )     2.10711674
  WF centre and spread    3  (  0.082463, -0.082463,  0.163499 )     2.10711573
  Sum of centres and spreads (  0.001427, -0.001427, -0.001426 )     6.32134879
 
     66    -0.735E-12     0.0000071376        6.3213487990       0.14  <-- CONV
        O_D=      0.0216421 O_OD=      0.2481519 O_TOT=      6.3213488 <-- SPRD
 Delta: O_D= -0.2340196E-10 O_OD=  0.2266706E-10 O_TOT= -0.7354117E-12 <-- DLTA
 ------------------------------------------------------------------------------
 Cycle:     67
  WF centre and spread    1  ( -0.163499, -0.082462, -0.082462 )     2.10711632
  WF centre and spread    2  (  0.082463,  0.163499, -0.082463 )     2.10711674
  WF centre and spread    3  (  0.082463, -0.082463,  0.163499 )     2.10711573
  Sum of centres and spreads (  0.001427, -0.001427, -0.001426 )     6.32134879
 
     67    -0.101E-09     0.0000071119        6.3213487989       0.14  <-- CONV
        O_D=      0.0216421 O_OD=      0.2481519 O_TOT=      6.3213488 <-- SPRD
 Delta: O_D= -0.5879712E-08 O_OD=  0.5779002E-08 O_TOT= -0.1007097E-09 <-- DLTA
 ------------------------------------------------------------------------------
 Cycle:     68
  WF centre and spread    1  ( -0.163499, -0.082462, -0.082462 )     2.10711632
  WF centre and spread    2  (  0.082463,  0.163499, -0.082463 )     2.10711674
  WF centre and spread    3  (  0.082463, -0.082463,  0.163499 )     2.10711573
  Sum of centres and spreads (  0.001427, -0.001427, -0.001426 )     6.32134879
 
     68    -0.986E-13     0.0000033084        6.3213487989       0.14  <-- CONV
        O_D=      0.0216421 O_OD=      0.2481519 O_TOT=      6.3213488 <-- SPRD
 Delta: O_D= -0.1838809E-10 O_OD=  0.1828976E-10 O_TOT= -0.9858780E-13 <-- DLTA
 ------------------------------------------------------------------------------
 Cycle:     69
  WF centre and spread    1  ( -0.163499, -0.082462, -0.082462 )     2.10711632
  WF centre and spread    2  (  0.082463,  0.163499, -0.082463 )     2.10711674
  WF centre and spread    3  (  0.082463, -0.082463,  0.163499 )     2.10711573
  Sum of centres and spreads (  0.001427, -0.001427, -0.001426 )     6.32134879
 
     69    -0.177E-12     0.0000033101        6.3213487989       0.14  <-- CONV
        O_D=      0.0216421 O_OD=      0.2481519 O_TOT=      6.3213488 <-- SPRD
 Delta: O_D= -0.2941150E-10 O_OD=  0.2923442E-10 O_TOT= -0.1767475E-12 <-- DLTA
 ------------------------------------------------------------------------------
 Cycle:     70
  WF centre and spread    1  ( -0.163499, -0.082462, -0.082462 )     2.10711632
  WF centre and spread    2  (  0.082463,  0.163499, -0.082463 )     2.10711674
  WF centre and spread    3  (  0.082463, -0.082463,  0.163499 )     2.10711573
  Sum of centres and spreads (  0.001427, -0.001427, -0.001426 )     6.32134879
 
     70    -0.258E-12     0.0000033108        6.3213487989       0.14  <-- CONV
        O_D=      0.0216421 O_OD=      0.2481519 O_TOT=      6.3213488 <-- SPRD
 Delta: O_D= -0.4042738E-10 O_OD=  0.4017023E-10 O_TOT= -0.2575717E-12 <-- DLTA
 ------------------------------------------------------------------------------
 Cycle:     71
  WF centre and spread    1  ( -0.163499, -0.082462, -0.082462 )     2.10711632
  WF centre and spread    2  (  0.082463,  0.163499, -0.082463 )     2.10711674
  WF centre and spread    3  (  0.082463, -0.082463,  0.163499 )     2.10711573
  Sum of centres and spreads (  0.001427, -0.001427, -0.001426 )     6.32134879
 
     71    -0.790E-13     0.0000033107        6.3213487989       0.14  <-- CONV
        O_D=      0.0216421 O_OD=      0.2481519 O_TOT=      6.3213488 <-- SPRD
 Delta: O_D= -0.1099931E-10 O_OD=  0.1091999E-10 O_TOT= -0.7904788E-13 <-- DLTA
 ------------------------------------------------------------------------------
 Cycle:     72
  WF centre and spread    1  ( -0.163499, -0.082462, -0.082462 )     2.10711632
  WF centre and spread    2  (  0.082463,  0.163499, -0.082463 )     2.10711674
  WF centre and spread    3  (  0.082463, -0.082463,  0.163499 )     2.10711573
  Sum of centres and spreads (  0.001427, -0.001427, -0.001426 )     6.32134879
 
     72    -0.159E-12     0.0000033097        6.3213487989       0.14  <-- CONV
        O_D=      0.0216421 O_OD=      0.2481519 O_TOT=      6.3213488 <-- SPRD
 Delta: O_D= -0.2199135E-10 O_OD=  0.2183292E-10 O_TOT= -0.1589839E-12 <-- DLTA
 ------------------------------------------------------------------------------
 Cycle:     73
  WF centre and spread    1  ( -0.163499, -0.082462, -0.082462 )     2.10711632
  WF centre and spread    2  (  0.082463,  0.163499, -0.082463 )     2.10711674
  WF centre and spread    3  (  0.082463, -0.082463,  0.163499 )     2.10711573
  Sum of centres and spreads (  0.001427, -0.001427, -0.001426 )     6.32134879
 
     73    -0.236E-12     0.0000033078        6.3213487989       0.15  <-- CONV
        O_D=      0.0216421 O_OD=      0.2481519 O_TOT=      6.3213488 <-- SPRD
 Delta: O_D= -0.3296265E-10 O_OD=  0.3272557E-10 O_TOT= -0.2362555E-12 <-- DLTA
 ------------------------------------------------------------------------------
 Cycle:     74
  WF centre and spread    1  ( -0.163499, -0.082462, -0.082462 )     2.10711632
  WF centre and spread    2  (  0.082463,  0.163499, -0.082463 )     2.10711674
  WF centre and spread    3  (  0.082463, -0.082463,  0.163499 )     2.10711573
  Sum of centres and spreads (  0.001427, -0.001427, -0.001426 )     6.32134879
 
     74    -0.315E-12     0.0000033050        6.3213487989       0.15  <-- CONV
        O_D=      0.0216421 O_OD=      0.2481519 O_TOT=      6.3213488 <-- SPRD
 Delta: O_D= -0.4389995E-10 O_OD=  0.4358455E-10 O_TOT= -0.3153033E-12 <-- DLTA
 ------------------------------------------------------------------------------
 Cycle:     75
  WF centre and spread    1  ( -0.163499, -0.082462, -0.082462 )     2.10711632
  WF centre and spread    2  (  0.082463,  0.163499, -0.082463 )     2.10711674
  WF centre and spread    3  (  0.082463, -0.082463,  0.163499 )     2.10711573
  Sum of centres and spreads (  0.001427, -0.001427, -0.001426 )     6.32134879
 
     75    -0.393E-12     0.0000033012        6.3213487989       0.15  <-- CONV
        O_D=      0.0216421 O_OD=      0.2481519 O_TOT=      6.3213488 <-- SPRD
 Delta: O_D= -0.5479056E-10 O_OD=  0.5439751E-10 O_TOT= -0.3934630E-12 <-- DLTA
 ------------------------------------------------------------------------------
 Cycle:     76
  WF centre and spread    1  ( -0.163499, -0.082462, -0.082462 )     2.10711632
  WF centre and spread    2  (  0.082463,  0.163499, -0.082463 )     2.10711674
  WF centre and spread    3  (  0.082463, -0.082463,  0.163499 )     2.10711573
  Sum of centres and spreads (  0.001427, -0.001427, -0.001426 )     6.32134879
 
     76    -0.470E-12     0.0000032966        6.3213487989       0.15  <-- CONV
        O_D=      0.0216421 O_OD=      0.2481519 O_TOT=      6.3213488 <-- SPRD
 Delta: O_D= -0.6562241E-10 O_OD=  0.6515241E-10 O_TOT= -0.4698464E-12 <-- DLTA
 ------------------------------------------------------------------------------
 Cycle:     77
  WF centre and spread    1  ( -0.163499, -0.082462, -0.082462 )     2.10711632
  WF centre and spread    2  (  0.082463,  0.163499, -0.082463 )     2.10711674
  WF centre and spread    3  (  0.082463, -0.082463,  0.163499 )     2.10711573
  Sum of centres and spreads (  0.001427, -0.001427, -0.001426 )     6.32134879
 
     77    -0.782E-13     0.0000032911        6.3213487989       0.15  <-- CONV
        O_D=      0.0216421 O_OD=      0.2481519 O_TOT=      6.3213488 <-- SPRD
 Delta: O_D= -0.1098037E-10 O_OD=  0.1090214E-10 O_TOT= -0.7815970E-13 <-- DLTA
 ------------------------------------------------------------------------------
 Cycle:     78
  WF centre and spread    1  ( -0.163499, -0.082462, -0.082462 )     2.10711632
  WF centre and spread    2  (  0.082463,  0.163499, -0.082463 )     2.10711674
  WF centre and spread    3  (  0.082463, -0.082463,  0.163499 )     2.10711573
  Sum of centres and spreads (  0.001427, -0.001427, -0.001426 )     6.32134879
 
     78    -0.157E-12     0.0000032902        6.3213487989       0.15  <-- CONV
        O_D=      0.0216421 O_OD=      0.2481519 O_TOT=      6.3213488 <-- SPRD
 Delta: O_D= -0.2195382E-10 O_OD=  0.2179737E-10 O_TOT= -0.1572076E-12 <-- DLTA
 ------------------------------------------------------------------------------
 Cycle:     79
  WF centre and spread    1  ( -0.163499, -0.082462, -0.082462 )     2.10711632
  WF centre and spread    2  (  0.082463,  0.163499, -0.082463 )     2.10711674
  WF centre and spread    3  (  0.082463, -0.082463,  0.163499 )     2.10711573
  Sum of centres and spreads (  0.001427, -0.001427, -0.001426 )     6.32134879
 
     79    -0.234E-12     0.0000032885        6.3213487989       0.15  <-- CONV
        O_D=      0.0216421 O_OD=      0.2481519 O_TOT=      6.3213488 <-- SPRD
 Delta: O_D= -0.3290776E-10 O_OD=  0.3267317E-10 O_TOT= -0.2344791E-12 <-- DLTA
 ------------------------------------------------------------------------------
 Cycle:     80
  WF centre and spread    1  ( -0.163499, -0.082462, -0.082462 )     2.10711632
  WF centre and spread    2  (  0.082463,  0.163499, -0.082463 )     2.10711674
  WF centre and spread    3  (  0.082463, -0.082463,  0.163499 )     2.10711573
  Sum of centres and spreads (  0.001427, -0.001427, -0.001426 )     6.32134879
 
     80    -0.312E-12     0.0000032858        6.3213487989       0.15  <-- CONV
        O_D=      0.0216421 O_OD=      0.2481519 O_TOT=      6.3213488 <-- SPRD
 Delta: O_D= -0.4382966E-10 O_OD=  0.4351786E-10 O_TOT= -0.3117506E-12 <-- DLTA
 ------------------------------------------------------------------------------
 Cycle:     81
  WF centre and spread    1  ( -0.163499, -0.082462, -0.082462 )     2.10711632
  WF centre and spread    2  (  0.082463,  0.163499, -0.082463 )     2.10711674
  WF centre and spread    3  (  0.082463, -0.082463,  0.163499 )     2.10711573
  Sum of centres and spreads (  0.001427, -0.001427, -0.001426 )     6.32134879
 
     81    -0.388E-12     0.0000032823        6.3213487989       0.15  <-- CONV
        O_D=      0.0216421 O_OD=      0.2481519 O_TOT=      6.3213488 <-- SPRD
 Delta: O_D= -0.5470753E-10 O_OD=  0.5431891E-10 O_TOT= -0.3881340E-12 <-- DLTA
 ------------------------------------------------------------------------------
 Cycle:     82
  WF centre and spread    1  ( -0.163499, -0.082462, -0.082462 )     2.10711632
  WF centre and spread    2  (  0.082463,  0.163499, -0.082463 )     2.10711674
  WF centre and spread    3  (  0.082463, -0.082463,  0.163499 )     2.10711573
  Sum of centres and spreads (  0.001427, -0.001427, -0.001426 )     6.32134879
 
     82    -0.465E-12     0.0000032780        6.3213487989       0.16  <-- CONV
        O_D=      0.0216421 O_OD=      0.2481519 O_TOT=      6.3213488 <-- SPRD
 Delta: O_D= -0.6552995E-10 O_OD=  0.6506523E-10 O_TOT= -0.4654055E-12 <-- DLTA
 ------------------------------------------------------------------------------
 Cycle:     83
  WF centre and spread    1  ( -0.163499, -0.082462, -0.082462 )     2.10711632
  WF centre and spread    2  (  0.082463,  0.163499, -0.082463 )     2.10711674
  WF centre and spread    3  (  0.082463, -0.082463,  0.163499 )     2.10711573
  Sum of centres and spreads (  0.001427, -0.001427, -0.001426 )     6.32134879
 
     83    -0.764E-13     0.0000032729        6.3213487989       0.16  <-- CONV
        O_D=      0.0216421 O_OD=      0.2481519 O_TOT=      6.3213488 <-- SPRD
 Delta: O_D= -0.1096146E-10 O_OD=  0.1088410E-10 O_TOT= -0.7638334E-13 <-- DLTA
 ------------------------------------------------------------------------------
 Cycle:     84
  WF centre and spread    1  ( -0.163499, -0.082462, -0.082462 )     2.10711632
  WF centre and spread    2  (  0.082463,  0.163499, -0.082463 )     2.10711674
  WF centre and spread    3  (  0.082463, -0.082463,  0.163499 )     2.10711573
  Sum of centres and spreads (  0.001427, -0.001427, -0.001426 )     6.32134879
 
     84    -0.155E-12     0.0000032721        6.3213487989       0.16  <-- CONV
        O_D=      0.0216421 O_OD=      0.2481519 O_TOT=      6.3213488 <-- SPRD
 Delta: O_D= -0.2191650E-10 O_OD=  0.2176148E-10 O_TOT= -0.1554312E-12 <-- DLTA
 ------------------------------------------------------------------------------
 Cycle:     85
  WF centre and spread    1  ( -0.163499, -0.082462, -0.082462 )     2.10711632
  WF centre and spread    2  (  0.082463,  0.163499, -0.082463 )     2.10711674
  WF centre and spread    3  (  0.082463, -0.082463,  0.163499 )     2.10711573
  Sum of centres and spreads (  0.001427, -0.001427, -0.001426 )     6.32134879
 
     85    -0.232E-12     0.0000032704        6.3213487989       0.16  <-- CONV
        O_D=      0.0216421 O_OD=      0.2481519 O_TOT=      6.3213488 <-- SPRD
 Delta: O_D= -0.3285299E-10 O_OD=  0.3262124E-10 O_TOT= -0.2318146E-12 <-- DLTA
 ------------------------------------------------------------------------------
 Cycle:     86
  WF centre and spread    1  ( -0.163499, -0.082462, -0.082462 )     2.10711632
  WF centre and spread    2  (  0.082463,  0.163499, -0.082463 )     2.10711674
  WF centre and spread    3  (  0.082463, -0.082463,  0.163499 )     2.10711573
  Sum of centres and spreads (  0.001427, -0.001427, -0.001426 )     6.32134879
 
     86    -0.308E-12     0.0000032679        6.3213487989       0.16  <-- CONV
        O_D=      0.0216421 O_OD=      0.2481519 O_TOT=      6.3213488 <-- SPRD
 Delta: O_D= -0.4375930E-10 O_OD=  0.4345102E-10 O_TOT= -0.3081979E-12 <-- DLTA
 ------------------------------------------------------------------------------
 Cycle:     87
  WF centre and spread    1  ( -0.163499, -0.082462, -0.082462 )     2.10711632
  WF centre and spread    2  (  0.082463,  0.163499, -0.082463 )     2.10711674
  WF centre and spread    3  (  0.082463, -0.082463,  0.163499 )     2.10711573
  Sum of centres and spreads (  0.001427, -0.001427, -0.001426 )     6.32134879
 
     87    -0.385E-12     0.0000032647        6.3213487989       0.16  <-- CONV
        O_D=      0.0216421 O_OD=      0.2481519 O_TOT=      6.3213488 <-- SPRD
 Delta: O_D= -0.5462405E-10 O_OD=  0.5423936E-10 O_TOT= -0.3845813E-12 <-- DLTA
 ------------------------------------------------------------------------------
 Cycle:     88
  WF centre and spread    1  ( -0.163499, -0.082462, -0.082462 )     2.10711632
  WF centre and spread    2  (  0.082463,  0.163499, -0.082463 )     2.10711674
  WF centre and spread    3  (  0.082463, -0.082463,  0.163499 )     2.10711573
  Sum of centres and spreads (  0.001427, -0.001427, -0.001426 )     6.32134879
 
     88    -0.460E-12     0.0000032606        6.3213487989       0.16  <-- CONV
        O_D=      0.0216421 O_OD=      0.2481519 O_TOT=      6.3213488 <-- SPRD
 Delta: O_D= -0.6543641E-10 O_OD=  0.6497675E-10 O_TOT= -0.4600764E-12 <-- DLTA
 ------------------------------------------------------------------------------
 Cycle:     89
  WF centre and spread    1  ( -0.163499, -0.082462, -0.082462 )     2.10711632
  WF centre and spread    2  (  0.082463,  0.163499, -0.082463 )     2.10711674
  WF centre and spread    3  (  0.082463, -0.082463,  0.163499 )     2.10711573
  Sum of centres and spreads (  0.001427, -0.001427, -0.001426 )     6.32134879
 
     89    -0.764E-13     0.0000032558        6.3213487989       0.16  <-- CONV
        O_D=      0.0216421 O_OD=      0.2481519 O_TOT=      6.3213488 <-- SPRD
 Delta: O_D= -0.1094270E-10 O_OD=  0.1086603E-10 O_TOT= -0.7638334E-13 <-- DLTA
 ------------------------------------------------------------------------------
 Cycle:     90
  WF centre and spread    1  ( -0.163499, -0.082462, -0.082462 )     2.10711632
  WF centre and spread    2  (  0.082463,  0.163499, -0.082463 )     2.10711674
  WF centre and spread    3  (  0.082463, -0.082463,  0.163499 )     2.10711573
  Sum of centres and spreads (  0.001427, -0.001427, -0.001426 )     6.32134879
 
     90    -0.154E-12     0.0000032550        6.3213487989       0.16  <-- CONV
        O_D=      0.0216421 O_OD=      0.2481519 O_TOT=      6.3213488 <-- SPRD
 Delta: O_D= -0.2187923E-10 O_OD=  0.2172579E-10 O_TOT= -0.1536549E-12 <-- DLTA
 ------------------------------------------------------------------------------
 Cycle:     91
  WF centre and spread    1  ( -0.163499, -0.082462, -0.082462 )     2.10711632
  WF centre and spread    2  (  0.082463,  0.163499, -0.082463 )     2.10711674
  WF centre and spread    3  (  0.082463, -0.082463,  0.163499 )     2.10711573
  Sum of centres and spreads (  0.001427, -0.001427, -0.001426 )     6.32134879
 
     91    -0.229E-12     0.0000032535        6.3213487989       0.17  <-- CONV
        O_D=      0.0216421 O_OD=      0.2481519 O_TOT=      6.3213488 <-- SPRD
 Delta: O_D= -0.3279834E-10 O_OD=  0.3256892E-10 O_TOT= -0.2291500E-12 <-- DLTA
 ------------------------------------------------------------------------------
 Cycle:     92
  WF centre and spread    1  ( -0.163499, -0.082462, -0.082462 )     2.10711632
  WF centre and spread    2  (  0.082463,  0.163499, -0.082463 )     2.10711674
  WF centre and spread    3  (  0.082463, -0.082463,  0.163499 )     2.10711573
  Sum of centres and spreads (  0.001427, -0.001427, -0.001426 )     6.32134879
 
     92    -0.306E-12     0.0000032512        6.3213487989       0.17  <-- CONV
        O_D=      0.0216421 O_OD=      0.2481519 O_TOT=      6.3213488 <-- SPRD
 Delta: O_D= -0.4368888E-10 O_OD=  0.4338349E-10 O_TOT= -0.3055334E-12 <-- DLTA
 ------------------------------------------------------------------------------
 Cycle:     93
  WF centre and spread    1  ( -0.163499, -0.082462, -0.082462 )     2.10711632
  WF centre and spread    2  (  0.082463,  0.163499, -0.082463 )     2.10711674
  WF centre and spread    3  (  0.082463, -0.082463,  0.163499 )     2.10711573
  Sum of centres and spreads (  0.001427, -0.001427, -0.001426 )     6.32134879
 
     93    -0.381E-12     0.0000032481        6.3213487989       0.17  <-- CONV
        O_D=      0.0216421 O_OD=      0.2481519 O_TOT=      6.3213488 <-- SPRD
 Delta: O_D= -0.5454010E-10 O_OD=  0.5415929E-10 O_TOT= -0.3810285E-12 <-- DLTA
 ------------------------------------------------------------------------------
 Cycle:     94
  WF centre and spread    1  ( -0.163499, -0.082462, -0.082462 )     2.10711632
  WF centre and spread    2  (  0.082463,  0.163499, -0.082463 )     2.10711674
  WF centre and spread    3  (  0.082463, -0.082463,  0.163499 )     2.10711573
  Sum of centres and spreads (  0.001427, -0.001427, -0.001426 )     6.32134879
 
     94    -0.455E-12     0.0000032443        6.3213487989       0.17  <-- CONV
        O_D=      0.0216421 O_OD=      0.2481519 O_TOT=      6.3213488 <-- SPRD
 Delta: O_D= -0.6534187E-10 O_OD=  0.6488662E-10 O_TOT= -0.4547474E-12 <-- DLTA
 ------------------------------------------------------------------------------
 Cycle:     95
  WF centre and spread    1  ( -0.163499, -0.082462, -0.082462 )     2.10711632
  WF centre and spread    2  (  0.082463,  0.163499, -0.082463 )     2.10711674
  WF centre and spread    3  (  0.082463, -0.082463,  0.163499 )     2.10711573
  Sum of centres and spreads (  0.001427, -0.001427, -0.001426 )     6.32134879
 
     95    -0.764E-13     0.0000032398        6.3213487989       0.17  <-- CONV
        O_D=      0.0216421 O_OD=      0.2481519 O_TOT=      6.3213488 <-- SPRD
 Delta: O_D= -0.1092399E-10 O_OD=  0.1084832E-10 O_TOT= -0.7638334E-13 <-- DLTA
 ------------------------------------------------------------------------------
 Cycle:     96
  WF centre and spread    1  ( -0.163499, -0.082462, -0.082462 )     2.10711632
  WF centre and spread    2  (  0.082463,  0.163499, -0.082463 )     2.10711674
  WF centre and spread    3  (  0.082463, -0.082463,  0.163499 )     2.10711573
  Sum of centres and spreads (  0.001427, -0.001427, -0.001426 )     6.32134879
 
     96    -0.151E-12     0.0000032391        6.3213487989       0.17  <-- CONV
        O_D=      0.0216421 O_OD=      0.2481519 O_TOT=      6.3213488 <-- SPRD
 Delta: O_D= -0.2184214E-10 O_OD=  0.2169059E-10 O_TOT= -0.1509903E-12 <-- DLTA
 ------------------------------------------------------------------------------
 Cycle:     97
  WF centre and spread    1  ( -0.163499, -0.082462, -0.082462 )     2.10711632
  WF centre and spread    2  (  0.082463,  0.163499, -0.082463 )     2.10711674
  WF centre and spread    3  (  0.082463, -0.082463,  0.163499 )     2.10711573
  Sum of centres and spreads (  0.001427, -0.001427, -0.001426 )     6.32134879
 
[...]
  Sum of centres and spreads (  0.001427, -0.001427, -0.001426 )     6.32134879
 
    473    -0.506E-13     0.0000026461        6.3213487988       0.61  <-- CONV
        O_D=      0.0216420 O_OD=      0.2481519 O_TOT=      6.3213488 <-- SPRD
 Delta: O_D= -0.9120184E-11 O_OD=  0.9069523E-11 O_TOT= -0.5062617E-13 <-- DLTA
 ------------------------------------------------------------------------------
 Cycle:    474
  WF centre and spread    1  ( -0.163499, -0.082462, -0.082462 )     2.10711632
  WF centre and spread    2  (  0.082463,  0.163499, -0.082463 )     2.10711674
  WF centre and spread    3  (  0.082463, -0.082463,  0.163499 )     2.10711573
  Sum of centres and spreads (  0.001427, -0.001427, -0.001426 )     6.32134879
 
    474    -0.101E-12     0.0000026459        6.3213487988       0.61  <-- CONV
        O_D=      0.0216420 O_OD=      0.2481519 O_TOT=      6.3213488 <-- SPRD
 Delta: O_D= -0.1823844E-10 O_OD=  0.1813755E-10 O_TOT= -0.1012523E-12 <-- DLTA
 ------------------------------------------------------------------------------
 Cycle:    475
  WF centre and spread    1  ( -0.163499, -0.082462, -0.082462 )     2.10711632
  WF centre and spread    2  (  0.082463,  0.163499, -0.082463 )     2.10711674
  WF centre and spread    3  (  0.082463, -0.082463,  0.163499 )     2.10711573
  Sum of centres and spreads (  0.001427, -0.001427, -0.001426 )     6.32134879
 
    475    -0.151E-12     0.0000026455        6.3213487988       0.61  <-- CONV
        O_D=      0.0216420 O_OD=      0.2481519 O_TOT=      6.3213488 <-- SPRD
 Delta: O_D= -0.2735129E-10 O_OD=  0.2719958E-10 O_TOT= -0.1509903E-12 <-- DLTA
 ------------------------------------------------------------------------------
 Cycle:    476
  WF centre and spread    1  ( -0.163499, -0.082462, -0.082462 )     2.10711632
  WF centre and spread    2  (  0.082463,  0.163499, -0.082463 )     2.10711674
  WF centre and spread    3  (  0.082463, -0.082463,  0.163499 )     2.10711573
  Sum of centres and spreads (  0.001427, -0.001427, -0.001426 )     6.32134879
 
    476    -0.203E-12     0.0000026449        6.3213487988       0.61  <-- CONV
        O_D=      0.0216420 O_OD=      0.2481519 O_TOT=      6.3213488 <-- SPRD
 Delta: O_D= -0.3645555E-10 O_OD=  0.3625295E-10 O_TOT= -0.2033929E-12 <-- DLTA
 ------------------------------------------------------------------------------
 Cycle:    477
  WF centre and spread    1  ( -0.163499, -0.082462, -0.082462 )     2.10711632
  WF centre and spread    2  (  0.082463,  0.163499, -0.082463 )     2.10711674
  WF centre and spread    3  (  0.082463, -0.082463,  0.163499 )     2.10711573
  Sum of centres and spreads (  0.001427, -0.001427, -0.001426 )     6.32134879
 
    477    -0.252E-12     0.0000026442        6.3213487988       0.62  <-- CONV
        O_D=      0.0216420 O_OD=      0.2481519 O_TOT=      6.3213488 <-- SPRD
 Delta: O_D= -0.4554792E-10 O_OD=  0.4529538E-10 O_TOT= -0.2522427E-12 <-- DLTA
 ------------------------------------------------------------------------------
 Cycle:    478
  WF centre and spread    1  ( -0.163499, -0.082462, -0.082462 )     2.10711632
  WF centre and spread    2  (  0.082463,  0.163499, -0.082463 )     2.10711674
  WF centre and spread    3  (  0.082463, -0.082463,  0.163499 )     2.10711573
  Sum of centres and spreads (  0.001427, -0.001427, -0.001426 )     6.32134879
 
    478    -0.302E-12     0.0000026432        6.3213487988       0.62  <-- CONV
        O_D=      0.0216420 O_OD=      0.2481519 O_TOT=      6.3213488 <-- SPRD
 Delta: O_D= -0.5462507E-10 O_OD=  0.5432232E-10 O_TOT= -0.3019807E-12 <-- DLTA
 ------------------------------------------------------------------------------
 Cycle:    479
  WF centre and spread    1  ( -0.163499, -0.082462, -0.082462 )     2.10711632
  WF centre and spread    2  (  0.082463,  0.163499, -0.082463 )     2.10711674
  WF centre and spread    3  (  0.082463, -0.082463,  0.163499 )     2.10711573
  Sum of centres and spreads (  0.001427, -0.001427, -0.001426 )     6.32134879
 
    479    -0.506E-13     0.0000026421        6.3213487988       0.62  <-- CONV
        O_D=      0.0216420 O_OD=      0.2481519 O_TOT=      6.3213488 <-- SPRD
 Delta: O_D= -0.9105383E-11 O_OD=  0.9054840E-11 O_TOT= -0.5062617E-13 <-- DLTA
 ------------------------------------------------------------------------------
 Cycle:    480
  WF centre and spread    1  ( -0.163499, -0.082462, -0.082462 )     2.10711632
  WF centre and spread    2  (  0.082463,  0.163499, -0.082463 )     2.10711674
  WF centre and spread    3  (  0.082463, -0.082463,  0.163499 )     2.10711573
  Sum of centres and spreads (  0.001427, -0.001427, -0.001426 )     6.32134879
 
    480    -0.100E-12     0.0000026419        6.3213487988       0.62  <-- CONV
        O_D=      0.0216420 O_OD=      0.2481519 O_TOT=      6.3213488 <-- SPRD
 Delta: O_D= -0.1820875E-10 O_OD=  0.1810802E-10 O_TOT= -0.1003642E-12 <-- DLTA
 ------------------------------------------------------------------------------
 Cycle:    481
  WF centre and spread    1  ( -0.163499, -0.082462, -0.082462 )     2.10711632
  WF centre and spread    2  (  0.082463,  0.163499, -0.082463 )     2.10711674
  WF centre and spread    3  (  0.082463, -0.082463,  0.163499 )     2.10711573
  Sum of centres and spreads (  0.001427, -0.001427, -0.001426 )     6.32134879
 
    481    -0.153E-12     0.0000026415        6.3213487988       0.62  <-- CONV
        O_D=      0.0216420 O_OD=      0.2481519 O_TOT=      6.3213488 <-- SPRD
 Delta: O_D= -0.2730683E-10 O_OD=  0.2715486E-10 O_TOT= -0.1527667E-12 <-- DLTA
 ------------------------------------------------------------------------------
 Cycle:    482
  WF centre and spread    1  ( -0.163499, -0.082462, -0.082462 )     2.10711632
  WF centre and spread    2  (  0.082463,  0.163499, -0.082463 )     2.10711674
  WF centre and spread    3  (  0.082463, -0.082463,  0.163499 )     2.10711573
  Sum of centres and spreads (  0.001427, -0.001427, -0.001426 )     6.32134879
 
    482    -0.202E-12     0.0000026410        6.3213487988       0.62  <-- CONV
        O_D=      0.0216420 O_OD=      0.2481519 O_TOT=      6.3213488 <-- SPRD
 Delta: O_D= -0.3639630E-10 O_OD=  0.3619507E-10 O_TOT= -0.2016165E-12 <-- DLTA
 ------------------------------------------------------------------------------
 Cycle:    483
  WF centre and spread    1  ( -0.163499, -0.082462, -0.082462 )     2.10711632
  WF centre and spread    2  (  0.082463,  0.163499, -0.082463 )     2.10711674
  WF centre and spread    3  (  0.082463, -0.082463,  0.163499 )     2.10711573
  Sum of centres and spreads (  0.001427, -0.001427, -0.001426 )     6.32134879
 
    483    -0.251E-12     0.0000026402        6.3213487988       0.62  <-- CONV
        O_D=      0.0216420 O_OD=      0.2481519 O_TOT=      6.3213488 <-- SPRD
 Delta: O_D= -0.4547389E-10 O_OD=  0.4522199E-10 O_TOT= -0.2513545E-12 <-- DLTA
 ------------------------------------------------------------------------------
 Cycle:    484
  WF centre and spread    1  ( -0.163499, -0.082462, -0.082462 )     2.10711632
  WF centre and spread    2  (  0.082463,  0.163499, -0.082463 )     2.10711674
  WF centre and spread    3  (  0.082463, -0.082463,  0.163499 )     2.10711573
  Sum of centres and spreads (  0.001427, -0.001427, -0.001426 )     6.32134879
 
    484    -0.302E-12     0.0000026393        6.3213487988       0.62  <-- CONV
        O_D=      0.0216420 O_OD=      0.2481519 O_TOT=      6.3213488 <-- SPRD
 Delta: O_D= -0.5453635E-10 O_OD=  0.5423431E-10 O_TOT= -0.3019807E-12 <-- DLTA
 ------------------------------------------------------------------------------
 Cycle:    485
  WF centre and spread    1  ( -0.163499, -0.082462, -0.082462 )     2.10711632
  WF centre and spread    2  (  0.082463,  0.163499, -0.082463 )     2.10711674
  WF centre and spread    3  (  0.082463, -0.082463,  0.163499 )     2.10711573
  Sum of centres and spreads (  0.001427, -0.001427, -0.001426 )     6.32134879
 
    485    -0.497E-13     0.0000026382        6.3213487988       0.62  <-- CONV
        O_D=      0.0216420 O_OD=      0.2481519 O_TOT=      6.3213488 <-- SPRD
 Delta: O_D= -0.9090582E-11 O_OD=  0.9040241E-11 O_TOT= -0.4973799E-13 <-- DLTA
 ------------------------------------------------------------------------------
 Cycle:    486
  WF centre and spread    1  ( -0.163499, -0.082462, -0.082462 )     2.10711632
  WF centre and spread    2  (  0.082463,  0.163499, -0.082463 )     2.10711674
  WF centre and spread    3  (  0.082463, -0.082463,  0.163499 )     2.10711573
  Sum of centres and spreads (  0.001427, -0.001427, -0.001426 )     6.32134879
 
    486    -0.101E-12     0.0000026380        6.3213487988       0.63  <-- CONV
        O_D=      0.0216420 O_OD=      0.2481519 O_TOT=      6.3213488 <-- SPRD
 Delta: O_D= -0.1817916E-10 O_OD=  0.1807823E-10 O_TOT= -0.1012523E-12 <-- DLTA
 ------------------------------------------------------------------------------
 Cycle:    487
  WF centre and spread    1  ( -0.163499, -0.082462, -0.082462 )     2.10711632
  WF centre and spread    2  (  0.082463,  0.163499, -0.082463 )     2.10711674
  WF centre and spread    3  (  0.082463, -0.082463,  0.163499 )     2.10711573
  Sum of centres and spreads (  0.001427, -0.001427, -0.001426 )     6.32134879
 
    487    -0.151E-12     0.0000026376        6.3213487988       0.63  <-- CONV
        O_D=      0.0216420 O_OD=      0.2481519 O_TOT=      6.3213488 <-- SPRD
 Delta: O_D= -0.2726245E-10 O_OD=  0.2711162E-10 O_TOT= -0.1509903E-12 <-- DLTA
 ------------------------------------------------------------------------------
 Cycle:    488
  WF centre and spread    1  ( -0.163499, -0.082462, -0.082462 )     2.10711632
  WF centre and spread    2  (  0.082463,  0.163499, -0.082463 )     2.10711674
  WF centre and spread    3  (  0.082463, -0.082463,  0.163499 )     2.10711573
  Sum of centres and spreads (  0.001427, -0.001427, -0.001426 )     6.32134879
 
    488    -0.202E-12     0.0000026370        6.3213487988       0.63  <-- CONV
        O_D=      0.0216420 O_OD=      0.2481519 O_TOT=      6.3213488 <-- SPRD
 Delta: O_D= -0.3633716E-10 O_OD=  0.3613604E-10 O_TOT= -0.2016165E-12 <-- DLTA
 ------------------------------------------------------------------------------
 Cycle:    489
  WF centre and spread    1  ( -0.163499, -0.082462, -0.082462 )     2.10711632
  WF centre and spread    2  (  0.082463,  0.163499, -0.082463 )     2.10711674
  WF centre and spread    3  (  0.082463, -0.082463,  0.163499 )     2.10711573
  Sum of centres and spreads (  0.001427, -0.001427, -0.001426 )     6.32134879
 
    489    -0.250E-12     0.0000026363        6.3213487988       0.63  <-- CONV
        O_D=      0.0216420 O_OD=      0.2481519 O_TOT=      6.3213488 <-- SPRD
 Delta: O_D= -0.4540004E-10 O_OD=  0.4514905E-10 O_TOT= -0.2504663E-12 <-- DLTA
 ------------------------------------------------------------------------------
 Cycle:    490
  WF centre and spread    1  ( -0.163499, -0.082462, -0.082462 )     2.10711632
  WF centre and spread    2  (  0.082463,  0.163499, -0.082463 )     2.10711674
  WF centre and spread    3  (  0.082463, -0.082463,  0.163499 )     2.10711573
  Sum of centres and spreads (  0.001427, -0.001427, -0.001426 )     6.32134879
 
    490    -0.301E-12     0.0000026354        6.3213487988       0.63  <-- CONV
        O_D=      0.0216420 O_OD=      0.2481519 O_TOT=      6.3213488 <-- SPRD
 Delta: O_D= -0.5444776E-10 O_OD=  0.5414699E-10 O_TOT= -0.3010925E-12 <-- DLTA
 ------------------------------------------------------------------------------
 Cycle:    491
  WF centre and spread    1  ( -0.163499, -0.082462, -0.082462 )     2.10711632
  WF centre and spread    2  (  0.082463,  0.163499, -0.082463 )     2.10711674
  WF centre and spread    3  (  0.082463, -0.082463,  0.163499 )     2.10711573
  Sum of centres and spreads (  0.001427, -0.001427, -0.001426 )     6.32134879
 
    491    -0.506E-13     0.0000026342        6.3213487988       0.63  <-- CONV
        O_D=      0.0216420 O_OD=      0.2481519 O_TOT=      6.3213488 <-- SPRD
 Delta: O_D= -0.9075820E-11 O_OD=  0.9025392E-11 O_TOT= -0.5062617E-13 <-- DLTA
 ------------------------------------------------------------------------------
 Cycle:    492
  WF centre and spread    1  ( -0.163499, -0.082462, -0.082462 )     2.10711632
  WF centre and spread    2  (  0.082463,  0.163499, -0.082463 )     2.10711674
  WF centre and spread    3  (  0.082463, -0.082463,  0.163499 )     2.10711573
  Sum of centres and spreads (  0.001427, -0.001427, -0.001426 )     6.32134879
 
    492    -0.100E-12     0.0000026340        6.3213487988       0.63  <-- CONV
        O_D=      0.0216420 O_OD=      0.2481519 O_TOT=      6.3213488 <-- SPRD
 Delta: O_D= -0.1814963E-10 O_OD=  0.1804931E-10 O_TOT= -0.1003642E-12 <-- DLTA
 ------------------------------------------------------------------------------
 Cycle:    493
  WF centre and spread    1  ( -0.163499, -0.082462, -0.082462 )     2.10711632
  WF centre and spread    2  (  0.082463,  0.163499, -0.082463 )     2.10711674
  WF centre and spread    3  (  0.082463, -0.082463,  0.163499 )     2.10711573
  Sum of centres and spreads (  0.001427, -0.001427, -0.001426 )     6.32134879
 
    493    -0.151E-12     0.0000026337        6.3213487988       0.63  <-- CONV
        O_D=      0.0216420 O_OD=      0.2481519 O_TOT=      6.3213488 <-- SPRD
 Delta: O_D= -0.2721816E-10 O_OD=  0.2706749E-10 O_TOT= -0.1509903E-12 <-- DLTA
 ------------------------------------------------------------------------------
 Cycle:    494
  WF centre and spread    1  ( -0.163499, -0.082462, -0.082462 )     2.10711632
  WF centre and spread    2  (  0.082463,  0.163499, -0.082463 )     2.10711674
  WF centre and spread    3  (  0.082463, -0.082463,  0.163499 )     2.10711573
  Sum of centres and spreads (  0.001427, -0.001427, -0.001426 )     6.32134879
 
    494    -0.200E-12     0.0000026331        6.3213487988       0.63  <-- CONV
        O_D=      0.0216420 O_OD=      0.2481519 O_TOT=      6.3213488 <-- SPRD
 Delta: O_D= -0.3627816E-10 O_OD=  0.3607784E-10 O_TOT= -0.1998401E-12 <-- DLTA
 ------------------------------------------------------------------------------
 Cycle:    495
  WF centre and spread    1  ( -0.163499, -0.082462, -0.082462 )     2.10711632
  WF centre and spread    2  (  0.082463,  0.163499, -0.082463 )     2.10711674
  WF centre and spread    3  (  0.082463, -0.082463,  0.163499 )     2.10711573
  Sum of centres and spreads (  0.001427, -0.001427, -0.001426 )     6.32134879
 
    495    -0.250E-12     0.0000026324        6.3213487988       0.64  <-- CONV
        O_D=      0.0216420 O_OD=      0.2481519 O_TOT=      6.3213488 <-- SPRD
 Delta: O_D= -0.4532630E-10 O_OD=  0.4507572E-10 O_TOT= -0.2504663E-12 <-- DLTA
 ------------------------------------------------------------------------------
 Cycle:    496
  WF centre and spread    1  ( -0.163499, -0.082462, -0.082462 )     2.10711632
  WF centre and spread    2  (  0.082463,  0.163499, -0.082463 )     2.10711674
  WF centre and spread    3  (  0.082463, -0.082463,  0.163499 )     2.10711573
  Sum of centres and spreads (  0.001427, -0.001427, -0.001426 )     6.32134879
 
    496    -0.299E-12     0.0000026314        6.3213487988       0.64  <-- CONV
        O_D=      0.0216420 O_OD=      0.2481519 O_TOT=      6.3213488 <-- SPRD
 Delta: O_D= -0.5435936E-10 O_OD=  0.5405945E-10 O_TOT= -0.2993161E-12 <-- DLTA
 ------------------------------------------------------------------------------
 Cycle:    497
  WF centre and spread    1  ( -0.163499, -0.082462, -0.082462 )     2.10711632
  WF centre and spread    2  (  0.082463,  0.163499, -0.082463 )     2.10711674
  WF centre and spread    3  (  0.082463, -0.082463,  0.163499 )     2.10711573
  Sum of centres and spreads (  0.001427, -0.001427, -0.001426 )     6.32134879
 
    497    -0.506E-13     0.0000026303        6.3213487988       0.64  <-- CONV
        O_D=      0.0216420 O_OD=      0.2481519 O_TOT=      6.3213488 <-- SPRD
 Delta: O_D= -0.9061061E-11 O_OD=  0.9010986E-11 O_TOT= -0.5062617E-13 <-- DLTA
 ------------------------------------------------------------------------------
 Cycle:    498
  WF centre and spread    1  ( -0.163499, -0.082462, -0.082462 )     2.10711632
  WF centre and spread    2  (  0.082463,  0.163499, -0.082463 )     2.10711674
  WF centre and spread    3  (  0.082463, -0.082463,  0.163499 )     2.10711573
  Sum of centres and spreads (  0.001427, -0.001427, -0.001426 )     6.32134879
 
    498    -0.100E-12     0.0000026301        6.3213487988       0.64  <-- CONV
        O_D=      0.0216420 O_OD=      0.2481519 O_TOT=      6.3213488 <-- SPRD
 Delta: O_D= -0.1812016E-10 O_OD=  0.1802006E-10 O_TOT= -0.1003642E-12 <-- DLTA
 ------------------------------------------------------------------------------
 Cycle:    499
  WF centre and spread    1  ( -0.163499, -0.082462, -0.082462 )     2.10711632
  WF centre and spread    2  (  0.082463,  0.163499, -0.082463 )     2.10711674
  WF centre and spread    3  (  0.082463, -0.082463,  0.163499 )     2.10711573
  Sum of centres and spreads (  0.001427, -0.001427, -0.001426 )     6.32134879
 
    499    -0.150E-12     0.0000026297        6.3213487988       0.64  <-- CONV
        O_D=      0.0216420 O_OD=      0.2481519 O_TOT=      6.3213488 <-- SPRD
 Delta: O_D= -0.2717396E-10 O_OD=  0.2702397E-10 O_TOT= -0.1501022E-12 <-- DLTA
 ------------------------------------------------------------------------------
 Cycle:    500
  WF centre and spread    1  ( -0.163499, -0.082462, -0.082462 )     2.10711632
  WF centre and spread    2  (  0.082463,  0.163499, -0.082463 )     2.10711674
  WF centre and spread    3  (  0.082463, -0.082463,  0.163499 )     2.10711573
  Sum of centres and spreads (  0.001427, -0.001427, -0.001426 )     6.32134879
 
    500    -0.200E-12     0.0000026292        6.3213487988       0.64  <-- CONV
        O_D=      0.0216420 O_OD=      0.2481519 O_TOT=      6.3213488 <-- SPRD
 Delta: O_D= -0.3621925E-10 O_OD=  0.3601924E-10 O_TOT= -0.1998401E-12 <-- DLTA
 ------------------------------------------------------------------------------

 Writing checkpoint file mp-8062.chk... done

 Final State
  WF centre and spread    1  ( -0.163499, -0.082462, -0.082462 )     2.10711632
  WF centre and spread    2  (  0.082463,  0.163499, -0.082463 )     2.10711674
  WF centre and spread    3  (  0.082463, -0.082463,  0.163499 )     2.10711573
  Sum of centres and spreads (  0.001427, -0.001427, -0.001426 )     6.32134879
 
         Spreads (Ang^2)       Omega I      =     6.051554867
        ================       Omega D      =     0.021642029
                               Omega OD     =     0.248151903
    Final Spread (Ang^2)       Omega Total  =     6.321348799
 ------------------------------------------------------------------------------
 Time for wannierise            0.620 (sec)

 Writing checkpoint file mp-8062.chk... done

 Time for plotting              0.000 (sec)
 Total Execution Time           1.592 (sec)

 *===========================================================================*
 |                             TIMING INFORMATION                            |
 *===========================================================================*
 |    Tag                                                Ncalls      Time (s)|
 |---------------------------------------------------------------------------|
 |kmesh: get                                        :         1         0.717|
 |overlap: allocate                                 :         1         0.001|
 |overlap: read                                     :         1         0.084|
 |wann: main                                        :         1         0.620|
 |plot: main                                        :         1         0.000|
 *---------------------------------------------------------------------------*
 
 All done: wannier90 exiting
