 
             +---------------------------------------------------+
             |                                                   |
             |                   WANNIER90                       |
             |                                                   |
             +---------------------------------------------------+
             |                                                   |
             |        Welcome to the Maximally-Localized         |
             |        Generalized Wannier Functions code         |
             |            http://www.wannier.org                 |
             |                                                   |
             |                                                   |
             |  Wannier90 Developer Group:                       |
             |    Giovanni Pizzi    (EPFL)                       |
             |    Valerio Vitale    (Cambridge)                  |
             |    David Vanderbilt  (Rutgers University)         |
             |    Nicola Marzari    (EPFL)                       |
             |    Ivo Souza         (Universidad del Pais Vasco) |
             |    Arash A. Mostofi  (Imperial College London)    |
             |    Jonathan R. Yates (University of Oxford)       |
             |                                                   |
             |  For the full list of Wannier90 3.x authors,      |
             |  please check the code documentation and the      |
             |  README on the GitHub page of the code            |
             |                                                   |
             |                                                   |
             |  Please cite                                      |
             |                                                   |
             |  [ref] "Wannier90 as a community code:            |
             |        new features and applications",            |
             |        G. Pizzi et al., J. Phys. Cond. Matt. 32,  |
             |        165902 (2020).                             |
             |        http://doi.org/10.1088/1361-648X/ab51ff    |
             |                                                   |
             |  in any publications arising from the use of      |
             |  this code. For the method please cite            |
             |                                                   |
             |  [ref] "Maximally Localized Generalised Wannier   |
             |         Functions for Composite Energy Bands"     |
             |         N. Marzari and D. Vanderbilt              |
             |         Phys. Rev. B 56 12847 (1997)              |
             |                                                   |
             |  [ref] "Maximally Localized Wannier Functions     |
             |         for Entangled Energy Bands"               |
             |         I. Souza, N. Marzari and D. Vanderbilt    |
             |         Phys. Rev. B 65 035109 (2001)             |
             |                                                   |
             |                                                   |
             | Copyright (c) 1996-2020                           |
             |        The Wannier90 Developer Group and          |
             |        individual contributors                    |
             |                                                   |
             |      Release: 3.1.0        5th March    2020      |
             |                                                   |
             | This program is free software; you can            |
             | redistribute it and/or modify it under the terms  |
             | of the GNU General Public License as published by |
             | the Free Software Foundation; either version 2 of |
             | the License, or (at your option) any later version|
             |                                                   |
             | This program is distributed in the hope that it   |
             | will be useful, but WITHOUT ANY WARRANTY; without |
             | even the implied warranty of MERCHANTABILITY or   |
             | FITNESS FOR A PARTICULAR PURPOSE. See the GNU     |
             | General Public License for more details.          |
             |                                                   |
             | You should have received a copy of the GNU General|
             | Public License along with this program; if not,   |
             | write to the Free Software Foundation, Inc.,      |
             | 675 Mass Ave, Cambridge, MA 02139, USA.           |
             |                                                   |
             +---------------------------------------------------+
             |    Execution started on  3Jan2024 at 14:30:03     |
             +---------------------------------------------------+
 
 ******************************************************************************
 * -> Using CODATA 2006 constant values                                       *
 *    (http://physics.nist.gov/cuu/Constants/index.html)                      *
 * -> Using Bohr value from CODATA                                            *
 ******************************************************************************
 

 Running in parallel on   8 CPUs

 
                                    ------
                                    SYSTEM
                                    ------
 
                              Lattice Vectors (Ang)
                    a_1    -2.176996   0.000000   2.176996
                    a_2     0.000000   2.176996   2.176996
                    a_3    -2.176996   2.176996   0.000000
 
                   Unit Cell Volume:      20.63492  (Ang^3)
 
                        Reciprocal-Space Vectors (Ang^-1)
                    b_1    -1.443086  -1.443086   1.443086
                    b_2     1.443086   1.443086   1.443086
                    b_3    -1.443086   1.443086  -1.443086
  
 *----------------------------------------------------------------------------*
 |   Site       Fractional Coordinate          Cartesian Coordinate (Ang)     |
 +----------------------------------------------------------------------------+
 | Si   1   0.25000   0.25000   0.25000   |   -1.08850   1.08850   1.08850    |
 | C    1   0.00000   0.00000   0.00000   |    0.00000   0.00000   0.00000    |
 *----------------------------------------------------------------------------*
                                ------------
                                K-POINT GRID
                                ------------
  
             Grid size = 12 x 12 x 12      Total points = 1728
  
  
 *---------------------------------- MAIN ------------------------------------*
 |  Number of Wannier Functions               :                 3             |
 |  Number of Objective Wannier Functions     :                 3             |
 |  Number of input Bloch states              :                 3             |
 |  Output verbosity (1=low, 5=high)          :                 1             |
 |  Timing Level (1=low, 5=high)              :                 1             |
 |  Optimisation (0=memory, 3=speed)          :                 3             |
 |  Length Unit                               :               Ang             |
 |  Post-processing setup (write *.nnkp)      :                 F             |
 |  Using Gamma-only branch of algorithms     :                 F             |
 *----------------------------------------------------------------------------*
 *------------------------------- WANNIERISE ---------------------------------*
 |  Total number of iterations                :               500             |
 |  Number of CG steps before reset           :                 5             |
 |  Trial step length for line search         :             2.000             |
 |  Convergence tolerence                     :         0.100E-09             |
 |  Convergence window                        :                -1             |
 |  Iterations between writing output         :                 1             |
 |  Iterations between backing up to disk     :               100             |
 |  Write r^2_nm to file                      :                 F             |
 |  Write xyz WF centres to file              :                 F             |
 |  Write on-site energies <0n|H|0n> to file  :                 F             |
 |  Use guiding centre to control phases      :                 F             |
 |  Use phases for initial projections        :                 F             |
 *----------------------------------------------------------------------------*
 Time to read parameters        0.109 (sec)

 *---------------------------------- K-MESH ----------------------------------*
 +----------------------------------------------------------------------------+
 |                    Distance to Nearest-Neighbour Shells                    |
 |                    ------------------------------------                    |
 |          Shell             Distance (Ang^-1)          Multiplicity         |
 |          -----             -----------------          ------------         |
 |             1                   0.208292                      8            |
 |             2                   0.240514                      6            |
 |             3                   0.340139                     12            |
 |             4                   0.398848                     24            |
 |             5                   0.416583                      8            |
 |             6                   0.481029                      6            |
 |             7                   0.524189                     24            |
 |             8                   0.537806                     24            |
 |             9                   0.589137                     24            |
 |            10                   0.624875                     32            |
 |            11                   0.680277                     12            |
 |            12                   0.711451                     48            |
 |            13                   0.721543                     30            |
 |            14                   0.760573                     24            |
 |            15                   0.788579                     24            |
 |            16                   0.797696                     24            |
 |            17                   0.833166                      8            |
 |            18                   0.858808                     48            |
 |            19                   0.867187                     24            |
 |            20                   0.899922                     48            |
 |            21                   0.923713                     72            |
 |            22                   0.962057                      6            |
 |            23                   0.984347                     24            |
 |            24                   0.991666                     48            |
 |            25                   1.020416                     36            |
 |            26                   1.041458                     56            |
 |            27                   1.048378                     24            |
 |            28                   1.075613                     24            |
 |            29                   1.095595                     72            |
 |            30                   1.102175                     48            |
 |            31                   1.128112                     24            |
 |            32                   1.147180                     48            |
 |            33                   1.178275                     24            |
 |            34                   1.196544                     72            |
 |            35                   1.202572                     30            |
 |            36                   1.226387                     72            |
 +----------------------------------------------------------------------------+
 | The b-vectors are chosen automatically                                     |
 | The following shells are used:   1                                         |
 +----------------------------------------------------------------------------+
 |                        Shell   # Nearest-Neighbours                        |
 |                        -----   --------------------                        |
 |                          1               8                                 |
 +----------------------------------------------------------------------------+
 | Completeness relation is fully satisfied [Eq. (B1), PRB 56, 12847 (1997)]  |
 +----------------------------------------------------------------------------+
 |                  b_k Vectors (Ang^-1) and Weights (Ang^2)                  |
 |                  ----------------------------------------                  |
 |            No.         b_k(x)      b_k(y)      b_k(z)        w_b           |
 |            ---        --------------------------------     --------        |
 |             1        -0.120257    0.120257   -0.120257     8.643469        |
 |             2         0.120257    0.120257    0.120257     8.643469        |
 |             3        -0.120257   -0.120257    0.120257     8.643469        |
 |             4        -0.120257    0.120257    0.120257     8.643469        |
 |             5         0.120257   -0.120257    0.120257     8.643469        |
 |             6        -0.120257   -0.120257   -0.120257     8.643469        |
 |             7         0.120257    0.120257   -0.120257     8.643469        |
 |             8         0.120257   -0.120257   -0.120257     8.643469        |
 +----------------------------------------------------------------------------+
 |                           b_k Directions (Ang^-1)                          |
 |                           -----------------------                          |
 |            No.           x           y           z                         |
 |            ---        --------------------------------                     |
 |             1        -0.120257    0.120257   -0.120257                     |
 |             2         0.120257    0.120257    0.120257                     |
 |             3        -0.120257   -0.120257    0.120257                     |
 |             4        -0.120257    0.120257    0.120257                     |
 +----------------------------------------------------------------------------+
  
 Time to get kmesh              1.041 (sec)
 *============================================================================*
 |                              MEMORY ESTIMATE                               |
 |         Maximum RAM allocated during each phase of the calculation         |
 *============================================================================*
 |                            Wannierise:            7.00 Mb                  |
 |                          plot_wannier:            7.00 Mb                  |
 *----------------------------------------------------------------------------*
  
 Starting a new Wannier90 calculation ...


 Reading overlaps from mp-8062.mmn    :  Created on  3Jan2024 at 14:29:56

 Reading projections from mp-8062.amn :  Created on  3Jan2024 at 14:29:56  with SCDM

 Time to read overlaps          0.141 (sec)

 Writing checkpoint file mp-8062.chk... done

 
 *------------------------------- WANNIERISE ---------------------------------*
 +--------------------------------------------------------------------+<-- CONV
 | Iter  Delta Spread     RMS Gradient      Spread (Ang^2)      Time  |<-- CONV
 +--------------------------------------------------------------------+<-- CONV
 
 ------------------------------------------------------------------------------
 Initial State
  WF centre and spread    1  ( -0.208267, -0.108044, -0.108045 )     2.89672289
  WF centre and spread    2  (  0.108045,  0.208267, -0.108045 )     2.89673469
  WF centre and spread    3  (  0.108044, -0.108045,  0.208269 )     2.89674335
  Sum of centres and spreads (  0.007822, -0.007822, -0.007821 )     8.69020093
 
      0     0.869E+01     0.0000000000        8.6902009462       0.00  <-- CONV
        O_D=      1.1159851 O_OD=      1.5226600 O_TOT=      8.6902009 <-- SPRD
 ------------------------------------------------------------------------------
 Cycle:      1
  WF centre and spread    1  ( -0.197069, -0.099906, -0.099906 )     2.53683836
  WF centre and spread    2  (  0.099907,  0.197069, -0.099907 )     2.53683764
  WF centre and spread    3  (  0.099906, -0.099907,  0.197070 )     2.53682744
  Sum of centres and spreads (  0.002745, -0.002745, -0.002743 )     7.61050343
 
      1    -0.108E+01     0.2984899792        7.6105034473       0.01  <-- CONV
        O_D=      0.6350039 O_OD=      0.9239438 O_TOT=      7.6105034 <-- SPRD
 Delta: O_D= -0.4809813E+00 O_OD= -0.5987162E+00 O_TOT= -0.1079697E+01 <-- DLTA
 ------------------------------------------------------------------------------
 Cycle:      2
  WF centre and spread    1  ( -0.185854, -0.093571, -0.093571 )     2.34859378
  WF centre and spread    2  (  0.093572,  0.185854, -0.093572 )     2.34861861
  WF centre and spread    3  (  0.093571, -0.093572,  0.185855 )     2.34859748
  Sum of centres and spreads (  0.001289, -0.001289, -0.001288 )     7.04580987
 
      2    -0.565E+00     0.3021228028        7.0458098839       0.01  <-- CONV
        O_D=      0.3520145 O_OD=      0.6422396 O_TOT=      7.0458099 <-- SPRD
 Delta: O_D= -0.2829893E+00 O_OD= -0.2817042E+00 O_TOT= -0.5646936E+00 <-- DLTA
 ------------------------------------------------------------------------------
 Cycle:      3
  WF centre and spread    1  ( -0.177169, -0.089063, -0.089062 )     2.23369231
  WF centre and spread    2  (  0.089063,  0.177170, -0.089063 )     2.23369779
  WF centre and spread    3  (  0.089062, -0.089063,  0.177170 )     2.23367824
  Sum of centres and spreads (  0.000956, -0.000956, -0.000955 )     6.70106834
 
      3    -0.345E+00     0.2637928350        6.7010683540       0.02  <-- CONV
        O_D=      0.1915582 O_OD=      0.4579544 O_TOT=      6.7010684 <-- SPRD
 Delta: O_D= -0.1604564E+00 O_OD= -0.1842852E+00 O_TOT= -0.3447415E+00 <-- DLTA
 ------------------------------------------------------------------------------
 Cycle:      4
  WF centre and spread    1  ( -0.171257, -0.086165, -0.086164 )     2.16846918
  WF centre and spread    2  (  0.086165,  0.171257, -0.086165 )     2.16844061
  WF centre and spread    3  (  0.086165, -0.086165,  0.171257 )     2.16845609
  Sum of centres and spreads (  0.001073, -0.001073, -0.001072 )     6.50536588
 
      4    -0.196E+00     0.1991447536        6.5053658864       0.03  <-- CONV
        O_D=      0.0990067 O_OD=      0.3548033 O_TOT=      6.5053659 <-- SPRD
 Delta: O_D= -0.9255142E-01 O_OD= -0.1031511E+00 O_TOT= -0.1957025E+00 <-- DLTA
 ------------------------------------------------------------------------------
 Cycle:      5
  WF centre and spread    1  ( -0.167922, -0.084582, -0.084582 )     2.13575542
  WF centre and spread    2  (  0.084583,  0.167922, -0.084582 )     2.13571896
  WF centre and spread    3  (  0.084582, -0.084583,  0.167922 )     2.13573415
  Sum of centres and spreads (  0.001243, -0.001243, -0.001242 )     6.40720853
 
      5    -0.982E-01     0.1453812238        6.4072085420       0.03  <-- CONV
        O_D=      0.0558435 O_OD=      0.2998093 O_TOT=      6.4072085 <-- SPRD
 Delta: O_D= -0.4316326E-01 O_OD= -0.5499408E-01 O_TOT= -0.9815734E-01 <-- DLTA
 ------------------------------------------------------------------------------
 Cycle:      6
  WF centre and spread    1  ( -0.166031, -0.083701, -0.083701 )     2.11916786
  WF centre and spread    2  (  0.083701,  0.166031, -0.083701 )     2.11914141
  WF centre and spread    3  (  0.083701, -0.083701,  0.166032 )     2.11914323
  Sum of centres and spreads (  0.001371, -0.001371, -0.001370 )     6.35745249
 
      6    -0.498E-01     0.1037665710        6.3574525043       0.04  <-- CONV
        O_D=      0.0346679 O_OD=      0.2712288 O_TOT=      6.3574525 <-- SPRD
 Delta: O_D= -0.2117559E-01 O_OD= -0.2858045E-01 O_TOT= -0.4975604E-01 <-- DLTA
 ------------------------------------------------------------------------------
 Cycle:      7
  WF centre and spread    1  ( -0.165925, -0.083652, -0.083652 )     2.11403535
  WF centre and spread    2  (  0.083652,  0.165925, -0.083652 )     2.11401219
  WF centre and spread    3  (  0.083652, -0.083653,  0.165925 )     2.11401494
  Sum of centres and spreads (  0.001380, -0.001380, -0.001379 )     6.34206247
 
      7    -0.154E-01     0.0705430723        6.3420624811       0.05  <-- CONV
        O_D=      0.0277187 O_OD=      0.2627880 O_TOT=      6.3420625 <-- SPRD
 Delta: O_D= -0.6949220E-02 O_OD= -0.8440803E-02 O_TOT= -0.1539002E-01 <-- DLTA
 ------------------------------------------------------------------------------
 Cycle:      8
  WF centre and spread    1  ( -0.165691, -0.083545, -0.083544 )     2.11085586
  WF centre and spread    2  (  0.083545,  0.165691, -0.083545 )     2.11084639
  WF centre and spread    3  (  0.083545, -0.083545,  0.165692 )     2.11084662
  Sum of centres and spreads (  0.001399, -0.001399, -0.001397 )     6.33254887
 
      8    -0.951E-02     0.0450049339        6.3325488830       0.06  <-- CONV
        O_D=      0.0244085 O_OD=      0.2565846 O_TOT=      6.3325489 <-- SPRD
 Delta: O_D= -0.3310171E-02 O_OD= -0.6203427E-02 O_TOT= -0.9513598E-02 <-- DLTA
 ------------------------------------------------------------------------------
 Cycle:      9
  WF centre and spread    1  ( -0.165423, -0.083420, -0.083420 )     2.10928127
  WF centre and spread    2  (  0.083421,  0.165423, -0.083421 )     2.10927776
  WF centre and spread    3  (  0.083421, -0.083421,  0.165424 )     2.10927637
  Sum of centres and spreads (  0.001418, -0.001418, -0.001417 )     6.32783540
 
      9    -0.471E-02     0.0316353397        6.3278354058       0.06  <-- CONV
        O_D=      0.0231228 O_OD=      0.2531568 O_TOT=      6.3278354 <-- SPRD
 Delta: O_D= -0.1285666E-02 O_OD= -0.3427811E-02 O_TOT= -0.4713477E-02 <-- DLTA
 ------------------------------------------------------------------------------
 Cycle:     10
  WF centre and spread    1  ( -0.165136, -0.083288, -0.083288 )     2.10846762
  WF centre and spread    2  (  0.083289,  0.165136, -0.083289 )     2.10846606
  WF centre and spread    3  (  0.083289, -0.083289,  0.165137 )     2.10846454
  Sum of centres and spreads (  0.001442, -0.001442, -0.001440 )     6.32539823
 
     10    -0.244E-02     0.0225558293        6.3253982366       0.07  <-- CONV
        O_D=      0.0226252 O_OD=      0.2512172 O_TOT=      6.3253982 <-- SPRD
 Delta: O_D= -0.4976356E-03 O_OD= -0.1939534E-02 O_TOT= -0.2437169E-02 <-- DLTA
 ------------------------------------------------------------------------------
 Cycle:     11
  WF centre and spread    1  ( -0.164789, -0.083131, -0.083131 )     2.10793410
  WF centre and spread    2  (  0.083132,  0.164789, -0.083131 )     2.10793278
  WF centre and spread    3  (  0.083131, -0.083132,  0.164790 )     2.10793162
  Sum of centres and spreads (  0.001474, -0.001474, -0.001473 )     6.32379849
 
     11    -0.160E-02     0.0169367534        6.3237985040       0.08  <-- CONV
        O_D=      0.0223458 O_OD=      0.2498969 O_TOT=      6.3237985 <-- SPRD
 Delta: O_D= -0.2793470E-03 O_OD= -0.1320386E-02 O_TOT= -0.1599733E-02 <-- DLTA
 ------------------------------------------------------------------------------
 Cycle:     12
  WF centre and spread    1  ( -0.164400, -0.082951, -0.082951 )     2.10753951
  WF centre and spread    2  (  0.082951,  0.164400, -0.082951 )     2.10753835
  WF centre and spread    3  (  0.082951, -0.082951,  0.164400 )     2.10753743
  Sum of centres and spreads (  0.001503, -0.001503, -0.001501 )     6.32261529
 
     12    -0.118E-02     0.0145192454        6.3226153025       0.08  <-- CONV
        O_D=      0.0220514 O_OD=      0.2490081 O_TOT=      6.3226153 <-- SPRD
 Delta: O_D= -0.2944668E-03 O_OD= -0.8887347E-03 O_TOT= -0.1183202E-02 <-- DLTA
 ------------------------------------------------------------------------------
 Cycle:     13
  WF centre and spread    1  ( -0.164334, -0.082911, -0.082911 )     2.10743045
  WF centre and spread    2  (  0.082911,  0.164334, -0.082911 )     2.10742913
  WF centre and spread    3  (  0.082911, -0.082911,  0.164335 )     2.10742819
  Sum of centres and spreads (  0.001488, -0.001488, -0.001487 )     6.32228778
 
     13    -0.328E-03     0.0099556936        6.3222877900       0.09  <-- CONV
        O_D=      0.0219359 O_OD=      0.2487961 O_TOT=      6.3222878 <-- SPRD
 Delta: O_D= -0.1154645E-03 O_OD= -0.2120480E-03 O_TOT= -0.3275125E-03 <-- DLTA
 ------------------------------------------------------------------------------
 Cycle:     14
  WF centre and spread    1  ( -0.164128, -0.082787, -0.082787 )     2.10729263
  WF centre and spread    2  (  0.082788,  0.164127, -0.082788 )     2.10729143
  WF centre and spread    3  (  0.082788, -0.082788,  0.164128 )     2.10729037
  Sum of centres and spreads (  0.001448, -0.001448, -0.001446 )     6.32187442
 
     14    -0.413E-03     0.0077852528        6.3218744287       0.10  <-- CONV
        O_D=      0.0218603 O_OD=      0.2484583 O_TOT=      6.3218744 <-- SPRD
 Delta: O_D= -0.7557661E-04 O_OD= -0.3377847E-03 O_TOT= -0.4133613E-03 <-- DLTA
 ------------------------------------------------------------------------------
 Cycle:     15
  WF centre and spread    1  ( -0.163965, -0.082696, -0.082696 )     2.10722341
  WF centre and spread    2  (  0.082696,  0.163965, -0.082696 )     2.10722231
  WF centre and spread    3  (  0.082696, -0.082696,  0.163966 )     2.10722120
  Sum of centres and spreads (  0.001427, -0.001427, -0.001425 )     6.32166692
 
     15    -0.207E-03     0.0066601863        6.3216669322       0.10  <-- CONV
        O_D=      0.0218078 O_OD=      0.2483033 O_TOT=      6.3216669 <-- SPRD
 Delta: O_D= -0.5252202E-04 O_OD= -0.1549745E-03 O_TOT= -0.2074965E-03 <-- DLTA
 ------------------------------------------------------------------------------
 Cycle:     16
  WF centre and spread    1  ( -0.163829, -0.082624, -0.082624 )     2.10718364
  WF centre and spread    2  (  0.082624,  0.163828, -0.082624 )     2.10718237
  WF centre and spread    3  (  0.082624, -0.082625,  0.163829 )     2.10718125
  Sum of centres and spreads (  0.001420, -0.001420, -0.001419 )     6.32154726
 
     16    -0.120E-03     0.0048031057        6.3215472720       0.11  <-- CONV
        O_D=      0.0217705 O_OD=      0.2482209 O_TOT=      6.3215473 <-- SPRD
 Delta: O_D= -0.3728636E-04 O_OD= -0.8237376E-04 O_TOT= -0.1196601E-03 <-- DLTA
 ------------------------------------------------------------------------------
 Cycle:     17
  WF centre and spread    1  ( -0.163694, -0.082557, -0.082557 )     2.10715338
  WF centre and spread    2  (  0.082557,  0.163694, -0.082557 )     2.10715162
  WF centre and spread    3  (  0.082557, -0.082557,  0.163695 )     2.10715051
  Sum of centres and spreads (  0.001420, -0.001420, -0.001419 )     6.32145552
 
     17    -0.917E-04     0.0039740368        6.3214555270       0.12  <-- CONV
        O_D=      0.0217240 O_OD=      0.2481757 O_TOT=      6.3214555 <-- SPRD
 Delta: O_D= -0.4653365E-04 O_OD= -0.4521134E-04 O_TOT= -0.9174499E-04 <-- DLTA
 ------------------------------------------------------------------------------
 Cycle:     18
  WF centre and spread    1  ( -0.163622, -0.082522, -0.082522 )     2.10713934
  WF centre and spread    2  (  0.082522,  0.163622, -0.082522 )     2.10713770
  WF centre and spread    3  (  0.082522, -0.082522,  0.163623 )     2.10713660
  Sum of centres and spreads (  0.001422, -0.001422, -0.001420 )     6.32141363
 
     18    -0.419E-04     0.0031136283        6.3214136374       0.12  <-- CONV
        O_D=      0.0216975 O_OD=      0.2481604 O_TOT=      6.3214136 <-- SPRD
 Delta: O_D= -0.2653826E-04 O_OD= -0.1535140E-04 O_TOT= -0.4188966E-04 <-- DLTA
 ------------------------------------------------------------------------------
 Cycle:     19
  WF centre and spread    1  ( -0.163618, -0.082520, -0.082520 )     2.10713192
  WF centre and spread    2  (  0.082521,  0.163618, -0.082520 )     2.10713050
  WF centre and spread    3  (  0.082520, -0.082521,  0.163619 )     2.10712940
  Sum of centres and spreads (  0.001422, -0.001422, -0.001421 )     6.32139183
 
     19    -0.218E-04     0.0027095665        6.3213918385       0.13  <-- CONV
        O_D=      0.0216859 O_OD=      0.2481501 O_TOT=      6.3213918 <-- SPRD
 Delta: O_D= -0.1150815E-04 O_OD= -0.1029069E-04 O_TOT= -0.2179884E-04 <-- DLTA
 ------------------------------------------------------------------------------
 Cycle:     20
  WF centre and spread    1  ( -0.163607, -0.082515, -0.082515 )     2.10712527
  WF centre and spread    2  (  0.082516,  0.163607, -0.082515 )     2.10712436
  WF centre and spread    3  (  0.082515, -0.082516,  0.163607 )     2.10712327
  Sum of centres and spreads (  0.001424, -0.001424, -0.001423 )     6.32137290
 
     20    -0.189E-04     0.0018604817        6.3213729051       0.14  <-- CONV
        O_D=      0.0216755 O_OD=      0.2481416 O_TOT=      6.3213729 <-- SPRD
 Delta: O_D= -0.1039887E-04 O_OD= -0.8534600E-05 O_TOT= -0.1893347E-04 <-- DLTA
 ------------------------------------------------------------------------------
 Cycle:     21
  WF centre and spread    1  ( -0.163594, -0.082510, -0.082510 )     2.10712212
  WF centre and spread    2  (  0.082511,  0.163594, -0.082510 )     2.10712142
  WF centre and spread    3  (  0.082510, -0.082511,  0.163595 )     2.10712033
  Sum of centres and spreads (  0.001427, -0.001427, -0.001425 )     6.32136387
 
     21    -0.903E-05     0.0014127471        6.3213638757       0.14  <-- CONV
        O_D=      0.0216675 O_OD=      0.2481406 O_TOT=      6.3213639 <-- SPRD
 Delta: O_D= -0.8039468E-05 O_OD= -0.9899121E-06 O_TOT= -0.9029380E-05 <-- DLTA
 ------------------------------------------------------------------------------
 Cycle:     22
  WF centre and spread    1  ( -0.163579, -0.082503, -0.082503 )     2.10712033
  WF centre and spread    2  (  0.082504,  0.163579, -0.082504 )     2.10711970
  WF centre and spread    3  (  0.082504, -0.082504,  0.163579 )     2.10711862
  Sum of centres and spreads (  0.001429, -0.001429, -0.001427 )     6.32135865
 
     22    -0.521E-05     0.0010189973        6.3213586625       0.15  <-- CONV
        O_D=      0.0216606 O_OD=      0.2481423 O_TOT=      6.3213587 <-- SPRD
 Delta: O_D= -0.6951808E-05 O_OD=  0.1738616E-05 O_TOT= -0.5213192E-05 <-- DLTA
 ------------------------------------------------------------------------------
 Cycle:     23
  WF centre and spread    1  ( -0.163560, -0.082495, -0.082494 )     2.10711908
  WF centre and spread    2  (  0.082495,  0.163560, -0.082495 )     2.10711850
  WF centre and spread    3  (  0.082495, -0.082495,  0.163560 )     2.10711743
  Sum of centres and spreads (  0.001430, -0.001430, -0.001429 )     6.32135501
 
     23    -0.364E-05     0.0008383895        6.3213550235       0.16  <-- CONV
        O_D=      0.0216537 O_OD=      0.2481455 O_TOT=      6.3213550 <-- SPRD
 Delta: O_D= -0.6884579E-05 O_OD=  0.3245574E-05 O_TOT= -0.3639005E-05 <-- DLTA
 ------------------------------------------------------------------------------
 Cycle:     24
  WF centre and spread    1  ( -0.163546, -0.082488, -0.082488 )     2.10711852
  WF centre and spread    2  (  0.082489,  0.163546, -0.082488 )     2.10711799
  WF centre and spread    3  (  0.082488, -0.082489,  0.163547 )     2.10711693
  Sum of centres and spreads (  0.001430, -0.001430, -0.001429 )     6.32135344
 
     24    -0.157E-05     0.0006323683        6.3213534498       0.17  <-- CONV
        O_D=      0.0216503 O_OD=      0.2481473 O_TOT=      6.3213534 <-- SPRD
 Delta: O_D= -0.3330478E-05 O_OD=  0.1756749E-05 O_TOT= -0.1573729E-05 <-- DLTA
 ------------------------------------------------------------------------------
 Cycle:     25
  WF centre and spread    1  ( -0.163542, -0.082485, -0.082485 )     2.10711822
  WF centre and spread    2  (  0.082486,  0.163542, -0.082486 )     2.10711767
  WF centre and spread    3  (  0.082486, -0.082486,  0.163543 )     2.10711660
  Sum of centres and spreads (  0.001429, -0.001429, -0.001428 )     6.32135248
 
     25    -0.957E-06     0.0005028695        6.3213524932       0.17  <-- CONV
        O_D=      0.0216500 O_OD=      0.2481467 O_TOT=      6.3213525 <-- SPRD
 Delta: O_D= -0.3871718E-06 O_OD= -0.5694211E-06 O_TOT= -0.9565929E-06 <-- DLTA
 ------------------------------------------------------------------------------
 Cycle:     26
  WF centre and spread    1  ( -0.163533, -0.082480, -0.082480 )     2.10711787
  WF centre and spread    2  (  0.082480,  0.163533, -0.082480 )     2.10711734
  WF centre and spread    3  (  0.082480, -0.082481,  0.163533 )     2.10711627
  Sum of centres and spreads (  0.001428, -0.001428, -0.001426 )     6.32135149
 
     26    -0.996E-06     0.0004214575        6.3213514969       0.18  <-- CONV
        O_D=      0.0216494 O_OD=      0.2481463 O_TOT=      6.3213515 <-- SPRD
 Delta: O_D= -0.5930769E-06 O_OD= -0.4031965E-06 O_TOT= -0.9962734E-06 <-- DLTA
 ------------------------------------------------------------------------------
 Cycle:     27
  WF centre and spread    1  ( -0.163523, -0.082474, -0.082474 )     2.10711765
  WF centre and spread    2  (  0.082475,  0.163523, -0.082475 )     2.10711714
  WF centre and spread    3  (  0.082475, -0.082475,  0.163524 )     2.10711607
  Sum of centres and spreads (  0.001427, -0.001427, -0.001425 )     6.32135085
 
     27    -0.633E-06     0.0003623309        6.3213508639       0.19  <-- CONV
        O_D=      0.0216483 O_OD=      0.2481468 O_TOT=      6.3213509 <-- SPRD
 Delta: O_D= -0.1072404E-05 O_OD=  0.4394288E-06 O_TOT= -0.6329748E-06 <-- DLTA
 ------------------------------------------------------------------------------
 Cycle:     28
  WF centre and spread    1  ( -0.163516, -0.082470, -0.082470 )     2.10711752
  WF centre and spread    2  (  0.082471,  0.163516, -0.082471 )     2.10711701
  WF centre and spread    3  (  0.082471, -0.082471,  0.163516 )     2.10711594
  Sum of centres and spreads (  0.001426, -0.001426, -0.001425 )     6.32135048
 
     28    -0.370E-06     0.0002753269        6.3213504934       0.19  <-- CONV
        O_D=      0.0216469 O_OD=      0.2481478 O_TOT=      6.3213505 <-- SPRD
 Delta: O_D= -0.1402933E-05 O_OD=  0.1032450E-05 O_TOT= -0.3704838E-06 <-- DLTA
 ------------------------------------------------------------------------------
 Cycle:     29
  WF centre and spread    1  ( -0.163509, -0.082467, -0.082467 )     2.10711744
  WF centre and spread    2  (  0.082468,  0.163509, -0.082468 )     2.10711693
  WF centre and spread    3  (  0.082468, -0.082468,  0.163510 )     2.10711587
  Sum of centres and spreads (  0.001426, -0.001426, -0.001425 )     6.32135024
 
     29    -0.243E-06     0.0002143158        6.3213502506       0.20  <-- CONV
        O_D=      0.0216453 O_OD=      0.2481492 O_TOT=      6.3213503 <-- SPRD
 Delta: O_D= -0.1618164E-05 O_OD=  0.1375277E-05 O_TOT= -0.2428866E-06 <-- DLTA
 ------------------------------------------------------------------------------
 Cycle:     30
  WF centre and spread    1  ( -0.163505, -0.082465, -0.082465 )     2.10711740
  WF centre and spread    2  (  0.082466,  0.163505, -0.082466 )     2.10711689
  WF centre and spread    3  (  0.082466, -0.082466,  0.163506 )     2.10711582
  Sum of centres and spreads (  0.001426, -0.001426, -0.001425 )     6.32135012
 
     30    -0.125E-06     0.0001657901        6.3213501257       0.21  <-- CONV
        O_D=      0.0216441 O_OD=      0.2481502 O_TOT=      6.3213501 <-- SPRD
 Delta: O_D= -0.1133159E-05 O_OD=  0.1008316E-05 O_TOT= -0.1248428E-06 <-- DLTA
 ------------------------------------------------------------------------------
 Cycle:     31
  WF centre and spread    1  ( -0.163505, -0.082465, -0.082465 )     2.10711737
  WF centre and spread    2  (  0.082466,  0.163505, -0.082465 )     2.10711687
  WF centre and spread    3  (  0.082466, -0.082466,  0.163506 )     2.10711580
  Sum of centres and spreads (  0.001426, -0.001426, -0.001425 )     6.32135004
 
     31    -0.737E-07     0.0001605157        6.3213500520       0.21  <-- CONV
        O_D=      0.0216440 O_OD=      0.2481503 O_TOT=      6.3213501 <-- SPRD
 Delta: O_D= -0.1381459E-06 O_OD=  0.6441479E-07 O_TOT= -0.7373107E-07 <-- DLTA
 ------------------------------------------------------------------------------
 Cycle:     32
  WF centre and spread    1  ( -0.163505, -0.082465, -0.082465 )     2.10711735
  WF centre and spread    2  (  0.082466,  0.163504, -0.082465 )     2.10711685
  WF centre and spread    3  (  0.082465, -0.082466,  0.163505 )     2.10711578
  Sum of centres and spreads (  0.001426, -0.001426, -0.001425 )     6.32134999
 
     32    -0.553E-07     0.0001027485        6.3213499966       0.22  <-- CONV
        O_D=      0.0216437 O_OD=      0.2481505 O_TOT=      6.3213500 <-- SPRD
 Delta: O_D= -0.3012850E-06 O_OD=  0.2459371E-06 O_TOT= -0.5534796E-07 <-- DLTA
 ------------------------------------------------------------------------------
 Cycle:     33
  WF centre and spread    1  ( -0.163504, -0.082465, -0.082465 )     2.10711734
  WF centre and spread    2  (  0.082465,  0.163504, -0.082465 )     2.10711684
  WF centre and spread    3  (  0.082465, -0.082465,  0.163504 )     2.10711577
  Sum of centres and spreads (  0.001427, -0.001426, -0.001425 )     6.32134995
 
     33    -0.321E-07     0.0000797463        6.3213499646       0.23  <-- CONV
        O_D=      0.0216433 O_OD=      0.2481509 O_TOT=      6.3213500 <-- SPRD
 Delta: O_D= -0.3908860E-06 O_OD=  0.3588199E-06 O_TOT= -0.3206603E-07 <-- DLTA
 ------------------------------------------------------------------------------
 Cycle:     34
  WF centre and spread    1  ( -0.163503, -0.082464, -0.082464 )     2.10711734
  WF centre and spread    2  (  0.082465,  0.163503, -0.082465 )     2.10711683
  WF centre and spread    3  (  0.082465, -0.082465,  0.163503 )     2.10711577
  Sum of centres and spreads (  0.001427, -0.001427, -0.001425 )     6.32134994
 
     34    -0.185E-07     0.0000617077        6.3213499461       0.23  <-- CONV
        O_D=      0.0216429 O_OD=      0.2481512 O_TOT=      6.3213499 <-- SPRD
 Delta: O_D= -0.3870065E-06 O_OD=  0.3684932E-06 O_TOT= -0.1851323E-07 <-- DLTA
 ------------------------------------------------------------------------------
 Cycle:     35
  WF centre and spread    1  ( -0.163502, -0.082464, -0.082464 )     2.10711733
  WF centre and spread    2  (  0.082465,  0.163502, -0.082464 )     2.10711683
  WF centre and spread    3  (  0.082464, -0.082465,  0.163502 )     2.10711576
  Sum of centres and spreads (  0.001427, -0.001427, -0.001425 )     6.32134993
 
     35    -0.109E-07     0.0000466144        6.3213499352       0.24  <-- CONV
        O_D=      0.0216426 O_OD=      0.2481515 O_TOT=      6.3213499 <-- SPRD
 Delta: O_D= -0.3276162E-06 O_OD=  0.3167450E-06 O_TOT= -0.1087118E-07 <-- DLTA
 ------------------------------------------------------------------------------
 Cycle:     36
  WF centre and spread    1  ( -0.163501, -0.082463, -0.082463 )     2.10711733
  WF centre and spread    2  (  0.082464,  0.163501, -0.082464 )     2.10711683
  WF centre and spread    3  (  0.082464, -0.082464,  0.163502 )     2.10711576
  Sum of centres and spreads (  0.001427, -0.001427, -0.001425 )     6.32134992
 
     36    -0.502E-08     0.0000357622        6.3213499302       0.25  <-- CONV
        O_D=      0.0216424 O_OD=      0.2481517 O_TOT=      6.3213499 <-- SPRD
 Delta: O_D= -0.1530790E-06 O_OD=  0.1480555E-06 O_TOT= -0.5023502E-08 <-- DLTA
 ------------------------------------------------------------------------------
 Cycle:     37
  WF centre and spread    1  ( -0.163501, -0.082463, -0.082463 )     2.10711733
  WF centre and spread    2  (  0.082464,  0.163501, -0.082464 )     2.10711683
  WF centre and spread    3  (  0.082464, -0.082464,  0.163501 )     2.10711576
  Sum of centres and spreads (  0.001427, -0.001427, -0.001425 )     6.32134992
 
     37    -0.377E-08     0.0000261163        6.3213499264       0.25  <-- CONV
        O_D=      0.0216424 O_OD=      0.2481517 O_TOT=      6.3213499 <-- SPRD
 Delta: O_D= -0.1152370E-07 O_OD=  0.7757195E-08 O_TOT= -0.3766508E-08 <-- DLTA
 ------------------------------------------------------------------------------
 Cycle:     38
  WF centre and spread    1  ( -0.163501, -0.082463, -0.082463 )     2.10711733
  WF centre and spread    2  (  0.082464,  0.163501, -0.082464 )     2.10711683
  WF centre and spread    3  (  0.082464, -0.082464,  0.163501 )     2.10711576
  Sum of centres and spreads (  0.001427, -0.001427, -0.001425 )     6.32134992
 
     38    -0.471E-11     0.0000255285        6.3213499264       0.26  <-- CONV
        O_D=      0.0216424 O_OD=      0.2481517 O_TOT=      6.3213499 <-- SPRD
 Delta: O_D= -0.2689192E-10 O_OD=  0.2218142E-10 O_TOT= -0.4710898E-11 <-- DLTA
 ------------------------------------------------------------------------------
 Cycle:     39
  WF centre and spread    1  ( -0.163501, -0.082463, -0.082463 )     2.10711733
  WF centre and spread    2  (  0.082464,  0.163500, -0.082463 )     2.10711683
  WF centre and spread    3  (  0.082463, -0.082464,  0.163501 )     2.10711576
  Sum of centres and spreads (  0.001427, -0.001427, -0.001425 )     6.32134991
 
     39    -0.261E-08     0.0000255096        6.3213499238       0.26  <-- CONV
        O_D=      0.0216424 O_OD=      0.2481517 O_TOT=      6.3213499 <-- SPRD
 Delta: O_D= -0.2326280E-07 O_OD=  0.2065226E-07 O_TOT= -0.2610533E-08 <-- DLTA
 ------------------------------------------------------------------------------
 Cycle:     40
  WF centre and spread    1  ( -0.163501, -0.082463, -0.082463 )     2.10711733
  WF centre and spread    2  (  0.082464,  0.163500, -0.082463 )     2.10711683
  WF centre and spread    3  (  0.082463, -0.082464,  0.163501 )     2.10711576
  Sum of centres and spreads (  0.001427, -0.001427, -0.001425 )     6.32134991
 
     40    -0.286E-11     0.0000185013        6.3213499238       0.27  <-- CONV
        O_D=      0.0216424 O_OD=      0.2481517 O_TOT=      6.3213499 <-- SPRD
 Delta: O_D= -0.4937411E-10 O_OD=  0.4651443E-10 O_TOT= -0.2859046E-11 <-- DLTA
 ------------------------------------------------------------------------------
 Cycle:     41
  WF centre and spread    1  ( -0.163500, -0.082463, -0.082463 )     2.10711733
  WF centre and spread    2  (  0.082463,  0.163500, -0.082463 )     2.10711683
  WF centre and spread    3  (  0.082463, -0.082463,  0.163500 )     2.10711576
  Sum of centres and spreads (  0.001427, -0.001426, -0.001425 )     6.32134991
 
     41    -0.214E-08     0.0000184990        6.3213499216       0.28  <-- CONV
        O_D=      0.0216423 O_OD=      0.2481518 O_TOT=      6.3213499 <-- SPRD
 Delta: O_D= -0.8986041E-07 O_OD=  0.8772096E-07 O_TOT= -0.2139443E-08 <-- DLTA
 ------------------------------------------------------------------------------
 Cycle:     42
  WF centre and spread    1  ( -0.163500, -0.082463, -0.082462 )     2.10711733
  WF centre and spread    2  (  0.082463,  0.163499, -0.082463 )     2.10711683
  WF centre and spread    3  (  0.082463, -0.082463,  0.163500 )     2.10711576
  Sum of centres and spreads (  0.001427, -0.001426, -0.001425 )     6.32134991
 
     42    -0.806E-10     0.0000280406        6.3213499216       0.28  <-- CONV
        O_D=      0.0216423 O_OD=      0.2481518 O_TOT=      6.3213499 <-- SPRD
 Delta: O_D= -0.3160206E-07 O_OD=  0.3152142E-07 O_TOT= -0.8063328E-10 <-- DLTA
 ------------------------------------------------------------------------------
 Cycle:     43
  WF centre and spread    1  ( -0.163500, -0.082463, -0.082462 )     2.10711733
  WF centre and spread    2  (  0.082463,  0.163499, -0.082463 )     2.10711683
  WF centre and spread    3  (  0.082463, -0.082463,  0.163500 )     2.10711576
  Sum of centres and spreads (  0.001427, -0.001426, -0.001425 )     6.32134991
 
     43    -0.188E-08     0.0000311363        6.3213499197       0.29  <-- CONV
        O_D=      0.0216423 O_OD=      0.2481519 O_TOT=      6.3213499 <-- SPRD
 Delta: O_D= -0.1684563E-07 O_OD=  0.1496224E-07 O_TOT= -0.1883385E-08 <-- DLTA
 ------------------------------------------------------------------------------
 Cycle:     44
  WF centre and spread    1  ( -0.163500, -0.082463, -0.082462 )     2.10711733
  WF centre and spread    2  (  0.082463,  0.163499, -0.082463 )     2.10711683
  WF centre and spread    3  (  0.082463, -0.082463,  0.163500 )     2.10711576
  Sum of centres and spreads (  0.001427, -0.001426, -0.001425 )     6.32134991
 
     44    -0.765E-12     0.0000100407        6.3213499197       0.29  <-- CONV
        O_D=      0.0216423 O_OD=      0.2481519 O_TOT=      6.3213499 <-- SPRD
 Delta: O_D= -0.3017899E-10 O_OD=  0.2941478E-10 O_TOT= -0.7647216E-12 <-- DLTA
 ------------------------------------------------------------------------------
 Cycle:     45
  WF centre and spread    1  ( -0.163500, -0.082463, -0.082462 )     2.10711733
  WF centre and spread    2  (  0.082463,  0.163499, -0.082463 )     2.10711683
  WF centre and spread    3  (  0.082463, -0.082463,  0.163500 )     2.10711576
  Sum of centres and spreads (  0.001427, -0.001426, -0.001425 )     6.32134991
 
     45    -0.149E-11     0.0000100330        6.3213499197       0.30  <-- CONV
        O_D=      0.0216423 O_OD=      0.2481519 O_TOT=      6.3213499 <-- SPRD
 Delta: O_D= -0.5716720E-10 O_OD=  0.5567671E-10 O_TOT= -0.1490363E-11 <-- DLTA
 ------------------------------------------------------------------------------
 Cycle:     46
  WF centre and spread    1  ( -0.163499, -0.082462, -0.082462 )     2.10711733
  WF centre and spread    2  (  0.082463,  0.163499, -0.082463 )     2.10711683
  WF centre and spread    3  (  0.082463, -0.082463,  0.163500 )     2.10711576
  Sum of centres and spreads (  0.001427, -0.001426, -0.001425 )     6.32134991
 
     46    -0.442E-09     0.0000100166        6.3213499192       0.30  <-- CONV
        O_D=      0.0216422 O_OD=      0.2481519 O_TOT=      6.3213499 <-- SPRD
 Delta: O_D= -0.2833239E-07 O_OD=  0.2789044E-07 O_TOT= -0.4419531E-09 <-- DLTA
 ------------------------------------------------------------------------------
 Cycle:     47
  WF centre and spread    1  ( -0.163499, -0.082462, -0.082462 )     2.10711733
  WF centre and spread    2  (  0.082463,  0.163499, -0.082463 )     2.10711683
  WF centre and spread    3  (  0.082463, -0.082463,  0.163500 )     2.10711576
  Sum of centres and spreads (  0.001427, -0.001426, -0.001425 )     6.32134991
 
     47    -0.561E-12     0.0000071035        6.3213499192       0.31  <-- CONV
        O_D=      0.0216422 O_OD=      0.2481519 O_TOT=      6.3213499 <-- SPRD
 Delta: O_D= -0.6334028E-10 O_OD=  0.6277923E-10 O_TOT= -0.5613288E-12 <-- DLTA
 ------------------------------------------------------------------------------
 Cycle:     48
  WF centre and spread    1  ( -0.163499, -0.082462, -0.082462 )     2.10711733
  WF centre and spread    2  (  0.082463,  0.163499, -0.082463 )     2.10711683
  WF centre and spread    3  (  0.082463, -0.082463,  0.163500 )     2.10711576
  Sum of centres and spreads (  0.001427, -0.001426, -0.001425 )     6.32134991
 
     48    -0.925E-12     0.0000071058        6.3213499192       0.31  <-- CONV
        O_D=      0.0216422 O_OD=      0.2481519 O_TOT=      6.3213499 <-- SPRD
 Delta: O_D= -0.8517035E-10 O_OD=  0.8424533E-10 O_TOT= -0.9245937E-12 <-- DLTA
 ------------------------------------------------------------------------------
 Cycle:     49
  WF centre and spread    1  ( -0.163499, -0.082462, -0.082462 )     2.10711733
  WF centre and spread    2  (  0.082463,  0.163499, -0.082463 )     2.10711683
  WF centre and spread    3  (  0.082463, -0.082463,  0.163500 )     2.10711576
  Sum of centres and spreads (  0.001427, -0.001426, -0.001425 )     6.32134991
 
     49    -0.364E-12     0.0000071030        6.3213499192       0.32  <-- CONV
        O_D=      0.0216422 O_OD=      0.2481519 O_TOT=      6.3213499 <-- SPRD
 Delta: O_D= -0.2177700E-10 O_OD=  0.2141279E-10 O_TOT= -0.3641532E-12 <-- DLTA
 ------------------------------------------------------------------------------
 Cycle:     50
  WF centre and spread    1  ( -0.163499, -0.082462, -0.082462 )     2.10711733
  WF centre and spread    2  (  0.082463,  0.163499, -0.082463 )     2.10711683
  WF centre and spread    3  (  0.082463, -0.082463,  0.163500 )     2.10711576
  Sum of centres and spreads (  0.001427, -0.001426, -0.001425 )     6.32134991
 
     50    -0.727E-12     0.0000070979        6.3213499192       0.32  <-- CONV
        O_D=      0.0216422 O_OD=      0.2481519 O_TOT=      6.3213499 <-- SPRD
 Delta: O_D= -0.4351982E-10 O_OD=  0.4279221E-10 O_TOT= -0.7274181E-12 <-- DLTA
 ------------------------------------------------------------------------------
 Cycle:     51
  WF centre and spread    1  ( -0.163499, -0.082462, -0.082462 )     2.10711733
  WF centre and spread    2  (  0.082463,  0.163499, -0.082463 )     2.10711683
  WF centre and spread    3  (  0.082463, -0.082463,  0.163500 )     2.10711576
  Sum of centres and spreads (  0.001427, -0.001426, -0.001425 )     6.32134991
 
     51    -0.109E-11     0.0000070878        6.3213499192       0.32  <-- CONV
        O_D=      0.0216422 O_OD=      0.2481519 O_TOT=      6.3213499 <-- SPRD
 Delta: O_D= -0.6516337E-10 O_OD=  0.6407658E-10 O_TOT= -0.1087130E-11 <-- DLTA
 ------------------------------------------------------------------------------
 Cycle:     52
  WF centre and spread    1  ( -0.163499, -0.082462, -0.082462 )     2.10711733
  WF centre and spread    2  (  0.082463,  0.163499, -0.082463 )     2.10711682
  WF centre and spread    3  (  0.082463, -0.082463,  0.163500 )     2.10711576
  Sum of centres and spreads (  0.001427, -0.001426, -0.001425 )     6.32134991
 
     52    -0.245E-09     0.0000070727        6.3213499190       0.33  <-- CONV
        O_D=      0.0216422 O_OD=      0.2481519 O_TOT=      6.3213499 <-- SPRD
 Delta: O_D= -0.3587789E-07 O_OD=  0.3563244E-07 O_TOT= -0.2454446E-09 <-- DLTA
 ------------------------------------------------------------------------------
 Cycle:     53
  WF centre and spread    1  ( -0.163499, -0.082462, -0.082462 )     2.10711733
  WF centre and spread    2  (  0.082463,  0.163499, -0.082463 )     2.10711682
  WF centre and spread    3  (  0.082463, -0.082463,  0.163500 )     2.10711576
  Sum of centres and spreads (  0.001427, -0.001426, -0.001425 )     6.32134991
 
     53    -0.174E-11     0.0000111514        6.3213499190       0.34  <-- CONV
        O_D=      0.0216422 O_OD=      0.2481519 O_TOT=      6.3213499 <-- SPRD
 Delta: O_D= -0.3174757E-08 O_OD=  0.3173012E-08 O_TOT= -0.1744382E-11 <-- DLTA
 ------------------------------------------------------------------------------
 Cycle:     54
  WF centre and spread    1  ( -0.163499, -0.082462, -0.082462 )     2.10711733
  WF centre and spread    2  (  0.082463,  0.163499, -0.082463 )     2.10711682
  WF centre and spread    3  (  0.082463, -0.082463,  0.163500 )     2.10711576
  Sum of centres and spreads (  0.001427, -0.001426, -0.001425 )     6.32134991
 
     54    -0.465E-10     0.0000118613        6.3213499189       0.34  <-- CONV
        O_D=      0.0216422 O_OD=      0.2481519 O_TOT=      6.3213499 <-- SPRD
 Delta: O_D= -0.2486764E-07 O_OD=  0.2482111E-07 O_TOT= -0.4652634E-10 <-- DLTA
 ------------------------------------------------------------------------------
 Cycle:     55
  WF centre and spread    1  ( -0.163499, -0.082462, -0.082462 )     2.10711733
  WF centre and spread    2  (  0.082463,  0.163499, -0.082463 )     2.10711682
  WF centre and spread    3  (  0.082463, -0.082463,  0.163500 )     2.10711576
  Sum of centres and spreads (  0.001427, -0.001426, -0.001425 )     6.32134991
 
     55    -0.170E-11     0.0000153279        6.3213499189       0.35  <-- CONV
        O_D=      0.0216422 O_OD=      0.2481519 O_TOT=      6.3213499 <-- SPRD
 Delta: O_D= -0.1647713E-10 O_OD=  0.1477990E-10 O_TOT= -0.1698197E-11 <-- DLTA
 ------------------------------------------------------------------------------
 Cycle:     56
  WF centre and spread    1  ( -0.163499, -0.082462, -0.082462 )     2.10711733
  WF centre and spread    2  (  0.082463,  0.163499, -0.082463 )     2.10711682
  WF centre and spread    3  (  0.082463, -0.082463,  0.163500 )     2.10711576
  Sum of centres and spreads (  0.001427, -0.001426, -0.001425 )     6.32134991
 
     56    -0.407E-09     0.0000152967        6.3213499185       0.35  <-- CONV
        O_D=      0.0216422 O_OD=      0.2481520 O_TOT=      6.3213499 <-- SPRD
 Delta: O_D= -0.6634952E-08 O_OD=  0.6227885E-08 O_TOT= -0.4070664E-09 <-- DLTA
 ------------------------------------------------------------------------------
 Cycle:     57
  WF centre and spread    1  ( -0.163499, -0.082462, -0.082462 )     2.10711733
  WF centre and spread    2  (  0.082463,  0.163499, -0.082463 )     2.10711682
  WF centre and spread    3  (  0.082463, -0.082463,  0.163500 )     2.10711576
  Sum of centres and spreads (  0.001427, -0.001426, -0.001425 )     6.32134991
 
     57    -0.205E-12     0.0000046912        6.3213499185       0.36  <-- CONV
        O_D=      0.0216422 O_OD=      0.2481520 O_TOT=      6.3213499 <-- SPRD
 Delta: O_D= -0.1719232E-10 O_OD=  0.1698805E-10 O_TOT= -0.2051692E-12 <-- DLTA
 ------------------------------------------------------------------------------
 Cycle:     58
  WF centre and spread    1  ( -0.163499, -0.082462, -0.082462 )     2.10711733
  WF centre and spread    2  (  0.082463,  0.163499, -0.082463 )     2.10711682
  WF centre and spread    3  (  0.082463, -0.082463,  0.163500 )     2.10711576
  Sum of centres and spreads (  0.001427, -0.001426, -0.001425 )     6.32134991
 
     58    -0.363E-12     0.0000046886        6.3213499185       0.36  <-- CONV
        O_D=      0.0216422 O_OD=      0.2481520 O_TOT=      6.3213499 <-- SPRD
 Delta: O_D= -0.3153201E-10 O_OD=  0.3116885E-10 O_TOT= -0.3632650E-12 <-- DLTA
 ------------------------------------------------------------------------------
 Cycle:     59
  WF centre and spread    1  ( -0.163499, -0.082462, -0.082462 )     2.10711733
  WF centre and spread    2  (  0.082463,  0.163499, -0.082463 )     2.10711682
  WF centre and spread    3  (  0.082463, -0.082463,  0.163500 )     2.10711576
  Sum of centres and spreads (  0.001427, -0.001426, -0.001425 )     6.32134991
 
     59    -0.520E-12     0.0000046846        6.3213499185       0.37  <-- CONV
        O_D=      0.0216422 O_OD=      0.2481520 O_TOT=      6.3213499 <-- SPRD
 Delta: O_D= -0.4583309E-10 O_OD=  0.4531309E-10 O_TOT= -0.5195844E-12 <-- DLTA
 ------------------------------------------------------------------------------
 Cycle:     60
  WF centre and spread    1  ( -0.163499, -0.082462, -0.082462 )     2.10711733
  WF centre and spread    2  (  0.082463,  0.163499, -0.082463 )     2.10711682
  WF centre and spread    3  (  0.082463, -0.082463,  0.163500 )     2.10711576
  Sum of centres and spreads (  0.001427, -0.001426, -0.001425 )     6.32134991
 
     60    -0.676E-12     0.0000046790        6.3213499185       0.37  <-- CONV
        O_D=      0.0216422 O_OD=      0.2481520 O_TOT=      6.3213499 <-- SPRD
 Delta: O_D= -0.6007662E-10 O_OD=  0.5940098E-10 O_TOT= -0.6759038E-12 <-- DLTA
 ------------------------------------------------------------------------------
 Cycle:     61
  WF centre and spread    1  ( -0.163499, -0.082462, -0.082462 )     2.10711733
  WF centre and spread    2  (  0.082463,  0.163499, -0.082463 )     2.10711682
  WF centre and spread    3  (  0.082463, -0.082463,  0.163500 )     2.10711576
  Sum of centres and spreads (  0.001427, -0.001426, -0.001425 )     6.32134991
 
     61    -0.157E-12     0.0000046721        6.3213499185       0.37  <-- CONV
        O_D=      0.0216422 O_OD=      0.2481520 O_TOT=      6.3213499 <-- SPRD
 Delta: O_D= -0.1434684E-10 O_OD=  0.1418918E-10 O_TOT= -0.1572076E-12 <-- DLTA
 ------------------------------------------------------------------------------
 Cycle:     62
  WF centre and spread    1  ( -0.163499, -0.082462, -0.082462 )     2.10711733
  WF centre and spread    2  (  0.082463,  0.163499, -0.082463 )     2.10711682
  WF centre and spread    3  (  0.082463, -0.082463,  0.163500 )     2.10711576
  Sum of centres and spreads (  0.001427, -0.001426, -0.001425 )     6.32134991
 
     62    -0.316E-12     0.0000046707        6.3213499185       0.38  <-- CONV
        O_D=      0.0216422 O_OD=      0.2481520 O_TOT=      6.3213499 <-- SPRD
 Delta: O_D= -0.2868342E-10 O_OD=  0.2836700E-10 O_TOT= -0.3161915E-12 <-- DLTA
 ------------------------------------------------------------------------------
 Cycle:     63
  WF centre and spread    1  ( -0.163499, -0.082462, -0.082462 )     2.10711733
  WF centre and spread    2  (  0.082463,  0.163499, -0.082463 )     2.10711682
  WF centre and spread    3  (  0.082463, -0.082463,  0.163500 )     2.10711576
  Sum of centres and spreads (  0.001427, -0.001426, -0.001425 )     6.32134991
 
     63    -0.473E-12     0.0000046677        6.3213499185       0.38  <-- CONV
        O_D=      0.0216422 O_OD=      0.2481520 O_TOT=      6.3213499 <-- SPRD
 Delta: O_D= -0.4299071E-10 O_OD=  0.4251818E-10 O_TOT= -0.4733991E-12 <-- DLTA
 ------------------------------------------------------------------------------
 Cycle:     64
  WF centre and spread    1  ( -0.163499, -0.082462, -0.082462 )     2.10711733
  WF centre and spread    2  (  0.082463,  0.163499, -0.082463 )     2.10711682
  WF centre and spread    3  (  0.082463, -0.082463,  0.163500 )     2.10711576
  Sum of centres and spreads (  0.001427, -0.001426, -0.001425 )     6.32134991
 
     64    -0.831E-10     0.0000046634        6.3213499184       0.39  <-- CONV
        O_D=      0.0216422 O_OD=      0.2481520 O_TOT=      6.3213499 <-- SPRD
 Delta: O_D= -0.8314666E-08 O_OD=  0.8231576E-08 O_TOT= -0.8308998E-10 <-- DLTA
 ------------------------------------------------------------------------------
 Cycle:     65
  WF centre and spread    1  ( -0.163499, -0.082462, -0.082462 )     2.10711733
  WF centre and spread    2  (  0.082463,  0.163499, -0.082463 )     2.10711682
  WF centre and spread    3  (  0.082463, -0.082463,  0.163500 )     2.10711576
  Sum of centres and spreads (  0.001427, -0.001426, -0.001425 )     6.32134991
 
     65    -0.511E-12     0.0000040645        6.3213499184       0.39  <-- CONV
        O_D=      0.0216422 O_OD=      0.2481520 O_TOT=      6.3213499 <-- SPRD
 Delta: O_D= -0.5707715E-10 O_OD=  0.5656592E-10 O_TOT= -0.5107026E-12 <-- DLTA
 ------------------------------------------------------------------------------
 Cycle:     66
  WF centre and spread    1  ( -0.163499, -0.082462, -0.082462 )     2.10711733
  WF centre and spread    2  (  0.082463,  0.163499, -0.082463 )     2.10711682
  WF centre and spread    3  (  0.082463, -0.082463,  0.163500 )     2.10711576
  Sum of centres and spreads (  0.001427, -0.001426, -0.001425 )     6.32134991
 
     66    -0.629E-12     0.0000040624        6.3213499184       0.40  <-- CONV
        O_D=      0.0216422 O_OD=      0.2481520 O_TOT=      6.3213499 <-- SPRD
 Delta: O_D= -0.7065595E-10 O_OD=  0.7002740E-10 O_TOT= -0.6288303E-12 <-- DLTA
 ------------------------------------------------------------------------------
 Cycle:     67
  WF centre and spread    1  ( -0.163499, -0.082462, -0.082462 )     2.10711733
  WF centre and spread    2  (  0.082463,  0.163499, -0.082463 )     2.10711682
  WF centre and spread    3  (  0.082463, -0.082463,  0.163500 )     2.10711576
  Sum of centres and spreads (  0.001427, -0.001426, -0.001425 )     6.32134991
 
     67    -0.119E-12     0.0000040600        6.3213499184       0.40  <-- CONV
        O_D=      0.0216422 O_OD=      0.2481520 O_TOT=      6.3213499 <-- SPRD
 Delta: O_D= -0.1363208E-10 O_OD=  0.1351289E-10 O_TOT= -0.1190159E-12 <-- DLTA
 ------------------------------------------------------------------------------
 Cycle:     68
  WF centre and spread    1  ( -0.163499, -0.082462, -0.082462 )     2.10711733
  WF centre and spread    2  (  0.082463,  0.163499, -0.082463 )     2.10711682
  WF centre and spread    3  (  0.082463, -0.082463,  0.163500 )     2.10711576
  Sum of centres and spreads (  0.001427, -0.001426, -0.001425 )     6.32134991
 
     68    -0.239E-12     0.0000040596        6.3213499184       0.40  <-- CONV
        O_D=      0.0216422 O_OD=      0.2481520 O_TOT=      6.3213499 <-- SPRD
 Delta: O_D= -0.2726054E-10 O_OD=  0.2702238E-10 O_TOT= -0.2389200E-12 <-- DLTA
 ------------------------------------------------------------------------------
 Cycle:     69
  WF centre and spread    1  ( -0.163499, -0.082462, -0.082462 )     2.10711733
  WF centre and spread    2  (  0.082463,  0.163499, -0.082463 )     2.10711682
  WF centre and spread    3  (  0.082463, -0.082463,  0.163500 )     2.10711576
  Sum of centres and spreads (  0.001427, -0.001426, -0.001425 )     6.32134991
 
     69    -0.357E-12     0.0000040588        6.3213499184       0.41  <-- CONV
        O_D=      0.0216422 O_OD=      0.2481520 O_TOT=      6.3213499 <-- SPRD
 Delta: O_D= -0.4087924E-10 O_OD=  0.4052181E-10 O_TOT= -0.3570477E-12 <-- DLTA
 ------------------------------------------------------------------------------
 Cycle:     70
  WF centre and spread    1  ( -0.163499, -0.082462, -0.082462 )     2.10711733
  WF centre and spread    2  (  0.082463,  0.163499, -0.082463 )     2.10711682
  WF centre and spread    3  (  0.082463, -0.082463,  0.163500 )     2.10711576
  Sum of centres and spreads (  0.001427, -0.001426, -0.001425 )     6.32134991
 
     70    -0.475E-12     0.0000040577        6.3213499184       0.41  <-- CONV
        O_D=      0.0216422 O_OD=      0.2481520 O_TOT=      6.3213499 <-- SPRD
 Delta: O_D= -0.5448211E-10 O_OD=  0.5400619E-10 O_TOT= -0.4751755E-12 <-- DLTA
 ------------------------------------------------------------------------------
 Cycle:     71
  WF centre and spread    1  ( -0.163499, -0.082462, -0.082462 )     2.10711733
  WF centre and spread    2  (  0.082463,  0.163499, -0.082463 )     2.10711682
  WF centre and spread    3  (  0.082463, -0.082463,  0.163500 )     2.10711576
  Sum of centres and spreads (  0.001427, -0.001426, -0.001425 )     6.32134991
 
     71    -0.595E-12     0.0000040561        6.3213499184       0.42  <-- CONV
        O_D=      0.0216422 O_OD=      0.2481520 O_TOT=      6.3213499 <-- SPRD
 Delta: O_D= -0.6806301E-10 O_OD=  0.6746806E-10 O_TOT= -0.5950795E-12 <-- DLTA
 ------------------------------------------------------------------------------
 Cycle:     72
  WF centre and spread    1  ( -0.163499, -0.082462, -0.082462 )     2.10711733
  WF centre and spread    2  (  0.082463,  0.163499, -0.082463 )     2.10711682
  WF centre and spread    3  (  0.082463, -0.082463,  0.163500 )     2.10711576
  Sum of centres and spreads (  0.001427, -0.001426, -0.001425 )     6.32134991
 
     72    -0.712E-12     0.0000040542        6.3213499184       0.42  <-- CONV
        O_D=      0.0216422 O_OD=      0.2481520 O_TOT=      6.3213499 <-- SPRD
 Delta: O_D= -0.8161576E-10 O_OD=  0.8090384E-10 O_TOT= -0.7123191E-12 <-- DLTA
 ------------------------------------------------------------------------------
 Cycle:     73
  WF centre and spread    1  ( -0.163499, -0.082462, -0.082462 )     2.10711733
  WF centre and spread    2  (  0.082463,  0.163499, -0.082463 )     2.10711682
  WF centre and spread    3  (  0.082463, -0.082463,  0.163500 )     2.10711576
  Sum of centres and spreads (  0.001427, -0.001426, -0.001425 )     6.32134991
 
     73    -0.119E-12     0.0000040519        6.3213499184       0.42  <-- CONV
        O_D=      0.0216422 O_OD=      0.2481520 O_TOT=      6.3213499 <-- SPRD
 Delta: O_D= -0.1361163E-10 O_OD=  0.1349321E-10 O_TOT= -0.1190159E-12 <-- DLTA
 ------------------------------------------------------------------------------
 Cycle:     74
  WF centre and spread    1  ( -0.163499, -0.082462, -0.082462 )     2.10711733
  WF centre and spread    2  (  0.082463,  0.163499, -0.082463 )     2.10711682
  WF centre and spread    3  (  0.082463, -0.082463,  0.163500 )     2.10711576
  Sum of centres and spreads (  0.001427, -0.001426, -0.001425 )     6.32134991
 
     74    -0.236E-12     0.0000040515        6.3213499184       0.43  <-- CONV
        O_D=      0.0216422 O_OD=      0.2481520 O_TOT=      6.3213499 <-- SPRD
 Delta: O_D= -0.2721969E-10 O_OD=  0.2698208E-10 O_TOT= -0.2362555E-12 <-- DLTA
 ------------------------------------------------------------------------------
 Cycle:     75
  WF centre and spread    1  ( -0.163499, -0.082462, -0.082462 )     2.10711733
  WF centre and spread    2  (  0.082463,  0.163499, -0.082463 )     2.10711682
  WF centre and spread    3  (  0.082463, -0.082463,  0.163500 )     2.10711576
  Sum of centres and spreads (  0.001427, -0.001426, -0.001425 )     6.32134991
 
     75    -0.356E-12     0.0000040508        6.3213499184       0.43  <-- CONV
        O_D=      0.0216422 O_OD=      0.2481520 O_TOT=      6.3213499 <-- SPRD
 Delta: O_D= -0.4081809E-10 O_OD=  0.4046188E-10 O_TOT= -0.3561595E-12 <-- DLTA
 ------------------------------------------------------------------------------
 Cycle:     76
  WF centre and spread    1  ( -0.163499, -0.082462, -0.082462 )     2.10711733
  WF centre and spread    2  (  0.082463,  0.163499, -0.082463 )     2.10711682
  WF centre and spread    3  (  0.082463, -0.082463,  0.163500 )     2.10711576
  Sum of centres and spreads (  0.001427, -0.001426, -0.001425 )     6.32134991
 
     76    -0.474E-12     0.0000040496        6.3213499184       0.43  <-- CONV
        O_D=      0.0216422 O_OD=      0.2481520 O_TOT=      6.3213499 <-- SPRD
 Delta: O_D= -0.5440092E-10 O_OD=  0.5392695E-10 O_TOT= -0.4742873E-12 <-- DLTA
 ------------------------------------------------------------------------------
 Cycle:     77
  WF centre and spread    1  ( -0.163499, -0.082462, -0.082462 )     2.10711733
  WF centre and spread    2  (  0.082463,  0.163499, -0.082463 )     2.10711682
  WF centre and spread    3  (  0.082463, -0.082463,  0.163500 )     2.10711576
  Sum of centres and spreads (  0.001427, -0.001426, -0.001425 )     6.32134991
 
     77    -0.593E-12     0.0000040481        6.3213499184       0.44  <-- CONV
        O_D=      0.0216422 O_OD=      0.2481520 O_TOT=      6.3213499 <-- SPRD
 Delta: O_D= -0.6796190E-10 O_OD=  0.6736969E-10 O_TOT= -0.5933032E-12 <-- DLTA
 ------------------------------------------------------------------------------
 Cycle:     78
  WF centre and spread    1  ( -0.163499, -0.082462, -0.082462 )     2.10711733
  WF centre and spread    2  (  0.082463,  0.163499, -0.082463 )     2.10711682
  WF centre and spread    3  (  0.082463, -0.082463,  0.163500 )     2.10711576
  Sum of centres and spreads (  0.001427, -0.001426, -0.001425 )     6.32134991
 
     78    -0.709E-12     0.0000040462        6.3213499184       0.44  <-- CONV
        O_D=      0.0216422 O_OD=      0.2481520 O_TOT=      6.3213499 <-- SPRD
 Delta: O_D= -0.8149526E-10 O_OD=  0.8078563E-10 O_TOT= -0.7087664E-12 <-- DLTA
 ------------------------------------------------------------------------------
 Cycle:     79
  WF centre and spread    1  ( -0.163499, -0.082462, -0.082462 )     2.10711733
  WF centre and spread    2  (  0.082463,  0.163499, -0.082463 )     2.10711682
  WF centre and spread    3  (  0.082463, -0.082463,  0.163500 )     2.10711576
  Sum of centres and spreads (  0.001427, -0.001426, -0.001425 )     6.32134991
 
     79    -0.119E-12     0.0000040439        6.3213499184       0.45  <-- CONV
        O_D=      0.0216422 O_OD=      0.2481520 O_TOT=      6.3213499 <-- SPRD
 Delta: O_D= -0.1359118E-10 O_OD=  0.1347319E-10 O_TOT= -0.1190159E-12 <-- DLTA
 ------------------------------------------------------------------------------
 Cycle:     80
  WF centre and spread    1  ( -0.163499, -0.082462, -0.082462 )     2.10711733
  WF centre and spread    2  (  0.082463,  0.163499, -0.082463 )     2.10711682
  WF centre and spread    3  (  0.082463, -0.082463,  0.163500 )     2.10711576
  Sum of centres and spreads (  0.001427, -0.001426, -0.001425 )     6.32134991
 
     80    -0.235E-12     0.0000040436        6.3213499184       0.45  <-- CONV
        O_D=      0.0216422 O_OD=      0.2481520 O_TOT=      6.3213499 <-- SPRD
 Delta: O_D= -0.2717893E-10 O_OD=  0.2694286E-10 O_TOT= -0.2353673E-12 <-- DLTA
 ------------------------------------------------------------------------------
 Cycle:     81
  WF centre and spread    1  ( -0.163499, -0.082462, -0.082462 )     2.10711733
  WF centre and spread    2  (  0.082463,  0.163499, -0.082463 )     2.10711682
  WF centre and spread    3  (  0.082463, -0.082463,  0.163500 )     2.10711576
  Sum of centres and spreads (  0.001427, -0.001426, -0.001425 )     6.32134991
 
     81    -0.354E-12     0.0000040428        6.3213499184       0.45  <-- CONV
        O_D=      0.0216422 O_OD=      0.2481520 O_TOT=      6.3213499 <-- SPRD
 Delta: O_D= -0.4075712E-10 O_OD=  0.4040251E-10 O_TOT= -0.3543832E-12 <-- DLTA
 ------------------------------------------------------------------------------
 Cycle:     82
  WF centre and spread    1  ( -0.163499, -0.082462, -0.082462 )     2.10711733
  WF centre and spread    2  (  0.082463,  0.163499, -0.082463 )     2.10711682
  WF centre and spread    3  (  0.082463, -0.082463,  0.163500 )     2.10711576
  Sum of centres and spreads (  0.001427, -0.001426, -0.001425 )     6.32134991
 
     82    -0.473E-12     0.0000040417        6.3213499184       0.46  <-- CONV
        O_D=      0.0216422 O_OD=      0.2481520 O_TOT=      6.3213499 <-- SPRD
 Delta: O_D= -0.5431975E-10 O_OD=  0.5384709E-10 O_TOT= -0.4725109E-12 <-- DLTA
 ------------------------------------------------------------------------------
 Cycle:     83
  WF centre and spread    1  ( -0.163499, -0.082462, -0.082462 )     2.10711733
  WF centre and spread    2  (  0.082463,  0.163499, -0.082463 )     2.10711682
  WF centre and spread    3  (  0.082463, -0.082463,  0.163500 )     2.10711576
  Sum of centres and spreads (  0.001427, -0.001426, -0.001425 )     6.32134991
 
     83    -0.590E-12     0.0000040402        6.3213499184       0.46  <-- CONV
        O_D=      0.0216422 O_OD=      0.2481520 O_TOT=      6.3213499 <-- SPRD
 Delta: O_D= -0.6786101E-10 O_OD=  0.6727130E-10 O_TOT= -0.5897505E-12 <-- DLTA
 ------------------------------------------------------------------------------
 Cycle:     84
  WF centre and spread    1  ( -0.163499, -0.082462, -0.082462 )     2.10711733
  WF centre and spread    2  (  0.082463,  0.163499, -0.082463 )     2.10711682
  WF centre and spread    3  (  0.082463, -0.082463,  0.163500 )     2.10711576
  Sum of centres and spreads (  0.001427, -0.001426, -0.001425 )     6.32134991
 
     84    -0.706E-12     0.0000040383        6.3213499184       0.46  <-- CONV
        O_D=      0.0216422 O_OD=      0.2481520 O_TOT=      6.3213499 <-- SPRD
 Delta: O_D= -0.8137477E-10 O_OD=  0.8066858E-10 O_TOT= -0.7061018E-12 <-- DLTA
 ------------------------------------------------------------------------------
 Cycle:     85
  WF centre and spread    1  ( -0.163499, -0.082462, -0.082462 )     2.10711733
  WF centre and spread    2  (  0.082463,  0.163499, -0.082463 )     2.10711682
  WF centre and spread    3  (  0.082463, -0.082463,  0.163500 )     2.10711576
  Sum of centres and spreads (  0.001427, -0.001426, -0.001425 )     6.32134991
 
     85    -0.117E-12     0.0000040361        6.3213499184       0.47  <-- CONV
        O_D=      0.0216422 O_OD=      0.2481520 O_TOT=      6.3213499 <-- SPRD
 Delta: O_D= -0.1357084E-10 O_OD=  0.1345332E-10 O_TOT= -0.1172396E-12 <-- DLTA
 ------------------------------------------------------------------------------
 Cycle:     86
  WF centre and spread    1  ( -0.163499, -0.082462, -0.082462 )     2.10711733
  WF centre and spread    2  (  0.082463,  0.163499, -0.082463 )     2.10711682
  WF centre and spread    3  (  0.082463, -0.082463,  0.163500 )     2.10711576
  Sum of centres and spreads (  0.001427, -0.001426, -0.001425 )     6.32134991
 
     86    -0.237E-12     0.0000040357        6.3213499184       0.47  <-- CONV
        O_D=      0.0216422 O_OD=      0.2481520 O_TOT=      6.3213499 <-- SPRD
 Delta: O_D= -0.2713824E-10 O_OD=  0.2690131E-10 O_TOT= -0.2371436E-12 <-- DLTA
 ------------------------------------------------------------------------------
 Cycle:     87
  WF centre and spread    1  ( -0.163499, -0.082462, -0.082462 )     2.10711733
  WF centre and spread    2  (  0.082463,  0.163499, -0.082463 )     2.10711682
  WF centre and spread    3  (  0.082463, -0.082463,  0.163500 )     2.10711576
  Sum of centres and spreads (  0.001427, -0.001426, -0.001425 )     6.32134991
 
     87    -0.353E-12     0.0000040350        6.3213499184       0.48  <-- CONV
        O_D=      0.0216422 O_OD=      0.2481520 O_TOT=      6.3213499 <-- SPRD
 Delta: O_D= -0.4069621E-10 O_OD=  0.4034412E-10 O_TOT= -0.3526068E-12 <-- DLTA
 ------------------------------------------------------------------------------
 Cycle:     88
  WF centre and spread    1  ( -0.163499, -0.082462, -0.082462 )     2.10711733
  WF centre and spread    2  (  0.082463,  0.163499, -0.082463 )     2.10711682
  WF centre and spread    3  (  0.082463, -0.082463,  0.163500 )     2.10711576
  Sum of centres and spreads (  0.001427, -0.001426, -0.001425 )     6.32134991
 
     88    -0.471E-12     0.0000040339        6.3213499184       0.48  <-- CONV
        O_D=      0.0216422 O_OD=      0.2481520 O_TOT=      6.3213499 <-- SPRD
 Delta: O_D= -0.5423879E-10 O_OD=  0.5376791E-10 O_TOT= -0.4707346E-12 <-- DLTA
 ------------------------------------------------------------------------------
 Cycle:     89
  WF centre and spread    1  ( -0.163499, -0.082462, -0.082462 )     2.10711733
  WF centre and spread    2  (  0.082463,  0.163499, -0.082463 )     2.10711682
  WF centre and spread    3  (  0.082463, -0.082463,  0.163500 )     2.10711576
  Sum of centres and spreads (  0.001427, -0.001426, -0.001425 )     6.32134991
 
     89    -0.588E-12     0.0000040324        6.3213499184       0.48  <-- CONV
        O_D=      0.0216422 O_OD=      0.2481520 O_TOT=      6.3213499 <-- SPRD
 Delta: O_D= -0.6776018E-10 O_OD=  0.6717280E-10 O_TOT= -0.5879741E-12 <-- DLTA
 ------------------------------------------------------------------------------
 Cycle:     90
  WF centre and spread    1  ( -0.163499, -0.082462, -0.082462 )     2.10711733
  WF centre and spread    2  (  0.082463,  0.163499, -0.082463 )     2.10711682
  WF centre and spread    3  (  0.082463, -0.082463,  0.163500 )     2.10711576
  Sum of centres and spreads (  0.001427, -0.001426, -0.001425 )     6.32134991
 
     90    -0.703E-12     0.0000040305        6.3213499184       0.49  <-- CONV
        O_D=      0.0216422 O_OD=      0.2481520 O_TOT=      6.3213499 <-- SPRD
 Delta: O_D= -0.8125449E-10 O_OD=  0.8055068E-10 O_TOT= -0.7034373E-12 <-- DLTA
 ------------------------------------------------------------------------------
 Cycle:     91
  WF centre and spread    1  ( -0.163499, -0.082462, -0.082462 )     2.10711733
  WF centre and spread    2  (  0.082463,  0.163499, -0.082463 )     2.10711682
  WF centre and spread    3  (  0.082463, -0.082463,  0.163500 )     2.10711576
  Sum of centres and spreads (  0.001427, -0.001426, -0.001425 )     6.32134991
 
     91    -0.117E-12     0.0000040283        6.3213499184       0.49  <-- CONV
        O_D=      0.0216422 O_OD=      0.2481520 O_TOT=      6.3213499 <-- SPRD
 Delta: O_D= -0.1355049E-10 O_OD=  0.1343298E-10 O_TOT= -0.1172396E-12 <-- DLTA
 ------------------------------------------------------------------------------
 Cycle:     92
  WF centre and spread    1  ( -0.163499, -0.082462, -0.082462 )     2.10711733
  WF centre and spread    2  (  0.082463,  0.163499, -0.082463 )     2.10711682
  WF centre and spread    3  (  0.082463, -0.082463,  0.163500 )     2.10711576
  Sum of centres and spreads (  0.001427, -0.001426, -0.001425 )     6.32134991
 
     92    -0.234E-12     0.0000040280        6.3213499184       0.49  <-- CONV
        O_D=      0.0216422 O_OD=      0.2481520 O_TOT=      6.3213499 <-- SPRD
 Delta: O_D= -0.2709767E-10 O_OD=  0.2686329E-10 O_TOT= -0.2344791E-12 <-- DLTA
 ------------------------------------------------------------------------------
 Cycle:     93
  WF centre and spread    1  ( -0.163499, -0.082462, -0.082462 )     2.10711733
  WF centre and spread    2  (  0.082463,  0.163499, -0.082463 )     2.10711682
  WF centre and spread    3  (  0.082463, -0.082463,  0.163500 )     2.10711576
  Sum of centres and spreads (  0.001427, -0.001426, -0.001425 )     6.32134991
 
     93    -0.352E-12     0.0000040272        6.3213499184       0.50  <-- CONV
        O_D=      0.0216422 O_OD=      0.2481520 O_TOT=      6.3213499 <-- SPRD
 Delta: O_D= -0.4063536E-10 O_OD=  0.4028355E-10 O_TOT= -0.3517187E-12 <-- DLTA
 ------------------------------------------------------------------------------
 Cycle:     94
  WF centre and spread    1  ( -0.163499, -0.082462, -0.082462 )     2.10711733
  WF centre and spread    2  (  0.082463,  0.163499, -0.082463 )     2.10711682
  WF centre and spread    3  (  0.082463, -0.082463,  0.163500 )     2.10711576
  Sum of centres and spreads (  0.001427, -0.001426, -0.001425 )     6.32134991
 
     94    -0.469E-12     0.0000040261        6.3213499184       0.50  <-- CONV
        O_D=      0.0216422 O_OD=      0.2481520 O_TOT=      6.3213499 <-- SPRD
 Delta: O_D= -0.5415796E-10 O_OD=  0.5368889E-10 O_TOT= -0.4689582E-12 <-- DLTA
 ------------------------------------------------------------------------------
 Cycle:     95
  WF centre and spread    1  ( -0.163499, -0.082462, -0.082462 )     2.10711733
  WF centre and spread    2  (  0.082463,  0.163499, -0.082463 )     2.10711682
  WF centre and spread    3  (  0.082463, -0.082463,  0.163500 )     2.10711576
  Sum of centres and spreads (  0.001427, -0.001426, -0.001425 )     6.32134991
 
     95    -0.584E-12     0.0000040247        6.3213499184       0.51  <-- CONV
        O_D=      0.0216422 O_OD=      0.2481520 O_TOT=      6.3213499 <-- SPRD
 Delta: O_D= -0.6765952E-10 O_OD=  0.6707523E-10 O_TOT= -0.5844214E-12 <-- DLTA
 ------------------------------------------------------------------------------
 Cycle:     96
  WF centre and spread    1  ( -0.163499, -0.082462, -0.082462 )     2.10711733
  WF centre and spread    2  (  0.082463,  0.163499, -0.082463 )     2.10711682
  WF centre and spread    3  (  0.082463, -0.082463,  0.163500 )     2.10711576
  Sum of centres and spreads (  0.001427, -0.001426, -0.001425 )     6.32134991
 
     96    -0.702E-12     0.0000040229        6.3213499184       0.51  <-- CONV
        O_D=      0.0216422 O_OD=      0.2481520 O_TOT=      6.3213499 <-- SPRD
 Delta: O_D= -0.8113434E-10 O_OD=  0.8043258E-10 O_TOT= -0.7016610E-12 <-- DLTA
 ------------------------------------------------------------------------------
 Cycle:     97
  WF centre and spread    1  ( -0.163499, -0.082462, -0.082462 )     2.10711733
  WF centre and spread    2  (  0.082463,  0.163499, -0.082463 )     2.10711682
  WF centre and spread    3  (  0.082463, -0.082463,  0.163500 )     2.10711576
  Sum of centres and spreads (  0.001427, -0.001426, -0.001425 )     6.32134991
 
[...]
  Sum of centres and spreads (  0.001427, -0.001426, -0.001425 )     6.32134991
 
    473    -0.342E-12     0.0000030806        6.3213499181       1.99  <-- CONV
        O_D=      0.0216421 O_OD=      0.2481520 O_TOT=      6.3213499 <-- SPRD
 Delta: O_D= -0.5171220E-10 O_OD=  0.5136980E-10 O_TOT= -0.3419487E-12 <-- DLTA
 ------------------------------------------------------------------------------
 Cycle:    474
  WF centre and spread    1  ( -0.163499, -0.082462, -0.082462 )     2.10711733
  WF centre and spread    2  (  0.082463,  0.163499, -0.082463 )     2.10711682
  WF centre and spread    3  (  0.082463, -0.082463,  0.163500 )     2.10711576
  Sum of centres and spreads (  0.001427, -0.001426, -0.001425 )     6.32134991
 
    474    -0.411E-12     0.0000030796        6.3213499181       2.00  <-- CONV
        O_D=      0.0216421 O_OD=      0.2481520 O_TOT=      6.3213499 <-- SPRD
 Delta: O_D= -0.6202013E-10 O_OD=  0.6160905E-10 O_TOT= -0.4112266E-12 <-- DLTA
 ------------------------------------------------------------------------------
 Cycle:    475
  WF centre and spread    1  ( -0.163499, -0.082462, -0.082462 )     2.10711733
  WF centre and spread    2  (  0.082463,  0.163499, -0.082463 )     2.10711682
  WF centre and spread    3  (  0.082463, -0.082463,  0.163500 )     2.10711576
  Sum of centres and spreads (  0.001427, -0.001426, -0.001425 )     6.32134991
 
    475    -0.684E-13     0.0000030784        6.3213499181       2.00  <-- CONV
        O_D=      0.0216421 O_OD=      0.2481520 O_TOT=      6.3213499 <-- SPRD
 Delta: O_D= -0.1033825E-10 O_OD=  0.1026998E-10 O_TOT= -0.6838974E-13 <-- DLTA
 ------------------------------------------------------------------------------
 Cycle:    476
  WF centre and spread    1  ( -0.163499, -0.082462, -0.082462 )     2.10711733
  WF centre and spread    2  (  0.082463,  0.163499, -0.082463 )     2.10711682
  WF centre and spread    3  (  0.082463, -0.082463,  0.163500 )     2.10711576
  Sum of centres and spreads (  0.001427, -0.001426, -0.001425 )     6.32134991
 
    476    -0.138E-12     0.0000030781        6.3213499181       2.01  <-- CONV
        O_D=      0.0216421 O_OD=      0.2481520 O_TOT=      6.3213499 <-- SPRD
 Delta: O_D= -0.2067420E-10 O_OD=  0.2053693E-10 O_TOT= -0.1376677E-12 <-- DLTA
 ------------------------------------------------------------------------------
 Cycle:    477
  WF centre and spread    1  ( -0.163499, -0.082462, -0.082462 )     2.10711733
  WF centre and spread    2  (  0.082463,  0.163499, -0.082463 )     2.10711682
  WF centre and spread    3  (  0.082463, -0.082463,  0.163500 )     2.10711576
  Sum of centres and spreads (  0.001427, -0.001426, -0.001425 )     6.32134991
 
    477    -0.205E-12     0.0000030777        6.3213499181       2.01  <-- CONV
        O_D=      0.0216421 O_OD=      0.2481520 O_TOT=      6.3213499 <-- SPRD
 Delta: O_D= -0.3100464E-10 O_OD=  0.3079906E-10 O_TOT= -0.2051692E-12 <-- DLTA
 ------------------------------------------------------------------------------
 Cycle:    478
  WF centre and spread    1  ( -0.163499, -0.082462, -0.082462 )     2.10711733
  WF centre and spread    2  (  0.082463,  0.163499, -0.082463 )     2.10711682
  WF centre and spread    3  (  0.082463, -0.082463,  0.163500 )     2.10711576
  Sum of centres and spreads (  0.001427, -0.001426, -0.001425 )     6.32134991
 
    478    -0.274E-12     0.0000030771        6.3213499181       2.01  <-- CONV
        O_D=      0.0216421 O_OD=      0.2481520 O_TOT=      6.3213499 <-- SPRD
 Delta: O_D= -0.4132591E-10 O_OD=  0.4105230E-10 O_TOT= -0.2735590E-12 <-- DLTA
 ------------------------------------------------------------------------------
 Cycle:    479
  WF centre and spread    1  ( -0.163499, -0.082462, -0.082462 )     2.10711733
  WF centre and spread    2  (  0.082463,  0.163499, -0.082463 )     2.10711682
  WF centre and spread    3  (  0.082463, -0.082463,  0.163500 )     2.10711576
  Sum of centres and spreads (  0.001427, -0.001426, -0.001425 )     6.32134991
 
    479    -0.342E-12     0.0000030763        6.3213499181       2.02  <-- CONV
        O_D=      0.0216421 O_OD=      0.2481520 O_TOT=      6.3213499 <-- SPRD
 Delta: O_D= -0.5163457E-10 O_OD=  0.5129239E-10 O_TOT= -0.3419487E-12 <-- DLTA
 ------------------------------------------------------------------------------
 Cycle:    480
  WF centre and spread    1  ( -0.163499, -0.082462, -0.082462 )     2.10711733
  WF centre and spread    2  (  0.082463,  0.163499, -0.082463 )     2.10711682
  WF centre and spread    3  (  0.082463, -0.082463,  0.163500 )     2.10711576
  Sum of centres and spreads (  0.001427, -0.001426, -0.001425 )     6.32134991
 
    480    -0.410E-12     0.0000030753        6.3213499181       2.02  <-- CONV
        O_D=      0.0216421 O_OD=      0.2481520 O_TOT=      6.3213499 <-- SPRD
 Delta: O_D= -0.6192711E-10 O_OD=  0.6151762E-10 O_TOT= -0.4103384E-12 <-- DLTA
 ------------------------------------------------------------------------------
 Cycle:    481
  WF centre and spread    1  ( -0.163499, -0.082462, -0.082462 )     2.10711733
  WF centre and spread    2  (  0.082463,  0.163499, -0.082463 )     2.10711682
  WF centre and spread    3  (  0.082463, -0.082463,  0.163500 )     2.10711576
  Sum of centres and spreads (  0.001427, -0.001426, -0.001425 )     6.32134991
 
    481    -0.675E-13     0.0000030740        6.3213499181       2.02  <-- CONV
        O_D=      0.0216421 O_OD=      0.2481520 O_TOT=      6.3213499 <-- SPRD
 Delta: O_D= -0.1032260E-10 O_OD=  0.1025419E-10 O_TOT= -0.6750156E-13 <-- DLTA
 ------------------------------------------------------------------------------
 Cycle:    482
  WF centre and spread    1  ( -0.163499, -0.082462, -0.082462 )     2.10711733
  WF centre and spread    2  (  0.082463,  0.163499, -0.082463 )     2.10711682
  WF centre and spread    3  (  0.082463, -0.082463,  0.163500 )     2.10711576
  Sum of centres and spreads (  0.001427, -0.001426, -0.001425 )     6.32134991
 
    482    -0.137E-12     0.0000030738        6.3213499181       2.03  <-- CONV
        O_D=      0.0216421 O_OD=      0.2481520 O_TOT=      6.3213499 <-- SPRD
 Delta: O_D= -0.2064321E-10 O_OD=  0.2050651E-10 O_TOT= -0.1367795E-12 <-- DLTA
 ------------------------------------------------------------------------------
 Cycle:    483
  WF centre and spread    1  ( -0.163499, -0.082462, -0.082462 )     2.10711733
  WF centre and spread    2  (  0.082463,  0.163499, -0.082463 )     2.10711682
  WF centre and spread    3  (  0.082463, -0.082463,  0.163500 )     2.10711576
  Sum of centres and spreads (  0.001427, -0.001426, -0.001425 )     6.32134991
 
    483    -0.205E-12     0.0000030734        6.3213499181       2.03  <-- CONV
        O_D=      0.0216421 O_OD=      0.2481520 O_TOT=      6.3213499 <-- SPRD
 Delta: O_D= -0.3095811E-10 O_OD=  0.3075312E-10 O_TOT= -0.2051692E-12 <-- DLTA
 ------------------------------------------------------------------------------
 Cycle:    484
  WF centre and spread    1  ( -0.163499, -0.082462, -0.082462 )     2.10711733
  WF centre and spread    2  (  0.082463,  0.163499, -0.082463 )     2.10711682
  WF centre and spread    3  (  0.082463, -0.082463,  0.163500 )     2.10711576
  Sum of centres and spreads (  0.001427, -0.001426, -0.001425 )     6.32134991
 
    484    -0.274E-12     0.0000030728        6.3213499181       2.04  <-- CONV
        O_D=      0.0216421 O_OD=      0.2481520 O_TOT=      6.3213499 <-- SPRD
 Delta: O_D= -0.4126388E-10 O_OD=  0.4099074E-10 O_TOT= -0.2735590E-12 <-- DLTA
 ------------------------------------------------------------------------------
 Cycle:    485
  WF centre and spread    1  ( -0.163499, -0.082462, -0.082462 )     2.10711733
  WF centre and spread    2  (  0.082463,  0.163499, -0.082463 )     2.10711682
  WF centre and spread    3  (  0.082463, -0.082463,  0.163500 )     2.10711576
  Sum of centres and spreads (  0.001427, -0.001426, -0.001425 )     6.32134991
 
    485    -0.341E-12     0.0000030720        6.3213499181       2.04  <-- CONV
        O_D=      0.0216421 O_OD=      0.2481520 O_TOT=      6.3213499 <-- SPRD
 Delta: O_D= -0.5155704E-10 O_OD=  0.5121559E-10 O_TOT= -0.3410605E-12 <-- DLTA
 ------------------------------------------------------------------------------
 Cycle:    486
  WF centre and spread    1  ( -0.163499, -0.082462, -0.082462 )     2.10711733
  WF centre and spread    2  (  0.082463,  0.163499, -0.082463 )     2.10711682
  WF centre and spread    3  (  0.082463, -0.082463,  0.163500 )     2.10711576
  Sum of centres and spreads (  0.001427, -0.001426, -0.001425 )     6.32134991
 
    486    -0.409E-12     0.0000030709        6.3213499181       2.04  <-- CONV
        O_D=      0.0216421 O_OD=      0.2481520 O_TOT=      6.3213499 <-- SPRD
 Delta: O_D= -0.6183411E-10 O_OD=  0.6142553E-10 O_TOT= -0.4085621E-12 <-- DLTA
 ------------------------------------------------------------------------------
 Cycle:    487
  WF centre and spread    1  ( -0.163499, -0.082462, -0.082462 )     2.10711733
  WF centre and spread    2  (  0.082463,  0.163499, -0.082463 )     2.10711682
  WF centre and spread    3  (  0.082463, -0.082463,  0.163500 )     2.10711576
  Sum of centres and spreads (  0.001427, -0.001426, -0.001425 )     6.32134991
 
    487    -0.684E-13     0.0000030697        6.3213499181       2.05  <-- CONV
        O_D=      0.0216421 O_OD=      0.2481520 O_TOT=      6.3213499 <-- SPRD
 Delta: O_D= -0.1030713E-10 O_OD=  0.1023945E-10 O_TOT= -0.6838974E-13 <-- DLTA
 ------------------------------------------------------------------------------
 Cycle:    488
  WF centre and spread    1  ( -0.163499, -0.082462, -0.082462 )     2.10711733
  WF centre and spread    2  (  0.082463,  0.163499, -0.082463 )     2.10711682
  WF centre and spread    3  (  0.082463, -0.082463,  0.163500 )     2.10711576
  Sum of centres and spreads (  0.001427, -0.001426, -0.001425 )     6.32134991
 
    488    -0.136E-12     0.0000030695        6.3213499181       2.05  <-- CONV
        O_D=      0.0216421 O_OD=      0.2481520 O_TOT=      6.3213499 <-- SPRD
 Delta: O_D= -0.2061221E-10 O_OD=  0.2047551E-10 O_TOT= -0.1358913E-12 <-- DLTA
 ------------------------------------------------------------------------------
 Cycle:    489
  WF centre and spread    1  ( -0.163499, -0.082462, -0.082462 )     2.10711733
  WF centre and spread    2  (  0.082463,  0.163499, -0.082463 )     2.10711682
  WF centre and spread    3  (  0.082463, -0.082463,  0.163500 )     2.10711576
  Sum of centres and spreads (  0.001427, -0.001426, -0.001425 )     6.32134991
 
    489    -0.204E-12     0.0000030691        6.3213499181       2.05  <-- CONV
        O_D=      0.0216421 O_OD=      0.2481520 O_TOT=      6.3213499 <-- SPRD
 Delta: O_D= -0.3091162E-10 O_OD=  0.3070727E-10 O_TOT= -0.2042810E-12 <-- DLTA
 ------------------------------------------------------------------------------
 Cycle:    490
  WF centre and spread    1  ( -0.163499, -0.082462, -0.082462 )     2.10711733
  WF centre and spread    2  (  0.082463,  0.163499, -0.082463 )     2.10711682
  WF centre and spread    3  (  0.082463, -0.082463,  0.163500 )     2.10711576
  Sum of centres and spreads (  0.001427, -0.001426, -0.001425 )     6.32134991
 
    490    -0.274E-12     0.0000030685        6.3213499181       2.06  <-- CONV
        O_D=      0.0216421 O_OD=      0.2481520 O_TOT=      6.3213499 <-- SPRD
 Delta: O_D= -0.4120197E-10 O_OD=  0.4092932E-10 O_TOT= -0.2735590E-12 <-- DLTA
 ------------------------------------------------------------------------------
 Cycle:    491
  WF centre and spread    1  ( -0.163499, -0.082462, -0.082462 )     2.10711733
  WF centre and spread    2  (  0.082463,  0.163499, -0.082463 )     2.10711682
  WF centre and spread    3  (  0.082463, -0.082463,  0.163500 )     2.10711576
  Sum of centres and spreads (  0.001427, -0.001426, -0.001425 )     6.32134991
 
    491    -0.339E-12     0.0000030677        6.3213499181       2.06  <-- CONV
        O_D=      0.0216421 O_OD=      0.2481520 O_TOT=      6.3213499 <-- SPRD
 Delta: O_D= -0.5147963E-10 O_OD=  0.5114023E-10 O_TOT= -0.3392842E-12 <-- DLTA
 ------------------------------------------------------------------------------
 Cycle:    492
  WF centre and spread    1  ( -0.163499, -0.082462, -0.082462 )     2.10711733
  WF centre and spread    2  (  0.082463,  0.163499, -0.082463 )     2.10711682
  WF centre and spread    3  (  0.082463, -0.082463,  0.163500 )     2.10711576
  Sum of centres and spreads (  0.001427, -0.001426, -0.001425 )     6.32134991
 
    492    -0.407E-12     0.0000030666        6.3213499181       2.07  <-- CONV
        O_D=      0.0216421 O_OD=      0.2481520 O_TOT=      6.3213499 <-- SPRD
 Delta: O_D= -0.6174131E-10 O_OD=  0.6133349E-10 O_TOT= -0.4067857E-12 <-- DLTA
 ------------------------------------------------------------------------------
 Cycle:    493
  WF centre and spread    1  ( -0.163499, -0.082462, -0.082462 )     2.10711733
  WF centre and spread    2  (  0.082463,  0.163499, -0.082463 )     2.10711682
  WF centre and spread    3  (  0.082463, -0.082463,  0.163500 )     2.10711576
  Sum of centres and spreads (  0.001427, -0.001426, -0.001425 )     6.32134991
 
    493    -0.684E-13     0.0000030654        6.3213499181       2.07  <-- CONV
        O_D=      0.0216421 O_OD=      0.2481520 O_TOT=      6.3213499 <-- SPRD
 Delta: O_D= -0.1029170E-10 O_OD=  0.1022440E-10 O_TOT= -0.6838974E-13 <-- DLTA
 ------------------------------------------------------------------------------
 Cycle:    494
  WF centre and spread    1  ( -0.163499, -0.082462, -0.082462 )     2.10711733
  WF centre and spread    2  (  0.082463,  0.163499, -0.082463 )     2.10711682
  WF centre and spread    3  (  0.082463, -0.082463,  0.163500 )     2.10711576
  Sum of centres and spreads (  0.001427, -0.001426, -0.001425 )     6.32134991
 
    494    -0.136E-12     0.0000030652        6.3213499181       2.07  <-- CONV
        O_D=      0.0216421 O_OD=      0.2481520 O_TOT=      6.3213499 <-- SPRD
 Delta: O_D= -0.2058128E-10 O_OD=  0.2044501E-10 O_TOT= -0.1358913E-12 <-- DLTA
 ------------------------------------------------------------------------------
 Cycle:    495
  WF centre and spread    1  ( -0.163499, -0.082462, -0.082462 )     2.10711733
  WF centre and spread    2  (  0.082463,  0.163499, -0.082463 )     2.10711682
  WF centre and spread    3  (  0.082463, -0.082463,  0.163500 )     2.10711576
  Sum of centres and spreads (  0.001427, -0.001426, -0.001425 )     6.32134991
 
    495    -0.203E-12     0.0000030648        6.3213499181       2.08  <-- CONV
        O_D=      0.0216421 O_OD=      0.2481520 O_TOT=      6.3213499 <-- SPRD
 Delta: O_D= -0.3086520E-10 O_OD=  0.3066167E-10 O_TOT= -0.2033929E-12 <-- DLTA
 ------------------------------------------------------------------------------
 Cycle:    496
  WF centre and spread    1  ( -0.163499, -0.082462, -0.082462 )     2.10711733
  WF centre and spread    2  (  0.082463,  0.163499, -0.082463 )     2.10711682
  WF centre and spread    3  (  0.082463, -0.082463,  0.163500 )     2.10711576
  Sum of centres and spreads (  0.001427, -0.001426, -0.001425 )     6.32134991
 
    496    -0.272E-12     0.0000030642        6.3213499181       2.08  <-- CONV
        O_D=      0.0216421 O_OD=      0.2481520 O_TOT=      6.3213499 <-- SPRD
 Delta: O_D= -0.4114009E-10 O_OD=  0.4086859E-10 O_TOT= -0.2717826E-12 <-- DLTA
 ------------------------------------------------------------------------------
 Cycle:    497
  WF centre and spread    1  ( -0.163499, -0.082462, -0.082462 )     2.10711733
  WF centre and spread    2  (  0.082463,  0.163499, -0.082463 )     2.10711682
  WF centre and spread    3  (  0.082463, -0.082463,  0.163500 )     2.10711576
  Sum of centres and spreads (  0.001427, -0.001426, -0.001425 )     6.32134991
 
    497    -0.340E-12     0.0000030633        6.3213499181       2.09  <-- CONV
        O_D=      0.0216421 O_OD=      0.2481520 O_TOT=      6.3213499 <-- SPRD
 Delta: O_D= -0.5140243E-10 O_OD=  0.5106252E-10 O_TOT= -0.3401723E-12 <-- DLTA
 ------------------------------------------------------------------------------
 Cycle:    498
  WF centre and spread    1  ( -0.163499, -0.082462, -0.082462 )     2.10711733
  WF centre and spread    2  (  0.082463,  0.163499, -0.082463 )     2.10711682
  WF centre and spread    3  (  0.082463, -0.082463,  0.163500 )     2.10711576
  Sum of centres and spreads (  0.001427, -0.001426, -0.001425 )     6.32134991
 
    498    -0.503E-10     0.0000030623        6.3213499180       2.09  <-- CONV
        O_D=      0.0216421 O_OD=      0.2481520 O_TOT=      6.3213499 <-- SPRD
 Delta: O_D= -0.7830139E-08 O_OD=  0.7779807E-08 O_TOT= -0.5033129E-10 <-- DLTA
 ------------------------------------------------------------------------------
 Cycle:    499
  WF centre and spread    1  ( -0.163499, -0.082462, -0.082462 )     2.10711733
  WF centre and spread    2  (  0.082463,  0.163499, -0.082463 )     2.10711682
  WF centre and spread    3  (  0.082463, -0.082463,  0.163500 )     2.10711576
  Sum of centres and spreads (  0.001427, -0.001426, -0.001425 )     6.32134991
 
    499    -0.613E-13     0.0000029064        6.3213499180       2.10  <-- CONV
        O_D=      0.0216421 O_OD=      0.2481520 O_TOT=      6.3213499 <-- SPRD
 Delta: O_D= -0.9720603E-11 O_OD=  0.9659190E-11 O_TOT= -0.6128431E-13 <-- DLTA
 ------------------------------------------------------------------------------
 Cycle:    500
  WF centre and spread    1  ( -0.163499, -0.082462, -0.082462 )     2.10711733
  WF centre and spread    2  (  0.082463,  0.163499, -0.082463 )     2.10711682
  WF centre and spread    3  (  0.082463, -0.082463,  0.163500 )     2.10711576
  Sum of centres and spreads (  0.001427, -0.001426, -0.001425 )     6.32134991
 
    500    -0.122E-12     0.0000029062        6.3213499180       2.10  <-- CONV
        O_D=      0.0216421 O_OD=      0.2481520 O_TOT=      6.3213499 <-- SPRD
 Delta: O_D= -0.1943926E-10 O_OD=  0.1931727E-10 O_TOT= -0.1216804E-12 <-- DLTA
 ------------------------------------------------------------------------------

 Writing checkpoint file mp-8062.chk... done

 Final State
  WF centre and spread    1  ( -0.163499, -0.082462, -0.082462 )     2.10711733
  WF centre and spread    2  (  0.082463,  0.163499, -0.082463 )     2.10711682
  WF centre and spread    3  (  0.082463, -0.082463,  0.163500 )     2.10711576
  Sum of centres and spreads (  0.001427, -0.001426, -0.001425 )     6.32134991
 
         Spreads (Ang^2)       Omega I      =     6.051555802
        ================       Omega D      =     0.021642101
                               Omega OD     =     0.248152015
    Final Spread (Ang^2)       Omega Total  =     6.321349918
 ------------------------------------------------------------------------------
 Time for wannierise            2.097 (sec)

 Writing checkpoint file mp-8062.chk... done

 Time for plotting              0.000 (sec)
 Total Execution Time           3.390 (sec)

 *===========================================================================*
 |                             TIMING INFORMATION                            |
 *===========================================================================*
 |    Tag                                                Ncalls      Time (s)|
 |---------------------------------------------------------------------------|
 |kmesh: get                                        :         1         1.041|
 |overlap: allocate                                 :         1         0.002|
 |overlap: read                                     :         1         0.137|
 |wann: main                                        :         1         2.097|
 |plot: main                                        :         1         0.000|
 *---------------------------------------------------------------------------*
 
 All done: wannier90 exiting
