
     Program PWSCF v.7.1 starts on  8Apr2024 at 15:15:24 

     This program is part of the open-source Quantum ESPRESSO suite
     for quantum simulation of materials; please cite
         "P. Giannozzi et al., J. Phys.:Condens. Matter 21 395502 (2009);
         "P. Giannozzi et al., J. Phys.:Condens. Matter 29 465901 (2017);
         "P. Giannozzi et al., J. Chem. Phys. 152 154105 (2020);
          URL http://www.quantum-espresso.org", 
     in publications or presentations arising from this work. More details at
     http://www.quantum-espresso.org/quote

     Parallel version (MPI), running on    16 processors

     MPI processes distributed on     1 nodes
     243000 MiB available memory on the printing compute node when the environment starts
 
     Reading input from pw_mp-22870_scf_k3000_E65.in
Warning: card &CELL ignored
Warning: card / ignored

     Current dimensions of program PWSCF are:
     Max number of different atomic species (ntypx) = 10
     Max number of k-points (npk) =  40000
     Max angular momentum in pseudopotentials (lmaxx) =  4
 
     R & G space division:  proc/nbgrp/npool/nimage =      16
     Subspace diagonalization in iterative solution of the eigenvalue problem:
     a serial algorithm will be used

 
     Parallelization info
     --------------------
     sticks:   dense  smooth     PW     G-vecs:    dense   smooth      PW
     Min         130     130     39                 3883     3883     631
     Max         131     131     40                 3885     3885     634
     Sum        2089    2089    629                62145    62145   10105
 
     Using Slab Decomposition
 


     bravais-lattice index     =            9
     lattice parameter (alat)  =       8.6715  a.u.
     unit-cell volume          =     877.8726 (a.u.)^3
     number of atoms/cell      =            4
     number of atomic types    =            2
     number of electrons       =        40.00
     number of Kohn-Sham states=           40
     kinetic-energy cutoff     =      65.0000  Ry
     charge density cutoff     =     260.0000  Ry
     scf convergence threshold =      1.0E-10
     mixing beta               =       0.7000
     number of iterations used =            8  plain     mixing
     Exchange-correlation= PBE
                           (   1   4   3   4   0   0   0)

     celldm(1)=   8.671481  celldm(2)=   2.684664  celldm(3)=   1.002979
     celldm(4)=   0.000000  celldm(5)=   0.000000  celldm(6)=   0.000000

     crystal axes: (cart. coord. in units of alat)
               a(1) = (   0.500000   1.342332   0.000000 )  
               a(2) = (  -0.500000   1.342332   0.000000 )  
               a(3) = (   0.000000   0.000000   1.002979 )  

     reciprocal axes: (cart. coord. in units 2 pi/alat)
               b(1) = (  1.000000  0.372486  0.000000 )  
               b(2) = ( -1.000000  0.372486  0.000000 )  
               b(3) = (  0.000000  0.000000  0.997030 )  


     PseudoPot. # 1 for Br read from file:
     /usr/scratch4/magr4826/Promotion/Python/Code/devEb/pseudo/SG15/Br.upf
     MD5 check sum: 5b50323dbf1c0ae0ed9e7f1e72c3f86c
     Pseudo is Norm-conserving, Zval =  7.0
     Generated using ONCVPSP code by D. R. Hamann
     Using radial grid of  602 points,  6 beta functions with: 
                l(1) =   0
                l(2) =   0
                l(3) =   1
                l(4) =   1
                l(5) =   2
                l(6) =   2

     PseudoPot. # 2 for In read from file:
     /usr/scratch4/magr4826/Promotion/Python/Code/devEb/pseudo/SG15/In.upf
     MD5 check sum: 2123f823f6143602c63cd302e3a0bdd6
     Pseudo is Norm-conserving, Zval = 13.0
     Generated using ONCVPSP code by D. R. Hamann
     Using radial grid of  602 points,  6 beta functions with: 
                l(1) =   0
                l(2) =   0
                l(3) =   1
                l(4) =   1
                l(5) =   2
                l(6) =   2

     atomic species   valence    mass     pseudopotential
        Br             7.00    79.90400     Br( 1.00)
        In            13.00   114.81800     In( 1.00)

      8 Sym. Ops., with inversion, found ( 4 have fractional translation)



   Cartesian axes

     site n.     atom                  positions (alat units)
         1           In  tau(   1) = (   0.0000000   1.0562714   0.2507447  )
         2           In  tau(   2) = (   0.0000000   1.6283933   0.7522341  )
         3           Br  tau(   3) = (   0.0000000   0.4061194   0.2507447  )
         4           Br  tau(   4) = (   0.0000000   2.2785452   0.7522341  )

     number of k points=   147  Gaussian smearing, width (Ry)=  0.0005

     Number of k-points >= 100: set verbosity='high' to print them.

     Dense  grid:    62145 G-vectors     FFT dimensions: (  64,  64,  48)

     Estimated max dynamical RAM per process >      50.14 MB

     Estimated total dynamical RAM >     802.23 MB

     Initial potential from superposition of free atoms

     starting charge      39.7711, renormalised to      40.0000
     Starting wfcs are random

     total cpu time spent up to now is        1.6 secs

     Self-consistent Calculation

     iteration #  1     ecut=    65.00 Ry     beta= 0.70
     ParO style diagonalization
     ethr =  5.00E-06,  avg # of iterations = 28.4

     total cpu time spent up to now is       37.4 secs

     total energy              =    -263.28397089 Ry
     estimated scf accuracy    <       0.09533102 Ry

     iteration #  2     ecut=    65.00 Ry     beta= 0.70
     ParO style diagonalization
     ethr =  2.38E-04,  avg # of iterations =  6.9

     total cpu time spent up to now is       48.0 secs

     total energy              =    -263.31098067 Ry
     estimated scf accuracy    <       0.04414793 Ry

     iteration #  3     ecut=    65.00 Ry     beta= 0.70
     ParO style diagonalization
     ethr =  1.10E-04,  avg # of iterations =  6.5

     total cpu time spent up to now is       57.1 secs

     total energy              =    -263.32074780 Ry
     estimated scf accuracy    <       0.00131786 Ry

     iteration #  4     ecut=    65.00 Ry     beta= 0.70
     ParO style diagonalization
     ethr =  3.29E-06,  avg # of iterations =  7.0

     total cpu time spent up to now is       67.3 secs

     total energy              =    -263.32105223 Ry
     estimated scf accuracy    <       0.00097877 Ry

     iteration #  5     ecut=    65.00 Ry     beta= 0.70
     ParO style diagonalization
     ethr =  2.45E-06,  avg # of iterations =  6.4

     total cpu time spent up to now is       76.2 secs

     total energy              =    -263.32124027 Ry
     estimated scf accuracy    <       0.00001279 Ry

     iteration #  6     ecut=    65.00 Ry     beta= 0.70
     ParO style diagonalization
     ethr =  3.20E-08,  avg # of iterations =  7.2

     total cpu time spent up to now is       86.4 secs

     total energy              =    -263.32124299 Ry
     estimated scf accuracy    <       0.00000063 Ry

     iteration #  7     ecut=    65.00 Ry     beta= 0.70
     ParO style diagonalization
     ethr =  1.57E-09,  avg # of iterations =  8.0

     total cpu time spent up to now is       97.5 secs

     total energy              =    -263.32124313 Ry
     estimated scf accuracy    <       0.00000006 Ry

     iteration #  8     ecut=    65.00 Ry     beta= 0.70
     ParO style diagonalization
     ethr =  1.47E-10,  avg # of iterations =  6.6

     total cpu time spent up to now is      106.7 secs

     total energy              =    -263.32124314 Ry
     estimated scf accuracy    <          3.7E-09 Ry

     iteration #  9     ecut=    65.00 Ry     beta= 0.70
     ParO style diagonalization
     ethr =  9.21E-12,  avg # of iterations =  7.1

     total cpu time spent up to now is      116.7 secs

     total energy              =    -263.32124314 Ry
     estimated scf accuracy    <          4.8E-10 Ry

     iteration # 10     ecut=    65.00 Ry     beta= 0.70
     ParO style diagonalization
     ethr =  1.20E-12,  avg # of iterations =  6.9

     total cpu time spent up to now is      127.4 secs

     End of self-consistent calculation

     Number of k-points >= 100: set verbosity='high' to print the bands.

     the Fermi energy is     6.0755 ev

!    total energy              =    -263.32124314 Ry
     estimated scf accuracy    <          7.5E-12 Ry
     smearing contrib. (-TS)   =      -0.00000000 Ry
     internal energy E=F+TS    =    -263.32124314 Ry

     The total energy is F=E-TS. E is the sum of the following terms:
     one-electron contribution =     -91.68766075 Ry
     hartree contribution      =      64.75513780 Ry
     xc contribution           =     -38.24877818 Ry
     ewald contribution        =    -198.13994201 Ry

     convergence has been achieved in  10 iterations

     Writing all to output data dir out/mp-22870.save/
 
     init_run     :      1.43s CPU      1.51s WALL (       1 calls)
     electrons    :    115.68s CPU    125.86s WALL (       1 calls)

     Called by init_run:
     wfcinit      :      1.30s CPU      1.34s WALL (       1 calls)
     potinit      :      0.04s CPU      0.05s WALL (       1 calls)
     hinit0       :      0.03s CPU      0.06s WALL (       1 calls)

     Called by electrons:
     c_bands      :    110.86s CPU    120.78s WALL (      10 calls)
     sum_band     :      4.78s CPU      4.88s WALL (      10 calls)
     v_of_rho     :      0.04s CPU      0.04s WALL (      11 calls)
     mix_rho      :      0.01s CPU      0.01s WALL (      10 calls)

     Called by c_bands:
     init_us_2    :      0.31s CPU      0.32s WALL (    3087 calls)
     init_us_2:cp :      0.30s CPU      0.32s WALL (    3087 calls)
     paro_k       :    108.60s CPU    111.61s WALL (    1470 calls)

     Called by paro_*:
     h_psi        :     86.92s CPU     89.28s WALL (   37770 calls)
     g_psi        :      0.92s CPU      0.96s WALL (  582788 calls)

     Called by h_psi:
     h_psi:calbec :      3.60s CPU      3.69s WALL (   37770 calls)
     vloc_psi     :     80.63s CPU     82.85s WALL (   37770 calls)
     add_vuspsi   :      2.36s CPU      2.42s WALL (   37770 calls)

     General routines
     calbec       :      3.56s CPU      3.65s WALL (   37770 calls)
     fft          :      0.02s CPU      0.05s WALL (     109 calls)
     ffts         :      0.00s CPU      0.00s WALL (      10 calls)
     fftw         :     78.73s CPU     80.88s WALL ( 1083452 calls)
 
     Parallel routines
 
     PWSCF        :   1m58.16s CPU   2m 9.69s WALL

 
   This run was terminated on:  15:17:34   8Apr2024            

=------------------------------------------------------------------------------=
   JOB DONE.
=------------------------------------------------------------------------------=
