 vasp.5.4.4.18Apr17-6-g9f103f2a35 (build Aug 24 2017 11:22:49) complex          
  
 executed on             LinuxIFC date 2023.12.25  13:07:18
 running on    8 total cores
 distrk:  each k-point on    8 cores,    1 groups
 distr:  one band on NCORES_PER_BAND=   1 cores,    8 groups


--------------------------------------------------------------------------------------------------------


 INCAR:
 POTCAR:    PAW_PBE Mg 13Apr2007                  
 POTCAR:    PAW_PBE O 08Apr2002                   

 ----------------------------------------------------------------------------- 
|                                                                             |
|           W    W    AA    RRRRR   N    N  II  N    N   GGGG   !!!           |
|           W    W   A  A   R    R  NN   N  II  NN   N  G    G  !!!           |
|           W    W  A    A  R    R  N N  N  II  N N  N  G       !!!           |
|           W WW W  AAAAAA  RRRRR   N  N N  II  N  N N  G  GGG   !            |
|           WW  WW  A    A  R   R   N   NN  II  N   NN  G    G                |
|           W    W  A    A  R    R  N    N  II  N    N   GGGG   !!!           |
|                                                                             |
|      For optimal performance we recommend to set                            |
|        NCORE= 4 - approx SQRT( number of cores)                             |
|      NCORE specifies how many cores store one orbital (NPAR=cpu/NCORE).     |
|      This setting can  greatly improve the performance of VASP for DFT.     |
|      The default,   NCORE=1            might be grossly inefficient         |
|      on modern multi-core architectures or massively parallel machines.     |
|      Do your own testing !!!!                                               |
|      Unfortunately you need to use the default for GW and RPA calculations. |
|      (for HF NCORE is supported but not extensively tested yet)             |
|                                                                             |
 ----------------------------------------------------------------------------- 

 POTCAR:    PAW_PBE Mg 13Apr2007                  
   VRHFIN =Mg: s2p0                                                             
   LEXCH  = PE                                                                  
   EATOM  =    23.0369 eV,    1.6932 Ry                                         
                                                                                
   TITEL  = PAW_PBE Mg 13Apr2007                                                
   LULTRA =        F    use ultrasoft PP ?                                      
   IUNSCR =        1    unscreen: 0-lin 1-nonlin 2-no                           
   RPACOR =    1.500    partial core radius                                     
   POMASS =   24.305; ZVAL   =    2.000    mass and valenz                      
   RCORE  =    2.000    outmost cutoff radius                                   
   RWIGS  =    2.880; RWIGS  =    1.524    wigner-seitz radius (au A)           
   ENMAX  =  200.000; ENMIN  =  100.000 eV                                      
   RCLOC  =    1.506    cutoff for local pot                                    
   LCOR   =        T    correct aug charges                                     
   LPAW   =        T    paw PP                                                  
   EAUG   =  454.734                                                            
   DEXC   =    0.000                                                            
   RMAX   =    2.045    core radius for proj-oper                               
   RAUG   =    1.300    factor for augmentation sphere                          
   RDEP   =    2.025    radius for radial grids                                 
   RDEPT  =    1.942    core radius for aug-charge                              
                                                                                
   Atomic configuration                                                         
    6 entries                                                                   
     n  l   j            E        occ.                                          
     1  0  0.50     -1259.6230   2.0000                                         
     2  0  0.50       -79.8442   2.0000                                         
     2  1  1.50       -46.6121   6.0000                                         
     3  0  0.50        -4.7055   2.0000                                         
     3  1  0.50        -1.3660   0.0000                                         
     3  2  1.50        -1.3606   0.0000                                         
   Description                                                                  
     l       E           TYP  RCUT    TYP  RCUT                                 
     0     -4.7054661     23  2.000                                             
     0     27.2116520     23  2.000                                             
     1      1.3605826     23  2.000                                             
     1     27.2116520     23  2.000                                             
     2     -1.3605826     23  2.000                                             
  local pseudopotential read in
  partial core-charges read in
  partial kinetic energy density read in
  atomic valenz-charges read in
  non local Contribution for L=           0  read in
    real space projection operators read in
  non local Contribution for L=           0  read in
    real space projection operators read in
  non local Contribution for L=           1  read in
    real space projection operators read in
  non local Contribution for L=           1  read in
    real space projection operators read in
  non local Contribution for L=           2  read in
    real space projection operators read in
    PAW grid and wavefunctions read in
 
   number of l-projection  operators is LMAX  =           5
   number of lm-projection operators is LMMAX =          13
 
 POTCAR:    PAW_PBE O 08Apr2002                   
   VRHFIN =O: s2p4                                                              
   LEXCH  = PE                                                                  
   EATOM  =   432.3788 eV,   31.7789 Ry                                         
                                                                                
   TITEL  = PAW_PBE O 08Apr2002                                                 
   LULTRA =        F    use ultrasoft PP ?                                      
   IUNSCR =        1    unscreen: 0-lin 1-nonlin 2-no                           
   RPACOR =    1.200    partial core radius                                     
   POMASS =   16.000; ZVAL   =    6.000    mass and valenz                      
   RCORE  =    1.520    outmost cutoff radius                                   
   RWIGS  =    1.550; RWIGS  =    0.820    wigner-seitz radius (au A)           
   ENMAX  =  400.000; ENMIN  =  300.000 eV                                      
   ICORE  =        2    local potential                                         
   LCOR   =        T    correct aug charges                                     
   LPAW   =        T    paw PP                                                  
   EAUG   =  605.392                                                            
   DEXC   =    0.000                                                            
   RMAX   =    1.553    core radius for proj-oper                               
   RAUG   =    1.300    factor for augmentation sphere                          
   RDEP   =    1.550    radius for radial grids                                 
   RDEPT  =    1.329    core radius for aug-charge                              
                                                                                
   Atomic configuration                                                         
    4 entries                                                                   
     n  l   j            E        occ.                                          
     1  0  0.50      -514.6923   2.0000                                         
     2  0  0.50       -23.9615   2.0000                                         
     2  1  0.50        -9.0305   4.0000                                         
     3  2  1.50        -9.5241   0.0000                                         
   Description                                                                  
     l       E           TYP  RCUT    TYP  RCUT                                 
     0    -23.9615318     23  1.200                                             
     0     -9.5240782     23  1.200                                             
     1     -9.0304911     23  1.520                                             
     1      8.1634956     23  1.520                                             
     2     -9.5240782      7  1.500                                             
  local pseudopotential read in
  partial core-charges read in
  partial kinetic energy density read in
  kinetic energy density of atom read in
  atomic valenz-charges read in
  non local Contribution for L=           0  read in
    real space projection operators read in
  non local Contribution for L=           0  read in
    real space projection operators read in
  non local Contribution for L=           1  read in
    real space projection operators read in
  non local Contribution for L=           1  read in
    real space projection operators read in
    PAW grid and wavefunctions read in
 
   number of l-projection  operators is LMAX  =           4
   number of lm-projection operators is LMMAX =           8
 
  PAW_PBE Mg 13Apr2007                  :
 energy of atom  1       EATOM=  -23.0369
 kinetic energy error for atom=    0.0000 (will be added to EATOM!!)
  PAW_PBE O 08Apr2002                   :
 energy of atom  2       EATOM= -432.3788
 kinetic energy error for atom=    0.0208 (will be added to EATOM!!)
 
 
 POSCAR: Mg1 O1                                  
  positions in direct lattice
  No initial velocities read in
 exchange correlation table for  LEXCH =        8
   RHO(1)=    0.500       N(1)  =     2000
   RHO(2)=  100.500       N(2)  =     4000
 


--------------------------------------------------------------------------------------------------------


 ion  position               nearest neighbor table
   1  0.000  0.000  0.000-   2 2.10   2 2.10   2 2.10   2 2.10   2 2.10   2 2.10
   2  0.500  0.500  0.500-   1 2.10   1 2.10   1 2.10   1 2.10   1 2.10   1 2.10
 
  LATTYP: Found a face centered cubic cell.
 ALAT       =     4.1940024632
  
  Lattice vectors:
  
 A1 = (  -2.0970012316,   0.0000000000,   2.0970012316)
 A2 = (   0.0000000000,   2.0970012316,   2.0970012316)
 A3 = (  -2.0970012316,   2.0970012316,   0.0000000000)


Analysis of symmetry for initial positions (statically):
=====================================================================
 Subroutine PRICEL returns:
 Original cell was already a primitive cell.
 

 Routine SETGRP: Setting up the symmetry group for a 
 face centered cubic supercell.


 Subroutine GETGRP returns: Found  8 space group operations
 (whereof  8 operations were pure point group operations)
 out of a pool of 48 trial point group operations.


The static configuration has the point symmetry C_4v.


Analysis of symmetry for dynamics (positions and initial velocities):
=====================================================================
 Subroutine PRICEL returns:
 Original cell was already a primitive cell.
 

 Routine SETGRP: Setting up the symmetry group for a 
 face centered cubic supercell.


 Subroutine GETGRP returns: Found  8 space group operations
 (whereof  8 operations were pure point group operations)
 out of a pool of 48 trial point group operations.


The dynamic configuration has the point symmetry C_4v.


 Subroutine INISYM returns: Found  8 space group operations
 (whereof  8 operations are pure point group operations),
 and found     1 'primitive' translations

 
 
 KPOINTS: pymatgen with grid density = 3000 / numb

Automatic generation of k-mesh.
Space group operators:
 irot       det(A)        alpha          n_x          n_y          n_z        tau_x        tau_y        tau_z
    1     1.000000     0.000000     1.000000     0.000000     0.000000     0.000000     0.000000     0.000000
    2     1.000000    90.000000    -1.000000     0.000000    -0.000000     0.000000     0.000000     0.000000
    3    -1.000000   180.000000     0.000000    -0.000000    -1.000000     0.000000     0.000000     0.000000
    4    -1.000000   180.000000     0.000000     0.707107     0.707107     0.000000     0.000000     0.000000
    5    -1.000000   180.000000    -0.000000    -1.000000    -0.000000     0.000000     0.000000     0.000000
    6     1.000000    90.000000     1.000000     0.000000     0.000000     0.000000     0.000000     0.000000
    7     1.000000   180.000000     1.000000     0.000000     0.000000     0.000000     0.000000     0.000000
    8    -1.000000   180.000000    -0.000000    -0.707107     0.707107     0.000000     0.000000     0.000000
 
 Subroutine IBZKPT returns following result:
 ===========================================
 
 Found    163 irreducible k-points:
 
 Following reciprocal coordinates:
            Coordinates               Weight
  0.000000  0.000000  0.000000      1.000000
  0.083333 -0.000000  0.000000      8.000000
  0.166667  0.000000 -0.000000      8.000000
  0.250000 -0.000000 -0.000000      8.000000
  0.333333  0.000000  0.000000      8.000000
  0.416667 -0.000000 -0.000000      8.000000
  0.500000 -0.000000 -0.000000      4.000000
  0.083333  0.083333  0.000000      4.000000
  0.166667  0.083333 -0.000000     16.000000
  0.250000  0.083333 -0.000000     16.000000
  0.333333  0.083333 -0.000000     16.000000
  0.416667  0.083333 -0.000000     16.000000
  0.500000  0.083333 -0.000000     16.000000
 -0.416667  0.083333  0.000000     16.000000
 -0.333333  0.083333 -0.000000     16.000000
 -0.250000  0.083333 -0.000000     16.000000
 -0.166667  0.083333  0.000000     16.000000
 -0.083333  0.083333 -0.000000      8.000000
  0.166667  0.166667  0.000000      4.000000
  0.250000  0.166667  0.000000     16.000000
  0.333333  0.166667  0.000000     16.000000
  0.416667  0.166667  0.000000     16.000000
  0.500000  0.166667  0.000000     16.000000
 -0.416667  0.166667 -0.000000     16.000000
 -0.333333  0.166667  0.000000     16.000000
 -0.250000  0.166667  0.000000     16.000000
 -0.166667  0.166667 -0.000000      8.000000
  0.250000  0.250000  0.000000      4.000000
  0.333333  0.250000 -0.000000     16.000000
  0.416667  0.250000 -0.000000     16.000000
  0.500000  0.250000 -0.000000     16.000000
 -0.416667  0.250000  0.000000     16.000000
 -0.333333  0.250000  0.000000     16.000000
 -0.250000  0.250000  0.000000      8.000000
  0.333333  0.333333  0.000000      4.000000
  0.416667  0.333333  0.000000     16.000000
  0.500000  0.333333 -0.000000     16.000000
 -0.416667  0.333333 -0.000000     16.000000
 -0.333333  0.333333 -0.000000      8.000000
  0.416667  0.416667  0.000000      4.000000
  0.500000  0.416667 -0.000000     16.000000
 -0.416667  0.416667  0.000000      8.000000
  0.500000  0.500000  0.000000      2.000000
  0.083333 -0.000000  0.083333      2.000000
  0.166667 -0.000000  0.083333      8.000000
  0.250000 -0.000000  0.083333      8.000000
  0.333333  0.000000  0.083333      8.000000
  0.416667 -0.000000  0.083333      8.000000
  0.500000 -0.000000  0.083333      8.000000
 -0.416667 -0.000000  0.083333      8.000000
 -0.333333 -0.000000  0.083333      8.000000
 -0.250000 -0.000000  0.083333      8.000000
 -0.166667  0.000000  0.083333      8.000000
 -0.083333 -0.000000  0.083333      4.000000
  0.250000  0.166667  0.083333      8.000000
  0.333333  0.166667  0.083333     16.000000
  0.416667  0.166667  0.083333     16.000000
  0.500000  0.166667  0.083333     16.000000
 -0.416667  0.166667  0.083333      8.000000
  0.166667  0.250000  0.083333      8.000000
  0.333333  0.250000  0.083333      8.000000
  0.416667  0.250000  0.083333     16.000000
  0.500000  0.250000  0.083333     16.000000
 -0.416667  0.250000  0.083333     16.000000
 -0.333333  0.250000  0.083333     16.000000
 -0.250000  0.250000  0.083333     16.000000
 -0.166667  0.250000  0.083333      8.000000
  0.166667  0.333333  0.083333     16.000000
  0.250000  0.333333  0.083333      8.000000
  0.416667  0.333333  0.083333      8.000000
  0.500000  0.333333  0.083333     16.000000
 -0.416667  0.333333  0.083333     16.000000
 -0.333333  0.333333  0.083333     16.000000
 -0.250000  0.333333  0.083333      8.000000
  0.166667  0.416667  0.083333     16.000000
  0.250000  0.416667  0.083333     16.000000
  0.333333  0.416667  0.083333      8.000000
  0.500000  0.416667  0.083333      8.000000
 -0.416667  0.416667  0.083333     16.000000
 -0.333333  0.416667  0.083333      8.000000
  0.166667  0.500000  0.083333     16.000000
  0.250000  0.500000  0.083333     16.000000
  0.333333  0.500000  0.083333     16.000000
  0.416667  0.500000  0.083333      8.000000
 -0.416667  0.500000  0.083333      4.000000
  0.166667 -0.416667  0.083333     16.000000
  0.250000 -0.416667  0.083333     16.000000
  0.333333 -0.416667  0.083333     16.000000
  0.416667 -0.416667  0.083333     16.000000
  0.500000 -0.416667  0.083333      4.000000
  0.166667 -0.333333  0.083333     16.000000
  0.250000 -0.333333  0.083333     16.000000
  0.333333 -0.333333  0.083333     16.000000
  0.416667 -0.333333  0.083333      8.000000
  0.166667 -0.250000  0.083333     16.000000
  0.250000 -0.250000  0.083333     16.000000
  0.333333 -0.250000  0.083333      8.000000
  0.166667 -0.166667  0.083333     16.000000
  0.250000 -0.166667  0.083333      8.000000
  0.166667 -0.083333  0.083333      8.000000
  0.166667 -0.000000  0.166667      2.000000
  0.250000  0.000000  0.166667      8.000000
  0.333333  0.000000  0.166667      8.000000
  0.416667 -0.000000  0.166667      8.000000
  0.500000  0.000000  0.166667      8.000000
 -0.416667 -0.000000  0.166667      8.000000
 -0.333333  0.000000  0.166667      8.000000
 -0.250000  0.000000  0.166667      8.000000
 -0.166667  0.000000  0.166667      4.000000
  0.500000  0.333333  0.166667      8.000000
 -0.416667  0.333333  0.166667     16.000000
 -0.333333  0.333333  0.166667      8.000000
  0.250000  0.416667  0.166667      8.000000
 -0.416667  0.416667  0.166667      8.000000
 -0.333333  0.416667  0.166667     16.000000
 -0.250000  0.416667  0.166667      8.000000
  0.250000  0.500000  0.166667     16.000000
  0.333333  0.500000  0.166667      8.000000
 -0.333333  0.500000  0.166667      4.000000
  0.250000 -0.416667  0.166667     16.000000
  0.333333 -0.416667  0.166667     16.000000
  0.416667 -0.416667  0.166667      8.000000
  0.250000 -0.333333  0.166667     16.000000
  0.333333 -0.333333  0.166667     16.000000
  0.416667 -0.333333  0.166667     16.000000
  0.500000 -0.333333  0.166667      4.000000
  0.250000 -0.250000  0.166667     16.000000
  0.333333 -0.250000  0.166667     16.000000
  0.416667 -0.250000  0.166667      8.000000
  0.250000 -0.166667  0.166667     16.000000
  0.333333 -0.166667  0.166667      8.000000
  0.250000 -0.083333  0.166667      8.000000
  0.250000 -0.000000  0.250000      2.000000
  0.333333 -0.000000  0.250000      8.000000
  0.416667 -0.000000  0.250000      8.000000
  0.500000  0.000000  0.250000      8.000000
 -0.416667 -0.000000  0.250000      8.000000
 -0.333333  0.000000  0.250000      8.000000
 -0.250000 -0.000000  0.250000      4.000000
 -0.250000  0.500000  0.250000      2.000000
  0.333333 -0.416667  0.250000      8.000000
  0.333333 -0.333333  0.250000     16.000000
  0.416667 -0.333333  0.250000      8.000000
  0.333333 -0.250000  0.250000     16.000000
  0.416667 -0.250000  0.250000     16.000000
  0.500000 -0.250000  0.250000      4.000000
  0.333333 -0.166667  0.250000     16.000000
  0.416667 -0.166667  0.250000      8.000000
  0.333333 -0.083333  0.250000      8.000000
  0.333333 -0.000000  0.333333      2.000000
  0.416667  0.000000  0.333333      8.000000
  0.500000  0.000000  0.333333      8.000000
 -0.416667 -0.000000  0.333333      8.000000
 -0.333333 -0.000000  0.333333      4.000000
  0.416667 -0.250000  0.333333      8.000000
  0.416667 -0.166667  0.333333     16.000000
  0.500000 -0.166667  0.333333      4.000000
  0.416667 -0.083333  0.333333      8.000000
  0.416667 -0.000000  0.416667      2.000000
  0.500000 -0.000000  0.416667      8.000000
 -0.416667  0.000000  0.416667      4.000000
  0.500000 -0.083333  0.416667      4.000000
  0.500000 -0.000000  0.500000      1.000000
 
 Following cartesian coordinates:
            Coordinates               Weight
  0.000000  0.000000  0.000000      1.000000
 -0.019870 -0.019870  0.019870      8.000000
 -0.039739 -0.039739  0.039739      8.000000
 -0.059609 -0.059609  0.059609      8.000000
 -0.079479 -0.079479  0.079479      8.000000
 -0.099348 -0.099348  0.099348      8.000000
 -0.119218 -0.119218  0.119218      4.000000
 -0.000000 -0.000000  0.039739      4.000000
 -0.019870 -0.019870  0.059609     16.000000
 -0.039739 -0.039739  0.079479     16.000000
 -0.059609 -0.059609  0.099348     16.000000
 -0.079479 -0.079479  0.119218     16.000000
 -0.099348 -0.099348  0.139088     16.000000
  0.119218  0.119218 -0.079479     16.000000
  0.099348  0.099348 -0.059609     16.000000
  0.079479  0.079479 -0.039739     16.000000
  0.059609  0.059609 -0.019870     16.000000
  0.039739  0.039739  0.000000      8.000000
  0.000000  0.000000  0.079479      4.000000
 -0.019870 -0.019870  0.099348     16.000000
 -0.039739 -0.039739  0.119218     16.000000
 -0.059609 -0.059609  0.139088     16.000000
 -0.079479 -0.079479  0.158957     16.000000
  0.139088  0.139088 -0.059609     16.000000
  0.119218  0.119218 -0.039739     16.000000
  0.099348  0.099348 -0.019870     16.000000
  0.079479  0.079479  0.000000      8.000000
  0.000000  0.000000  0.119218      4.000000
 -0.019870 -0.019870  0.139088     16.000000
 -0.039739 -0.039739  0.158957     16.000000
 -0.059609 -0.059609  0.178827     16.000000
  0.158957  0.158957 -0.039739     16.000000
  0.139088  0.139088 -0.019870     16.000000
  0.119218  0.119218  0.000000      8.000000
  0.000000  0.000000  0.158957      4.000000
 -0.019870 -0.019870  0.178827     16.000000
 -0.039739 -0.039739  0.198696     16.000000
  0.178827  0.178827 -0.019870     16.000000
  0.158957  0.158957  0.000000      8.000000
  0.000000  0.000000  0.198696      4.000000
 -0.019870 -0.019870  0.218566     16.000000
  0.198696  0.198696  0.000000      8.000000
  0.000000  0.000000  0.238436      2.000000
 -0.039739  0.000000 -0.000000      2.000000
 -0.059609 -0.019870  0.019870      8.000000
 -0.079479 -0.039739  0.039739      8.000000
 -0.099348 -0.059609  0.059609      8.000000
 -0.119218 -0.079479  0.079479      8.000000
 -0.139088 -0.099348  0.099348      8.000000
  0.079479  0.119218 -0.119218      8.000000
  0.059609  0.099348 -0.099348      8.000000
  0.039739  0.079479 -0.079479      8.000000
  0.019870  0.059609 -0.059609      8.000000
  0.000000  0.039739 -0.039739      4.000000
 -0.039739  0.000000  0.079479      8.000000
 -0.059609 -0.019870  0.099348     16.000000
 -0.079479 -0.039739  0.119218     16.000000
 -0.099348 -0.059609  0.139088     16.000000
  0.119218  0.158957 -0.079479      8.000000
  0.000000  0.039739  0.079479      8.000000
 -0.039739 -0.000000  0.119218      8.000000
 -0.059609 -0.019870  0.139088     16.000000
 -0.079479 -0.039739  0.158957     16.000000
  0.139088  0.178827 -0.059609     16.000000
  0.119218  0.158957 -0.039739     16.000000
  0.099348  0.139088 -0.019870     16.000000
  0.079479  0.119218  0.000000      8.000000
  0.019870  0.059609  0.099348     16.000000
  0.000000  0.039739  0.119218      8.000000
 -0.039739 -0.000000  0.158957      8.000000
 -0.059609 -0.019870  0.178827     16.000000
  0.158957  0.198696 -0.039739     16.000000
  0.139088  0.178827 -0.019870     16.000000
  0.119218  0.158957  0.000000      8.000000
  0.039739  0.079479  0.119218     16.000000
  0.019870  0.059609  0.139088     16.000000
  0.000000  0.039739  0.158957      8.000000
 -0.039739  0.000000  0.198696      8.000000
  0.178827  0.218566 -0.019870     16.000000
  0.158957  0.198696  0.000000      8.000000
  0.059609  0.099348  0.139088     16.000000
  0.039739  0.079479  0.158957     16.000000
  0.019870  0.059609  0.178827     16.000000
  0.000000  0.039739  0.198696      8.000000
  0.198696  0.238436  0.000000      4.000000
 -0.158957 -0.119218 -0.079479     16.000000
 -0.178827 -0.139088 -0.059609     16.000000
 -0.198696 -0.158957 -0.039739     16.000000
 -0.218566 -0.178827 -0.019870     16.000000
 -0.238436 -0.198696 -0.000000      4.000000
 -0.139088 -0.099348 -0.059609     16.000000
 -0.158957 -0.119218 -0.039739     16.000000
 -0.178827 -0.139088 -0.019870     16.000000
 -0.198696 -0.158957  0.000000      8.000000
 -0.119218 -0.079479 -0.039739     16.000000
 -0.139088 -0.099348 -0.019870     16.000000
 -0.158957 -0.119218  0.000000      8.000000
 -0.099348 -0.059609 -0.019870     16.000000
 -0.119218 -0.079479  0.000000      8.000000
 -0.079479 -0.039739  0.000000      8.000000
 -0.079479  0.000000  0.000000      2.000000
 -0.099348 -0.019870  0.019870      8.000000
 -0.119218 -0.039739  0.039739      8.000000
 -0.139088 -0.059609  0.059609      8.000000
 -0.158957 -0.079479  0.079479      8.000000
  0.059609  0.139088 -0.139088      8.000000
  0.039739  0.119218 -0.119218      8.000000
  0.019870  0.099348 -0.099348      8.000000
  0.000000  0.079479 -0.079479      4.000000
 -0.079479  0.000000  0.158957      8.000000
  0.139088  0.218566 -0.059609     16.000000
  0.119218  0.198696 -0.039739      8.000000
  0.000000  0.079479  0.119218      8.000000
  0.158957  0.238436 -0.039739      8.000000
  0.139088  0.218566 -0.019870     16.000000
  0.119218  0.198696  0.000000      8.000000
  0.019870  0.099348  0.139088     16.000000
  0.000000  0.079479  0.158957      8.000000
  0.158957  0.238436  0.000000      4.000000
 -0.198696 -0.119218 -0.079479     16.000000
 -0.218566 -0.139088 -0.059609     16.000000
 -0.238436 -0.158957 -0.039739      8.000000
 -0.178827 -0.099348 -0.059609     16.000000
 -0.198696 -0.119218 -0.039739     16.000000
 -0.218566 -0.139088 -0.019870     16.000000
 -0.238436 -0.158957 -0.000000      4.000000
 -0.158957 -0.079479 -0.039739     16.000000
 -0.178827 -0.099348 -0.019870     16.000000
 -0.198696 -0.119218  0.000000      8.000000
 -0.139088 -0.059609 -0.019870     16.000000
 -0.158957 -0.079479 -0.000000      8.000000
 -0.119218 -0.039739  0.000000      8.000000
 -0.119218  0.000000  0.000000      2.000000
 -0.139088 -0.019870  0.019870      8.000000
 -0.158957 -0.039739  0.039739      8.000000
 -0.178827 -0.059609  0.059609      8.000000
  0.039739  0.158957 -0.158957      8.000000
  0.019870  0.139088 -0.139088      8.000000
  0.000000  0.119218 -0.119218      4.000000
  0.119218  0.238436  0.000000      2.000000
 -0.238436 -0.119218 -0.079479      8.000000
 -0.218566 -0.099348 -0.059609     16.000000
 -0.238436 -0.119218 -0.039739      8.000000
 -0.198696 -0.079479 -0.039739     16.000000
 -0.218566 -0.099348 -0.019870     16.000000
 -0.238436 -0.119218 -0.000000      4.000000
 -0.178827 -0.059609 -0.019870     16.000000
 -0.198696 -0.079479  0.000000      8.000000
 -0.158957 -0.039739 -0.000000      8.000000
 -0.158957  0.000000  0.000000      2.000000
 -0.178827 -0.019870  0.019870      8.000000
 -0.198696 -0.039739  0.039739      8.000000
  0.019870  0.178827 -0.178827      8.000000
  0.000000  0.158957 -0.158957      4.000000
 -0.238436 -0.079479 -0.039739      8.000000
 -0.218566 -0.059609 -0.019870     16.000000
 -0.238436 -0.079479  0.000000      4.000000
 -0.198696 -0.039739  0.000000      8.000000
 -0.198696 -0.000000  0.000000      2.000000
 -0.218566 -0.019870  0.019870      8.000000
  0.000000  0.198696 -0.198696      4.000000
 -0.238436 -0.039739  0.000000      4.000000
 -0.238436  0.000000  0.000000      1.000000
 
 
 Subroutine IBZKPT_HF returns following result:
 ==============================================
 
 Found   1728 k-points in 1st BZ
 the following   1728 k-points will be used (e.g. in the exchange kernel)
 Following reciprocal coordinates:   # in IRBZ
  0.000000  0.000000  0.000000    0.00057870   1 t-inv F
  0.083333 -0.000000  0.000000    0.00057870   2 t-inv F
  0.166667  0.000000 -0.000000    0.00057870   3 t-inv F
  0.250000 -0.000000 -0.000000    0.00057870   4 t-inv F
  0.333333  0.000000  0.000000    0.00057870   5 t-inv F
  0.416667 -0.000000 -0.000000    0.00057870   6 t-inv F
  0.500000 -0.000000 -0.000000    0.00057870   7 t-inv F
  0.083333  0.083333  0.000000    0.00057870   8 t-inv F
  0.166667  0.083333 -0.000000    0.00057870   9 t-inv F
  0.250000  0.083333 -0.000000    0.00057870  10 t-inv F
  0.333333  0.083333 -0.000000    0.00057870  11 t-inv F
  0.416667  0.083333 -0.000000    0.00057870  12 t-inv F
  0.500000  0.083333 -0.000000    0.00057870  13 t-inv F
 -0.416667  0.083333  0.000000    0.00057870  14 t-inv F
 -0.333333  0.083333 -0.000000    0.00057870  15 t-inv F
 -0.250000  0.083333 -0.000000    0.00057870  16 t-inv F
 -0.166667  0.083333  0.000000    0.00057870  17 t-inv F
 -0.083333  0.083333 -0.000000    0.00057870  18 t-inv F
  0.166667  0.166667  0.000000    0.00057870  19 t-inv F
  0.250000  0.166667  0.000000    0.00057870  20 t-inv F
  0.333333  0.166667  0.000000    0.00057870  21 t-inv F
  0.416667  0.166667  0.000000    0.00057870  22 t-inv F
  0.500000  0.166667  0.000000    0.00057870  23 t-inv F
 -0.416667  0.166667 -0.000000    0.00057870  24 t-inv F
 -0.333333  0.166667  0.000000    0.00057870  25 t-inv F
 -0.250000  0.166667  0.000000    0.00057870  26 t-inv F
 -0.166667  0.166667 -0.000000    0.00057870  27 t-inv F
  0.250000  0.250000  0.000000    0.00057870  28 t-inv F
  0.333333  0.250000 -0.000000    0.00057870  29 t-inv F
  0.416667  0.250000 -0.000000    0.00057870  30 t-inv F
  0.500000  0.250000 -0.000000    0.00057870  31 t-inv F
 -0.416667  0.250000  0.000000    0.00057870  32 t-inv F
 -0.333333  0.250000  0.000000    0.00057870  33 t-inv F
 -0.250000  0.250000  0.000000    0.00057870  34 t-inv F
  0.333333  0.333333  0.000000    0.00057870  35 t-inv F
  0.416667  0.333333  0.000000    0.00057870  36 t-inv F
  0.500000  0.333333 -0.000000    0.00057870  37 t-inv F
 -0.416667  0.333333 -0.000000    0.00057870  38 t-inv F
 -0.333333  0.333333 -0.000000    0.00057870  39 t-inv F
  0.416667  0.416667  0.000000    0.00057870  40 t-inv F
  0.500000  0.416667 -0.000000    0.00057870  41 t-inv F
 -0.416667  0.416667  0.000000    0.00057870  42 t-inv F
  0.500000  0.500000  0.000000    0.00057870  43 t-inv F
  0.083333 -0.000000  0.083333    0.00057870  44 t-inv F
  0.166667 -0.000000  0.083333    0.00057870  45 t-inv F
  0.250000 -0.000000  0.083333    0.00057870  46 t-inv F
  0.333333  0.000000  0.083333    0.00057870  47 t-inv F
  0.416667 -0.000000  0.083333    0.00057870  48 t-inv F
  0.500000 -0.000000  0.083333    0.00057870  49 t-inv F
 -0.416667 -0.000000  0.083333    0.00057870  50 t-inv F
 -0.333333 -0.000000  0.083333    0.00057870  51 t-inv F
 -0.250000 -0.000000  0.083333    0.00057870  52 t-inv F
 -0.166667  0.000000  0.083333    0.00057870  53 t-inv F
 -0.083333 -0.000000  0.083333    0.00057870  54 t-inv F
  0.250000  0.166667  0.083333    0.00057870  55 t-inv F
  0.333333  0.166667  0.083333    0.00057870  56 t-inv F
  0.416667  0.166667  0.083333    0.00057870  57 t-inv F
  0.500000  0.166667  0.083333    0.00057870  58 t-inv F
 -0.416667  0.166667  0.083333    0.00057870  59 t-inv F
  0.166667  0.250000  0.083333    0.00057870  60 t-inv F
  0.333333  0.250000  0.083333    0.00057870  61 t-inv F
  0.416667  0.250000  0.083333    0.00057870  62 t-inv F
  0.500000  0.250000  0.083333    0.00057870  63 t-inv F
 -0.416667  0.250000  0.083333    0.00057870  64 t-inv F
 -0.333333  0.250000  0.083333    0.00057870  65 t-inv F
 -0.250000  0.250000  0.083333    0.00057870  66 t-inv F
 -0.166667  0.250000  0.083333    0.00057870  67 t-inv F
  0.166667  0.333333  0.083333    0.00057870  68 t-inv F
  0.250000  0.333333  0.083333    0.00057870  69 t-inv F
  0.416667  0.333333  0.083333    0.00057870  70 t-inv F
  0.500000  0.333333  0.083333    0.00057870  71 t-inv F
 -0.416667  0.333333  0.083333    0.00057870  72 t-inv F
 -0.333333  0.333333  0.083333    0.00057870  73 t-inv F
 -0.250000  0.333333  0.083333    0.00057870  74 t-inv F
  0.166667  0.416667  0.083333    0.00057870  75 t-inv F
  0.250000  0.416667  0.083333    0.00057870  76 t-inv F
  0.333333  0.416667  0.083333    0.00057870  77 t-inv F
  0.500000  0.416667  0.083333    0.00057870  78 t-inv F
 -0.416667  0.416667  0.083333    0.00057870  79 t-inv F
 -0.333333  0.416667  0.083333    0.00057870  80 t-inv F
  0.166667  0.500000  0.083333    0.00057870  81 t-inv F
  0.250000  0.500000  0.083333    0.00057870  82 t-inv F
  0.333333  0.500000  0.083333    0.00057870  83 t-inv F
  0.416667  0.500000  0.083333    0.00057870  84 t-inv F
 -0.416667  0.500000  0.083333    0.00057870  85 t-inv F
  0.166667 -0.416667  0.083333    0.00057870  86 t-inv F
  0.250000 -0.416667  0.083333    0.00057870  87 t-inv F
  0.333333 -0.416667  0.083333    0.00057870  88 t-inv F
  0.416667 -0.416667  0.083333    0.00057870  89 t-inv F
  0.500000 -0.416667  0.083333    0.00057870  90 t-inv F
  0.166667 -0.333333  0.083333    0.00057870  91 t-inv F
  0.250000 -0.333333  0.083333    0.00057870  92 t-inv F
  0.333333 -0.333333  0.083333    0.00057870  93 t-inv F
  0.416667 -0.333333  0.083333    0.00057870  94 t-inv F
  0.166667 -0.250000  0.083333    0.00057870  95 t-inv F
  0.250000 -0.250000  0.083333    0.00057870  96 t-inv F
  0.333333 -0.250000  0.083333    0.00057870  97 t-inv F
  0.166667 -0.166667  0.083333    0.00057870  98 t-inv F
  0.250000 -0.166667  0.083333    0.00057870  99 t-inv F
  0.166667 -0.083333  0.083333    0.00057870 100 t-inv F
  0.166667 -0.000000  0.166667    0.00057870 101 t-inv F
  0.250000  0.000000  0.166667    0.00057870 102 t-inv F
  0.333333  0.000000  0.166667    0.00057870 103 t-inv F
  0.416667 -0.000000  0.166667    0.00057870 104 t-inv F
  0.500000  0.000000  0.166667    0.00057870 105 t-inv F
 -0.416667 -0.000000  0.166667    0.00057870 106 t-inv F
 -0.333333  0.000000  0.166667    0.00057870 107 t-inv F
 -0.250000  0.000000  0.166667    0.00057870 108 t-inv F
 -0.166667  0.000000  0.166667    0.00057870 109 t-inv F
  0.500000  0.333333  0.166667    0.00057870 110 t-inv F
 -0.416667  0.333333  0.166667    0.00057870 111 t-inv F
 -0.333333  0.333333  0.166667    0.00057870 112 t-inv F
  0.250000  0.416667  0.166667    0.00057870 113 t-inv F
 -0.416667  0.416667  0.166667    0.00057870 114 t-inv F
 -0.333333  0.416667  0.166667    0.00057870 115 t-inv F
 -0.250000  0.416667  0.166667    0.00057870 116 t-inv F
  0.250000  0.500000  0.166667    0.00057870 117 t-inv F
  0.333333  0.500000  0.166667    0.00057870 118 t-inv F
 -0.333333  0.500000  0.166667    0.00057870 119 t-inv F
  0.250000 -0.416667  0.166667    0.00057870 120 t-inv F
  0.333333 -0.416667  0.166667    0.00057870 121 t-inv F
  0.416667 -0.416667  0.166667    0.00057870 122 t-inv F
  0.250000 -0.333333  0.166667    0.00057870 123 t-inv F
  0.333333 -0.333333  0.166667    0.00057870 124 t-inv F
  0.416667 -0.333333  0.166667    0.00057870 125 t-inv F
  0.500000 -0.333333  0.166667    0.00057870 126 t-inv F
  0.250000 -0.250000  0.166667    0.00057870 127 t-inv F
  0.333333 -0.250000  0.166667    0.00057870 128 t-inv F
  0.416667 -0.250000  0.166667    0.00057870 129 t-inv F
  0.250000 -0.166667  0.166667    0.00057870 130 t-inv F
  0.333333 -0.166667  0.166667    0.00057870 131 t-inv F
  0.250000 -0.083333  0.166667    0.00057870 132 t-inv F
  0.250000 -0.000000  0.250000    0.00057870 133 t-inv F
  0.333333 -0.000000  0.250000    0.00057870 134 t-inv F
  0.416667 -0.000000  0.250000    0.00057870 135 t-inv F
  0.500000  0.000000  0.250000    0.00057870 136 t-inv F
 -0.416667 -0.000000  0.250000    0.00057870 137 t-inv F
 -0.333333  0.000000  0.250000    0.00057870 138 t-inv F
 -0.250000 -0.000000  0.250000    0.00057870 139 t-inv F
 -0.250000  0.500000  0.250000    0.00057870 140 t-inv F
  0.333333 -0.416667  0.250000    0.00057870 141 t-inv F
  0.333333 -0.333333  0.250000    0.00057870 142 t-inv F
  0.416667 -0.333333  0.250000    0.00057870 143 t-inv F
  0.333333 -0.250000  0.250000    0.00057870 144 t-inv F
  0.416667 -0.250000  0.250000    0.00057870 145 t-inv F
  0.500000 -0.250000  0.250000    0.00057870 146 t-inv F
  0.333333 -0.166667  0.250000    0.00057870 147 t-inv F
  0.416667 -0.166667  0.250000    0.00057870 148 t-inv F
  0.333333 -0.083333  0.250000    0.00057870 149 t-inv F
  0.333333 -0.000000  0.333333    0.00057870 150 t-inv F
  0.416667  0.000000  0.333333    0.00057870 151 t-inv F
  0.500000  0.000000  0.333333    0.00057870 152 t-inv F
 -0.416667 -0.000000  0.333333    0.00057870 153 t-inv F
 -0.333333 -0.000000  0.333333    0.00057870 154 t-inv F
  0.416667 -0.250000  0.333333    0.00057870 155 t-inv F
  0.416667 -0.166667  0.333333    0.00057870 156 t-inv F
  0.500000 -0.166667  0.333333    0.00057870 157 t-inv F
  0.416667 -0.083333  0.333333    0.00057870 158 t-inv F
  0.416667 -0.000000  0.416667    0.00057870 159 t-inv F
  0.500000 -0.000000  0.416667    0.00057870 160 t-inv F
 -0.416667  0.000000  0.416667    0.00057870 161 t-inv F
  0.500000 -0.083333  0.416667    0.00057870 162 t-inv F
  0.500000 -0.000000  0.500000    0.00057870 163 t-inv F
  0.000000 -0.083333  0.000000    0.00057870   2 t-inv F
  0.083333  0.083333  0.083333    0.00057870   2 t-inv F
  0.000000  0.000000  0.083333    0.00057870   2 t-inv F
 -0.000000 -0.166667 -0.000000    0.00057870   3 t-inv F
  0.166667  0.166667  0.166667    0.00057870   3 t-inv F
 -0.000000 -0.000000  0.166667    0.00057870   3 t-inv F
 -0.000000 -0.250000 -0.000000    0.00057870   4 t-inv F
  0.250000  0.250000  0.250000    0.00057870   4 t-inv F
 -0.000000  0.000000  0.250000    0.00057870   4 t-inv F
  0.000000 -0.333333 -0.000000    0.00057870   5 t-inv F
  0.333333  0.333333  0.333333    0.00057870   5 t-inv F
 -0.000000 -0.000000  0.333333    0.00057870   5 t-inv F
 -0.000000 -0.416667 -0.000000    0.00057870   6 t-inv F
  0.416667  0.416667  0.416667    0.00057870   6 t-inv F
 -0.000000  0.000000  0.416667    0.00057870   6 t-inv F
 -0.000000 -0.500000 -0.000000    0.00057870   7 t-inv F
  0.500000  0.500000  0.500000    0.00057870   7 t-inv F
 -0.000000  0.000000  0.500000    0.00057870   7 t-inv F
  0.000000 -0.083333 -0.083333    0.00057870   8 t-inv F
 -0.083333 -0.083333  0.000000    0.00057870   8 t-inv F
  0.000000  0.083333  0.083333    0.00057870   8 t-inv F
 -0.000000 -0.166667 -0.083333    0.00057870   9 t-inv F
 -0.083333 -0.166667 -0.000000    0.00057870   9 t-inv F
  0.083333 -0.083333 -0.083333    0.00057870   9 t-inv F
  0.166667  0.166667  0.083333    0.00057870   9 t-inv F
  0.083333  0.166667  0.166667    0.00057870   9 t-inv F
 -0.083333 -0.083333  0.083333    0.00057870   9 t-inv F
 -0.000000  0.083333  0.166667    0.00057870   9 t-inv F
 -0.000000 -0.250000 -0.083333    0.00057870  10 t-inv F
 -0.083333 -0.250000 -0.000000    0.00057870  10 t-inv F
  0.166667 -0.083333 -0.083333    0.00057870  10 t-inv F
  0.250000  0.250000  0.166667    0.00057870  10 t-inv F
  0.166667  0.250000  0.250000    0.00057870  10 t-inv F
 -0.083333 -0.083333  0.166667    0.00057870  10 t-inv F
 -0.000000  0.083333  0.250000    0.00057870  10 t-inv F
 -0.000000 -0.333333 -0.083333    0.00057870  11 t-inv F
 -0.083333 -0.333333 -0.000000    0.00057870  11 t-inv F
  0.250000 -0.083333 -0.083333    0.00057870  11 t-inv F
  0.333333  0.333333  0.250000    0.00057870  11 t-inv F
  0.250000  0.333333  0.333333    0.00057870  11 t-inv F
 -0.083333 -0.083333  0.250000    0.00057870  11 t-inv F
 -0.000000  0.083333  0.333333    0.00057870  11 t-inv F
 -0.000000 -0.416667 -0.083333    0.00057870  12 t-inv F
 -0.083333 -0.416667 -0.000000    0.00057870  12 t-inv F
  0.333333 -0.083333 -0.083333    0.00057870  12 t-inv F
  0.416667  0.416667  0.333333    0.00057870  12 t-inv F
  0.333333  0.416667  0.416667    0.00057870  12 t-inv F
 -0.083333 -0.083333  0.333333    0.00057870  12 t-inv F
 -0.000000  0.083333  0.416667    0.00057870  12 t-inv F
 -0.000000 -0.500000 -0.083333    0.00057870  13 t-inv F
 -0.083333 -0.500000 -0.000000    0.00057870  13 t-inv F
  0.416667 -0.083333 -0.083333    0.00057870  13 t-inv F
  0.500000  0.500000  0.416667    0.00057870  13 t-inv F
  0.416667  0.500000  0.500000    0.00057870  13 t-inv F
 -0.083333 -0.083333  0.416667    0.00057870  13 t-inv F
 -0.000000  0.083333  0.500000    0.00057870  13 t-inv F
  0.000000  0.416667 -0.083333    0.00057870  14 t-inv F
 -0.083333  0.416667  0.000000    0.00057870  14 t-inv F
 -0.500000 -0.083333 -0.083333    0.00057870  14 t-inv F
 -0.416667 -0.416667 -0.500000    0.00057870  14 t-inv F
 -0.500000 -0.416667 -0.416667    0.00057870  14 t-inv F
 -0.083333 -0.083333 -0.500000    0.00057870  14 t-inv F
  0.000000  0.083333 -0.416667    0.00057870  14 t-inv F
 -0.000000  0.333333 -0.083333    0.00057870  15 t-inv F
 -0.083333  0.333333 -0.000000    0.00057870  15 t-inv F
 -0.416667 -0.083333 -0.083333    0.00057870  15 t-inv F
 -0.333333 -0.333333 -0.416667    0.00057870  15 t-inv F
 -0.416667 -0.333333 -0.333333    0.00057870  15 t-inv F
 -0.083333 -0.083333 -0.416667    0.00057870  15 t-inv F
 -0.000000  0.083333 -0.333333    0.00057870  15 t-inv F
 -0.000000  0.250000 -0.083333    0.00057870  16 t-inv F
 -0.083333  0.250000 -0.000000    0.00057870  16 t-inv F
 -0.333333 -0.083333 -0.083333    0.00057870  16 t-inv F
 -0.250000 -0.250000 -0.333333    0.00057870  16 t-inv F
 -0.333333 -0.250000 -0.250000    0.00057870  16 t-inv F
 -0.083333 -0.083333 -0.333333    0.00057870  16 t-inv F
 -0.000000  0.083333 -0.250000    0.00057870  16 t-inv F
  0.000000  0.166667 -0.083333    0.00057870  17 t-inv F
 -0.083333  0.166667  0.000000    0.00057870  17 t-inv F
 -0.250000 -0.083333 -0.083333    0.00057870  17 t-inv F
 -0.166667 -0.166667 -0.250000    0.00057870  17 t-inv F
 -0.250000 -0.166667 -0.166667    0.00057870  17 t-inv F
 -0.083333 -0.083333 -0.250000    0.00057870  17 t-inv F
  0.000000  0.083333 -0.166667    0.00057870  17 t-inv F
 -0.000000  0.083333 -0.083333    0.00057870  18 t-inv F
 -0.166667 -0.083333 -0.083333    0.00057870  18 t-inv F
 -0.083333 -0.083333 -0.166667    0.00057870  18 t-inv F
  0.000000 -0.166667 -0.166667    0.00057870  19 t-inv F
 -0.166667 -0.166667  0.000000    0.00057870  19 t-inv F
  0.000000  0.166667  0.166667    0.00057870  19 t-inv F
  0.000000 -0.250000 -0.166667    0.00057870  20 t-inv F
 -0.166667 -0.250000  0.000000    0.00057870  20 t-inv F
  0.083333 -0.166667 -0.166667    0.00057870  20 t-inv F
  0.250000  0.250000  0.083333    0.00057870  20 t-inv F
  0.083333  0.250000  0.250000    0.00057870  20 t-inv F
 -0.166667 -0.166667  0.083333    0.00057870  20 t-inv F
  0.000000  0.166667  0.250000    0.00057870  20 t-inv F
  0.000000 -0.333333 -0.166667    0.00057870  21 t-inv F
 -0.166667 -0.333333  0.000000    0.00057870  21 t-inv F
  0.166667 -0.166667 -0.166667    0.00057870  21 t-inv F
  0.333333  0.333333  0.166667    0.00057870  21 t-inv F
  0.166667  0.333333  0.333333    0.00057870  21 t-inv F
 -0.166667 -0.166667  0.166667    0.00057870  21 t-inv F
  0.000000  0.166667  0.333333    0.00057870  21 t-inv F
  0.000000 -0.416667 -0.166667    0.00057870  22 t-inv F
 -0.166667 -0.416667  0.000000    0.00057870  22 t-inv F
  0.250000 -0.166667 -0.166667    0.00057870  22 t-inv F
  0.416667  0.416667  0.250000    0.00057870  22 t-inv F
  0.250000  0.416667  0.416667    0.00057870  22 t-inv F
 -0.166667 -0.166667  0.250000    0.00057870  22 t-inv F
  0.000000  0.166667  0.416667    0.00057870  22 t-inv F
  0.000000 -0.500000 -0.166667    0.00057870  23 t-inv F
 -0.166667 -0.500000  0.000000    0.00057870  23 t-inv F
  0.333333 -0.166667 -0.166667    0.00057870  23 t-inv F
  0.500000  0.500000  0.333333    0.00057870  23 t-inv F
  0.333333  0.500000  0.500000    0.00057870  23 t-inv F
 -0.166667 -0.166667  0.333333    0.00057870  23 t-inv F
  0.000000  0.166667  0.500000    0.00057870  23 t-inv F
 -0.000000  0.416667 -0.166667    0.00057870  24 t-inv F
 -0.166667  0.416667 -0.000000    0.00057870  24 t-inv F
 -0.583333 -0.166667 -0.166667    0.00057870  24 t-inv F
 -0.416667 -0.416667 -0.583333    0.00057870  24 t-inv F
 -0.583333 -0.416667 -0.416667    0.00057870  24 t-inv F
 -0.166667 -0.166667 -0.583333    0.00057870  24 t-inv F
 -0.000000  0.166667 -0.416667    0.00057870  24 t-inv F
  0.000000  0.333333 -0.166667    0.00057870  25 t-inv F
 -0.166667  0.333333  0.000000    0.00057870  25 t-inv F
 -0.500000 -0.166667 -0.166667    0.00057870  25 t-inv F
 -0.333333 -0.333333 -0.500000    0.00057870  25 t-inv F
 -0.500000 -0.333333 -0.333333    0.00057870  25 t-inv F
 -0.166667 -0.166667 -0.500000    0.00057870  25 t-inv F
  0.000000  0.166667 -0.333333    0.00057870  25 t-inv F
  0.000000  0.250000 -0.166667    0.00057870  26 t-inv F
 -0.166667  0.250000  0.000000    0.00057870  26 t-inv F
 -0.416667 -0.166667 -0.166667    0.00057870  26 t-inv F
 -0.250000 -0.250000 -0.416667    0.00057870  26 t-inv F
 -0.416667 -0.250000 -0.250000    0.00057870  26 t-inv F
 -0.166667 -0.166667 -0.416667    0.00057870  26 t-inv F
  0.000000  0.166667 -0.250000    0.00057870  26 t-inv F
 -0.000000  0.166667 -0.166667    0.00057870  27 t-inv F
 -0.333333 -0.166667 -0.166667    0.00057870  27 t-inv F
 -0.166667 -0.166667 -0.333333    0.00057870  27 t-inv F
  0.000000 -0.250000 -0.250000    0.00057870  28 t-inv F
 -0.250000 -0.250000  0.000000    0.00057870  28 t-inv F
  0.000000  0.250000  0.250000    0.00057870  28 t-inv F
 -0.000000 -0.333333 -0.250000    0.00057870  29 t-inv F
 -0.250000 -0.333333 -0.000000    0.00057870  29 t-inv F
  0.083333 -0.250000 -0.250000    0.00057870  29 t-inv F
  0.333333  0.333333  0.083333    0.00057870  29 t-inv F
  0.083333  0.333333  0.333333    0.00057870  29 t-inv F
 -0.250000 -0.250000  0.083333    0.00057870  29 t-inv F
 -0.000000  0.250000  0.333333    0.00057870  29 t-inv F
 -0.000000 -0.416667 -0.250000    0.00057870  30 t-inv F
 -0.250000 -0.416667 -0.000000    0.00057870  30 t-inv F
  0.166667 -0.250000 -0.250000    0.00057870  30 t-inv F
  0.416667  0.416667  0.166667    0.00057870  30 t-inv F
  0.166667  0.416667  0.416667    0.00057870  30 t-inv F
 -0.250000 -0.250000  0.166667    0.00057870  30 t-inv F
 -0.000000  0.250000  0.416667    0.00057870  30 t-inv F
 -0.000000 -0.500000 -0.250000    0.00057870  31 t-inv F
 -0.250000 -0.500000 -0.000000    0.00057870  31 t-inv F
  0.250000 -0.250000 -0.250000    0.00057870  31 t-inv F
  0.500000  0.500000  0.250000    0.00057870  31 t-inv F
  0.250000  0.500000  0.500000    0.00057870  31 t-inv F
 -0.250000 -0.250000  0.250000    0.00057870  31 t-inv F
 -0.000000  0.250000  0.500000    0.00057870  31 t-inv F
  0.000000  0.416667 -0.250000    0.00057870  32 t-inv F
 -0.250000  0.416667  0.000000    0.00057870  32 t-inv F
 -0.666667 -0.250000 -0.250000    0.00057870  32 t-inv F
 -0.416667 -0.416667 -0.666667    0.00057870  32 t-inv F
 -0.666667 -0.416667 -0.416667    0.00057870  32 t-inv F
 -0.250000 -0.250000 -0.666667    0.00057870  32 t-inv F
  0.000000  0.250000 -0.416667    0.00057870  32 t-inv F
  0.000000  0.333333 -0.250000    0.00057870  33 t-inv F
 -0.250000  0.333333  0.000000    0.00057870  33 t-inv F
 -0.583333 -0.250000 -0.250000    0.00057870  33 t-inv F
 -0.333333 -0.333333 -0.583333    0.00057870  33 t-inv F
 -0.583333 -0.333333 -0.333333    0.00057870  33 t-inv F
 -0.250000 -0.250000 -0.583333    0.00057870  33 t-inv F
  0.000000  0.250000 -0.333333    0.00057870  33 t-inv F
  0.000000  0.250000 -0.250000    0.00057870  34 t-inv F
 -0.500000 -0.250000 -0.250000    0.00057870  34 t-inv F
 -0.250000 -0.250000 -0.500000    0.00057870  34 t-inv F
  0.000000 -0.333333 -0.333333    0.00057870  35 t-inv F
 -0.333333 -0.333333  0.000000    0.00057870  35 t-inv F
 -0.000000  0.333333  0.333333    0.00057870  35 t-inv F
  0.000000 -0.416667 -0.333333    0.00057870  36 t-inv F
 -0.333333 -0.416667  0.000000    0.00057870  36 t-inv F
  0.083333 -0.333333 -0.333333    0.00057870  36 t-inv F
  0.416667  0.416667  0.083333    0.00057870  36 t-inv F
  0.083333  0.416667  0.416667    0.00057870  36 t-inv F
 -0.333333 -0.333333  0.083333    0.00057870  36 t-inv F
  0.000000  0.333333  0.416667    0.00057870  36 t-inv F
 -0.000000 -0.500000 -0.333333    0.00057870  37 t-inv F
 -0.333333 -0.500000 -0.000000    0.00057870  37 t-inv F
  0.166667 -0.333333 -0.333333    0.00057870  37 t-inv F
  0.500000  0.500000  0.166667    0.00057870  37 t-inv F
  0.166667  0.500000  0.500000    0.00057870  37 t-inv F
 -0.333333 -0.333333  0.166667    0.00057870  37 t-inv F
 -0.000000  0.333333  0.500000    0.00057870  37 t-inv F
 -0.000000  0.416667 -0.333333    0.00057870  38 t-inv F
 -0.333333  0.416667 -0.000000    0.00057870  38 t-inv F
 -0.750000 -0.333333 -0.333333    0.00057870  38 t-inv F
 -0.416667 -0.416667 -0.750000    0.00057870  38 t-inv F
 -0.750000 -0.416667 -0.416667    0.00057870  38 t-inv F
 -0.333333 -0.333333 -0.750000    0.00057870  38 t-inv F
 -0.000000  0.333333 -0.416667    0.00057870  38 t-inv F
 -0.000000  0.333333 -0.333333    0.00057870  39 t-inv F
 -0.666667 -0.333333 -0.333333    0.00057870  39 t-inv F
 -0.333333 -0.333333 -0.666667    0.00057870  39 t-inv F
  0.000000 -0.416667 -0.416667    0.00057870  40 t-inv F
 -0.416667 -0.416667  0.000000    0.00057870  40 t-inv F
 -0.000000  0.416667  0.416667    0.00057870  40 t-inv F
 -0.000000 -0.500000 -0.416667    0.00057870  41 t-inv F
 -0.416667 -0.500000 -0.000000    0.00057870  41 t-inv F
  0.083333 -0.416667 -0.416667    0.00057870  41 t-inv F
  0.500000  0.500000  0.083333    0.00057870  41 t-inv F
  0.083333  0.500000  0.500000    0.00057870  41 t-inv F
 -0.416667 -0.416667  0.083333    0.00057870  41 t-inv F
 -0.000000  0.416667  0.500000    0.00057870  41 t-inv F
  0.000000  0.416667 -0.416667    0.00057870  42 t-inv F
 -0.833333 -0.416667 -0.416667    0.00057870  42 t-inv F
 -0.416667 -0.416667 -0.833333    0.00057870  42 t-inv F
  0.000000 -0.500000 -0.500000    0.00057870  43 t-inv F
  0.083333 -0.083333  0.083333    0.00057870  45 t-inv F
  0.166667  0.083333  0.166667    0.00057870  45 t-inv F
  0.083333  0.000000  0.166667    0.00057870  45 t-inv F
  0.083333 -0.166667  0.083333    0.00057870  46 t-inv F
  0.250000  0.166667  0.250000    0.00057870  46 t-inv F
  0.083333  0.000000  0.250000    0.00057870  46 t-inv F
  0.083333 -0.250000  0.083333    0.00057870  47 t-inv F
  0.333333  0.250000  0.333333    0.00057870  47 t-inv F
  0.083333 -0.000000  0.333333    0.00057870  47 t-inv F
  0.083333 -0.333333  0.083333    0.00057870  48 t-inv F
  0.416667  0.333333  0.416667    0.00057870  48 t-inv F
  0.083333  0.000000  0.416667    0.00057870  48 t-inv F
  0.083333 -0.416667  0.083333    0.00057870  49 t-inv F
  0.500000  0.416667  0.500000    0.00057870  49 t-inv F
  0.083333  0.000000  0.500000    0.00057870  49 t-inv F
  0.083333  0.500000  0.083333    0.00057870  50 t-inv F
 -0.416667 -0.500000 -0.416667    0.00057870  50 t-inv F
  0.083333  0.000000 -0.416667    0.00057870  50 t-inv F
  0.083333  0.416667  0.083333    0.00057870  51 t-inv F
 -0.333333 -0.416667 -0.333333    0.00057870  51 t-inv F
  0.083333  0.000000 -0.333333    0.00057870  51 t-inv F
  0.083333  0.333333  0.083333    0.00057870  52 t-inv F
 -0.250000 -0.333333 -0.250000    0.00057870  52 t-inv F
  0.083333  0.000000 -0.250000    0.00057870  52 t-inv F
  0.083333  0.250000  0.083333    0.00057870  53 t-inv F
 -0.166667 -0.250000 -0.166667    0.00057870  53 t-inv F
  0.083333 -0.000000 -0.166667    0.00057870  53 t-inv F
  0.083333  0.166667  0.083333    0.00057870  54 t-inv F
 -0.083333 -0.166667 -0.083333    0.00057870  54 t-inv F
  0.083333  0.000000 -0.083333    0.00057870  54 t-inv F
  0.083333 -0.166667 -0.083333    0.00057870  55 t-inv F
 -0.083333 -0.166667  0.083333    0.00057870  55 t-inv F
  0.083333  0.166667  0.250000    0.00057870  55 t-inv F
  0.083333 -0.250000 -0.083333    0.00057870  56 t-inv F
 -0.083333 -0.250000  0.083333    0.00057870  56 t-inv F
  0.166667 -0.166667 -0.083333    0.00057870  56 t-inv F
  0.333333  0.250000  0.166667    0.00057870  56 t-inv F
  0.166667  0.250000  0.333333    0.00057870  56 t-inv F
 -0.083333 -0.166667  0.166667    0.00057870  56 t-inv F
  0.083333  0.166667  0.333333    0.00057870  56 t-inv F
  0.083333 -0.333333 -0.083333    0.00057870  57 t-inv F
 -0.083333 -0.333333  0.083333    0.00057870  57 t-inv F
  0.250000 -0.166667 -0.083333    0.00057870  57 t-inv F
  0.416667  0.333333  0.250000    0.00057870  57 t-inv F
  0.250000  0.333333  0.416667    0.00057870  57 t-inv F
 -0.083333 -0.166667  0.250000    0.00057870  57 t-inv F
  0.083333  0.166667  0.416667    0.00057870  57 t-inv F
  0.083333 -0.416667 -0.083333    0.00057870  58 t-inv F
 -0.083333 -0.416667  0.083333    0.00057870  58 t-inv F
  0.333333 -0.166667 -0.083333    0.00057870  58 t-inv F
  0.500000  0.416667  0.333333    0.00057870  58 t-inv F
  0.333333  0.416667  0.500000    0.00057870  58 t-inv F
 -0.083333 -0.166667  0.333333    0.00057870  58 t-inv F
  0.083333  0.166667  0.500000    0.00057870  58 t-inv F
  0.083333  0.500000 -0.083333    0.00057870  59 t-inv F
 -0.083333  0.500000  0.083333    0.00057870  59 t-inv F
 -0.583333 -0.166667 -0.083333    0.00057870  59 t-inv F
 -0.416667 -0.500000 -0.583333    0.00057870  59 t-inv F
 -0.583333 -0.500000 -0.416667    0.00057870  59 t-inv F
 -0.083333 -0.166667 -0.583333    0.00057870  59 t-inv F
  0.083333  0.166667 -0.416667    0.00057870  59 t-inv F
  0.083333 -0.083333 -0.166667    0.00057870  60 t-inv F
 -0.166667 -0.083333  0.083333    0.00057870  60 t-inv F
 -0.083333 -0.250000 -0.166667    0.00057870  60 t-inv F
  0.166667  0.083333 -0.083333    0.00057870  60 t-inv F
 -0.083333  0.083333  0.166667    0.00057870  60 t-inv F
 -0.166667 -0.250000 -0.083333    0.00057870  60 t-inv F
  0.083333  0.250000  0.166667    0.00057870  60 t-inv F
  0.083333 -0.250000 -0.166667    0.00057870  61 t-inv F
 -0.166667 -0.250000  0.083333    0.00057870  61 t-inv F
  0.083333  0.250000  0.333333    0.00057870  61 t-inv F
  0.083333 -0.333333 -0.166667    0.00057870  62 t-inv F
 -0.166667 -0.333333  0.083333    0.00057870  62 t-inv F
  0.166667 -0.250000 -0.166667    0.00057870  62 t-inv F
  0.416667  0.333333  0.166667    0.00057870  62 t-inv F
  0.166667  0.333333  0.416667    0.00057870  62 t-inv F
 -0.166667 -0.250000  0.166667    0.00057870  62 t-inv F
  0.083333  0.250000  0.416667    0.00057870  62 t-inv F
  0.083333 -0.416667 -0.166667    0.00057870  63 t-inv F
 -0.166667 -0.416667  0.083333    0.00057870  63 t-inv F
  0.250000 -0.250000 -0.166667    0.00057870  63 t-inv F
  0.500000  0.416667  0.250000    0.00057870  63 t-inv F
  0.250000  0.416667  0.500000    0.00057870  63 t-inv F
 -0.166667 -0.250000  0.250000    0.00057870  63 t-inv F
  0.083333  0.250000  0.500000    0.00057870  63 t-inv F
  0.083333  0.500000 -0.166667    0.00057870  64 t-inv F
 -0.166667  0.500000  0.083333    0.00057870  64 t-inv F
 -0.666667 -0.250000 -0.166667    0.00057870  64 t-inv F
 -0.416667 -0.500000 -0.666667    0.00057870  64 t-inv F
 -0.666667 -0.500000 -0.416667    0.00057870  64 t-inv F
 -0.166667 -0.250000 -0.666667    0.00057870  64 t-inv F
  0.083333  0.250000 -0.416667    0.00057870  64 t-inv F
  0.083333  0.416667 -0.166667    0.00057870  65 t-inv F
 -0.166667  0.416667  0.083333    0.00057870  65 t-inv F
 -0.583333 -0.250000 -0.166667    0.00057870  65 t-inv F
 -0.333333 -0.416667 -0.583333    0.00057870  65 t-inv F
 -0.583333 -0.416667 -0.333333    0.00057870  65 t-inv F
 -0.166667 -0.250000 -0.583333    0.00057870  65 t-inv F
  0.083333  0.250000 -0.333333    0.00057870  65 t-inv F
  0.083333  0.333333 -0.166667    0.00057870  66 t-inv F
 -0.166667  0.333333  0.083333    0.00057870  66 t-inv F
 -0.500000 -0.250000 -0.166667    0.00057870  66 t-inv F
 -0.250000 -0.333333 -0.500000    0.00057870  66 t-inv F
 -0.500000 -0.333333 -0.250000    0.00057870  66 t-inv F
 -0.166667 -0.250000 -0.500000    0.00057870  66 t-inv F
  0.083333  0.250000 -0.250000    0.00057870  66 t-inv F
  0.083333  0.250000 -0.166667    0.00057870  67 t-inv F
 -0.416667 -0.250000 -0.166667    0.00057870  67 t-inv F
 -0.166667 -0.250000 -0.416667    0.00057870  67 t-inv F
  0.083333 -0.083333 -0.250000    0.00057870  68 t-inv F
 -0.250000 -0.083333  0.083333    0.00057870  68 t-inv F
 -0.166667 -0.333333 -0.250000    0.00057870  68 t-inv F
  0.166667  0.083333 -0.166667    0.00057870  68 t-inv F
 -0.166667  0.083333  0.166667    0.00057870  68 t-inv F
 -0.250000 -0.333333 -0.166667    0.00057870  68 t-inv F
  0.083333  0.333333  0.166667    0.00057870  68 t-inv F
  0.083333 -0.166667 -0.250000    0.00057870  69 t-inv F
 -0.250000 -0.166667  0.083333    0.00057870  69 t-inv F
 -0.083333 -0.333333 -0.250000    0.00057870  69 t-inv F
  0.250000  0.166667 -0.083333    0.00057870  69 t-inv F
 -0.083333  0.166667  0.250000    0.00057870  69 t-inv F
 -0.250000 -0.333333 -0.083333    0.00057870  69 t-inv F
  0.083333  0.333333  0.250000    0.00057870  69 t-inv F
  0.083333 -0.333333 -0.250000    0.00057870  70 t-inv F
 -0.250000 -0.333333  0.083333    0.00057870  70 t-inv F
  0.083333  0.333333  0.416667    0.00057870  70 t-inv F
  0.083333 -0.416667 -0.250000    0.00057870  71 t-inv F
 -0.250000 -0.416667  0.083333    0.00057870  71 t-inv F
  0.166667 -0.333333 -0.250000    0.00057870  71 t-inv F
  0.500000  0.416667  0.166667    0.00057870  71 t-inv F
  0.166667  0.416667  0.500000    0.00057870  71 t-inv F
 -0.250000 -0.333333  0.166667    0.00057870  71 t-inv F
  0.083333  0.333333  0.500000    0.00057870  71 t-inv F
  0.083333  0.500000 -0.250000    0.00057870  72 t-inv F
 -0.250000  0.500000  0.083333    0.00057870  72 t-inv F
 -0.750000 -0.333333 -0.250000    0.00057870  72 t-inv F
 -0.416667 -0.500000 -0.750000    0.00057870  72 t-inv F
 -0.750000 -0.500000 -0.416667    0.00057870  72 t-inv F
 -0.250000 -0.333333 -0.750000    0.00057870  72 t-inv F
  0.083333  0.333333 -0.416667    0.00057870  72 t-inv F
  0.083333  0.416667 -0.250000    0.00057870  73 t-inv F
 -0.250000  0.416667  0.083333    0.00057870  73 t-inv F
 -0.666667 -0.333333 -0.250000    0.00057870  73 t-inv F
 -0.333333 -0.416667 -0.666667    0.00057870  73 t-inv F
 -0.666667 -0.416667 -0.333333    0.00057870  73 t-inv F
 -0.250000 -0.333333 -0.666667    0.00057870  73 t-inv F
  0.083333  0.333333 -0.333333    0.00057870  73 t-inv F
  0.083333  0.333333 -0.250000    0.00057870  74 t-inv F
 -0.583333 -0.333333 -0.250000    0.00057870  74 t-inv F
 -0.250000 -0.333333 -0.583333    0.00057870  74 t-inv F
  0.083333 -0.083333 -0.333333    0.00057870  75 t-inv F
 -0.333333 -0.083333  0.083333    0.00057870  75 t-inv F
 -0.250000 -0.416667 -0.333333    0.00057870  75 t-inv F
  0.166667  0.083333 -0.250000    0.00057870  75 t-inv F
 -0.250000  0.083333  0.166667    0.00057870  75 t-inv F
 -0.333333 -0.416667 -0.250000    0.00057870  75 t-inv F
  0.083333  0.416667  0.166667    0.00057870  75 t-inv F
  0.083333 -0.166667 -0.333333    0.00057870  76 t-inv F
 -0.333333 -0.166667  0.083333    0.00057870  76 t-inv F
 -0.166667 -0.416667 -0.333333    0.00057870  76 t-inv F
  0.250000  0.166667 -0.166667    0.00057870  76 t-inv F
 -0.166667  0.166667  0.250000    0.00057870  76 t-inv F
 -0.333333 -0.416667 -0.166667    0.00057870  76 t-inv F
  0.083333  0.416667  0.250000    0.00057870  76 t-inv F
  0.083333 -0.250000 -0.333333    0.00057870  77 t-inv F
 -0.333333 -0.250000  0.083333    0.00057870  77 t-inv F
 -0.083333 -0.416667 -0.333333    0.00057870  77 t-inv F
  0.333333  0.250000 -0.083333    0.00057870  77 t-inv F
 -0.083333  0.250000  0.333333    0.00057870  77 t-inv F
 -0.333333 -0.416667 -0.083333    0.00057870  77 t-inv F
  0.083333  0.416667  0.333333    0.00057870  77 t-inv F
  0.083333 -0.416667 -0.333333    0.00057870  78 t-inv F
 -0.333333 -0.416667  0.083333    0.00057870  78 t-inv F
  0.083333  0.416667  0.500000    0.00057870  78 t-inv F
  0.083333  0.500000 -0.333333    0.00057870  79 t-inv F
 -0.333333  0.500000  0.083333    0.00057870  79 t-inv F
 -0.833333 -0.416667 -0.333333    0.00057870  79 t-inv F
 -0.416667 -0.500000 -0.833333    0.00057870  79 t-inv F
 -0.833333 -0.500000 -0.416667    0.00057870  79 t-inv F
 -0.333333 -0.416667 -0.833333    0.00057870  79 t-inv F
  0.083333  0.416667 -0.416667    0.00057870  79 t-inv F
  0.083333  0.416667 -0.333333    0.00057870  80 t-inv F
 -0.750000 -0.416667 -0.333333    0.00057870  80 t-inv F
 -0.333333 -0.416667 -0.750000    0.00057870  80 t-inv F
  0.083333 -0.083333 -0.416667    0.00057870  81 t-inv F
 -0.416667 -0.083333  0.083333    0.00057870  81 t-inv F
 -0.333333 -0.500000 -0.416667    0.00057870  81 t-inv F
  0.166667  0.083333 -0.333333    0.00057870  81 t-inv F
 -0.333333  0.083333  0.166667    0.00057870  81 t-inv F
 -0.416667 -0.500000 -0.333333    0.00057870  81 t-inv F
  0.083333  0.500000  0.166667    0.00057870  81 t-inv F
  0.083333 -0.166667 -0.416667    0.00057870  82 t-inv F
 -0.416667 -0.166667  0.083333    0.00057870  82 t-inv F
 -0.250000 -0.500000 -0.416667    0.00057870  82 t-inv F
  0.250000  0.166667 -0.250000    0.00057870  82 t-inv F
 -0.250000  0.166667  0.250000    0.00057870  82 t-inv F
 -0.416667 -0.500000 -0.250000    0.00057870  82 t-inv F
  0.083333  0.500000  0.250000    0.00057870  82 t-inv F
  0.083333 -0.250000 -0.416667    0.00057870  83 t-inv F
 -0.416667 -0.250000  0.083333    0.00057870  83 t-inv F
 -0.166667 -0.500000 -0.416667    0.00057870  83 t-inv F
  0.333333  0.250000 -0.166667    0.00057870  83 t-inv F
 -0.166667  0.250000  0.333333    0.00057870  83 t-inv F
 -0.416667 -0.500000 -0.166667    0.00057870  83 t-inv F
  0.083333  0.500000  0.333333    0.00057870  83 t-inv F
  0.083333 -0.333333 -0.416667    0.00057870  84 t-inv F
 -0.416667 -0.333333  0.083333    0.00057870  84 t-inv F
 -0.083333 -0.500000 -0.416667    0.00057870  84 t-inv F
  0.416667  0.333333 -0.083333    0.00057870  84 t-inv F
 -0.083333  0.333333  0.416667    0.00057870  84 t-inv F
 -0.416667 -0.500000 -0.083333    0.00057870  84 t-inv F
  0.083333  0.500000  0.416667    0.00057870  84 t-inv F
  0.083333  0.500000 -0.416667    0.00057870  85 t-inv F
  0.083333 -0.083333  0.500000    0.00057870  86 t-inv F
  0.500000 -0.083333  0.083333    0.00057870  86 t-inv F
  0.583333  0.416667  0.500000    0.00057870  86 t-inv F
  0.166667  0.083333  0.583333    0.00057870  86 t-inv F
  0.583333  0.083333  0.166667    0.00057870  86 t-inv F
  0.500000  0.416667  0.583333    0.00057870  86 t-inv F
  0.083333 -0.416667  0.166667    0.00057870  86 t-inv F
  0.083333 -0.166667  0.500000    0.00057870  87 t-inv F
  0.500000 -0.166667  0.083333    0.00057870  87 t-inv F
  0.666667  0.416667  0.500000    0.00057870  87 t-inv F
  0.250000  0.166667  0.666667    0.00057870  87 t-inv F
  0.666667  0.166667  0.250000    0.00057870  87 t-inv F
  0.500000  0.416667  0.666667    0.00057870  87 t-inv F
  0.083333 -0.416667  0.250000    0.00057870  87 t-inv F
  0.083333 -0.250000  0.500000    0.00057870  88 t-inv F
  0.500000 -0.250000  0.083333    0.00057870  88 t-inv F
  0.750000  0.416667  0.500000    0.00057870  88 t-inv F
  0.333333  0.250000  0.750000    0.00057870  88 t-inv F
  0.750000  0.250000  0.333333    0.00057870  88 t-inv F
  0.500000  0.416667  0.750000    0.00057870  88 t-inv F
  0.083333 -0.416667  0.333333    0.00057870  88 t-inv F
  0.083333 -0.333333  0.500000    0.00057870  89 t-inv F
  0.500000 -0.333333  0.083333    0.00057870  89 t-inv F
  0.833333  0.416667  0.500000    0.00057870  89 t-inv F
  0.416667  0.333333  0.833333    0.00057870  89 t-inv F
  0.833333  0.333333  0.416667    0.00057870  89 t-inv F
  0.500000  0.416667  0.833333    0.00057870  89 t-inv F
  0.083333 -0.416667  0.416667    0.00057870  89 t-inv F
  0.083333 -0.416667  0.500000    0.00057870  90 t-inv F
  0.916667  0.416667  0.500000    0.00057870  90 t-inv F
  0.500000  0.416667  0.916667    0.00057870  90 t-inv F
  0.083333 -0.083333  0.416667    0.00057870  91 t-inv F
  0.416667 -0.083333  0.083333    0.00057870  91 t-inv F
  0.500000  0.333333  0.416667    0.00057870  91 t-inv F
  0.166667  0.083333  0.500000    0.00057870  91 t-inv F
  0.500000  0.083333  0.166667    0.00057870  91 t-inv F
  0.416667  0.333333  0.500000    0.00057870  91 t-inv F
  0.083333 -0.333333  0.166667    0.00057870  91 t-inv F
  0.083333 -0.166667  0.416667    0.00057870  92 t-inv F
  0.416667 -0.166667  0.083333    0.00057870  92 t-inv F
  0.583333  0.333333  0.416667    0.00057870  92 t-inv F
  0.250000  0.166667  0.583333    0.00057870  92 t-inv F
  0.583333  0.166667  0.250000    0.00057870  92 t-inv F
  0.416667  0.333333  0.583333    0.00057870  92 t-inv F
  0.083333 -0.333333  0.250000    0.00057870  92 t-inv F
  0.083333 -0.250000  0.416667    0.00057870  93 t-inv F
  0.416667 -0.250000  0.083333    0.00057870  93 t-inv F
  0.666667  0.333333  0.416667    0.00057870  93 t-inv F
  0.333333  0.250000  0.666667    0.00057870  93 t-inv F
  0.666667  0.250000  0.333333    0.00057870  93 t-inv F
  0.416667  0.333333  0.666667    0.00057870  93 t-inv F
  0.083333 -0.333333  0.333333    0.00057870  93 t-inv F
  0.083333 -0.333333  0.416667    0.00057870  94 t-inv F
  0.750000  0.333333  0.416667    0.00057870  94 t-inv F
  0.416667  0.333333  0.750000    0.00057870  94 t-inv F
  0.083333 -0.083333  0.333333    0.00057870  95 t-inv F
  0.333333 -0.083333  0.083333    0.00057870  95 t-inv F
  0.416667  0.250000  0.333333    0.00057870  95 t-inv F
  0.166667  0.083333  0.416667    0.00057870  95 t-inv F
  0.416667  0.083333  0.166667    0.00057870  95 t-inv F
  0.333333  0.250000  0.416667    0.00057870  95 t-inv F
  0.083333 -0.250000  0.166667    0.00057870  95 t-inv F
  0.083333 -0.166667  0.333333    0.00057870  96 t-inv F
  0.333333 -0.166667  0.083333    0.00057870  96 t-inv F
  0.500000  0.250000  0.333333    0.00057870  96 t-inv F
  0.250000  0.166667  0.500000    0.00057870  96 t-inv F
  0.500000  0.166667  0.250000    0.00057870  96 t-inv F
  0.333333  0.250000  0.500000    0.00057870  96 t-inv F
  0.083333 -0.250000  0.250000    0.00057870  96 t-inv F
  0.083333 -0.250000  0.333333    0.00057870  97 t-inv F
  0.583333  0.250000  0.333333    0.00057870  97 t-inv F
  0.333333  0.250000  0.583333    0.00057870  97 t-inv F
  0.083333 -0.083333  0.250000    0.00057870  98 t-inv F
  0.250000 -0.083333  0.083333    0.00057870  98 t-inv F
  0.333333  0.166667  0.250000    0.00057870  98 t-inv F
  0.166667  0.083333  0.333333    0.00057870  98 t-inv F
  0.333333  0.083333  0.166667    0.00057870  98 t-inv F
  0.250000  0.166667  0.333333    0.00057870  98 t-inv F
  0.083333 -0.166667  0.166667    0.00057870  98 t-inv F
  0.083333 -0.166667  0.250000    0.00057870  99 t-inv F
  0.416667  0.166667  0.250000    0.00057870  99 t-inv F
  0.250000  0.166667  0.416667    0.00057870  99 t-inv F
  0.083333 -0.083333  0.166667    0.00057870 100 t-inv F
  0.250000  0.083333  0.166667    0.00057870 100 t-inv F
  0.166667  0.083333  0.250000    0.00057870 100 t-inv F
  0.166667 -0.083333  0.166667    0.00057870 102 t-inv F
  0.250000  0.083333  0.250000    0.00057870 102 t-inv F
  0.166667 -0.000000  0.250000    0.00057870 102 t-inv F
  0.166667 -0.166667  0.166667    0.00057870 103 t-inv F
  0.333333  0.166667  0.333333    0.00057870 103 t-inv F
  0.166667 -0.000000  0.333333    0.00057870 103 t-inv F
  0.166667 -0.250000  0.166667    0.00057870 104 t-inv F
  0.416667  0.250000  0.416667    0.00057870 104 t-inv F
  0.166667  0.000000  0.416667    0.00057870 104 t-inv F
  0.166667 -0.333333  0.166667    0.00057870 105 t-inv F
  0.500000  0.333333  0.500000    0.00057870 105 t-inv F
  0.166667 -0.000000  0.500000    0.00057870 105 t-inv F
  0.166667  0.583333  0.166667    0.00057870 106 t-inv F
 -0.416667 -0.583333 -0.416667    0.00057870 106 t-inv F
  0.166667  0.000000 -0.416667    0.00057870 106 t-inv F
  0.166667  0.500000  0.166667    0.00057870 107 t-inv F
 -0.333333 -0.500000 -0.333333    0.00057870 107 t-inv F
  0.166667 -0.000000 -0.333333    0.00057870 107 t-inv F
  0.166667  0.416667  0.166667    0.00057870 108 t-inv F
 -0.250000 -0.416667 -0.250000    0.00057870 108 t-inv F
  0.166667 -0.000000 -0.250000    0.00057870 108 t-inv F
  0.166667  0.333333  0.166667    0.00057870 109 t-inv F
 -0.166667 -0.333333 -0.166667    0.00057870 109 t-inv F
  0.166667 -0.000000 -0.166667    0.00057870 109 t-inv F
  0.166667 -0.333333 -0.166667    0.00057870 110 t-inv F
 -0.166667 -0.333333  0.166667    0.00057870 110 t-inv F
  0.166667  0.333333  0.500000    0.00057870 110 t-inv F
  0.166667  0.583333 -0.166667    0.00057870 111 t-inv F
 -0.166667  0.583333  0.166667    0.00057870 111 t-inv F
 -0.750000 -0.333333 -0.166667    0.00057870 111 t-inv F
 -0.416667 -0.583333 -0.750000    0.00057870 111 t-inv F
 -0.750000 -0.583333 -0.416667    0.00057870 111 t-inv F
 -0.166667 -0.333333 -0.750000    0.00057870 111 t-inv F
  0.166667  0.333333 -0.416667    0.00057870 111 t-inv F
  0.166667  0.500000 -0.166667    0.00057870 112 t-inv F
 -0.166667  0.500000  0.166667    0.00057870 112 t-inv F
 -0.666667 -0.333333 -0.166667    0.00057870 112 t-inv F
 -0.333333 -0.500000 -0.666667    0.00057870 112 t-inv F
 -0.666667 -0.500000 -0.333333    0.00057870 112 t-inv F
 -0.166667 -0.333333 -0.666667    0.00057870 112 t-inv F
  0.166667  0.333333 -0.333333    0.00057870 112 t-inv F
  0.166667 -0.083333 -0.250000    0.00057870 113 t-inv F
 -0.250000 -0.083333  0.166667    0.00057870 113 t-inv F
 -0.166667 -0.416667 -0.250000    0.00057870 113 t-inv F
  0.250000  0.083333 -0.166667    0.00057870 113 t-inv F
 -0.166667  0.083333  0.250000    0.00057870 113 t-inv F
 -0.250000 -0.416667 -0.166667    0.00057870 113 t-inv F
  0.166667  0.416667  0.250000    0.00057870 113 t-inv F
  0.166667  0.583333 -0.250000    0.00057870 114 t-inv F
 -0.250000  0.583333  0.166667    0.00057870 114 t-inv F
 -0.833333 -0.583333 -0.416667    0.00057870 114 t-inv F
  0.166667  0.500000 -0.250000    0.00057870 115 t-inv F
 -0.250000  0.500000  0.166667    0.00057870 115 t-inv F
 -0.750000 -0.416667 -0.250000    0.00057870 115 t-inv F
 -0.333333 -0.500000 -0.750000    0.00057870 115 t-inv F
 -0.750000 -0.500000 -0.333333    0.00057870 115 t-inv F
 -0.250000 -0.416667 -0.750000    0.00057870 115 t-inv F
  0.166667  0.416667 -0.333333    0.00057870 115 t-inv F
  0.166667  0.416667 -0.250000    0.00057870 116 t-inv F
 -0.666667 -0.416667 -0.250000    0.00057870 116 t-inv F
 -0.250000 -0.416667 -0.666667    0.00057870 116 t-inv F
  0.166667 -0.083333 -0.333333    0.00057870 117 t-inv F
 -0.333333 -0.083333  0.166667    0.00057870 117 t-inv F
 -0.250000 -0.500000 -0.333333    0.00057870 117 t-inv F
  0.250000  0.083333 -0.250000    0.00057870 117 t-inv F
 -0.250000  0.083333  0.250000    0.00057870 117 t-inv F
 -0.333333 -0.500000 -0.250000    0.00057870 117 t-inv F
  0.166667  0.500000  0.250000    0.00057870 117 t-inv F
  0.166667 -0.166667 -0.333333    0.00057870 118 t-inv F
 -0.333333 -0.166667  0.166667    0.00057870 118 t-inv F
 -0.166667 -0.500000 -0.333333    0.00057870 118 t-inv F
  0.333333  0.166667 -0.166667    0.00057870 118 t-inv F
 -0.166667  0.166667  0.333333    0.00057870 118 t-inv F
 -0.333333 -0.500000 -0.166667    0.00057870 118 t-inv F
  0.166667  0.500000  0.333333    0.00057870 118 t-inv F
  0.166667  0.500000 -0.333333    0.00057870 119 t-inv F
  0.166667 -0.083333  0.583333    0.00057870 120 t-inv F
  0.583333 -0.083333  0.166667    0.00057870 120 t-inv F
  0.666667  0.416667  0.583333    0.00057870 120 t-inv F
  0.250000  0.083333  0.666667    0.00057870 120 t-inv F
  0.666667  0.083333  0.250000    0.00057870 120 t-inv F
  0.583333  0.416667  0.666667    0.00057870 120 t-inv F
  0.166667 -0.416667  0.250000    0.00057870 120 t-inv F
  0.166667 -0.166667  0.583333    0.00057870 121 t-inv F
  0.583333 -0.166667  0.166667    0.00057870 121 t-inv F
  0.750000  0.416667  0.583333    0.00057870 121 t-inv F
  0.333333  0.166667  0.750000    0.00057870 121 t-inv F
  0.750000  0.166667  0.333333    0.00057870 121 t-inv F
  0.583333  0.416667  0.750000    0.00057870 121 t-inv F
  0.166667 -0.416667  0.333333    0.00057870 121 t-inv F
  0.166667 -0.250000  0.583333    0.00057870 122 t-inv F
  0.583333 -0.250000  0.166667    0.00057870 122 t-inv F
  0.833333  0.416667  0.583333    0.00057870 122 t-inv F
  0.416667  0.250000  0.833333    0.00057870 122 t-inv F
  0.833333  0.250000  0.416667    0.00057870 122 t-inv F
  0.583333  0.416667  0.833333    0.00057870 122 t-inv F
  0.166667 -0.416667  0.416667    0.00057870 122 t-inv F
  0.166667 -0.083333  0.500000    0.00057870 123 t-inv F
  0.500000 -0.083333  0.166667    0.00057870 123 t-inv F
  0.583333  0.333333  0.500000    0.00057870 123 t-inv F
  0.250000  0.083333  0.583333    0.00057870 123 t-inv F
  0.583333  0.083333  0.250000    0.00057870 123 t-inv F
  0.500000  0.333333  0.583333    0.00057870 123 t-inv F
  0.166667 -0.333333  0.250000    0.00057870 123 t-inv F
  0.166667 -0.166667  0.500000    0.00057870 124 t-inv F
  0.500000 -0.166667  0.166667    0.00057870 124 t-inv F
  0.666667  0.333333  0.500000    0.00057870 124 t-inv F
  0.333333  0.166667  0.666667    0.00057870 124 t-inv F
  0.666667  0.166667  0.333333    0.00057870 124 t-inv F
  0.500000  0.333333  0.666667    0.00057870 124 t-inv F
  0.166667 -0.333333  0.333333    0.00057870 124 t-inv F
  0.166667 -0.250000  0.500000    0.00057870 125 t-inv F
  0.500000 -0.250000  0.166667    0.00057870 125 t-inv F
  0.750000  0.333333  0.500000    0.00057870 125 t-inv F
  0.416667  0.250000  0.750000    0.00057870 125 t-inv F
  0.750000  0.250000  0.416667    0.00057870 125 t-inv F
  0.500000  0.333333  0.750000    0.00057870 125 t-inv F
  0.166667 -0.333333  0.416667    0.00057870 125 t-inv F
  0.166667 -0.333333  0.500000    0.00057870 126 t-inv F
  0.833333  0.333333  0.500000    0.00057870 126 t-inv F
  0.500000  0.333333  0.833333    0.00057870 126 t-inv F
  0.166667 -0.083333  0.416667    0.00057870 127 t-inv F
  0.416667 -0.083333  0.166667    0.00057870 127 t-inv F
  0.500000  0.250000  0.416667    0.00057870 127 t-inv F
  0.250000  0.083333  0.500000    0.00057870 127 t-inv F
  0.500000  0.083333  0.250000    0.00057870 127 t-inv F
  0.416667  0.250000  0.500000    0.00057870 127 t-inv F
  0.166667 -0.250000  0.250000    0.00057870 127 t-inv F
  0.166667 -0.166667  0.416667    0.00057870 128 t-inv F
  0.416667 -0.166667  0.166667    0.00057870 128 t-inv F
  0.583333  0.250000  0.416667    0.00057870 128 t-inv F
  0.333333  0.166667  0.583333    0.00057870 128 t-inv F
  0.583333  0.166667  0.333333    0.00057870 128 t-inv F
  0.416667  0.250000  0.583333    0.00057870 128 t-inv F
  0.166667 -0.250000  0.333333    0.00057870 128 t-inv F
  0.166667 -0.250000  0.416667    0.00057870 129 t-inv F
  0.666667  0.250000  0.416667    0.00057870 129 t-inv F
  0.416667  0.250000  0.666667    0.00057870 129 t-inv F
  0.166667 -0.083333  0.333333    0.00057870 130 t-inv F
  0.333333 -0.083333  0.166667    0.00057870 130 t-inv F
  0.416667  0.166667  0.333333    0.00057870 130 t-inv F
  0.250000  0.083333  0.416667    0.00057870 130 t-inv F
  0.416667  0.083333  0.250000    0.00057870 130 t-inv F
  0.333333  0.166667  0.416667    0.00057870 130 t-inv F
  0.166667 -0.166667  0.250000    0.00057870 130 t-inv F
  0.166667 -0.166667  0.333333    0.00057870 131 t-inv F
  0.500000  0.166667  0.333333    0.00057870 131 t-inv F
  0.333333  0.166667  0.500000    0.00057870 131 t-inv F
  0.166667 -0.083333  0.250000    0.00057870 132 t-inv F
  0.333333  0.083333  0.250000    0.00057870 132 t-inv F
  0.250000  0.083333  0.333333    0.00057870 132 t-inv F
  0.250000 -0.083333  0.250000    0.00057870 134 t-inv F
  0.333333  0.083333  0.333333    0.00057870 134 t-inv F
  0.250000  0.000000  0.333333    0.00057870 134 t-inv F
  0.250000 -0.166667  0.250000    0.00057870 135 t-inv F
  0.416667  0.166667  0.416667    0.00057870 135 t-inv F
  0.250000  0.000000  0.416667    0.00057870 135 t-inv F
  0.250000 -0.250000  0.250000    0.00057870 136 t-inv F
  0.500000  0.250000  0.500000    0.00057870 136 t-inv F
  0.250000 -0.000000  0.500000    0.00057870 136 t-inv F
  0.250000  0.666667  0.250000    0.00057870 137 t-inv F
 -0.416667 -0.666667 -0.416667    0.00057870 137 t-inv F
  0.250000  0.000000 -0.416667    0.00057870 137 t-inv F
  0.250000  0.583333  0.250000    0.00057870 138 t-inv F
 -0.333333 -0.583333 -0.333333    0.00057870 138 t-inv F
  0.250000 -0.000000 -0.333333    0.00057870 138 t-inv F
  0.250000  0.500000  0.250000    0.00057870 139 t-inv F
 -0.250000 -0.500000 -0.250000    0.00057870 139 t-inv F
  0.250000  0.000000 -0.250000    0.00057870 139 t-inv F
  0.250000  0.500000 -0.250000    0.00057870 140 t-inv F
  0.250000 -0.083333  0.666667    0.00057870 141 t-inv F
  0.666667 -0.083333  0.250000    0.00057870 141 t-inv F
  0.750000  0.416667  0.666667    0.00057870 141 t-inv F
  0.333333  0.083333  0.750000    0.00057870 141 t-inv F
  0.750000  0.083333  0.333333    0.00057870 141 t-inv F
  0.666667  0.416667  0.750000    0.00057870 141 t-inv F
  0.250000 -0.416667  0.333333    0.00057870 141 t-inv F
  0.250000 -0.083333  0.583333    0.00057870 142 t-inv F
  0.583333 -0.083333  0.250000    0.00057870 142 t-inv F
  0.666667  0.333333  0.583333    0.00057870 142 t-inv F
  0.333333  0.083333  0.666667    0.00057870 142 t-inv F
  0.666667  0.083333  0.333333    0.00057870 142 t-inv F
  0.583333  0.333333  0.666667    0.00057870 142 t-inv F
  0.250000 -0.333333  0.333333    0.00057870 142 t-inv F
  0.250000 -0.166667  0.583333    0.00057870 143 t-inv F
  0.583333 -0.166667  0.250000    0.00057870 143 t-inv F
  0.750000  0.333333  0.583333    0.00057870 143 t-inv F
  0.416667  0.166667  0.750000    0.00057870 143 t-inv F
  0.750000  0.166667  0.416667    0.00057870 143 t-inv F
  0.583333  0.333333  0.750000    0.00057870 143 t-inv F
  0.250000 -0.333333  0.416667    0.00057870 143 t-inv F
  0.250000 -0.083333  0.500000    0.00057870 144 t-inv F
  0.500000 -0.083333  0.250000    0.00057870 144 t-inv F
  0.583333  0.250000  0.500000    0.00057870 144 t-inv F
  0.333333  0.083333  0.583333    0.00057870 144 t-inv F
  0.583333  0.083333  0.333333    0.00057870 144 t-inv F
  0.500000  0.250000  0.583333    0.00057870 144 t-inv F
  0.250000 -0.250000  0.333333    0.00057870 144 t-inv F
  0.250000 -0.166667  0.500000    0.00057870 145 t-inv F
  0.500000 -0.166667  0.250000    0.00057870 145 t-inv F
  0.666667  0.250000  0.500000    0.00057870 145 t-inv F
  0.416667  0.166667  0.666667    0.00057870 145 t-inv F
  0.666667  0.166667  0.416667    0.00057870 145 t-inv F
  0.500000  0.250000  0.666667    0.00057870 145 t-inv F
  0.250000 -0.250000  0.416667    0.00057870 145 t-inv F
  0.250000 -0.250000  0.500000    0.00057870 146 t-inv F
  0.750000  0.250000  0.500000    0.00057870 146 t-inv F
  0.500000  0.250000  0.750000    0.00057870 146 t-inv F
  0.250000 -0.083333  0.416667    0.00057870 147 t-inv F
  0.416667 -0.083333  0.250000    0.00057870 147 t-inv F
  0.500000  0.166667  0.416667    0.00057870 147 t-inv F
  0.333333  0.083333  0.500000    0.00057870 147 t-inv F
  0.500000  0.083333  0.333333    0.00057870 147 t-inv F
  0.416667  0.166667  0.500000    0.00057870 147 t-inv F
  0.250000 -0.166667  0.333333    0.00057870 147 t-inv F
  0.250000 -0.166667  0.416667    0.00057870 148 t-inv F
  0.583333  0.166667  0.416667    0.00057870 148 t-inv F
  0.416667  0.166667  0.583333    0.00057870 148 t-inv F
  0.250000 -0.083333  0.333333    0.00057870 149 t-inv F
  0.416667  0.083333  0.333333    0.00057870 149 t-inv F
[...]
      8       0.0000      0.00000

 k-point 455 :       0.2500    0.1667    0.5000
  band No.  band energies     occupation 
      1       0.0003      0.00000
      2       0.0003      0.00000
      3       0.0002      0.00000
      4       0.0003      0.00000
      5       0.0002      0.00000
      6       0.0001      0.00000
      7       0.0001      0.00000
      8       0.0001      0.00000

 k-point 456 :       0.3333    0.1667    0.5000
  band No.  band energies     occupation 
      1       0.0003      0.00000
      2       0.0003      0.00000
      3       0.0002      0.00000
      4       0.0003      0.00000
      5       0.0002      0.00000
      6       0.0001      0.00000
      7       0.0000      0.00000
      8       0.0002      0.00000

 k-point 457 :       0.6667    0.1667    0.5000
  band No.  band energies     occupation 
      1       0.0003      0.00000
      2       0.0002      0.00000
      3       0.0003      0.00000
      4       0.0002      0.00000
      5       0.0001      0.00000
      6       0.0001      0.00000
      7       0.0002      0.00000
      8       0.0000      0.00000

 k-point 458 :      -0.2500    0.1667   -0.5000
  band No.  band energies     occupation 
      1       0.0003      0.00000
      2       0.0003      0.00000
      3       0.0002      0.00000
      4       0.0003      0.00000
      5       0.0001      0.00000
      6       0.0002      0.00000
      7       0.0001      0.00000
      8       0.0000      0.00000

 k-point 459 :      -0.1667    0.1667   -0.5000
  band No.  band energies     occupation 
      1       0.0003      0.00000
      2       0.0003      0.00000
      3       0.0002      0.00000
      4       0.0003      0.00000
      5       0.0001      0.00000
      6       0.0002      0.00000
      7       0.0000      0.00000
      8       0.0000      0.00000

 k-point 460 :      -0.0833    0.1667   -0.5000
  band No.  band energies     occupation 
      1       0.0003      0.00000
      2       0.0002      0.00000
      3       0.0002      0.00000
      4       0.0003      0.00000
      5       0.0001      0.00000
      6       0.0002      0.00000
      7       0.0000      0.00000
      8       0.0000      0.00000

 k-point 461 :      -0.0000    0.2500    0.5000
  band No.  band energies     occupation 
      1       0.0003      0.00000
      2       0.0003      0.00000
      3       0.0002      0.00000
      4       0.0003      0.00000
      5       0.0001      0.00000
      6       0.0002      0.00000
      7       0.0001      0.00000
      8       0.0001      0.00000

 k-point 462 :       0.0833    0.2500    0.5000
  band No.  band energies     occupation 
      1       0.0003      0.00000
      2       0.0003      0.00000
      3       0.0002      0.00000
      4       0.0003      0.00000
      5       0.0001      0.00000
      6       0.0002      0.00000
      7       0.0000      0.00000
      8       0.0001      0.00000

 k-point 463 :       0.1667    0.2500    0.5000
  band No.  band energies     occupation 
      1       0.0003      0.00000
      2       0.0003      0.00000
      3       0.0002      0.00000
      4       0.0003      0.00000
      5       0.0002      0.00000
      6       0.0001      0.00000
      7       0.0000      0.00000
      8       0.0001      0.00000

 k-point 464 :       0.2500    0.2500    0.5000
  band No.  band energies     occupation 
      1       0.0003      0.00000
      2       0.0003      0.00000
      3       0.0002      0.00000
      4       0.0003      0.00000
      5       0.0002      0.00000
      6       0.0001      0.00000
      7       0.0001      0.00000
      8       0.0000      0.00000

 k-point 465 :       0.7500    0.2500    0.5000
  band No.  band energies     occupation 
      1       0.0003      0.00000
      2       0.0003      0.00000
      3       0.0002      0.00000
      4       0.0002      0.00000
      5       0.0002      0.00000
      6       0.0001      0.00000
      7       0.0001      0.00000
      8       0.0000      0.00000

 k-point 466 :      -0.1667    0.2500   -0.5000
  band No.  band energies     occupation 
      1       0.0003      0.00000
      2       0.0003      0.00000
      3       0.0002      0.00000
      4       0.0003      0.00000
      5       0.0001      0.00000
      6       0.0002      0.00000
      7       0.0001      0.00000
      8       0.0000      0.00000

 k-point 467 :      -0.0833    0.2500   -0.5000
  band No.  band energies     occupation 
      1       0.0003      0.00000
      2       0.0003      0.00000
      3       0.0002      0.00000
      4       0.0003      0.00000
      5       0.0001      0.00000
      6       0.0002      0.00000
      7       0.0001      0.00000
      8       0.0001      0.00000

 k-point 468 :      -0.0000    0.3333    0.5000
  band No.  band energies     occupation 
      1       0.0003      0.00000
      2       0.0003      0.00000
      3       0.0002      0.00000
      4       0.0003      0.00000
      5       0.0000      0.00000
      6       0.0001      0.00000
      7       0.0002      0.00000
      8       0.0001      0.00000

 k-point 469 :       0.0833    0.3333    0.5000
  band No.  band energies     occupation 
      1       0.0003      0.00000
      2       0.0003      0.00000
      3       0.0002      0.00000
      4       0.0003      0.00000
      5       0.0001      0.00000
      6       0.0001      0.00000
      7       0.0001      0.00000
      8       0.0002      0.00000

 k-point 470 :       0.1667    0.3333    0.5000
  band No.  band energies     occupation 
      1       0.0003      0.00000
      2       0.0003      0.00000
      3       0.0002      0.00000
      4       0.0003      0.00000
      5       0.0002      0.00000
      6       0.0001      0.00000
      7       0.0000      0.00000
      8       0.0002      0.00000

 k-point 471 :       0.8333    0.3333    0.5000
  band No.  band energies     occupation 
      1       0.0003      0.00000
      2       0.0003      0.00000
      3       0.0003      0.00000
      4       0.0002      0.00000
      5       0.0001      0.00000
      6       0.0000      0.00000
      7       0.0002      0.00000
      8       0.0001      0.00000

 k-point 472 :      -0.0833    0.3333   -0.5000
  band No.  band energies     occupation 
      1       0.0003      0.00000
      2       0.0003      0.00000
      3       0.0003      0.00000
      4       0.0003      0.00000
      5       0.0000      0.00000
      6       0.0001      0.00000
      7       0.0002      0.00000
      8       0.0001      0.00000

 k-point 473 :      -0.0000    0.4167    0.5000
  band No.  band energies     occupation 
      1       0.0003      0.00000
      2       0.0002      0.00000
      3       0.0003      0.00000
      4       0.0003      0.00000
      5       0.0000      0.00000
      6       0.0000      0.00000
      7       0.0002      0.00000
      8       0.0002      0.00000

 k-point 474 :       0.0833    0.4167    0.5000
  band No.  band energies     occupation 
      1       0.0003      0.00000
      2       0.0003      0.00000
      3       0.0002      0.00000
      4       0.0003      0.00000
      5       0.0000      0.00000
      6       0.0001      0.00000
      7       0.0002      0.00000
      8       0.0002      0.00000

 k-point 475 :       0.9167    0.4167    0.5000
  band No.  band energies     occupation 
      1       0.0003      0.00000
      2       0.0002      0.00000
      3       0.0003      0.00000
      4       0.0002      0.00000
      5       0.0000      0.00000
      6       0.0000      0.00000
      7       0.0003      0.00000
      8       0.0001      0.00000

 k-point 476 :       0.0000   -0.5000   -0.5000
  band No.  band energies     occupation 
      1       0.0003      0.00000
      2       0.0002      0.00000
      3       0.0003      0.00000
      4       0.0003      0.00000
      5       0.0000      0.00000
      6       0.0000      0.00000
      7       0.0003      0.00000
      8       0.0001      0.00000


------------------------ aborting loop because EDIFF is reached ----------------------------------------


    FORLOC:  cpu time    0.0009: real time    0.0009
    FORNL :  cpu time    0.0749: real time    0.0749
    STRESS:  cpu time    0.8418: real time    0.8418
    FORCOR:  cpu time    0.0064: real time    0.0064
    OFIELD:  cpu time    0.0000: real time    0.0000
    FORLOC:  cpu time    0.0005: real time    0.0005
    FORNL :  cpu time    0.0793: real time    0.0793
    STRESS:  cpu time    0.9036: real time    0.9053
    FORCOR:  cpu time    0.0105: real time    0.0105
    OFIELD:  cpu time    0.0001: real time    0.0001
    FORLOC:  cpu time    0.0010: real time    0.0010
    FORNL :  cpu time    0.0641: real time    0.0641
    STRESS:  cpu time    0.8815: real time    0.8876
    FORCOR:  cpu time    0.0064: real time    0.0064
    OFIELD:  cpu time    0.0001: real time    0.0000
    FORLOC:  cpu time    0.0010: real time    0.0010
    FORNL :  cpu time    0.0835: real time    0.0835
    STRESS:  cpu time    0.9014: real time    0.9095
    FORCOR:  cpu time    0.0073: real time    0.0073
    OFIELD:  cpu time    0.0001: real time    0.0000

 INTERNAL STRAIN TENSOR  FOR ION    2  DIRECTION 2   (eV/Angst):
 -----------------------------------------------------------------------------
     0.00178 -0.00006  0.00000
    -0.00006 -0.00072  0.00000
     0.00000  0.00000  0.00095


 POSITION                   FORCE-CONSTANT FOR ION    2 DIRECTION 2 (eV/Angst/Angst)
 -----------------------------------------------------------------------------------
      0.00000      0.00000      0.00000         0.000061      5.893277     -0.000000
     -2.09700      2.09700      2.09700        -0.000061     -5.893277      0.000000
 -----------------------------------------------------------------------------------
    total drift:                                0.000000      0.000000      0.000000


 BORN EFFECTIVE CHARGE FOR ION    2 DIRECTION 2 :  -0.000  -1.964  -0.000
                   rigid augmentation           :   0.000  -0.655   0.000
                   ionic contribution           :   0.000   6.000   0.000
                   Berry contribution           :  -0.000  -7.309  -0.000


--------------------------------------------------------------------------------------------------------


  LATTYP: Found a face centered cubic cell.
 ALAT       =     4.1940024632
  
  Lattice vectors:
  
 A1 = (  -2.0970012316,   0.0000000000,   2.0970012316)
 A2 = (   0.0000000000,   2.0970012316,   2.0970012316)
 A3 = (  -2.0970012316,   2.0970012316,   0.0000000000)


Analysis of symmetry for initial positions (statically):
=====================================================================
 Subroutine PRICEL returns:
 Original cell was already a primitive cell.
 

 Routine SETGRP: Setting up the symmetry group for a 
 face centered cubic supercell.


 Subroutine GETGRP returns: Found  8 space group operations
 (whereof  8 operations were pure point group operations)
 out of a pool of 48 trial point group operations.


The static configuration has the point symmetry C_4v.


Analysis of symmetry for dynamics (positions and initial velocities):
=====================================================================
 Subroutine PRICEL returns:
 Original cell was already a primitive cell.
 

 Routine SETGRP: Setting up the symmetry group for a 
 face centered cubic supercell.


 Subroutine GETGRP returns: Found  8 space group operations
 (whereof  8 operations were pure point group operations)
 out of a pool of 48 trial point group operations.


The dynamic configuration has the point symmetry C_4v.


 Subroutine INISYM returns: Found  8 space group operations
 (whereof  8 operations are pure point group operations),
 and found     1 'primitive' translations



--------------------------------------------------------------------------------------------------------




 MACROSCOPIC STATIC DIELECTRIC TENSOR (including local field effects in DFT)
 ------------------------------------------------------
           3.113322     0.000000    -0.000000
           0.000000     3.113122     0.000000
          -0.000000     0.000000     3.113122
 ------------------------------------------------------


 PIEZOELECTRIC TENSOR  for field in x, y, z        (e  Angst)
          XX          YY          ZZ          XY          YZ          ZX
  --------------------------------------------------------------------------------
  x     0.00002     0.00003     0.00003    -0.00000     0.00000     0.00000
  y    -0.00004     0.00001    -0.00004     0.00001    -0.00000     0.00000
  z    -0.00001    -0.00001     0.00001     0.00000     0.00000    -0.00003

 PIEZOELECTRIC TENSOR  for field in x, y, z        (C/m^2)
          XX          YY          ZZ          XY          YZ          ZX
  --------------------------------------------------------------------------------
  x     0.00002     0.00002     0.00002     0.00000     0.00000    -0.00000
  y    -0.00000    -0.00000    -0.00000    -0.00001     0.00000    -0.00000
  z     0.00000     0.00000     0.00000    -0.00000    -0.00000    -0.00001
 
 BORN EFFECTIVE CHARGES (in e, cummulative output)
 -------------------------------------------------
 ion    1
    1     1.96384     0.00000    -0.00000
    2    -0.00003     1.96386    -0.00000
    3    -0.00000    -0.00000     1.96387
 ion    2
    1    -1.96384    -0.00000     0.00000
    2     0.00003    -1.96386     0.00000
    3     0.00000     0.00000    -1.96387

 INTERNAL STRAIN TENSOR FOR ION    1 for displacements in x,y,z  (eV/Angst):
          X           Y           Z          XY          YZ          ZX
  --------------------------------------------------------------------------------
  x     0.00020    -0.00003    -0.00003     0.00000    -0.00000    -0.00000
  y     0.00000     0.00000    -0.00000    -0.00005     0.00000    -0.00000
  z     0.00000     0.00000     0.00000    -0.00000    -0.00000    -0.00005

 INTERNAL STRAIN TENSOR FOR ION    2 for displacements in x,y,z  (eV/Angst):
          X           Y           Z          XY          YZ          ZX
  --------------------------------------------------------------------------------
  x     0.00009    -0.00100    -0.00100    -0.00000    -0.00000     0.00000
  y     0.00000     0.00000     0.00000    -0.00006     0.00000    -0.00000
  z     0.00000     0.00000     0.00000    -0.00000    -0.00000    -0.00006


--------------------------------------------------------------------------------------------------------


 
 SECOND DERIVATIVES (NOT SYMMETRIZED)
 ------------------------------------
               1X          1Y          1Z          2X          2Y          2Z 
  1X    -5.880183   -0.000000    0.000000    5.880183    0.000000   -0.000000
  1Y    -0.000000   -5.880182   -0.000000    0.000000    5.880182    0.000000
  1Z     0.000000   -0.000000   -5.880182   -0.000000    0.000000    5.880182
  2X     5.893285    0.000000   -0.000000   -5.893285   -0.000000    0.000000
  2Y     0.000000    5.893277    0.000000   -0.000000   -5.893277   -0.000000
  2Z    -0.000000    0.000000    5.893277    0.000000   -0.000000   -5.893277
 
 
 Eigenvectors and eigenvalues of the dynamical matrix
 ----------------------------------------------------
 
 
   1 f  =   12.212637 THz    76.734260 2PiTHz  407.369701 cm-1    50.507424 meV
             X         Y         Z           dx          dy          dz
      0.000000  0.000000  0.000000    -0.629635   -0.000000    0.000000  
     -2.097001  2.097001  2.097001     0.776891    0.000000    0.000000  
 
   2 f  =   12.212631 THz    76.734224 2PiTHz  407.369511 cm-1    50.507400 meV
             X         Y         Z           dx          dy          dz
      0.000000  0.000000  0.000000     0.000000   -0.000000   -0.629635  
     -2.097001  2.097001  2.097001    -0.000000    0.000000    0.776891  
 
   3 f  =   12.212631 THz    76.734224 2PiTHz  407.369511 cm-1    50.507400 meV
             X         Y         Z           dx          dy          dz
      0.000000  0.000000  0.000000     0.000000   -0.629635   -0.000000  
     -2.097001  2.097001  2.097001    -0.000000    0.776891   -0.000000  
 
   4 f/i=    0.006645 THz     0.041750 2PiTHz    0.221644 cm-1     0.027480 meV
             X         Y         Z           dx          dy          dz
      0.000000  0.000000  0.000000     0.000000    0.120226   -0.767532  
     -2.097001  2.097001  2.097001     0.000000    0.097438   -0.622050  
 
   5 f/i=    0.006645 THz     0.041750 2PiTHz    0.221644 cm-1     0.027480 meV
             X         Y         Z           dx          dy          dz
      0.000000  0.000000  0.000000    -0.000000   -0.767532   -0.120226  
     -2.097001  2.097001  2.097001    -0.000000   -0.622050   -0.097438  
 
   6 f/i=    0.006648 THz     0.041770 2PiTHz    0.221752 cm-1     0.027494 meV
             X         Y         Z           dx          dy          dz
      0.000000  0.000000  0.000000     0.776891   -0.000000   -0.000000  
     -2.097001  2.097001  2.097001     0.629635   -0.000000   -0.000000  
 


--------------------------------------------------------------------------------------------------------




 MACROSCOPIC STATIC DIELECTRIC TENSOR IONIC CONTRIBUTION
 ------------------------------------------------------
           6.428039    -0.000109    -0.000005
          -0.000109     6.428171     0.000000
          -0.000005     0.000000     6.428212
 ------------------------------------------------------


 ELASTIC MODULI IONIC CONTR (kBar)
 Direction    XX          YY          ZZ          XY          YZ          ZX
 --------------------------------------------------------------------------------
 XX          -0.0000     -0.0000     -0.0000     -0.0000     -0.0000      0.0000
 YY          -0.0000     -0.0000     -0.0000     -0.0000     -0.0000      0.0000
 ZZ          -0.0000     -0.0000     -0.0000     -0.0000     -0.0000      0.0000
 XY          -0.0000     -0.0000     -0.0000     -0.0000      0.0000      0.0000
 YZ          -0.0000     -0.0000     -0.0000      0.0000     -0.0000     -0.0000
 ZX           0.0000      0.0000      0.0000      0.0000     -0.0000     -0.0000
 --------------------------------------------------------------------------------


 PIEZOELECTRIC TENSOR IONIC CONTR  for field in x, y, z        (C/m^2)
          XX          YY          ZZ          XY          YZ          ZX
  --------------------------------------------------------------------------------
  x     0.00002     0.00014     0.00014     0.00000     0.00000    -0.00000
  y    -0.00000    -0.00000    -0.00000     0.00000    -0.00000     0.00000
  z    -0.00000    -0.00000    -0.00000    -0.00000     0.00000     0.00000


--------------------------------------------------------------------------------------------------------


     LOOP+:  cpu time  102.8881: real time  103.4694
    4ORBIT:  cpu time    0.0000: real time    0.0000

 total amount of memory used by VASP MPI-rank0    51561. kBytes
=======================================================================

   base      :      30000. kBytes
   nonl-proj :      18189. kBytes
   fftplans  :        537. kBytes
   grid      :       1359. kBytes
   one-center:         16. kBytes
   wavefun   :       1460. kBytes
 
  
  
 General timing and accounting informations for this job:
 ========================================================
  
                  Total CPU time used (sec):      104.307
                            User time (sec):      102.317
                          System time (sec):        1.990
                         Elapsed time (sec):      104.990
  
                   Maximum memory used (kb):      244576.
                   Average memory used (kb):           0.
  
                          Minor page faults:        78528
                          Major page faults:           15
                 Voluntary context switches:         2818
