
     Program PWSCF v.7.1 starts on  3Jan2024 at 14:35:19 

     This program is part of the open-source Quantum ESPRESSO suite
     for quantum simulation of materials; please cite
         "P. Giannozzi et al., J. Phys.:Condens. Matter 21 395502 (2009);
         "P. Giannozzi et al., J. Phys.:Condens. Matter 29 465901 (2017);
         "P. Giannozzi et al., J. Chem. Phys. 152 154105 (2020);
          URL http://www.quantum-espresso.org", 
     in publications or presentations arising from this work. More details at
     http://www.quantum-espresso.org/quote

     Parallel version (MPI), running on     8 processors

     MPI processes distributed on     1 nodes
     245112 MiB available memory on the printing compute node when the environment starts
 
     Reading input from pw_mp-1784_emass_k3000_E130.in
Warning: card &IONS ignored
Warning: card / ignored
Warning: card &CELL ignored
Warning: card / ignored

     Current dimensions of program PWSCF are:
     Max number of different atomic species (ntypx) = 10
     Max number of k-points (npk) =  40000
     Max angular momentum in pseudopotentials (lmaxx) =  4

     Atomic positions and unit cell read from directory:
     out/mp-1784.save/
     Atomic positions from file used, from input discarded
 
 
     R & G space division:  proc/nbgrp/npool/nimage =       8
     Subspace diagonalization in iterative solution of the eigenvalue problem:
     a serial algorithm will be used

 
     Parallelization info
     --------------------
     sticks:   dense  smooth     PW     G-vecs:    dense   smooth      PW
     Min         291     291     72                 9199     9199    1155
     Max         293     293     73                 9201     9201    1158
     Sum        2335    2335    583                73601    73601    9257
 
     Using Slab Decomposition
 


     bravais-lattice index     =            2
     lattice parameter (alat)  =      11.3616  a.u.
     unit-cell volume          =     366.6519 (a.u.)^3
     number of atoms/cell      =            2
     number of atomic types    =            2
     number of electrons       =        16.00
     number of Kohn-Sham states=           16
     kinetic-energy cutoff     =     130.0000  Ry
     charge density cutoff     =     520.0000  Ry
     Exchange-correlation= PBE
                           (   1   4   3   4   0   0   0)

     celldm(1)=  11.361560  celldm(2)=   0.000000  celldm(3)=   0.000000
     celldm(4)=   0.000000  celldm(5)=   0.000000  celldm(6)=   0.000000

     crystal axes: (cart. coord. in units of alat)
               a(1) = (  -0.500000   0.000000   0.500000 )  
               a(2) = (   0.000000   0.500000   0.500000 )  
               a(3) = (  -0.500000   0.500000   0.000000 )  

     reciprocal axes: (cart. coord. in units 2 pi/alat)
               b(1) = ( -1.000000 -1.000000  1.000000 )  
               b(2) = (  1.000000  1.000000  1.000000 )  
               b(3) = ( -1.000000  1.000000 -1.000000 )  


     PseudoPot. # 1 for Cs read from file:
     /usr/scratch4/magr4985/MG/devEb/pseudo/SG15/Cs.upf
     MD5 check sum: 1338a448a724a31fb6a2dbac20c1c7e6
     Pseudo is Norm-conserving, Zval =  9.0
     Generated using ONCVPSP code by D. R. Hamann
     Using radial grid of  602 points,  6 beta functions with: 
                l(1) =   0
                l(2) =   0
                l(3) =   1
                l(4) =   1
                l(5) =   2
                l(6) =   2

     PseudoPot. # 2 for F  read from file:
     /usr/scratch4/magr4985/MG/devEb/pseudo/SG15/F.upf
     MD5 check sum: 24dce47753c7134a0159dc9c6586d93a
     Pseudo is Norm-conserving, Zval =  7.0
     Generated using ONCVPSP code by D. R. Hamann
     Using radial grid of  602 points,  4 beta functions with: 
                l(1) =   0
                l(2) =   0
                l(3) =   1
                l(4) =   1

     atomic species   valence    mass     pseudopotential
        Cs             9.00   132.90550     Cs( 1.00)
        F              7.00    18.99840     F ( 1.00)

     48 Sym. Ops., with inversion, found



   Cartesian axes

     site n.     atom                  positions (alat units)
         1           Cs  tau(   1) = (   0.0000000   0.0000000   0.0000000  )
         2           F   tau(   2) = (  -0.5000000   0.5000000   0.5000000  )

     number of k points=     7  Gaussian smearing, width (Ry)=  0.0005
                       cart. coord. in units 2pi/alat
        k(    1) = (   0.0000000   0.0000000   0.0000000), wk =   0.2857143
        k(    2) = (   0.0100000   0.0000000   0.0000000), wk =   0.2857143
        k(    3) = (  -0.0100000   0.0000000   0.0000000), wk =   0.2857143
        k(    4) = (   0.0000000   0.0100000   0.0000000), wk =   0.2857143
        k(    5) = (   0.0000000  -0.0100000   0.0000000), wk =   0.2857143
        k(    6) = (   0.0000000   0.0000000   0.0100000), wk =   0.2857143
        k(    7) = (   0.0000000   0.0000000  -0.0100000), wk =   0.2857143

     Dense  grid:    73601 G-vectors     FFT dimensions: (  60,  60,  60)

     Estimated max dynamical RAM per process >      10.40 MB

     Estimated total dynamical RAM >      83.19 MB

     The potential is recalculated from file :
     out/mp-1784.save/charge-density

     Starting wfcs are random

     Band Structure Calculation
     ParO style diagonalization

     ethr =  5.00E-06,  avg # of iterations = 19.0

     total cpu time spent up to now is        1.8 secs

     End of band structure calculation

          k = 0.0000 0.0000 0.0000 (  9257 PWs)   bands (ev):

   -16.3287 -15.0476  -1.8972  -1.8972  -1.8972   2.6754   2.6754   2.6754
     8.5044  11.1870  11.1870  11.1870  13.2263  13.2263  15.1091  20.5903

          k = 0.0100 0.0000 0.0000 (  9257 PWs)   bands (ev):

   -16.3286 -15.0477  -1.8973  -1.8973  -1.8973   2.6748   2.6754   2.6754
     8.5054  11.1858  11.1877  11.1877  13.2265  13.2266  15.1111  20.5900

          k =-0.0100 0.0000 0.0000 (  9257 PWs)   bands (ev):

   -16.3286 -15.0477  -1.8973  -1.8973  -1.8973   2.6748   2.6754   2.6754
     8.5054  11.1858  11.1877  11.1877  13.2265  13.2266  15.1111  20.5900

          k = 0.0000 0.0100 0.0000 (  9257 PWs)   bands (ev):

   -16.3286 -15.0477  -1.8973  -1.8973  -1.8973   2.6748   2.6754   2.6754
     8.5054  11.1858  11.1877  11.1877  13.2265  13.2266  15.1111  20.5903

          k = 0.0000-0.0100 0.0000 (  9257 PWs)   bands (ev):

   -16.3286 -15.0477  -1.8973  -1.8973  -1.8973   2.6748   2.6754   2.6754
     8.5054  11.1858  11.1877  11.1877  13.2265  13.2266  15.1111  20.5903

          k = 0.0000 0.0000 0.0100 (  9257 PWs)   bands (ev):

   -16.3286 -15.0477  -1.8973  -1.8973  -1.8973   2.6748   2.6754   2.6754
     8.5054  11.1858  11.1877  11.1877  13.2265  13.2266  15.1111  20.5901

          k = 0.0000 0.0000-0.0100 (  9257 PWs)   bands (ev):

   -16.3286 -15.0477  -1.8973  -1.8973  -1.8973   2.6748   2.6754   2.6754
     8.5054  11.1858  11.1877  11.1877  13.2265  13.2266  15.1111  20.5900

     the Fermi energy is     6.7613 ev
     (compare with:     5.1797 eV, computed in scf)

     Writing all to output data dir out/mp-1784.save/
 
     init_run     :      0.12s CPU      0.13s WALL (       1 calls)
     electrons    :      1.52s CPU      1.57s WALL (       1 calls)

     Called by init_run:
     wfcinit      :      0.00s CPU      0.00s WALL (       1 calls)
     potinit      :      0.01s CPU      0.02s WALL (       1 calls)
     hinit0       :      0.01s CPU      0.02s WALL (       1 calls)

     Called by electrons:
     c_bands      :      1.52s CPU      1.57s WALL (       1 calls)
     v_of_rho     :      0.01s CPU      0.01s WALL (       1 calls)

     Called by c_bands:
     init_us_2    :      0.00s CPU      0.00s WALL (       7 calls)
     init_us_2:cp :      0.00s CPU      0.00s WALL (       7 calls)
     paro_k       :      1.44s CPU      1.48s WALL (       7 calls)

     Called by paro_*:
     h_psi        :      1.22s CPU      1.25s WALL (     355 calls)
     g_psi        :      0.02s CPU      0.02s WALL (    2553 calls)

     Called by h_psi:
     h_psi:calbec :      0.04s CPU      0.05s WALL (     355 calls)
     vloc_psi     :      1.14s CPU      1.17s WALL (     355 calls)
     add_vuspsi   :      0.03s CPU      0.03s WALL (     355 calls)

     General routines
     calbec       :      0.04s CPU      0.04s WALL (     355 calls)
     fft          :      0.00s CPU      0.01s WALL (      10 calls)
     fftw         :      0.99s CPU      1.02s WALL (    4368 calls)
 
     Parallel routines
 
     PWSCF        :      1.75s CPU      1.84s WALL

 
   This run was terminated on:  14:35:21   3Jan2024            

=------------------------------------------------------------------------------=
   JOB DONE.
=------------------------------------------------------------------------------=
