
     Program PWSCF v.7.1 starts on  8Apr2024 at 15:10:37 

     This program is part of the open-source Quantum ESPRESSO suite
     for quantum simulation of materials; please cite
         "P. Giannozzi et al., J. Phys.:Condens. Matter 21 395502 (2009);
         "P. Giannozzi et al., J. Phys.:Condens. Matter 29 465901 (2017);
         "P. Giannozzi et al., J. Chem. Phys. 152 154105 (2020);
          URL http://www.quantum-espresso.org", 
     in publications or presentations arising from this work. More details at
     http://www.quantum-espresso.org/quote

     Parallel version (MPI), running on    16 processors

     MPI processes distributed on     1 nodes
     246843 MiB available memory on the printing compute node when the environment starts
 
     Reading input from pw_mp-20351_scf_k3000_E65.in
Warning: card &CELL ignored
Warning: card / ignored

     Current dimensions of program PWSCF are:
     Max number of different atomic species (ntypx) = 10
     Max number of k-points (npk) =  40000
     Max angular momentum in pseudopotentials (lmaxx) =  4
 
     R & G space division:  proc/nbgrp/npool/nimage =      16
     Subspace diagonalization in iterative solution of the eigenvalue problem:
     a serial algorithm will be used

 
     Parallelization info
     --------------------
     sticks:   dense  smooth     PW     G-vecs:    dense   smooth      PW
     Min          70      70     20                 1536     1536     250
     Max          71      71     22                 1539     1539     252
     Sum        1123    1123    337                24597    24597    4015
 
     Using Slab Decomposition
 


     bravais-lattice index     =            2
     lattice parameter (alat)  =      11.1569  a.u.
     unit-cell volume          =     347.1883 (a.u.)^3
     number of atoms/cell      =            2
     number of atomic types    =            2
     number of electrons       =        18.00
     number of Kohn-Sham states=           18
     kinetic-energy cutoff     =      65.0000  Ry
     charge density cutoff     =     260.0000  Ry
     scf convergence threshold =      1.0E-10
     mixing beta               =       0.7000
     number of iterations used =            8  plain     mixing
     Exchange-correlation= PBE
                           (   1   4   3   4   0   0   0)

     celldm(1)=  11.156853  celldm(2)=   0.000000  celldm(3)=   0.000000
     celldm(4)=   0.000000  celldm(5)=   0.000000  celldm(6)=   0.000000

     crystal axes: (cart. coord. in units of alat)
               a(1) = (  -0.500000   0.000000   0.500000 )  
               a(2) = (   0.000000   0.500000   0.500000 )  
               a(3) = (  -0.500000   0.500000   0.000000 )  

     reciprocal axes: (cart. coord. in units 2 pi/alat)
               b(1) = ( -1.000000 -1.000000  1.000000 )  
               b(2) = (  1.000000  1.000000  1.000000 )  
               b(3) = ( -1.000000  1.000000 -1.000000 )  


     PseudoPot. # 1 for In read from file:
     /usr/scratch4/magr4826/Promotion/Python/Code/devEb/pseudo/SG15/In.upf
     MD5 check sum: 2123f823f6143602c63cd302e3a0bdd6
     Pseudo is Norm-conserving, Zval = 13.0
     Generated using ONCVPSP code by D. R. Hamann
     Using radial grid of  602 points,  6 beta functions with: 
                l(1) =   0
                l(2) =   0
                l(3) =   1
                l(4) =   1
                l(5) =   2
                l(6) =   2

     PseudoPot. # 2 for P  read from file:
     /usr/scratch4/magr4826/Promotion/Python/Code/devEb/pseudo/SG15/P.upf
     MD5 check sum: 0688a67b2b263c6b42d3d97c42745426
     Pseudo is Norm-conserving, Zval =  5.0
     Generated using ONCVPSP code by D. R. Hamann
     Using radial grid of  602 points,  4 beta functions with: 
                l(1) =   0
                l(2) =   0
                l(3) =   1
                l(4) =   1

     atomic species   valence    mass     pseudopotential
        In            13.00   114.81800     In( 1.00)
        P              5.00    30.97380     P ( 1.00)

     24 Sym. Ops. (no inversion) found



   Cartesian axes

     site n.     atom                  positions (alat units)
         1           In  tau(   1) = (   0.0000000   0.0000000   0.0000000  )
         2           P   tau(   2) = (  -0.2500000   0.2500000   0.2500001  )

     number of k points=    72  Gaussian smearing, width (Ry)=  0.0005
                       cart. coord. in units 2pi/alat
        k(    1) = (   0.0000000   0.0000000   0.0000000), wk =   0.0011574
        k(    2) = (  -0.0833333   0.0833333  -0.0833333), wk =   0.0092593
        k(    3) = (  -0.1666667   0.1666667  -0.1666667), wk =   0.0092593
        k(    4) = (  -0.2500000   0.2500000  -0.2500000), wk =   0.0092593
        k(    5) = (  -0.3333333   0.3333333  -0.3333333), wk =   0.0092593
        k(    6) = (  -0.4166667   0.4166667  -0.4166667), wk =   0.0092593
        k(    7) = (   0.5000000  -0.5000000   0.5000000), wk =   0.0046296
        k(    8) = (   0.0000000   0.1666667   0.0000000), wk =   0.0069444
        k(    9) = (  -0.0833333   0.2500000  -0.0833333), wk =   0.0277778
        k(   10) = (  -0.1666667   0.3333333  -0.1666667), wk =   0.0277778
        k(   11) = (  -0.2500000   0.4166667  -0.2500000), wk =   0.0277778
        k(   12) = (  -0.3333333   0.5000000  -0.3333333), wk =   0.0277778
        k(   13) = (   0.5833333  -0.4166667   0.5833333), wk =   0.0277778
        k(   14) = (   0.5000000  -0.3333333   0.5000000), wk =   0.0277778
        k(   15) = (   0.4166667  -0.2500000   0.4166667), wk =   0.0277778
        k(   16) = (   0.3333333  -0.1666667   0.3333333), wk =   0.0277778
        k(   17) = (   0.2500000  -0.0833333   0.2500000), wk =   0.0277778
        k(   18) = (   0.1666667  -0.0000000   0.1666667), wk =   0.0138889
        k(   19) = (   0.0000000   0.3333333   0.0000000), wk =   0.0069444
        k(   20) = (  -0.0833333   0.4166667  -0.0833333), wk =   0.0277778
        k(   21) = (  -0.1666667   0.5000000  -0.1666667), wk =   0.0277778
        k(   22) = (  -0.2500000   0.5833333  -0.2500000), wk =   0.0277778
        k(   23) = (   0.6666667  -0.3333333   0.6666667), wk =   0.0277778
        k(   24) = (   0.5833333  -0.2500000   0.5833333), wk =   0.0277778
        k(   25) = (   0.5000000  -0.1666667   0.5000000), wk =   0.0277778
        k(   26) = (   0.4166667  -0.0833333   0.4166667), wk =   0.0277778
        k(   27) = (   0.3333333   0.0000000   0.3333333), wk =   0.0138889
        k(   28) = (   0.0000000   0.5000000   0.0000000), wk =   0.0069444
        k(   29) = (  -0.0833333   0.5833333  -0.0833333), wk =   0.0277778
        k(   30) = (  -0.1666667   0.6666667  -0.1666667), wk =   0.0277778
        k(   31) = (   0.7500000  -0.2500000   0.7500000), wk =   0.0277778
        k(   32) = (   0.6666667  -0.1666667   0.6666667), wk =   0.0277778
        k(   33) = (   0.5833333  -0.0833333   0.5833333), wk =   0.0277778
        k(   34) = (   0.5000000   0.0000000   0.5000000), wk =   0.0138889
        k(   35) = (   0.0000000   0.6666667   0.0000000), wk =   0.0069444
        k(   36) = (  -0.0833333   0.7500000  -0.0833333), wk =   0.0277778
        k(   37) = (   0.8333333  -0.1666667   0.8333333), wk =   0.0277778
        k(   38) = (   0.7500000  -0.0833333   0.7500000), wk =   0.0277778
        k(   39) = (   0.6666667  -0.0000000   0.6666667), wk =   0.0138889
        k(   40) = (   0.0000000   0.8333333   0.0000000), wk =   0.0069444
        k(   41) = (   0.9166667  -0.0833333   0.9166667), wk =   0.0277778
        k(   42) = (   0.8333333   0.0000000   0.8333333), wk =   0.0138889
        k(   43) = (   0.0000000  -1.0000000   0.0000000), wk =   0.0034722
        k(   44) = (  -0.1666667   0.3333333   0.0000000), wk =   0.0277778
        k(   45) = (  -0.2500000   0.4166667  -0.0833333), wk =   0.0555556
        k(   46) = (  -0.3333333   0.5000000  -0.1666667), wk =   0.0555556
        k(   47) = (   0.5833333  -0.4166667   0.7500000), wk =   0.0555556
        k(   48) = (   0.5000000  -0.3333333   0.6666667), wk =   0.0277778
        k(   49) = (  -0.1666667   0.5000000   0.0000000), wk =   0.0277778
        k(   50) = (  -0.2500000   0.5833333  -0.0833333), wk =   0.0555556
        k(   51) = (   0.6666667  -0.3333333   0.8333333), wk =   0.0555556
        k(   52) = (   0.5833333  -0.2500000   0.7500000), wk =   0.0555556
        k(   53) = (   0.5000000  -0.1666667   0.6666667), wk =   0.0555556
        k(   54) = (   0.4166667  -0.0833333   0.5833333), wk =   0.0555556
        k(   55) = (   0.3333333   0.0000000   0.5000000), wk =   0.0277778
        k(   56) = (  -0.1666667   0.6666667  -0.0000000), wk =   0.0277778
        k(   57) = (   0.7500000  -0.2500000   0.9166667), wk =   0.0555556
        k(   58) = (   0.6666667  -0.1666667   0.8333333), wk =   0.0555556
        k(   59) = (   0.5833333  -0.0833333   0.7500000), wk =   0.0555556
        k(   60) = (   0.5000000   0.0000000   0.6666667), wk =   0.0277778
        k(   61) = (   0.8333333  -0.1666667   1.0000000), wk =   0.0277778
        k(   62) = (   0.7500000  -0.0833333   0.9166667), wk =   0.0555556
        k(   63) = (   0.6666667   0.0000000   0.8333333), wk =   0.0277778
        k(   64) = (  -0.1666667  -1.0000000  -0.0000000), wk =   0.0138889
        k(   65) = (   0.6666667  -0.3333333   1.0000000), wk =   0.0277778
        k(   66) = (   0.5833333  -0.2500000   0.9166667), wk =   0.0555556
        k(   67) = (   0.5000000  -0.1666667   0.8333333), wk =   0.0277778
        k(   68) = (   0.6666667  -0.1666667   1.0000000), wk =   0.0277778
        k(   69) = (   0.5833333  -0.0833333   0.9166667), wk =   0.0555556
        k(   70) = (   0.5000000   0.0000000   0.8333333), wk =   0.0277778
        k(   71) = (  -0.3333333  -1.0000000   0.0000000), wk =   0.0138889
        k(   72) = (  -0.5000000  -1.0000000   0.0000000), wk =   0.0069444

     Dense  grid:    24597 G-vectors     FFT dimensions: (  45,  45,  45)

     Estimated max dynamical RAM per process >       7.90 MB

     Estimated total dynamical RAM >     126.34 MB

     Initial potential from superposition of free atoms

     starting charge      17.8730, renormalised to      18.0000
     Starting wfcs are random

     total cpu time spent up to now is        0.6 secs

     Self-consistent Calculation

     iteration #  1     ecut=    65.00 Ry     beta= 0.70
     Davidson diagonalization with overlap
     c_bands:  1 eigenvalues not converged
     c_bands:  1 eigenvalues not converged
     c_bands:  1 eigenvalues not converged
     c_bands:  1 eigenvalues not converged
     c_bands:  1 eigenvalues not converged
     c_bands:  1 eigenvalues not converged
     c_bands:  1 eigenvalues not converged
     c_bands:  1 eigenvalues not converged
     c_bands:  1 eigenvalues not converged
     c_bands:  1 eigenvalues not converged
     c_bands:  1 eigenvalues not converged
     c_bands:  1 eigenvalues not converged
     c_bands:  1 eigenvalues not converged
     c_bands:  1 eigenvalues not converged
     c_bands:  1 eigenvalues not converged
     c_bands:  1 eigenvalues not converged
     c_bands:  1 eigenvalues not converged
     c_bands:  2 eigenvalues not converged
     c_bands:  1 eigenvalues not converged
     c_bands:  1 eigenvalues not converged
     c_bands:  2 eigenvalues not converged
     c_bands:  2 eigenvalues not converged
     c_bands:  1 eigenvalues not converged
     c_bands:  1 eigenvalues not converged
     c_bands:  1 eigenvalues not converged
     c_bands:  1 eigenvalues not converged
     c_bands:  1 eigenvalues not converged
     c_bands:  1 eigenvalues not converged
     c_bands:  1 eigenvalues not converged
     c_bands:  1 eigenvalues not converged
     c_bands:  1 eigenvalues not converged
     c_bands:  1 eigenvalues not converged
     c_bands:  1 eigenvalues not converged
     c_bands:  1 eigenvalues not converged
     c_bands:  1 eigenvalues not converged
     c_bands:  2 eigenvalues not converged
     c_bands:  1 eigenvalues not converged
     c_bands:  2 eigenvalues not converged
     c_bands:  1 eigenvalues not converged
     c_bands:  2 eigenvalues not converged
     c_bands:  1 eigenvalues not converged
     c_bands:  1 eigenvalues not converged
     c_bands:  1 eigenvalues not converged
     c_bands:  1 eigenvalues not converged
     c_bands:  1 eigenvalues not converged
     ethr =  5.00E-06,  avg # of iterations = 19.4

     total cpu time spent up to now is        4.1 secs

     total energy              =    -117.77062406 Ry
     estimated scf accuracy    <       0.12376155 Ry

     iteration #  2     ecut=    65.00 Ry     beta= 0.70
     Davidson diagonalization with overlap
     ethr =  6.88E-04,  avg # of iterations =  3.3

     total cpu time spent up to now is        4.9 secs

     total energy              =    -117.80595202 Ry
     estimated scf accuracy    <       0.04450975 Ry

     iteration #  3     ecut=    65.00 Ry     beta= 0.70
     Davidson diagonalization with overlap
     ethr =  2.47E-04,  avg # of iterations =  2.1

     total cpu time spent up to now is        5.6 secs

     total energy              =    -117.81488389 Ry
     estimated scf accuracy    <       0.00054956 Ry

     iteration #  4     ecut=    65.00 Ry     beta= 0.70
     Davidson diagonalization with overlap
     ethr =  3.05E-06,  avg # of iterations =  5.9

     total cpu time spent up to now is        6.5 secs

     total energy              =    -117.81493581 Ry
     estimated scf accuracy    <       0.00002083 Ry

     iteration #  5     ecut=    65.00 Ry     beta= 0.70
     Davidson diagonalization with overlap
     ethr =  1.16E-07,  avg # of iterations =  4.8

     total cpu time spent up to now is        7.7 secs

     total energy              =    -117.81493976 Ry
     estimated scf accuracy    <       0.00000078 Ry

     iteration #  6     ecut=    65.00 Ry     beta= 0.70
     Davidson diagonalization with overlap
     ethr =  4.32E-09,  avg # of iterations =  6.3

     total cpu time spent up to now is        9.1 secs

     total energy              =    -117.81494002 Ry
     estimated scf accuracy    <       0.00000003 Ry

     iteration #  7     ecut=    65.00 Ry     beta= 0.70
     Davidson diagonalization with overlap
     ethr =  1.51E-10,  avg # of iterations =  6.5

     total cpu time spent up to now is       10.3 secs

     total energy              =    -117.81494003 Ry
     estimated scf accuracy    <          1.2E-09 Ry

     iteration #  8     ecut=    65.00 Ry     beta= 0.70
     Davidson diagonalization with overlap
     ethr =  6.85E-12,  avg # of iterations =  5.9

     total cpu time spent up to now is       11.3 secs

     End of self-consistent calculation

          k = 0.0000 0.0000 0.0000 (  3119 PWs)   bands (ev):

    -6.8775  -6.8775  -6.8775  -6.7354  -6.7354  -4.0438   7.3245   7.3245
     7.3245   7.9178  11.4277  11.4277  11.4277  15.8073  16.7254  16.7254
    18.5216  18.5216

          k =-0.0833 0.0833-0.0833 (  3083 PWs)   bands (ev):

    -6.8852  -6.8743  -6.8743  -6.7353  -6.7353  -3.9668   6.3974   7.2400
     7.2400   8.6046  11.4538  11.5574  11.5574  16.2179  16.3648  16.3648
    18.1775  19.1378

          k =-0.1667 0.1667-0.1667 (  3077 PWs)   bands (ev):

    -6.9056  -6.8661  -6.8661  -6.7349  -6.7349  -3.7427   5.1520   7.0323
     7.0323   9.0526  11.7995  11.8551  11.8551  15.9296  15.9296  16.7569
    18.1762  20.3777

          k =-0.2500 0.2500-0.2500 (  3065 PWs)   bands (ev):

    -6.9326  -6.8560  -6.8560  -6.7329  -6.7329  -3.3935   3.9254   6.7886
     6.7886   9.0614  12.1127  12.1127  12.6009  15.9008  15.9008  16.4465
    19.5749  21.8363

          k =-0.3333 0.3333-0.3333 (  3046 PWs)   bands (ev):

    -6.9585  -6.8477  -6.8477  -6.7290  -6.7290  -2.9680   2.8353   6.5769
     6.5769   8.9277  12.1936  12.1936  13.5446  16.1962  16.4053  16.4053
    20.9971  22.2657

          k =-0.4167 0.4167-0.4167 (  3070 PWs)   bands (ev):

    -6.9769  -6.8429  -6.8429  -6.7250  -6.7250  -2.5725   2.0273   6.4369
     6.4369   8.8151  12.1641  12.1641  14.2171  16.3913  17.2897  17.2897
    20.2266  20.7777

          k = 0.5000-0.5000 0.5000 (  3100 PWs)   bands (ev):

    -6.9837  -6.8415  -6.8415  -6.7232  -6.7232  -2.3975   1.7126   6.3883
     6.3883   8.7740  12.1400  12.1400  14.4055  16.7282  17.9472  17.9472
    19.5304  19.9057

          k = 0.0000 0.1667 0.0000 (  3087 PWs)   bands (ev):

    -6.8912  -6.8713  -6.8713  -6.7377  -6.7332  -3.9413   6.3563   7.0816
     7.0816   8.8689  11.1068  11.7664  11.7664  15.7795  16.3804  16.7924
    18.7512  18.7512

          k =-0.0833 0.2500-0.0833 (  3066 PWs)   bands (ev):

    -6.9084  -6.8645  -6.8630  -6.7398  -6.7310  -3.7664   5.4248   6.8292
     6.9040   9.3799  11.0165  12.1351  12.1405  15.2398  16.6002  17.0729
    18.4253  19.5161

          k =-0.1667 0.3333-0.1667 (  3063 PWs)   bands (ev):

    -6.9318  -6.8562  -6.8527  -6.7403  -6.7284  -3.4582   4.2737   6.5737
     6.6545   9.5223  11.3738  12.4586  12.5593  15.1697  16.4831  17.1167
    19.1980  20.8280

          k =-0.2500 0.4167-0.2500 (  3055 PWs)   bands (ev):

    -6.9561  -6.8482  -6.8439  -6.7378  -6.7250  -3.0543   3.1710   6.3698
     6.3770   9.4222  11.7713  12.5676  13.0937  15.6728  16.8099  16.8397
    20.6065  21.9764

          k =-0.3333 0.5000-0.3333 (  3063 PWs)   bands (ev):

    -6.9753  -6.8427  -6.8386  -6.7328  -6.7223  -2.6366   2.2745   6.1237
     6.2721   9.3008  11.8766  12.4952  13.8804  16.2442  17.0446  17.5835
    20.0953  20.6918

          k = 0.5833-0.4167 0.5833 (  3080 PWs)   bands (ev):

    -6.9849  -6.8401  -6.8370  -6.7276  -6.7225  -2.3685   1.7830   5.9584
     6.2720   9.2347  11.9100  12.3791  14.4503  16.6161  17.7884  17.9575
    19.1277  19.9914

          k = 0.5000-0.3333 0.5000 (  3074 PWs)   bands (ev):

    -6.9825  -6.8400  -6.8385  -6.7262  -6.7250  -2.4284   1.8889   5.8969
     6.3748   9.2443  11.9995  12.2971  14.3701  16.6812  17.0770  18.1774
    19.0495  20.9692

          k = 0.4167-0.2500 0.4167 (  3066 PWs)   bands (ev):

    -6.9685  -6.8434  -6.8425  -6.7319  -6.7256  -2.7701   2.5420   5.9509
     6.5650   9.3250  12.1337  12.2402  13.6738  16.0837  16.5672  17.5828
    20.0144  21.9769

          k = 0.3333-0.1667 0.3333 (  3068 PWs)   bands (ev):

    -6.9462  -6.8518  -6.8481  -6.7366  -6.7283  -3.1965   3.5229   6.1239
     6.8109   9.4376  12.1203  12.1221  12.8568  15.4540  16.4777  17.0852
    19.9955  21.7217

          k = 0.2500-0.0833 0.2500 (  3059 PWs)   bands (ev):

    -6.9207  -6.8621  -6.8567  -6.7382  -6.7310  -3.5745   4.6424   6.4142
     7.0589   9.4477  11.6391  11.8699  12.4682  15.3572  16.1697  17.2857
    18.6862  20.2227

          k = 0.1667-0.0000 0.1667 (  3058 PWs)   bands (ev):

    -6.8983  -6.8707  -6.8665  -6.7373  -6.7332  -3.8409   5.7042   6.8232
     7.2288   9.1025  11.3637  11.6144  12.0503  15.7329  16.2756  16.7978
    18.4158  19.0433

          k = 0.0000 0.3333 0.0000 (  3058 PWs)   bands (ev):

    -6.9261  -6.8543  -6.8543  -6.7450  -6.7273  -3.6434   5.1659   6.5419
     6.5419   9.8882  10.4772  12.5958  12.5958  14.5955  16.9886  17.7135
    19.4338  19.4338

          k =-0.0833 0.4167-0.0833 (  3068 PWs)   bands (ev):

    -6.9476  -6.8447  -6.8431  -6.7488  -6.7237  -3.3845   4.3710   6.2412
     6.2655  10.0975  10.4987  12.9122  13.0390  14.5728  17.0186  18.2836
    19.4400  20.2968

          k =-0.1667 0.5000-0.1667 (  3060 PWs)   bands (ev):

    -6.9678  -6.8380  -6.8332  -6.7492  -6.7204  -3.0180   3.4172   5.8721
     6.0621  10.0161  11.0497  12.8637  13.2537  15.3662  17.2701  18.0469
    20.4472  21.5665

          k =-0.2500 0.5833-0.2500 (  3062 PWs)   bands (ev):

    -6.9833  -6.8345  -6.8270  -6.7455  -6.7186  -2.6071   2.5432   5.5069
     5.9644   9.9191  11.5511  13.1180  13.2028  16.2730  17.8710  17.9331
    20.0250  20.7368

          k = 0.6667-0.3333 0.6667 (  3065 PWs)   bands (ev):

    -6.9914  -6.8338  -6.8249  -6.7390  -6.7201  -2.2825   1.9551   5.2216
     5.9851   9.8742  11.7151  13.0314  13.9016  16.5840  17.9962  18.2545
    19.1340  20.1938

          k = 0.5833-0.2500 0.5833 (  3075 PWs)   bands (ev):

    -6.9903  -6.8347  -6.8266  -6.7327  -6.7255  -2.2294   1.8690   5.0587
     6.1199   9.9007  11.8093  12.8537  14.3441  16.6671  16.9941  18.0600
    19.6166  21.2134

          k = 0.5000-0.1667 0.5000 (  3069 PWs)   bands (ev):

    -6.9802  -6.8368  -6.8320  -6.7327  -6.7287  -2.4874   2.3224   5.0497
     6.3485   9.9843  11.9729  12.6865  13.6616  15.9440  17.3225  18.4393
    19.1346  22.0045

          k = 0.4167-0.0833 0.4167 (  3070 PWs)   bands (ev):

    -6.9630  -6.8414  -6.8407  -6.7382  -6.7275  -2.8884   3.1039   5.2355
     6.6305  10.0605  12.1347  12.4617  12.7439  15.2522  17.5584  18.2006
    19.4140  20.9037

          k = 0.3333 0.0000 0.3333 (  3064 PWs)   bands (ev):

    -6.9418  -6.8527  -6.8473  -6.7399  -6.7285  -3.2774   3.9476   5.6866
     6.8985   9.9388  11.7771  12.1383  12.5942  15.0773  16.7368  18.1946
    18.8115  21.0484

          k = 0.0000 0.5000 0.0000 (  3066 PWs)   bands (ev):

    -6.9695  -6.8307  -6.8307  -6.7562  -6.7193  -3.1782   4.0025   5.9660
     5.9660   9.8352  10.4050  13.6660  13.6660  14.2312  17.2947  19.3014
    20.5373  20.5373

          k =-0.0833 0.5833-0.0833 (  3075 PWs)   bands (ev):

    -6.9889  -6.8211  -6.8194  -6.7603  -6.7156  -2.8612   3.3384   5.6116
     5.7422   9.7990  10.4705  13.5953  14.0911  15.1373  17.5330  19.5290
    20.8344  21.4349

          k =-0.1667 0.6667-0.1667 (  3071 PWs)   bands (ev):

    -7.0014  -6.8181  -6.8120  -6.7592  -6.7139  -2.4828   2.6359   5.1342
     5.6306   9.8551  10.9478  13.3918  14.1519  16.2888  18.0342  19.2383
    20.2759  20.7929

          k = 0.7500-0.2500 0.7500 (  3083 PWs)   bands (ev):

    -7.0058  -6.8204  -6.8093  -6.7535  -6.7160  -2.1457   2.0896   4.6950
     5.6460   9.8803  11.6692  13.4846  13.9669  16.6822  18.0715  19.2022
    19.5494  20.3261

          k = 0.6667-0.1667 0.6667 (  3084 PWs)   bands (ev):

    -7.0025  -6.8250  -6.8111  -6.7453  -6.7222  -2.0121   1.8979   4.4044
     5.7857   9.9802  12.1039  13.6973  14.0155  15.9799  17.0707  19.2549
    20.1902  21.3188

          k = 0.5833-0.0833 0.5833 (  3081 PWs)   bands (ev):

    -6.9929  -6.8301  -6.8176  -6.7371  -6.7302  -2.1717   2.1389   4.3382
     6.0297  10.1527  12.2746  13.3774  13.7683  16.0541  16.2789  19.3835
    20.4011  21.6240

          k = 0.5000 0.0000 0.5000 (  3082 PWs)   bands (ev):

    -6.9791  -6.8351  -6.8285  -6.7363  -6.7307  -2.5156   2.6244   4.5919
     6.3356  10.2830  12.3729  12.8674  12.9525  15.4170  17.6185  19.1078
    19.4708  20.5307

          k = 0.0000 0.6667 0.0000 (  3090 PWs)   bands (ev):

    -7.0092  -6.8066  -6.8066  -6.7684  -6.7113  -2.6010   2.9183   5.4927
     5.4927   9.4123  10.1614  14.8517  14.8517  14.9001  17.6654  20.5738
    21.3814  21.3814

          k =-0.0833 0.7500-0.0833 (  3070 PWs)   bands (ev):

    -7.0218  -6.8003  -6.7979  -6.7707  -6.7090  -2.2792   2.4078   5.1478
     5.3554   9.4671  10.1486  14.6234  15.1969  16.1808  18.0177  19.9718
    20.5399  21.2067

          k = 0.8333-0.1667 0.8333 (  3082 PWs)   bands (ev):

    -7.0246  -6.8032  -6.7947  -6.7668  -6.7106  -1.9796   2.0042   4.6323
     5.3493   9.5916  10.7487  14.4459  15.0598  16.7603  18.1678  19.2440
    20.0912  21.1191

          k = 0.7500-0.0833 0.7500 (  3076 PWs)   bands (ev):

    -7.0183  -6.8113  -6.7969  -6.7587  -6.7165  -1.8293   1.8432   4.1980
     5.4749   9.7240  11.6850  14.4468  14.6669  15.8437  17.3364  19.8886
    20.9777  21.1471

          k = 0.6667-0.0000 0.6667 (  3100 PWs)   bands (ev):

    -7.0065  -6.8212  -6.8049  -6.7481  -6.7242  -1.9124   1.9431   4.0477
     5.7149   9.9419  12.3673  14.0951  14.3693  15.2109  16.5098  20.4420
    21.2667  21.4691

          k = 0.0000 0.8333 0.0000 (  3070 PWs)   bands (ev):

    -7.0362  -6.7885  -6.7885  -6.7778  -6.7054  -2.0371   2.0429   5.1880
     5.1880   9.1887   9.7671  15.9032  16.0523  16.0523  18.0017  19.9397
    19.9397  20.9301

          k = 0.9167-0.0833 0.9167 (  3067 PWs)   bands (ev):

    -7.0399  -6.7889  -6.7851  -6.7763  -6.7054  -1.8315   1.7802   4.9056
     5.1520   9.3109   9.8805  15.7102  16.1551  16.8049  18.2166  19.1781
    19.4774  21.2171

          k = 0.8333 0.0000 0.8333 (  3078 PWs)   bands (ev):

    -7.0328  -6.7977  -6.7879  -6.7695  -6.7098  -1.7519   1.7353   4.4570
     5.2521   9.4902  10.6580  15.3169  15.5691  16.2588  17.8115  19.4846
    20.1343  21.8273

          k = 0.0000-1.0000 0.0000 (  3026 PWs)   bands (ev):

    -7.0457  -6.7817  -6.7817  -6.7812  -6.7032  -1.7697   1.6698   5.0832
     5.0832   9.1324   9.5938  16.4237  16.7770  16.7770  18.1461  19.0891
    19.0891  20.6242

          k =-0.1667 0.3333 0.0000 (  3064 PWs)   bands (ev):

    -6.9282  -6.8566  -6.8527  -6.7428  -6.7280  -3.5492   4.7221   6.2641
     6.8149   9.8349  10.8977  12.4141  12.5962  14.9044  16.6166  17.8043
    18.7552  19.9171

          k =-0.2500 0.4167-0.0833 (  3056 PWs)   bands (ev):

    -6.9502  -6.8477  -6.8430  -6.7436  -6.7251  -3.2110   3.7829   5.8102
     6.6109   9.9995  11.2551  12.6307  12.8197  15.0972  16.9077  17.9035
    19.4965  21.2646

          k =-0.3333 0.5000-0.1667 (  3067 PWs)   bands (ev):

    -6.9703  -6.8412  -6.8351  -6.7408  -6.7229  -2.8000   2.8347   5.5304
     6.3624   9.9275  11.6670  12.6974  13.2053  15.6973  17.3803  17.8936
    19.8466  21.6283

          k = 0.5833-0.4167 0.7500 (  3068 PWs)   bands (ev):

    -6.9844  -6.8380  -6.8301  -6.7354  -6.7226  -2.4203   2.0987   5.3845
     6.1695   9.8424  11.7071  12.7556  13.9477  16.3627  17.4662  18.3168
    19.0363  20.9269

          k = 0.5000-0.3333 0.6667 (  3084 PWs)   bands (ev):

    -6.9895  -6.8371  -6.8285  -6.7319  -6.7235  -2.2534   1.8084   5.3405
     6.0971   9.8095  11.6815  12.7520  14.4539  16.5309  17.5368  18.2213
    18.9621  20.7731

          k =-0.1667 0.5000 0.0000 (  3072 PWs)   bands (ev):

    -6.9680  -6.8350  -6.8317  -6.7528  -6.7201  -3.0956   3.7328   5.6863
     6.1484  10.2528  10.5246  12.9247  13.5795  14.8998  17.2976  18.9875
    19.6091  21.2673

          k =-0.2500 0.5833-0.0833 (  3066 PWs)   bands (ev):

    -6.9845  -6.8301  -6.8218  -6.7528  -6.7180  -2.7201   2.9782   5.2401
     5.9319  10.2859  11.0128  12.7024  13.9339  15.6085  17.9440  18.8437
    19.9056  21.2667

          k = 0.6667-0.3333 0.8333 (  3068 PWs)   bands (ev):

    -6.9949  -6.8293  -6.8157  -6.7487  -6.7185  -2.3382   2.2949   4.9171
     5.7665  10.2548  11.5569  12.7999  14.0207  16.2726  18.4613  18.5210
    19.2793  20.9374

          k = 0.5833-0.2500 0.7500 (  3081 PWs)   bands (ev):

    -6.9982  -6.8307  -6.8139  -6.7426  -6.7219  -2.1004   1.9105   4.7044
     5.7465  10.2812  11.6832  13.1940  14.2795  15.9762  17.9944  18.7011
    19.2816  21.1667

          k = 0.5000-0.1667 0.6667 (  3078 PWs)   bands (ev):

    -6.9942  -6.8328  -6.8164  -6.7394  -6.7253  -2.1585   2.0063   4.6261
     5.8784  10.3678  11.7183  13.0916  14.2816  15.8756  17.2836  18.7533
    19.8645  21.5418

          k = 0.4167-0.0833 0.5833 (  3071 PWs)   bands (ev):

    -6.9839  -6.8353  -6.8230  -6.7421  -6.7247  -2.4693   2.5158   4.7374
     6.1218  10.4656  11.7788  12.5426  13.7804  15.6340  17.8210  18.8846
    19.3266  21.2207

          k = 0.3333 0.0000 0.5000 (  3056 PWs)   bands (ev):

    -6.9686  -6.8397  -6.8329  -6.7445  -6.7238  -2.8610   3.1811   5.1199
     6.4041  10.4251  11.4623  12.4014  13.3107  15.2017  17.8527  18.7897
    19.1650  20.7067

          k =-0.1667 0.6667-0.0000 (  3064 PWs)   bands (ev):

    -7.0048  -6.8139  -6.8081  -6.7636  -6.7128  -2.5376   2.7972   5.2304
     5.5388   9.8728  10.4283  13.5817  14.8392  15.6578  17.9921  19.8135
    20.5558  21.2596

          k = 0.7500-0.2500 0.9167 (  3075 PWs)   bands (ev):

    -7.0126  -6.8139  -6.8011  -6.7616  -6.7133  -2.1892   2.2785   4.7915
     5.3726  10.0533  10.8778  13.3705  15.0569  16.2803  18.5967  18.9493
    20.2818  20.8263

          k = 0.6667-0.1667 0.8333 (  3087 PWs)   bands (ev):

    -7.0124  -6.8186  -6.7992  -6.7556  -6.7174  -1.9346   1.9415   4.3897
     5.3733  10.1437  11.6850  13.3124  14.8470  16.0121  18.1966  19.0635
    20.3221  21.0196

          k = 0.5833-0.0833 0.7500 (  3085 PWs)   bands (ev):

    -7.0059  -6.8248  -6.8024  -6.7480  -6.7236  -1.9120   1.9239   4.1703
     5.5318  10.3057  12.1707  13.3100  14.7323  15.3131  17.1811  19.8950
    20.5708  21.6564

          k = 0.5000 0.0000 0.6667 (  3083 PWs)   bands (ev):

    -6.9959  -6.8305  -6.8107  -6.7429  -6.7270  -2.1327   2.1827   4.2576
     5.8050  10.5015  12.2416  12.6449  14.5080  15.5220  16.8143  19.9865
    20.4399  21.0999

          k = 0.8333-0.1667 1.0000 (  3076 PWs)   bands (ev):

    -7.0300  -6.7976  -6.7910  -6.7714  -6.7082  -2.0014   2.0309   4.9625
     5.1122   9.6333  10.1210  14.6310  15.9826  16.3863  18.4571  19.1661
    19.9659  21.5286

          k = 0.7500-0.0833 0.9167 (  3087 PWs)   bands (ev):

    -7.0281  -6.8035  -6.7894  -6.7663  -6.7115  -1.7987   1.8147   4.5340
     5.0802   9.8727  10.7243  14.4232  15.3920  16.6366  18.3404  19.0896
    19.9197  21.9340

          k = 0.6667 0.0000 0.8333 (  3077 PWs)   bands (ev):

    -7.0186  -6.8140  -6.7928  -6.7582  -6.7177  -1.7661   1.8146   4.1726
     5.2445  10.0625  11.6951  14.1005  14.5304  16.1154  17.5546  19.8607
    20.5953  21.7268

          k =-0.1667-1.0000-0.0000 (  3062 PWs)   bands (ev):

    -7.0389  -6.7911  -6.7861  -6.7730  -6.7066  -1.7524   1.7034   4.9147
     4.9208   9.5614   9.9818  15.6205  15.7552  17.0915  18.3680  19.0849
    19.2029  21.5345

          k = 0.6667-0.3333 1.0000 (  3071 PWs)   bands (ev):

    -6.9966  -6.8274  -6.8105  -6.7529  -6.7186  -2.3649   2.5039   4.7092
     5.6707  10.8321  11.0976  12.4070  14.7577  15.6330  18.3338  19.0043
    19.9915  20.9965

          k = 0.5833-0.2500 0.9167 (  3077 PWs)   bands (ev):

    -7.0033  -6.8275  -6.8031  -6.7500  -6.7213  -2.0469   2.0837   4.4138
     5.4210  10.9142  11.5678  12.5278  15.0097  15.6028  17.7757  19.4640
    20.2085  21.1672

          k = 0.5000-0.1667 0.8333 (  3074 PWs)   bands (ev):

    -7.0054  -6.8278  -6.8005  -6.7480  -6.7230  -1.9115   1.9055   4.3256
     5.3215  10.9246  11.6143  12.9926  14.7451  15.4392  18.3615  18.8141
    20.1527  21.7087

          k = 0.6667-0.1667 1.0000 (  3088 PWs)   bands (ev):

    -7.0164  -6.8162  -6.7936  -6.7595  -6.7159  -1.9138   1.9866   4.5276
     5.0228  10.7100  10.9674  13.1211  15.3028  16.2514  18.3036  19.3992
    19.9970  21.4091

          k = 0.5833-0.0833 0.9167 (  3079 PWs)   bands (ev):

    -7.0144  -6.8210  -6.7913  -6.7551  -6.7201  -1.7652   1.8495   4.3001
     4.9059  10.9292  11.6948  13.0159  14.2567  16.5977  18.5298  18.9493
    20.2051  21.6008

          k = 0.5000 0.0000 0.8333 (  3081 PWs)   bands (ev):

    -7.0095  -6.8253  -6.7943  -6.7514  -6.7227  -1.8213   1.9079   4.2063
     5.0831  11.0766  11.9514  12.6456  14.3264  16.2011  17.7802  19.8827
    20.2430  21.4588

          k =-0.3333-1.0000 0.0000 (  3076 PWs)   bands (ev):

    -7.0235  -6.8113  -6.7882  -6.7615  -6.7152  -1.7172   1.7763   4.6090
     4.6418  10.6234  10.9090  14.0707  14.3694  17.2816  18.5018  19.2253
    19.2972  22.1077

          k =-0.5000-1.0000 0.0000 (  3052 PWs)   bands (ev):

    -7.0146  -6.8225  -6.7887  -6.7543  -6.7213  -1.6993   1.8163   4.4664
     4.5183  11.6230  11.6253  12.8541  13.5459  17.3458  18.5362  19.2987
    19.3325  21.7999

     the Fermi energy is     7.6100 ev

!    total energy              =    -117.81494003 Ry
     estimated scf accuracy    <          7.1E-11 Ry
     smearing contrib. (-TS)   =      -0.00000000 Ry
     internal energy E=F+TS    =    -117.81494003 Ry

     The total energy is F=E-TS. E is the sum of the following terms:
     one-electron contribution =     -41.94092658 Ry
     hartree contribution      =      30.56590566 Ry
     xc contribution           =     -17.37224747 Ry
     ewald contribution        =     -89.06767165 Ry

     convergence has been achieved in   8 iterations

     Writing all to output data dir out/mp-20351.save/
 
     init_run     :      0.36s CPU      0.41s WALL (       1 calls)
     electrons    :      9.45s CPU     11.06s WALL (       1 calls)

     Called by init_run:
     wfcinit      :      0.31s CPU      0.33s WALL (       1 calls)
     potinit      :      0.02s CPU      0.02s WALL (       1 calls)
     hinit0       :      0.01s CPU      0.04s WALL (       1 calls)

     Called by electrons:
     c_bands      :      8.70s CPU      9.99s WALL (       8 calls)
     sum_band     :      0.73s CPU      0.76s WALL (       8 calls)
     v_of_rho     :      0.03s CPU      0.03s WALL (       9 calls)
     mix_rho      :      0.00s CPU      0.00s WALL (       8 calls)

     Called by c_bands:
     init_us_2    :      0.04s CPU      0.04s WALL (    1224 calls)
     init_us_2:cp :      0.04s CPU      0.04s WALL (    1224 calls)
     cegterg      :      8.54s CPU      8.83s WALL (     576 calls)

     Called by *egterg:
     cdiaghg      :      1.31s CPU      1.35s WALL (    4481 calls)
     h_psi        :      7.05s CPU      7.29s WALL (    4553 calls)
     g_psi        :      0.02s CPU      0.02s WALL (    3905 calls)

     Called by h_psi:
     h_psi:calbec :      0.11s CPU      0.12s WALL (    4553 calls)
     vloc_psi     :      6.86s CPU      7.08s WALL (    4553 calls)
     add_vuspsi   :      0.05s CPU      0.06s WALL (    4553 calls)

     General routines
     calbec       :      0.10s CPU      0.11s WALL (    4553 calls)
     fft          :      0.01s CPU      0.04s WALL (      89 calls)
     ffts         :      0.00s CPU      0.00s WALL (       8 calls)
     fftw         :      7.16s CPU      7.39s WALL (  105880 calls)
 
     Parallel routines
 
     PWSCF        :      9.97s CPU     12.26s WALL

 
   This run was terminated on:  15:10:49   8Apr2024            

=------------------------------------------------------------------------------=
   JOB DONE.
=------------------------------------------------------------------------------=
