 vasp.5.4.4.18Apr17-6-g9f103f2a35 (build Aug 24 2017 11:22:49) complex          
  
 executed on             LinuxIFC date 2023.12.25  13:07:13
 running on    8 total cores
 distrk:  each k-point on    8 cores,    1 groups
 distr:  one band on NCORES_PER_BAND=   1 cores,    8 groups


--------------------------------------------------------------------------------------------------------


 INCAR:
 POTCAR:    PAW_PBE Ga_d 06Jul2010                
 POTCAR:    PAW_PBE N 08Apr2002                   

 ----------------------------------------------------------------------------- 
|                                                                             |
|           W    W    AA    RRRRR   N    N  II  N    N   GGGG   !!!           |
|           W    W   A  A   R    R  NN   N  II  NN   N  G    G  !!!           |
|           W    W  A    A  R    R  N N  N  II  N N  N  G       !!!           |
|           W WW W  AAAAAA  RRRRR   N  N N  II  N  N N  G  GGG   !            |
|           WW  WW  A    A  R   R   N   NN  II  N   NN  G    G                |
|           W    W  A    A  R    R  N    N  II  N    N   GGGG   !!!           |
|                                                                             |
|      For optimal performance we recommend to set                            |
|        NCORE= 4 - approx SQRT( number of cores)                             |
|      NCORE specifies how many cores store one orbital (NPAR=cpu/NCORE).     |
|      This setting can  greatly improve the performance of VASP for DFT.     |
|      The default,   NCORE=1            might be grossly inefficient         |
|      on modern multi-core architectures or massively parallel machines.     |
|      Do your own testing !!!!                                               |
|      Unfortunately you need to use the default for GW and RPA calculations. |
|      (for HF NCORE is supported but not extensively tested yet)             |
|                                                                             |
 ----------------------------------------------------------------------------- 

 POTCAR:    PAW_PBE Ga_d 06Jul2010                
   VRHFIN =Ga: s2p1                                                             
   LEXCH  = PE                                                                  
   EATOM  =  2148.8298 eV,  157.9345 Ry                                         
                                                                                
   TITEL  = PAW_PBE Ga_d 06Jul2010                                              
   LULTRA =        F    use ultrasoft PP ?                                      
   IUNSCR =        1    unscreen: 0-lin 1-nonlin 2-no                           
   RPACOR =    1.700    partial core radius                                     
   POMASS =   69.723; ZVAL   =   13.000    mass and valenz                      
   RCORE  =    2.300    outmost cutoff radius                                   
   RWIGS  =    2.300; RWIGS  =    1.217    wigner-seitz radius (au A)           
   ENMAX  =  282.691; ENMIN  =  212.018 eV                                      
   ICORE  =        3    local potential                                         
   LCOR   =        T    correct aug charges                                     
   LPAW   =        T    paw PP                                                  
   EAUG   =  490.690                                                            
   DEXC   =    0.000                                                            
   RMAX   =    2.341    core radius for proj-oper                               
   RAUG   =    1.300    factor for augmentation sphere                          
   RDEP   =    2.413    radius for radial grids                                 
   RDEPT  =    1.856    core radius for aug-charge                              
                                                                                
   Atomic configuration                                                         
    9 entries                                                                   
     n  l   j            E        occ.                                          
     1  0  0.50    -10228.7831   2.0000                                         
     2  0  0.50     -1262.1604   2.0000                                         
     2  1  1.50     -1098.6333   6.0000                                         
     3  0  0.50      -148.1110   2.0000                                         
     3  1  1.50       -98.8436   6.0000                                         
     3  2  2.50       -19.1549  10.0000                                         
     4  0  0.50        -8.9483   2.0000                                         
     4  1  0.50        -2.5791   1.0000                                         
     4  3  2.50        -2.7416   0.0000                                         
   Description                                                                  
     l       E           TYP  RCUT    TYP  RCUT                                 
     2    -19.1549037     23  2.300                                             
     2     -5.4423304     23  2.300                                             
     0     -8.9483111     23  2.300                                             
     0     68.0291300     23  2.300                                             
     1     -2.5790802     23  2.100                                             
     1     81.6349560     23  2.300                                             
     3      6.8029130     23  2.300                                             
  local pseudopotential read in
  partial core-charges read in
  partial kinetic energy density read in
  atomic valenz-charges read in
  non local Contribution for L=           2  read in
    real space projection operators read in
  non local Contribution for L=           2  read in
    real space projection operators read in
  non local Contribution for L=           0  read in
    real space projection operators read in
  non local Contribution for L=           0  read in
    real space projection operators read in
  non local Contribution for L=           1  read in
    real space projection operators read in
  non local Contribution for L=           1  read in
    real space projection operators read in
    PAW grid and wavefunctions read in
 
   number of l-projection  operators is LMAX  =           6
   number of lm-projection operators is LMMAX =          18
 
 POTCAR:    PAW_PBE N 08Apr2002                   
   VRHFIN =N: s2p3                                                              
   LEXCH  = PE                                                                  
   EATOM  =   264.5486 eV,   19.4438 Ry                                         
                                                                                
   TITEL  = PAW_PBE N 08Apr2002                                                 
   LULTRA =        F    use ultrasoft PP ?                                      
   IUNSCR =        1    unscreen: 0-lin 1-nonlin 2-no                           
   RPACOR =    1.200    partial core radius                                     
   POMASS =   14.001; ZVAL   =    5.000    mass and valenz                      
   RCORE  =    1.500    outmost cutoff radius                                   
   RWIGS  =    1.400; RWIGS  =    0.741    wigner-seitz radius (au A)           
   ENMAX  =  400.000; ENMIN  =  300.000 eV                                      
   ICORE  =        2    local potential                                         
   LCOR   =        T    correct aug charges                                     
   LPAW   =        T    paw PP                                                  
   EAUG   =  627.112                                                            
   DEXC   =    0.000                                                            
   RMAX   =    1.529    core radius for proj-oper                               
   RAUG   =    1.300    factor for augmentation sphere                          
   RDEP   =    1.514    radius for radial grids                                 
   RDEPT  =    1.338    core radius for aug-charge                              
                                                                                
   Atomic configuration                                                         
    4 entries                                                                   
     n  l   j            E        occ.                                          
     1  0  0.50      -384.7179   2.0000                                         
     2  0  0.50       -18.5828   2.0000                                         
     2  1  0.50        -7.0898   3.0000                                         
     3  2  1.50        -6.8029   0.0000                                         
   Description                                                                  
     l       E           TYP  RCUT    TYP  RCUT                                 
     0    -18.5828119     23  1.200                                             
     0    -13.5018863     23  1.200                                             
     1     -7.0897853     23  1.500                                             
     1      9.5240782     23  1.500                                             
     2     -6.8029130      7  1.500                                             
  local pseudopotential read in
  partial core-charges read in
  partial kinetic energy density read in
  atomic valenz-charges read in
  non local Contribution for L=           0  read in
    real space projection operators read in
  non local Contribution for L=           0  read in
    real space projection operators read in
  non local Contribution for L=           1  read in
    real space projection operators read in
  non local Contribution for L=           1  read in
    real space projection operators read in
    PAW grid and wavefunctions read in
 
   number of l-projection  operators is LMAX  =           4
   number of lm-projection operators is LMMAX =           8
 
  PAW_PBE Ga_d 06Jul2010                :
 energy of atom  1       EATOM=-2148.8298
 kinetic energy error for atom=    0.0026 (will be added to EATOM!!)
  PAW_PBE N 08Apr2002                   :
 energy of atom  2       EATOM= -264.5486
 kinetic energy error for atom=    0.0125 (will be added to EATOM!!)
 
 
 POSCAR: Ga2 N2                                  
  positions in direct lattice
  No initial velocities read in
 exchange correlation table for  LEXCH =        8
   RHO(1)=    0.500       N(1)  =     2000
   RHO(2)=  100.500       N(2)  =     4000
 


--------------------------------------------------------------------------------------------------------


 ion  position               nearest neighbor table
   1  0.333  0.667  0.499-   4 1.95   4 1.95   4 1.95   3 1.96
   2  0.667  0.333  0.999-   3 1.95   3 1.95   3 1.95   4 1.96
   3  0.333  0.667  0.876-   2 1.95   2 1.95   2 1.95   1 1.96
   4  0.667  0.333  0.376-   1 1.95   1 1.95   1 1.95   2 1.96
 
  LATTYP: Found a hexagonal cell.
 ALAT       =     3.1889301586
 C/A-ratio  =     1.6282441424
  
  Lattice vectors:
  
 A1 = (   3.1889301586,   0.0000000000,   0.0000000000)
 A2 = (  -1.5944650793,   2.7616945282,   0.0000000000)
 A3 = (   0.0000000000,   0.0000000000,   5.1923568512)


Analysis of symmetry for initial positions (statically):
=====================================================================
 Subroutine PRICEL returns:
 Original cell was already a primitive cell.
 

 Routine SETGRP: Setting up the symmetry group for a 
 hexagonal supercell.


 Subroutine GETGRP returns: Found  2 space group operations
 (whereof  1 operations were pure point group operations)
 out of a pool of 24 trial point group operations.


The static configuration has the point symmetry C_1 .
 The point group associated with its full space group is C_1h.


Analysis of symmetry for dynamics (positions and initial velocities):
=====================================================================
 Subroutine PRICEL returns:
 Original cell was already a primitive cell.
 

 Routine SETGRP: Setting up the symmetry group for a 
 hexagonal supercell.


 Subroutine GETGRP returns: Found  2 space group operations
 (whereof  1 operations were pure point group operations)
 out of a pool of 24 trial point group operations.


The dynamic configuration has the point symmetry C_1 .
 The point group associated with its full space group is C_1h.


 Subroutine INISYM returns: Found  2 space group operations
 (whereof  1 operations are pure point group operations),
 and found     1 'primitive' translations

 
 
 KPOINTS: pymatgen with grid density = 3000 / numb

Automatic generation of k-mesh.
Space group operators:
 irot       det(A)        alpha          n_x          n_y          n_z        tau_x        tau_y        tau_z
    1     1.000000     0.000001     1.000000     0.000000     0.000000     0.000000     0.000000     0.000000
    2    -1.000000   180.000000     1.000000    -0.000000     0.000000     0.000000     0.000000     0.000000
 
 Subroutine IBZKPT returns following result:
 ===========================================
 
 Found    172 irreducible k-points:
 
 Following reciprocal coordinates:
            Coordinates               Weight
  0.000000  0.000000  0.000000      1.000000
  0.100000 -0.000000  0.000000      4.000000
  0.200000 -0.000000  0.000000      4.000000
  0.300000 -0.000000  0.000000      4.000000
  0.400000 -0.000000  0.000000      4.000000
  0.500000 -0.000000  0.000000      2.000000
  0.000000  0.100000  0.000000      2.000000
  0.100000  0.100000  0.000000      4.000000
  0.200000  0.100000  0.000000      4.000000
  0.300000  0.100000  0.000000      4.000000
  0.400000  0.100000  0.000000      4.000000
  0.500000  0.100000  0.000000      4.000000
 -0.400000  0.100000  0.000000      4.000000
 -0.300000  0.100000  0.000000      4.000000
 -0.200000  0.100000  0.000000      2.000000
  0.000000  0.200000  0.000000      2.000000
  0.100000  0.200000  0.000000      4.000000
  0.200000  0.200000  0.000000      4.000000
  0.300000  0.200000  0.000000      4.000000
  0.400000  0.200000  0.000000      4.000000
  0.500000  0.200000  0.000000      4.000000
 -0.400000  0.200000  0.000000      2.000000
  0.000000  0.300000  0.000000      2.000000
  0.100000  0.300000  0.000000      4.000000
  0.200000  0.300000  0.000000      4.000000
  0.300000  0.300000  0.000000      4.000000
  0.400000  0.300000  0.000000      2.000000
  0.000000  0.400000  0.000000      2.000000
  0.100000  0.400000  0.000000      4.000000
  0.200000  0.400000  0.000000      2.000000
  0.000000  0.500000  0.000000      1.000000
  0.000000  0.000000  0.166667      2.000000
  0.100000 -0.000000  0.166667      4.000000
  0.200000 -0.000000  0.166667      4.000000
  0.300000 -0.000000  0.166667      4.000000
  0.400000 -0.000000  0.166667      4.000000
  0.500000 -0.000000  0.166667      4.000000
 -0.400000  0.000000  0.166667      4.000000
 -0.300000  0.000000  0.166667      4.000000
 -0.200000  0.000000  0.166667      4.000000
 -0.100000  0.000000  0.166667      4.000000
  0.000000  0.100000  0.166667      2.000000
  0.100000  0.100000  0.166667      4.000000
  0.200000  0.100000  0.166667      4.000000
  0.300000  0.100000  0.166667      4.000000
  0.400000  0.100000  0.166667      4.000000
  0.500000  0.100000  0.166667      4.000000
 -0.400000  0.100000  0.166667      4.000000
 -0.300000  0.100000  0.166667      4.000000
 -0.200000  0.100000  0.166667      4.000000
  0.000000  0.200000  0.166667      2.000000
  0.100000  0.200000  0.166667      4.000000
  0.200000  0.200000  0.166667      4.000000
  0.300000  0.200000  0.166667      4.000000
  0.400000  0.200000  0.166667      4.000000
  0.500000  0.200000  0.166667      4.000000
 -0.400000  0.200000  0.166667      4.000000
 -0.300000  0.200000  0.166667      4.000000
  0.000000  0.300000  0.166667      2.000000
  0.100000  0.300000  0.166667      4.000000
  0.200000  0.300000  0.166667      4.000000
  0.300000  0.300000  0.166667      4.000000
  0.400000  0.300000  0.166667      4.000000
  0.500000  0.300000  0.166667      4.000000
 -0.400000  0.300000  0.166667      4.000000
  0.000000  0.400000  0.166667      2.000000
  0.100000  0.400000  0.166667      4.000000
  0.200000  0.400000  0.166667      4.000000
  0.300000  0.400000  0.166667      4.000000
  0.400000  0.400000  0.166667      4.000000
  0.500000  0.400000  0.166667      4.000000
  0.000000  0.500000  0.166667      2.000000
  0.100000  0.500000  0.166667      4.000000
  0.200000  0.500000  0.166667      4.000000
  0.300000  0.500000  0.166667      4.000000
  0.400000  0.500000  0.166667      4.000000
  0.000000 -0.400000  0.166667      2.000000
  0.100000 -0.400000  0.166667      4.000000
  0.200000 -0.400000  0.166667      4.000000
  0.300000 -0.400000  0.166667      4.000000
  0.000000 -0.300000  0.166667      2.000000
  0.100000 -0.300000  0.166667      4.000000
  0.200000 -0.300000  0.166667      4.000000
  0.000000 -0.200000  0.166667      2.000000
  0.100000 -0.200000  0.166667      4.000000
  0.000000 -0.100000  0.166667      2.000000
  0.000000  0.000000  0.333333      2.000000
  0.100000 -0.000000  0.333333      4.000000
  0.200000 -0.000000  0.333333      4.000000
  0.300000 -0.000000  0.333333      4.000000
  0.400000 -0.000000  0.333333      4.000000
  0.500000 -0.000000  0.333333      4.000000
 -0.400000  0.000000  0.333333      4.000000
 -0.300000  0.000000  0.333333      4.000000
 -0.200000  0.000000  0.333333      4.000000
 -0.100000  0.000000  0.333333      4.000000
  0.000000  0.100000  0.333333      2.000000
  0.100000  0.100000  0.333333      4.000000
  0.200000  0.100000  0.333333      4.000000
  0.300000  0.100000  0.333333      4.000000
  0.400000  0.100000  0.333333      4.000000
  0.500000  0.100000  0.333333      4.000000
 -0.400000  0.100000  0.333333      4.000000
 -0.300000  0.100000  0.333333      4.000000
 -0.200000  0.100000  0.333333      4.000000
  0.000000  0.200000  0.333333      2.000000
  0.100000  0.200000  0.333333      4.000000
  0.200000  0.200000  0.333333      4.000000
  0.300000  0.200000  0.333333      4.000000
  0.400000  0.200000  0.333333      4.000000
  0.500000  0.200000  0.333333      4.000000
 -0.400000  0.200000  0.333333      4.000000
 -0.300000  0.200000  0.333333      4.000000
  0.000000  0.300000  0.333333      2.000000
  0.100000  0.300000  0.333333      4.000000
  0.200000  0.300000  0.333333      4.000000
  0.300000  0.300000  0.333333      4.000000
  0.400000  0.300000  0.333333      4.000000
  0.500000  0.300000  0.333333      4.000000
 -0.400000  0.300000  0.333333      4.000000
  0.000000  0.400000  0.333333      2.000000
  0.100000  0.400000  0.333333      4.000000
  0.200000  0.400000  0.333333      4.000000
  0.300000  0.400000  0.333333      4.000000
  0.400000  0.400000  0.333333      4.000000
  0.500000  0.400000  0.333333      4.000000
  0.000000  0.500000  0.333333      2.000000
  0.100000  0.500000  0.333333      4.000000
  0.200000  0.500000  0.333333      4.000000
  0.300000  0.500000  0.333333      4.000000
  0.400000  0.500000  0.333333      4.000000
  0.000000 -0.400000  0.333333      2.000000
  0.100000 -0.400000  0.333333      4.000000
  0.200000 -0.400000  0.333333      4.000000
  0.300000 -0.400000  0.333333      4.000000
  0.000000 -0.300000  0.333333      2.000000
  0.100000 -0.300000  0.333333      4.000000
  0.200000 -0.300000  0.333333      4.000000
  0.000000 -0.200000  0.333333      2.000000
  0.100000 -0.200000  0.333333      4.000000
  0.000000 -0.100000  0.333333      2.000000
  0.000000  0.000000  0.500000      1.000000
  0.100000 -0.000000  0.500000      4.000000
  0.200000 -0.000000  0.500000      4.000000
  0.300000 -0.000000  0.500000      4.000000
  0.400000 -0.000000  0.500000      4.000000
  0.500000 -0.000000  0.500000      2.000000
  0.000000  0.100000  0.500000      2.000000
  0.100000  0.100000  0.500000      4.000000
  0.200000  0.100000  0.500000      4.000000
  0.300000  0.100000  0.500000      4.000000
  0.400000  0.100000  0.500000      4.000000
  0.500000  0.100000  0.500000      4.000000
 -0.400000  0.100000  0.500000      4.000000
 -0.300000  0.100000  0.500000      4.000000
 -0.200000  0.100000  0.500000      2.000000
  0.000000  0.200000  0.500000      2.000000
  0.100000  0.200000  0.500000      4.000000
  0.200000  0.200000  0.500000      4.000000
  0.300000  0.200000  0.500000      4.000000
  0.400000  0.200000  0.500000      4.000000
  0.500000  0.200000  0.500000      4.000000
 -0.400000  0.200000  0.500000      2.000000
  0.000000  0.300000  0.500000      2.000000
  0.100000  0.300000  0.500000      4.000000
  0.200000  0.300000  0.500000      4.000000
  0.300000  0.300000  0.500000      4.000000
  0.400000  0.300000  0.500000      2.000000
  0.000000  0.400000  0.500000      2.000000
  0.100000  0.400000  0.500000      4.000000
  0.200000  0.400000  0.500000      2.000000
  0.000000  0.500000  0.500000      1.000000
 
 Following cartesian coordinates:
            Coordinates               Weight
  0.000000  0.000000  0.000000      1.000000
  0.031358  0.018105  0.000000      4.000000
  0.062717  0.036210  0.000000      4.000000
  0.094075  0.054314  0.000000      4.000000
  0.125434  0.072419  0.000000      4.000000
  0.156792  0.090524  0.000000      2.000000
  0.000000  0.036210  0.000000      2.000000
  0.031358  0.054314  0.000000      4.000000
  0.062717  0.072419  0.000000      4.000000
  0.094075  0.090524  0.000000      4.000000
  0.125434  0.108629  0.000000      4.000000
  0.156792  0.126734  0.000000      4.000000
 -0.125434 -0.036210  0.000000      4.000000
 -0.094075 -0.018105  0.000000      4.000000
 -0.062717 -0.000000  0.000000      2.000000
  0.000000  0.072419  0.000000      2.000000
  0.031358  0.090524  0.000000      4.000000
  0.062717  0.108629  0.000000      4.000000
  0.094075  0.126734  0.000000      4.000000
  0.125434  0.144839  0.000000      4.000000
  0.156792  0.162943  0.000000      4.000000
 -0.125434 -0.000000  0.000000      2.000000
  0.000000  0.108629  0.000000      2.000000
  0.031358  0.126734  0.000000      4.000000
  0.062717  0.144839  0.000000      4.000000
  0.094075  0.162943  0.000000      4.000000
  0.125434  0.181048  0.000000      2.000000
  0.000000  0.144839  0.000000      2.000000
  0.031358  0.162943  0.000000      4.000000
  0.062717  0.181048  0.000000      2.000000
  0.000000  0.181048  0.000000      1.000000
  0.000000  0.000000  0.032098      2.000000
  0.031358  0.018105  0.032098      4.000000
  0.062717  0.036210  0.032098      4.000000
  0.094075  0.054314  0.032098      4.000000
  0.125434  0.072419  0.032098      4.000000
  0.156792  0.090524  0.032098      4.000000
 -0.125434 -0.072419  0.032098      4.000000
 -0.094075 -0.054314  0.032098      4.000000
 -0.062717 -0.036210  0.032098      4.000000
 -0.031358 -0.018105  0.032098      4.000000
  0.000000  0.036210  0.032098      2.000000
  0.031358  0.054314  0.032098      4.000000
  0.062717  0.072419  0.032098      4.000000
  0.094075  0.090524  0.032098      4.000000
  0.125434  0.108629  0.032098      4.000000
  0.156792  0.126734  0.032098      4.000000
 -0.125434 -0.036210  0.032098      4.000000
 -0.094075 -0.018105  0.032098      4.000000
 -0.062717 -0.000000  0.032098      4.000000
  0.000000  0.072419  0.032098      2.000000
  0.031358  0.090524  0.032098      4.000000
  0.062717  0.108629  0.032098      4.000000
  0.094075  0.126734  0.032098      4.000000
  0.125434  0.144839  0.032098      4.000000
  0.156792  0.162943  0.032098      4.000000
 -0.125434 -0.000000  0.032098      4.000000
 -0.094075  0.018105  0.032098      4.000000
  0.000000  0.108629  0.032098      2.000000
  0.031358  0.126734  0.032098      4.000000
  0.062717  0.144839  0.032098      4.000000
  0.094075  0.162943  0.032098      4.000000
  0.125434  0.181048  0.032098      4.000000
  0.156792  0.199153  0.032098      4.000000
 -0.125434  0.036210  0.032098      4.000000
  0.000000  0.144839  0.032098      2.000000
  0.031358  0.162943  0.032098      4.000000
  0.062717  0.181048  0.032098      4.000000
  0.094075  0.199153  0.032098      4.000000
  0.125434  0.217258  0.032098      4.000000
  0.156792  0.235363  0.032098      4.000000
  0.000000  0.181048  0.032098      2.000000
  0.031358  0.199153  0.032098      4.000000
  0.062717  0.217258  0.032098      4.000000
  0.094075  0.235363  0.032098      4.000000
  0.125434  0.253468  0.032098      4.000000
  0.000000 -0.144839  0.032098      2.000000
  0.031358 -0.126734  0.032098      4.000000
  0.062717 -0.108629  0.032098      4.000000
  0.094075 -0.090524  0.032098      4.000000
  0.000000 -0.108629  0.032098      2.000000
  0.031358 -0.090524  0.032098      4.000000
  0.062717 -0.072419  0.032098      4.000000
  0.000000 -0.072419  0.032098      2.000000
  0.031358 -0.054314  0.032098      4.000000
  0.000000 -0.036210  0.032098      2.000000
  0.000000  0.000000  0.064197      2.000000
  0.031358  0.018105  0.064197      4.000000
  0.062717  0.036210  0.064197      4.000000
  0.094075  0.054314  0.064197      4.000000
  0.125434  0.072419  0.064197      4.000000
  0.156792  0.090524  0.064197      4.000000
 -0.125434 -0.072419  0.064197      4.000000
 -0.094075 -0.054314  0.064197      4.000000
 -0.062717 -0.036210  0.064197      4.000000
 -0.031358 -0.018105  0.064197      4.000000
  0.000000  0.036210  0.064197      2.000000
  0.031358  0.054314  0.064197      4.000000
  0.062717  0.072419  0.064197      4.000000
  0.094075  0.090524  0.064197      4.000000
  0.125434  0.108629  0.064197      4.000000
  0.156792  0.126734  0.064197      4.000000
 -0.125434 -0.036210  0.064197      4.000000
 -0.094075 -0.018105  0.064197      4.000000
 -0.062717 -0.000000  0.064197      4.000000
  0.000000  0.072419  0.064197      2.000000
  0.031358  0.090524  0.064197      4.000000
  0.062717  0.108629  0.064197      4.000000
  0.094075  0.126734  0.064197      4.000000
  0.125434  0.144839  0.064197      4.000000
  0.156792  0.162943  0.064197      4.000000
 -0.125434 -0.000000  0.064197      4.000000
 -0.094075  0.018105  0.064197      4.000000
  0.000000  0.108629  0.064197      2.000000
  0.031358  0.126734  0.064197      4.000000
  0.062717  0.144839  0.064197      4.000000
  0.094075  0.162943  0.064197      4.000000
  0.125434  0.181048  0.064197      4.000000
  0.156792  0.199153  0.064197      4.000000
 -0.125434  0.036210  0.064197      4.000000
  0.000000  0.144839  0.064197      2.000000
  0.031358  0.162943  0.064197      4.000000
  0.062717  0.181048  0.064197      4.000000
  0.094075  0.199153  0.064197      4.000000
  0.125434  0.217258  0.064197      4.000000
  0.156792  0.235363  0.064197      4.000000
  0.000000  0.181048  0.064197      2.000000
  0.031358  0.199153  0.064197      4.000000
  0.062717  0.217258  0.064197      4.000000
  0.094075  0.235363  0.064197      4.000000
  0.125434  0.253468  0.064197      4.000000
  0.000000 -0.144839  0.064197      2.000000
  0.031358 -0.126734  0.064197      4.000000
  0.062717 -0.108629  0.064197      4.000000
  0.094075 -0.090524  0.064197      4.000000
  0.000000 -0.108629  0.064197      2.000000
  0.031358 -0.090524  0.064197      4.000000
  0.062717 -0.072419  0.064197      4.000000
  0.000000 -0.072419  0.064197      2.000000
  0.031358 -0.054314  0.064197      4.000000
  0.000000 -0.036210  0.064197      2.000000
  0.000000  0.000000  0.096295      1.000000
  0.031358  0.018105  0.096295      4.000000
  0.062717  0.036210  0.096295      4.000000
  0.094075  0.054314  0.096295      4.000000
  0.125434  0.072419  0.096295      4.000000
  0.156792  0.090524  0.096295      2.000000
  0.000000  0.036210  0.096295      2.000000
  0.031358  0.054314  0.096295      4.000000
  0.062717  0.072419  0.096295      4.000000
  0.094075  0.090524  0.096295      4.000000
  0.125434  0.108629  0.096295      4.000000
  0.156792  0.126734  0.096295      4.000000
 -0.125434 -0.036210  0.096295      4.000000
 -0.094075 -0.018105  0.096295      4.000000
 -0.062717 -0.000000  0.096295      2.000000
  0.000000  0.072419  0.096295      2.000000
  0.031358  0.090524  0.096295      4.000000
  0.062717  0.108629  0.096295      4.000000
  0.094075  0.126734  0.096295      4.000000
  0.125434  0.144839  0.096295      4.000000
  0.156792  0.162943  0.096295      4.000000
 -0.125434 -0.000000  0.096295      2.000000
  0.000000  0.108629  0.096295      2.000000
  0.031358  0.126734  0.096295      4.000000
  0.062717  0.144839  0.096295      4.000000
  0.094075  0.162943  0.096295      4.000000
  0.125434  0.181048  0.096295      2.000000
  0.000000  0.144839  0.096295      2.000000
  0.031358  0.162943  0.096295      4.000000
  0.062717  0.181048  0.096295      2.000000
  0.000000  0.181048  0.096295      1.000000
 
 
 Subroutine IBZKPT_HF returns following result:
 ==============================================
 
 Found    600 k-points in 1st BZ
 the following    600 k-points will be used (e.g. in the exchange kernel)
 Following reciprocal coordinates:   # in IRBZ
  0.000000  0.000000  0.000000    0.00166667   1 t-inv F
  0.100000 -0.000000  0.000000    0.00166667   2 t-inv F
  0.200000 -0.000000  0.000000    0.00166667   3 t-inv F
  0.300000 -0.000000  0.000000    0.00166667   4 t-inv F
  0.400000 -0.000000  0.000000    0.00166667   5 t-inv F
  0.500000 -0.000000  0.000000    0.00166667   6 t-inv F
  0.000000  0.100000  0.000000    0.00166667   7 t-inv F
  0.100000  0.100000  0.000000    0.00166667   8 t-inv F
  0.200000  0.100000  0.000000    0.00166667   9 t-inv F
  0.300000  0.100000  0.000000    0.00166667  10 t-inv F
  0.400000  0.100000  0.000000    0.00166667  11 t-inv F
  0.500000  0.100000  0.000000    0.00166667  12 t-inv F
 -0.400000  0.100000  0.000000    0.00166667  13 t-inv F
 -0.300000  0.100000  0.000000    0.00166667  14 t-inv F
 -0.200000  0.100000  0.000000    0.00166667  15 t-inv F
  0.000000  0.200000  0.000000    0.00166667  16 t-inv F
  0.100000  0.200000  0.000000    0.00166667  17 t-inv F
  0.200000  0.200000  0.000000    0.00166667  18 t-inv F
  0.300000  0.200000  0.000000    0.00166667  19 t-inv F
  0.400000  0.200000  0.000000    0.00166667  20 t-inv F
  0.500000  0.200000  0.000000    0.00166667  21 t-inv F
 -0.400000  0.200000  0.000000    0.00166667  22 t-inv F
  0.000000  0.300000  0.000000    0.00166667  23 t-inv F
  0.100000  0.300000  0.000000    0.00166667  24 t-inv F
  0.200000  0.300000  0.000000    0.00166667  25 t-inv F
  0.300000  0.300000  0.000000    0.00166667  26 t-inv F
  0.400000  0.300000  0.000000    0.00166667  27 t-inv F
  0.000000  0.400000  0.000000    0.00166667  28 t-inv F
  0.100000  0.400000  0.000000    0.00166667  29 t-inv F
  0.200000  0.400000  0.000000    0.00166667  30 t-inv F
  0.000000  0.500000  0.000000    0.00166667  31 t-inv F
  0.000000  0.000000  0.166667    0.00166667  32 t-inv F
  0.100000 -0.000000  0.166667    0.00166667  33 t-inv F
  0.200000 -0.000000  0.166667    0.00166667  34 t-inv F
  0.300000 -0.000000  0.166667    0.00166667  35 t-inv F
  0.400000 -0.000000  0.166667    0.00166667  36 t-inv F
  0.500000 -0.000000  0.166667    0.00166667  37 t-inv F
 -0.400000  0.000000  0.166667    0.00166667  38 t-inv F
 -0.300000  0.000000  0.166667    0.00166667  39 t-inv F
 -0.200000  0.000000  0.166667    0.00166667  40 t-inv F
 -0.100000  0.000000  0.166667    0.00166667  41 t-inv F
  0.000000  0.100000  0.166667    0.00166667  42 t-inv F
  0.100000  0.100000  0.166667    0.00166667  43 t-inv F
  0.200000  0.100000  0.166667    0.00166667  44 t-inv F
  0.300000  0.100000  0.166667    0.00166667  45 t-inv F
  0.400000  0.100000  0.166667    0.00166667  46 t-inv F
  0.500000  0.100000  0.166667    0.00166667  47 t-inv F
 -0.400000  0.100000  0.166667    0.00166667  48 t-inv F
 -0.300000  0.100000  0.166667    0.00166667  49 t-inv F
 -0.200000  0.100000  0.166667    0.00166667  50 t-inv F
  0.000000  0.200000  0.166667    0.00166667  51 t-inv F
  0.100000  0.200000  0.166667    0.00166667  52 t-inv F
  0.200000  0.200000  0.166667    0.00166667  53 t-inv F
  0.300000  0.200000  0.166667    0.00166667  54 t-inv F
  0.400000  0.200000  0.166667    0.00166667  55 t-inv F
  0.500000  0.200000  0.166667    0.00166667  56 t-inv F
 -0.400000  0.200000  0.166667    0.00166667  57 t-inv F
 -0.300000  0.200000  0.166667    0.00166667  58 t-inv F
  0.000000  0.300000  0.166667    0.00166667  59 t-inv F
  0.100000  0.300000  0.166667    0.00166667  60 t-inv F
  0.200000  0.300000  0.166667    0.00166667  61 t-inv F
  0.300000  0.300000  0.166667    0.00166667  62 t-inv F
  0.400000  0.300000  0.166667    0.00166667  63 t-inv F
  0.500000  0.300000  0.166667    0.00166667  64 t-inv F
 -0.400000  0.300000  0.166667    0.00166667  65 t-inv F
  0.000000  0.400000  0.166667    0.00166667  66 t-inv F
  0.100000  0.400000  0.166667    0.00166667  67 t-inv F
  0.200000  0.400000  0.166667    0.00166667  68 t-inv F
  0.300000  0.400000  0.166667    0.00166667  69 t-inv F
  0.400000  0.400000  0.166667    0.00166667  70 t-inv F
  0.500000  0.400000  0.166667    0.00166667  71 t-inv F
  0.000000  0.500000  0.166667    0.00166667  72 t-inv F
  0.100000  0.500000  0.166667    0.00166667  73 t-inv F
  0.200000  0.500000  0.166667    0.00166667  74 t-inv F
  0.300000  0.500000  0.166667    0.00166667  75 t-inv F
  0.400000  0.500000  0.166667    0.00166667  76 t-inv F
  0.000000 -0.400000  0.166667    0.00166667  77 t-inv F
  0.100000 -0.400000  0.166667    0.00166667  78 t-inv F
  0.200000 -0.400000  0.166667    0.00166667  79 t-inv F
  0.300000 -0.400000  0.166667    0.00166667  80 t-inv F
  0.000000 -0.300000  0.166667    0.00166667  81 t-inv F
  0.100000 -0.300000  0.166667    0.00166667  82 t-inv F
  0.200000 -0.300000  0.166667    0.00166667  83 t-inv F
  0.000000 -0.200000  0.166667    0.00166667  84 t-inv F
  0.100000 -0.200000  0.166667    0.00166667  85 t-inv F
  0.000000 -0.100000  0.166667    0.00166667  86 t-inv F
  0.000000  0.000000  0.333333    0.00166667  87 t-inv F
  0.100000 -0.000000  0.333333    0.00166667  88 t-inv F
  0.200000 -0.000000  0.333333    0.00166667  89 t-inv F
  0.300000 -0.000000  0.333333    0.00166667  90 t-inv F
  0.400000 -0.000000  0.333333    0.00166667  91 t-inv F
  0.500000 -0.000000  0.333333    0.00166667  92 t-inv F
 -0.400000  0.000000  0.333333    0.00166667  93 t-inv F
 -0.300000  0.000000  0.333333    0.00166667  94 t-inv F
 -0.200000  0.000000  0.333333    0.00166667  95 t-inv F
 -0.100000  0.000000  0.333333    0.00166667  96 t-inv F
  0.000000  0.100000  0.333333    0.00166667  97 t-inv F
  0.100000  0.100000  0.333333    0.00166667  98 t-inv F
  0.200000  0.100000  0.333333    0.00166667  99 t-inv F
  0.300000  0.100000  0.333333    0.00166667 100 t-inv F
  0.400000  0.100000  0.333333    0.00166667 101 t-inv F
  0.500000  0.100000  0.333333    0.00166667 102 t-inv F
 -0.400000  0.100000  0.333333    0.00166667 103 t-inv F
 -0.300000  0.100000  0.333333    0.00166667 104 t-inv F
 -0.200000  0.100000  0.333333    0.00166667 105 t-inv F
  0.000000  0.200000  0.333333    0.00166667 106 t-inv F
  0.100000  0.200000  0.333333    0.00166667 107 t-inv F
  0.200000  0.200000  0.333333    0.00166667 108 t-inv F
  0.300000  0.200000  0.333333    0.00166667 109 t-inv F
  0.400000  0.200000  0.333333    0.00166667 110 t-inv F
  0.500000  0.200000  0.333333    0.00166667 111 t-inv F
 -0.400000  0.200000  0.333333    0.00166667 112 t-inv F
 -0.300000  0.200000  0.333333    0.00166667 113 t-inv F
  0.000000  0.300000  0.333333    0.00166667 114 t-inv F
  0.100000  0.300000  0.333333    0.00166667 115 t-inv F
  0.200000  0.300000  0.333333    0.00166667 116 t-inv F
  0.300000  0.300000  0.333333    0.00166667 117 t-inv F
  0.400000  0.300000  0.333333    0.00166667 118 t-inv F
  0.500000  0.300000  0.333333    0.00166667 119 t-inv F
 -0.400000  0.300000  0.333333    0.00166667 120 t-inv F
  0.000000  0.400000  0.333333    0.00166667 121 t-inv F
  0.100000  0.400000  0.333333    0.00166667 122 t-inv F
  0.200000  0.400000  0.333333    0.00166667 123 t-inv F
  0.300000  0.400000  0.333333    0.00166667 124 t-inv F
  0.400000  0.400000  0.333333    0.00166667 125 t-inv F
  0.500000  0.400000  0.333333    0.00166667 126 t-inv F
  0.000000  0.500000  0.333333    0.00166667 127 t-inv F
  0.100000  0.500000  0.333333    0.00166667 128 t-inv F
  0.200000  0.500000  0.333333    0.00166667 129 t-inv F
  0.300000  0.500000  0.333333    0.00166667 130 t-inv F
  0.400000  0.500000  0.333333    0.00166667 131 t-inv F
  0.000000 -0.400000  0.333333    0.00166667 132 t-inv F
  0.100000 -0.400000  0.333333    0.00166667 133 t-inv F
  0.200000 -0.400000  0.333333    0.00166667 134 t-inv F
  0.300000 -0.400000  0.333333    0.00166667 135 t-inv F
  0.000000 -0.300000  0.333333    0.00166667 136 t-inv F
  0.100000 -0.300000  0.333333    0.00166667 137 t-inv F
  0.200000 -0.300000  0.333333    0.00166667 138 t-inv F
  0.000000 -0.200000  0.333333    0.00166667 139 t-inv F
  0.100000 -0.200000  0.333333    0.00166667 140 t-inv F
  0.000000 -0.100000  0.333333    0.00166667 141 t-inv F
  0.000000  0.000000  0.500000    0.00166667 142 t-inv F
  0.100000 -0.000000  0.500000    0.00166667 143 t-inv F
  0.200000 -0.000000  0.500000    0.00166667 144 t-inv F
  0.300000 -0.000000  0.500000    0.00166667 145 t-inv F
  0.400000 -0.000000  0.500000    0.00166667 146 t-inv F
  0.500000 -0.000000  0.500000    0.00166667 147 t-inv F
  0.000000  0.100000  0.500000    0.00166667 148 t-inv F
  0.100000  0.100000  0.500000    0.00166667 149 t-inv F
  0.200000  0.100000  0.500000    0.00166667 150 t-inv F
  0.300000  0.100000  0.500000    0.00166667 151 t-inv F
  0.400000  0.100000  0.500000    0.00166667 152 t-inv F
  0.500000  0.100000  0.500000    0.00166667 153 t-inv F
 -0.400000  0.100000  0.500000    0.00166667 154 t-inv F
 -0.300000  0.100000  0.500000    0.00166667 155 t-inv F
 -0.200000  0.100000  0.500000    0.00166667 156 t-inv F
  0.000000  0.200000  0.500000    0.00166667 157 t-inv F
  0.100000  0.200000  0.500000    0.00166667 158 t-inv F
  0.200000  0.200000  0.500000    0.00166667 159 t-inv F
  0.300000  0.200000  0.500000    0.00166667 160 t-inv F
  0.400000  0.200000  0.500000    0.00166667 161 t-inv F
  0.500000  0.200000  0.500000    0.00166667 162 t-inv F
 -0.400000  0.200000  0.500000    0.00166667 163 t-inv F
  0.000000  0.300000  0.500000    0.00166667 164 t-inv F
  0.100000  0.300000  0.500000    0.00166667 165 t-inv F
  0.200000  0.300000  0.500000    0.00166667 166 t-inv F
  0.300000  0.300000  0.500000    0.00166667 167 t-inv F
  0.400000  0.300000  0.500000    0.00166667 168 t-inv F
  0.000000  0.400000  0.500000    0.00166667 169 t-inv F
  0.100000  0.400000  0.500000    0.00166667 170 t-inv F
  0.200000  0.400000  0.500000    0.00166667 171 t-inv F
  0.000000  0.500000  0.500000    0.00166667 172 t-inv F
 -0.100000  0.100000  0.000000    0.00166667   2 t-inv F
 -0.200000  0.200000  0.000000    0.00166667   3 t-inv F
 -0.300000  0.300000  0.000000    0.00166667   4 t-inv F
 -0.400000  0.400000  0.000000    0.00166667   5 t-inv F
 -0.500000  0.500000  0.000000    0.00166667   6 t-inv F
 -0.100000  0.200000  0.000000    0.00166667   8 t-inv F
 -0.200000  0.300000  0.000000    0.00166667   9 t-inv F
 -0.300000  0.400000  0.000000    0.00166667  10 t-inv F
 -0.400000  0.500000  0.000000    0.00166667  11 t-inv F
 -0.500000  0.600000  0.000000    0.00166667  12 t-inv F
  0.400000 -0.300000  0.000000    0.00166667  13 t-inv F
  0.300000 -0.200000  0.000000    0.00166667  14 t-inv F
  0.200000 -0.100000  0.000000    0.00166667  15 t-inv F
 -0.100000  0.300000  0.000000    0.00166667  17 t-inv F
 -0.200000  0.400000  0.000000    0.00166667  18 t-inv F
 -0.300000  0.500000  0.000000    0.00166667  19 t-inv F
 -0.400000  0.600000  0.000000    0.00166667  20 t-inv F
 -0.500000  0.700000  0.000000    0.00166667  21 t-inv F
  0.400000 -0.200000  0.000000    0.00166667  22 t-inv F
 -0.100000  0.400000  0.000000    0.00166667  24 t-inv F
 -0.200000  0.500000  0.000000    0.00166667  25 t-inv F
 -0.300000  0.600000  0.000000    0.00166667  26 t-inv F
 -0.400000  0.700000  0.000000    0.00166667  27 t-inv F
 -0.100000  0.500000  0.000000    0.00166667  29 t-inv F
 -0.200000  0.600000  0.000000    0.00166667  30 t-inv F
 -0.100000  0.100000  0.166667    0.00166667  33 t-inv F
 -0.200000  0.200000  0.166667    0.00166667  34 t-inv F
 -0.300000  0.300000  0.166667    0.00166667  35 t-inv F
 -0.400000  0.400000  0.166667    0.00166667  36 t-inv F
 -0.500000  0.500000  0.166667    0.00166667  37 t-inv F
  0.400000 -0.400000  0.166667    0.00166667  38 t-inv F
  0.300000 -0.300000  0.166667    0.00166667  39 t-inv F
  0.200000 -0.200000  0.166667    0.00166667  40 t-inv F
  0.100000 -0.100000  0.166667    0.00166667  41 t-inv F
 -0.100000  0.200000  0.166667    0.00166667  43 t-inv F
 -0.200000  0.300000  0.166667    0.00166667  44 t-inv F
 -0.300000  0.400000  0.166667    0.00166667  45 t-inv F
 -0.400000  0.500000  0.166667    0.00166667  46 t-inv F
 -0.500000  0.600000  0.166667    0.00166667  47 t-inv F
  0.400000 -0.300000  0.166667    0.00166667  48 t-inv F
  0.300000 -0.200000  0.166667    0.00166667  49 t-inv F
  0.200000 -0.100000  0.166667    0.00166667  50 t-inv F
 -0.100000  0.300000  0.166667    0.00166667  52 t-inv F
 -0.200000  0.400000  0.166667    0.00166667  53 t-inv F
 -0.300000  0.500000  0.166667    0.00166667  54 t-inv F
 -0.400000  0.600000  0.166667    0.00166667  55 t-inv F
 -0.500000  0.700000  0.166667    0.00166667  56 t-inv F
  0.400000 -0.200000  0.166667    0.00166667  57 t-inv F
  0.300000 -0.100000  0.166667    0.00166667  58 t-inv F
 -0.100000  0.400000  0.166667    0.00166667  60 t-inv F
 -0.200000  0.500000  0.166667    0.00166667  61 t-inv F
 -0.300000  0.600000  0.166667    0.00166667  62 t-inv F
 -0.400000  0.700000  0.166667    0.00166667  63 t-inv F
 -0.500000  0.800000  0.166667    0.00166667  64 t-inv F
  0.400000 -0.100000  0.166667    0.00166667  65 t-inv F
 -0.100000  0.500000  0.166667    0.00166667  67 t-inv F
 -0.200000  0.600000  0.166667    0.00166667  68 t-inv F
 -0.300000  0.700000  0.166667    0.00166667  69 t-inv F
 -0.400000  0.800000  0.166667    0.00166667  70 t-inv F
 -0.500000  0.900000  0.166667    0.00166667  71 t-inv F
 -0.100000  0.600000  0.166667    0.00166667  73 t-inv F
 -0.200000  0.700000  0.166667    0.00166667  74 t-inv F
 -0.300000  0.800000  0.166667    0.00166667  75 t-inv F
 -0.400000  0.900000  0.166667    0.00166667  76 t-inv F
 -0.100000 -0.300000  0.166667    0.00166667  78 t-inv F
 -0.200000 -0.200000  0.166667    0.00166667  79 t-inv F
 -0.300000 -0.100000  0.166667    0.00166667  80 t-inv F
 -0.100000 -0.200000  0.166667    0.00166667  82 t-inv F
 -0.200000 -0.100000  0.166667    0.00166667  83 t-inv F
 -0.100000 -0.100000  0.166667    0.00166667  85 t-inv F
 -0.100000  0.100000  0.333333    0.00166667  88 t-inv F
 -0.200000  0.200000  0.333333    0.00166667  89 t-inv F
 -0.300000  0.300000  0.333333    0.00166667  90 t-inv F
 -0.400000  0.400000  0.333333    0.00166667  91 t-inv F
 -0.500000  0.500000  0.333333    0.00166667  92 t-inv F
  0.400000 -0.400000  0.333333    0.00166667  93 t-inv F
  0.300000 -0.300000  0.333333    0.00166667  94 t-inv F
  0.200000 -0.200000  0.333333    0.00166667  95 t-inv F
  0.100000 -0.100000  0.333333    0.00166667  96 t-inv F
 -0.100000  0.200000  0.333333    0.00166667  98 t-inv F
 -0.200000  0.300000  0.333333    0.00166667  99 t-inv F
 -0.300000  0.400000  0.333333    0.00166667 100 t-inv F
 -0.400000  0.500000  0.333333    0.00166667 101 t-inv F
 -0.500000  0.600000  0.333333    0.00166667 102 t-inv F
  0.400000 -0.300000  0.333333    0.00166667 103 t-inv F
  0.300000 -0.200000  0.333333    0.00166667 104 t-inv F
  0.200000 -0.100000  0.333333    0.00166667 105 t-inv F
 -0.100000  0.300000  0.333333    0.00166667 107 t-inv F
 -0.200000  0.400000  0.333333    0.00166667 108 t-inv F
 -0.300000  0.500000  0.333333    0.00166667 109 t-inv F
 -0.400000  0.600000  0.333333    0.00166667 110 t-inv F
 -0.500000  0.700000  0.333333    0.00166667 111 t-inv F
  0.400000 -0.200000  0.333333    0.00166667 112 t-inv F
  0.300000 -0.100000  0.333333    0.00166667 113 t-inv F
 -0.100000  0.400000  0.333333    0.00166667 115 t-inv F
 -0.200000  0.500000  0.333333    0.00166667 116 t-inv F
 -0.300000  0.600000  0.333333    0.00166667 117 t-inv F
 -0.400000  0.700000  0.333333    0.00166667 118 t-inv F
 -0.500000  0.800000  0.333333    0.00166667 119 t-inv F
  0.400000 -0.100000  0.333333    0.00166667 120 t-inv F
 -0.100000  0.500000  0.333333    0.00166667 122 t-inv F
 -0.200000  0.600000  0.333333    0.00166667 123 t-inv F
 -0.300000  0.700000  0.333333    0.00166667 124 t-inv F
 -0.400000  0.800000  0.333333    0.00166667 125 t-inv F
 -0.500000  0.900000  0.333333    0.00166667 126 t-inv F
 -0.100000  0.600000  0.333333    0.00166667 128 t-inv F
 -0.200000  0.700000  0.333333    0.00166667 129 t-inv F
 -0.300000  0.800000  0.333333    0.00166667 130 t-inv F
 -0.400000  0.900000  0.333333    0.00166667 131 t-inv F
 -0.100000 -0.300000  0.333333    0.00166667 133 t-inv F
 -0.200000 -0.200000  0.333333    0.00166667 134 t-inv F
 -0.300000 -0.100000  0.333333    0.00166667 135 t-inv F
 -0.100000 -0.200000  0.333333    0.00166667 137 t-inv F
 -0.200000 -0.100000  0.333333    0.00166667 138 t-inv F
 -0.100000 -0.100000  0.333333    0.00166667 140 t-inv F
 -0.100000  0.100000  0.500000    0.00166667 143 t-inv F
 -0.200000  0.200000  0.500000    0.00166667 144 t-inv F
 -0.300000  0.300000  0.500000    0.00166667 145 t-inv F
 -0.400000  0.400000  0.500000    0.00166667 146 t-inv F
 -0.500000  0.500000  0.500000    0.00166667 147 t-inv F
 -0.100000  0.200000  0.500000    0.00166667 149 t-inv F
 -0.200000  0.300000  0.500000    0.00166667 150 t-inv F
 -0.300000  0.400000  0.500000    0.00166667 151 t-inv F
 -0.400000  0.500000  0.500000    0.00166667 152 t-inv F
 -0.500000  0.600000  0.500000    0.00166667 153 t-inv F
  0.400000 -0.300000  0.500000    0.00166667 154 t-inv F
  0.300000 -0.200000  0.500000    0.00166667 155 t-inv F
  0.200000 -0.100000  0.500000    0.00166667 156 t-inv F
 -0.100000  0.300000  0.500000    0.00166667 158 t-inv F
 -0.200000  0.400000  0.500000    0.00166667 159 t-inv F
 -0.300000  0.500000  0.500000    0.00166667 160 t-inv F
 -0.400000  0.600000  0.500000    0.00166667 161 t-inv F
 -0.500000  0.700000  0.500000    0.00166667 162 t-inv F
  0.400000 -0.200000  0.500000    0.00166667 163 t-inv F
 -0.100000  0.400000  0.500000    0.00166667 165 t-inv F
 -0.200000  0.500000  0.500000    0.00166667 166 t-inv F
 -0.300000  0.600000  0.500000    0.00166667 167 t-inv F
 -0.400000  0.700000  0.500000    0.00166667 168 t-inv F
 -0.100000  0.500000  0.500000    0.00166667 170 t-inv F
 -0.200000  0.600000  0.500000    0.00166667 171 t-inv F
 -0.100000  0.000000  0.000000    0.00166667   2 t-inv T
  0.100000 -0.100000  0.000000    0.00166667   2 t-inv T
 -0.200000  0.000000  0.000000    0.00166667   3 t-inv T
  0.200000 -0.200000  0.000000    0.00166667   3 t-inv T
 -0.300000  0.000000  0.000000    0.00166667   4 t-inv T
  0.300000 -0.300000  0.000000    0.00166667   4 t-inv T
 -0.400000  0.000000  0.000000    0.00166667   5 t-inv T
  0.400000 -0.400000  0.000000    0.00166667   5 t-inv T
  0.000000 -0.100000  0.000000    0.00166667   7 t-inv T
 -0.100000 -0.100000  0.000000    0.00166667   8 t-inv T
  0.100000 -0.200000  0.000000    0.00166667   8 t-inv T
 -0.200000 -0.100000  0.000000    0.00166667   9 t-inv T
  0.200000 -0.300000  0.000000    0.00166667   9 t-inv T
 -0.300000 -0.100000  0.000000    0.00166667  10 t-inv T
  0.300000 -0.400000  0.000000    0.00166667  10 t-inv T
 -0.400000 -0.100000  0.000000    0.00166667  11 t-inv T
  0.400000 -0.500000  0.000000    0.00166667  11 t-inv T
 -0.500000 -0.100000  0.000000    0.00166667  12 t-inv T
  0.500000 -0.600000  0.000000    0.00166667  12 t-inv T
  0.400000 -0.100000  0.000000    0.00166667  13 t-inv T
 -0.400000  0.300000  0.000000    0.00166667  13 t-inv T
  0.300000 -0.100000  0.000000    0.00166667  14 t-inv T
 -0.300000  0.200000  0.000000    0.00166667  14 t-inv T
  0.000000 -0.200000  0.000000    0.00166667  16 t-inv T
 -0.100000 -0.200000  0.000000    0.00166667  17 t-inv T
  0.100000 -0.300000  0.000000    0.00166667  17 t-inv T
 -0.200000 -0.200000  0.000000    0.00166667  18 t-inv T
  0.200000 -0.400000  0.000000    0.00166667  18 t-inv T
 -0.300000 -0.200000  0.000000    0.00166667  19 t-inv T
  0.300000 -0.500000  0.000000    0.00166667  19 t-inv T
 -0.400000 -0.200000  0.000000    0.00166667  20 t-inv T
  0.400000 -0.600000  0.000000    0.00166667  20 t-inv T
 -0.500000 -0.200000  0.000000    0.00166667  21 t-inv T
  0.500000 -0.700000  0.000000    0.00166667  21 t-inv T
  0.000000 -0.300000  0.000000    0.00166667  23 t-inv T
 -0.100000 -0.300000  0.000000    0.00166667  24 t-inv T
  0.100000 -0.400000  0.000000    0.00166667  24 t-inv T
 -0.200000 -0.300000  0.000000    0.00166667  25 t-inv T
  0.200000 -0.500000  0.000000    0.00166667  25 t-inv T
 -0.300000 -0.300000  0.000000    0.00166667  26 t-inv T
  0.300000 -0.600000  0.000000    0.00166667  26 t-inv T
  0.000000 -0.400000  0.000000    0.00166667  28 t-inv T
 -0.100000 -0.400000  0.000000    0.00166667  29 t-inv T
  0.100000 -0.500000  0.000000    0.00166667  29 t-inv T
  0.000000  0.000000 -0.166667    0.00166667  32 t-inv T
 -0.100000  0.000000 -0.166667    0.00166667  33 t-inv T
  0.100000 -0.100000 -0.166667    0.00166667  33 t-inv T
 -0.200000  0.000000 -0.166667    0.00166667  34 t-inv T
  0.200000 -0.200000 -0.166667    0.00166667  34 t-inv T
 -0.300000  0.000000 -0.166667    0.00166667  35 t-inv T
  0.300000 -0.300000 -0.166667    0.00166667  35 t-inv T
 -0.400000  0.000000 -0.166667    0.00166667  36 t-inv T
  0.400000 -0.400000 -0.166667    0.00166667  36 t-inv T
 -0.500000  0.000000 -0.166667    0.00166667  37 t-inv T
  0.500000 -0.500000 -0.166667    0.00166667  37 t-inv T
  0.400000 -0.000000 -0.166667    0.00166667  38 t-inv T
 -0.400000  0.400000 -0.166667    0.00166667  38 t-inv T
  0.300000 -0.000000 -0.166667    0.00166667  39 t-inv T
 -0.300000  0.300000 -0.166667    0.00166667  39 t-inv T
  0.200000 -0.000000 -0.166667    0.00166667  40 t-inv T
 -0.200000  0.200000 -0.166667    0.00166667  40 t-inv T
  0.100000 -0.000000 -0.166667    0.00166667  41 t-inv T
 -0.100000  0.100000 -0.166667    0.00166667  41 t-inv T
  0.000000 -0.100000 -0.166667    0.00166667  42 t-inv T
 -0.100000 -0.100000 -0.166667    0.00166667  43 t-inv T
  0.100000 -0.200000 -0.166667    0.00166667  43 t-inv T
 -0.200000 -0.100000 -0.166667    0.00166667  44 t-inv T
  0.200000 -0.300000 -0.166667    0.00166667  44 t-inv T
 -0.300000 -0.100000 -0.166667    0.00166667  45 t-inv T
  0.300000 -0.400000 -0.166667    0.00166667  45 t-inv T
 -0.400000 -0.100000 -0.166667    0.00166667  46 t-inv T
  0.400000 -0.500000 -0.166667    0.00166667  46 t-inv T
 -0.500000 -0.100000 -0.166667    0.00166667  47 t-inv T
  0.500000 -0.600000 -0.166667    0.00166667  47 t-inv T
  0.400000 -0.100000 -0.166667    0.00166667  48 t-inv T
 -0.400000  0.300000 -0.166667    0.00166667  48 t-inv T
  0.300000 -0.100000 -0.166667    0.00166667  49 t-inv T
 -0.300000  0.200000 -0.166667    0.00166667  49 t-inv T
  0.200000 -0.100000 -0.166667    0.00166667  50 t-inv T
 -0.200000  0.100000 -0.166667    0.00166667  50 t-inv T
  0.000000 -0.200000 -0.166667    0.00166667  51 t-inv T
 -0.100000 -0.200000 -0.166667    0.00166667  52 t-inv T
  0.100000 -0.300000 -0.166667    0.00166667  52 t-inv T
 -0.200000 -0.200000 -0.166667    0.00166667  53 t-inv T
  0.200000 -0.400000 -0.166667    0.00166667  53 t-inv T
 -0.300000 -0.200000 -0.166667    0.00166667  54 t-inv T
  0.300000 -0.500000 -0.166667    0.00166667  54 t-inv T
 -0.400000 -0.200000 -0.166667    0.00166667  55 t-inv T
  0.400000 -0.600000 -0.166667    0.00166667  55 t-inv T
 -0.500000 -0.200000 -0.166667    0.00166667  56 t-inv T
  0.500000 -0.700000 -0.166667    0.00166667  56 t-inv T
  0.400000 -0.200000 -0.166667    0.00166667  57 t-inv T
 -0.400000  0.200000 -0.166667    0.00166667  57 t-inv T
  0.300000 -0.200000 -0.166667    0.00166667  58 t-inv T
 -0.300000  0.100000 -0.166667    0.00166667  58 t-inv T
  0.000000 -0.300000 -0.166667    0.00166667  59 t-inv T
 -0.100000 -0.300000 -0.166667    0.00166667  60 t-inv T
  0.100000 -0.400000 -0.166667    0.00166667  60 t-inv T
 -0.200000 -0.300000 -0.166667    0.00166667  61 t-inv T
  0.200000 -0.500000 -0.166667    0.00166667  61 t-inv T
 -0.300000 -0.300000 -0.166667    0.00166667  62 t-inv T
  0.300000 -0.600000 -0.166667    0.00166667  62 t-inv T
 -0.400000 -0.300000 -0.166667    0.00166667  63 t-inv T
  0.400000 -0.700000 -0.166667    0.00166667  63 t-inv T
 -0.500000 -0.300000 -0.166667    0.00166667  64 t-inv T
  0.500000 -0.800000 -0.166667    0.00166667  64 t-inv T
  0.400000 -0.300000 -0.166667    0.00166667  65 t-inv T
 -0.400000  0.100000 -0.166667    0.00166667  65 t-inv T
  0.000000 -0.400000 -0.166667    0.00166667  66 t-inv T
 -0.100000 -0.400000 -0.166667    0.00166667  67 t-inv T
  0.100000 -0.500000 -0.166667    0.00166667  67 t-inv T
 -0.200000 -0.400000 -0.166667    0.00166667  68 t-inv T
  0.200000 -0.600000 -0.166667    0.00166667  68 t-inv T
 -0.300000 -0.400000 -0.166667    0.00166667  69 t-inv T
  0.300000 -0.700000 -0.166667    0.00166667  69 t-inv T
 -0.400000 -0.400000 -0.166667    0.00166667  70 t-inv T
  0.400000 -0.800000 -0.166667    0.00166667  70 t-inv T
 -0.500000 -0.400000 -0.166667    0.00166667  71 t-inv T
  0.500000 -0.900000 -0.166667    0.00166667  71 t-inv T
  0.000000 -0.500000 -0.166667    0.00166667  72 t-inv T
 -0.100000 -0.500000 -0.166667    0.00166667  73 t-inv T
  0.100000 -0.600000 -0.166667    0.00166667  73 t-inv T
 -0.200000 -0.500000 -0.166667    0.00166667  74 t-inv T
  0.200000 -0.700000 -0.166667    0.00166667  74 t-inv T
 -0.300000 -0.500000 -0.166667    0.00166667  75 t-inv T
  0.300000 -0.800000 -0.166667    0.00166667  75 t-inv T
 -0.400000 -0.500000 -0.166667    0.00166667  76 t-inv T
  0.400000 -0.900000 -0.166667    0.00166667  76 t-inv T
  0.000000  0.400000 -0.166667    0.00166667  77 t-inv T
 -0.100000  0.400000 -0.166667    0.00166667  78 t-inv T
  0.100000  0.300000 -0.166667    0.00166667  78 t-inv T
 -0.200000  0.400000 -0.166667    0.00166667  79 t-inv T
  0.200000  0.200000 -0.166667    0.00166667  79 t-inv T
 -0.300000  0.400000 -0.166667    0.00166667  80 t-inv T
  0.300000  0.100000 -0.166667    0.00166667  80 t-inv T
  0.000000  0.300000 -0.166667    0.00166667  81 t-inv T
 -0.100000  0.300000 -0.166667    0.00166667  82 t-inv T
  0.100000  0.200000 -0.166667    0.00166667  82 t-inv T
 -0.200000  0.300000 -0.166667    0.00166667  83 t-inv T
  0.200000  0.100000 -0.166667    0.00166667  83 t-inv T
  0.000000  0.200000 -0.166667    0.00166667  84 t-inv T
 -0.100000  0.200000 -0.166667    0.00166667  85 t-inv T
  0.100000  0.100000 -0.166667    0.00166667  85 t-inv T
  0.000000  0.100000 -0.166667    0.00166667  86 t-inv T
  0.000000  0.000000 -0.333333    0.00166667  87 t-inv T
 -0.100000  0.000000 -0.333333    0.00166667  88 t-inv T
  0.100000 -0.100000 -0.333333    0.00166667  88 t-inv T
 -0.200000  0.000000 -0.333333    0.00166667  89 t-inv T
  0.200000 -0.200000 -0.333333    0.00166667  89 t-inv T
 -0.300000  0.000000 -0.333333    0.00166667  90 t-inv T
  0.300000 -0.300000 -0.333333    0.00166667  90 t-inv T
 -0.400000  0.000000 -0.333333    0.00166667  91 t-inv T
  0.400000 -0.400000 -0.333333    0.00166667  91 t-inv T
 -0.500000  0.000000 -0.333333    0.00166667  92 t-inv T
  0.500000 -0.500000 -0.333333    0.00166667  92 t-inv T
  0.400000 -0.000000 -0.333333    0.00166667  93 t-inv T
 -0.400000  0.400000 -0.333333    0.00166667  93 t-inv T
  0.300000 -0.000000 -0.333333    0.00166667  94 t-inv T
 -0.300000  0.300000 -0.333333    0.00166667  94 t-inv T
  0.200000 -0.000000 -0.333333    0.00166667  95 t-inv T
 -0.200000  0.200000 -0.333333    0.00166667  95 t-inv T
  0.100000 -0.000000 -0.333333    0.00166667  96 t-inv T
 -0.100000  0.100000 -0.333333    0.00166667  96 t-inv T
  0.000000 -0.100000 -0.333333    0.00166667  97 t-inv T
 -0.100000 -0.100000 -0.333333    0.00166667  98 t-inv T
  0.100000 -0.200000 -0.333333    0.00166667  98 t-inv T
 -0.200000 -0.100000 -0.333333    0.00166667  99 t-inv T
  0.200000 -0.300000 -0.333333    0.00166667  99 t-inv T
 -0.300000 -0.100000 -0.333333    0.00166667 100 t-inv T
  0.300000 -0.400000 -0.333333    0.00166667 100 t-inv T
 -0.400000 -0.100000 -0.333333    0.00166667 101 t-inv T
  0.400000 -0.500000 -0.333333    0.00166667 101 t-inv T
 -0.500000 -0.100000 -0.333333    0.00166667 102 t-inv T
  0.500000 -0.600000 -0.333333    0.00166667 102 t-inv T
  0.400000 -0.100000 -0.333333    0.00166667 103 t-inv T
 -0.400000  0.300000 -0.333333    0.00166667 103 t-inv T
  0.300000 -0.100000 -0.333333    0.00166667 104 t-inv T
 -0.300000  0.200000 -0.333333    0.00166667 104 t-inv T
  0.200000 -0.100000 -0.333333    0.00166667 105 t-inv T
 -0.200000  0.100000 -0.333333    0.00166667 105 t-inv T
  0.000000 -0.200000 -0.333333    0.00166667 106 t-inv T
 -0.100000 -0.200000 -0.333333    0.00166667 107 t-inv T
  0.100000 -0.300000 -0.333333    0.00166667 107 t-inv T
 -0.200000 -0.200000 -0.333333    0.00166667 108 t-inv T
  0.200000 -0.400000 -0.333333    0.00166667 108 t-inv T
 -0.300000 -0.200000 -0.333333    0.00166667 109 t-inv T
  0.300000 -0.500000 -0.333333    0.00166667 109 t-inv T
 -0.400000 -0.200000 -0.333333    0.00166667 110 t-inv T
  0.400000 -0.600000 -0.333333    0.00166667 110 t-inv T
 -0.500000 -0.200000 -0.333333    0.00166667 111 t-inv T
  0.500000 -0.700000 -0.333333    0.00166667 111 t-inv T
  0.400000 -0.200000 -0.333333    0.00166667 112 t-inv T
 -0.400000  0.200000 -0.333333    0.00166667 112 t-inv T
  0.300000 -0.200000 -0.333333    0.00166667 113 t-inv T
 -0.300000  0.100000 -0.333333    0.00166667 113 t-inv T
  0.000000 -0.300000 -0.333333    0.00166667 114 t-inv T
 -0.100000 -0.300000 -0.333333    0.00166667 115 t-inv T
  0.100000 -0.400000 -0.333333    0.00166667 115 t-inv T
 -0.200000 -0.300000 -0.333333    0.00166667 116 t-inv T
  0.200000 -0.500000 -0.333333    0.00166667 116 t-inv T
 -0.300000 -0.300000 -0.333333    0.00166667 117 t-inv T
  0.300000 -0.600000 -0.333333    0.00166667 117 t-inv T
 -0.400000 -0.300000 -0.333333    0.00166667 118 t-inv T
  0.400000 -0.700000 -0.333333    0.00166667 118 t-inv T
 -0.500000 -0.300000 -0.333333    0.00166667 119 t-inv T
  0.500000 -0.800000 -0.333333    0.00166667 119 t-inv T
  0.400000 -0.300000 -0.333333    0.00166667 120 t-inv T
 -0.400000  0.100000 -0.333333    0.00166667 120 t-inv T
  0.000000 -0.400000 -0.333333    0.00166667 121 t-inv T
 -0.100000 -0.400000 -0.333333    0.00166667 122 t-inv T
  0.100000 -0.500000 -0.333333    0.00166667 122 t-inv T
 -0.200000 -0.400000 -0.333333    0.00166667 123 t-inv T
  0.200000 -0.600000 -0.333333    0.00166667 123 t-inv T
 -0.300000 -0.400000 -0.333333    0.00166667 124 t-inv T
  0.300000 -0.700000 -0.333333    0.00166667 124 t-inv T
 -0.400000 -0.400000 -0.333333    0.00166667 125 t-inv T
  0.400000 -0.800000 -0.333333    0.00166667 125 t-inv T
 -0.500000 -0.400000 -0.333333    0.00166667 126 t-inv T
  0.500000 -0.900000 -0.333333    0.00166667 126 t-inv T
  0.000000 -0.500000 -0.333333    0.00166667 127 t-inv T
 -0.100000 -0.500000 -0.333333    0.00166667 128 t-inv T
  0.100000 -0.600000 -0.333333    0.00166667 128 t-inv T
 -0.200000 -0.500000 -0.333333    0.00166667 129 t-inv T
  0.200000 -0.700000 -0.333333    0.00166667 129 t-inv T
 -0.300000 -0.500000 -0.333333    0.00166667 130 t-inv T
  0.300000 -0.800000 -0.333333    0.00166667 130 t-inv T
 -0.400000 -0.500000 -0.333333    0.00166667 131 t-inv T
  0.400000 -0.900000 -0.333333    0.00166667 131 t-inv T
  0.000000  0.400000 -0.333333    0.00166667 132 t-inv T
 -0.100000  0.400000 -0.333333    0.00166667 133 t-inv T
  0.100000  0.300000 -0.333333    0.00166667 133 t-inv T
 -0.200000  0.400000 -0.333333    0.00166667 134 t-inv T
  0.200000  0.200000 -0.333333    0.00166667 134 t-inv T
 -0.300000  0.400000 -0.333333    0.00166667 135 t-inv T
  0.300000  0.100000 -0.333333    0.00166667 135 t-inv T
  0.000000  0.300000 -0.333333    0.00166667 136 t-inv T
 -0.100000  0.300000 -0.333333    0.00166667 137 t-inv T
  0.100000  0.200000 -0.333333    0.00166667 137 t-inv T
 -0.200000  0.300000 -0.333333    0.00166667 138 t-inv T
  0.200000  0.100000 -0.333333    0.00166667 138 t-inv T
  0.000000  0.200000 -0.333333    0.00166667 139 t-inv T
 -0.100000  0.200000 -0.333333    0.00166667 140 t-inv T
  0.100000  0.100000 -0.333333    0.00166667 140 t-inv T
  0.000000  0.100000 -0.333333    0.00166667 141 t-inv T
 -0.100000  0.000000 -0.500000    0.00166667 143 t-inv T
  0.100000 -0.100000 -0.500000    0.00166667 143 t-inv T
 -0.200000  0.000000 -0.500000    0.00166667 144 t-inv T
  0.200000 -0.200000 -0.500000    0.00166667 144 t-inv T
 -0.300000  0.000000 -0.500000    0.00166667 145 t-inv T
  0.300000 -0.300000 -0.500000    0.00166667 145 t-inv T
 -0.400000  0.000000 -0.500000    0.00166667 146 t-inv T
  0.400000 -0.400000 -0.500000    0.00166667 146 t-inv T
  0.000000 -0.100000 -0.500000    0.00166667 148 t-inv T
 -0.100000 -0.100000 -0.500000    0.00166667 149 t-inv T
  0.100000 -0.200000 -0.500000    0.00166667 149 t-inv T
 -0.200000 -0.100000 -0.500000    0.00166667 150 t-inv T
  0.200000 -0.300000 -0.500000    0.00166667 150 t-inv T
 -0.300000 -0.100000 -0.500000    0.00166667 151 t-inv T
  0.300000 -0.400000 -0.500000    0.00166667 151 t-inv T
 -0.400000 -0.100000 -0.500000    0.00166667 152 t-inv T
  0.400000 -0.500000 -0.500000    0.00166667 152 t-inv T
 -0.500000 -0.100000 -0.500000    0.00166667 153 t-inv T
  0.500000 -0.600000 -0.500000    0.00166667 153 t-inv T
  0.400000 -0.100000 -0.500000    0.00166667 154 t-inv T
 -0.400000  0.300000 -0.500000    0.00166667 154 t-inv T
  0.300000 -0.100000 -0.500000    0.00166667 155 t-inv T
 -0.300000  0.200000 -0.500000    0.00166667 155 t-inv T
  0.000000 -0.200000 -0.500000    0.00166667 157 t-inv T
 -0.100000 -0.200000 -0.500000    0.00166667 158 t-inv T
  0.100000 -0.300000 -0.500000    0.00166667 158 t-inv T
 -0.200000 -0.200000 -0.500000    0.00166667 159 t-inv T
  0.200000 -0.400000 -0.500000    0.00166667 159 t-inv T
 -0.300000 -0.200000 -0.500000    0.00166667 160 t-inv T
  0.300000 -0.500000 -0.500000    0.00166667 160 t-inv T
 -0.400000 -0.200000 -0.500000    0.00166667 161 t-inv T
  0.400000 -0.600000 -0.500000    0.00166667 161 t-inv T
 -0.500000 -0.200000 -0.500000    0.00166667 162 t-inv T
  0.500000 -0.700000 -0.500000    0.00166667 162 t-inv T
  0.000000 -0.300000 -0.500000    0.00166667 164 t-inv T
 -0.100000 -0.300000 -0.500000    0.00166667 165 t-inv T
  0.100000 -0.400000 -0.500000    0.00166667 165 t-inv T
 -0.200000 -0.300000 -0.500000    0.00166667 166 t-inv T
  0.200000 -0.500000 -0.500000    0.00166667 166 t-inv T
 -0.300000 -0.300000 -0.500000    0.00166667 167 t-inv T
  0.300000 -0.600000 -0.500000    0.00166667 167 t-inv T
  0.000000 -0.400000 -0.500000    0.00166667 169 t-inv T
 -0.100000 -0.400000 -0.500000    0.00166667 170 t-inv T
  0.100000 -0.500000 -0.500000    0.00166667 170 t-inv T


--------------------------------------------------------------------------------------------------------




 Dimension of arrays:
   k-points           NKPTS =    172   k-points in BZ     NKDIM =    172   number of bands    NBANDS=     24
   number of dos      NEDOS =    301   number of ions     NIONS =      4
   non local maximal  LDIM  =      6   non local SUM 2l+1 LMDIM =     18
   total plane-waves  NPLWV =  23040
   max r-space proj   IRMAX =      1   max aug-charges    IRDMAX=  19292
   dimension x,y,z NGX =    24 NGY =   24 NGZ =   40
   dimension x,y,z NGXF=    48 NGYF=   48 NGZF=   80
   support grid    NGXF=    48 NGYF=   48 NGZF=   80
   ions per type =               2   2
   NGX,Y,Z   is equivalent  to a cutoff of  12.51, 12.51, 12.81 a.u.
   NGXF,Y,Z  is equivalent  to a cutoff of  25.02, 25.02, 25.61 a.u.

 SYSTEM =  unknown system                          
 POSCAR =  Ga2 N2                                  

 Startparameter for this run:
   NWRITE =      2    write-flag & timer
   PREC   = accura    normal or accurate (medium, high low for compatibility)
   ISTART =      0    job   : 0-new  1-cont  2-samecut
   ICHARG =      2    charge: 1-file 2-atom 10-const
   ISPIN  =      1    spin polarized calculation?
   LNONCOLLINEAR =      F non collinear calculations
   LSORBIT =      F    spin-orbit coupling
   INIWAV =      1    electr: 0-lowe 1-rand  2-diag
   LASPH  =      F    aspherical Exc in radial PAW
   METAGGA=      F    non-selfconsistent MetaGGA calc.

 Electronic Relaxation 1
   ENCUT  =  520.0 eV  38.22 Ry    6.18 a.u.   5.93  5.93  9.65*2*pi/ulx,y,z
   ENINI  =  520.0     initial cutoff
   ENAUG  =  627.1 eV  augmentation charge cutoff
   NELM   =    100;   NELMIN=  2; NELMDL= -5     # of ELM steps 
   EDIFF  = 0.1E-07   stopping-criterion for ELM
   LREAL  =      F    real-space projection
   NLSPLINE    = F    spline interpolate recip. space projectors
   LCOMPAT=      F    compatible to vasp.4.4
   GGA_COMPAT  = T    GGA compatible to vasp.4.4-vasp.4.6
   LMAXPAW     = -100 max onsite density
   LMAXMIX     =    2 max onsite mixed and CHGCAR
   VOSKOWN=      0    Vosko Wilk Nusair interpolation
   ROPT   =    0.00000   0.00000
 Ionic relaxation
   EDIFFG = 0.1E-06   stopping-criterion for IOM
   NSW    =      1    number of steps for IOM
   NBLOCK =      1;   KBLOCK =      1    inner block; outer block 
   IBRION =      8    ionic relax: 0-MD 1-quasi-New 2-CG
   NFREE  =      0    steps in history (QN), initial steepest desc. (CG)
   ISIF   =      2    stress and relaxation
   IWAVPR =     11    prediction:  0-non 1-charg 2-wave 3-comb
   ISYM   =      2    0-nonsym 1-usesym 2-fastsym
   LCORR  =      T    Harris-Foulkes like correction to forces

   POTIM  = 0.5000    time-step for ionic-motion
   TEIN   =    0.0    initial temperature
   TEBEG  =    0.0;   TEEND  =   0.0 temperature during run
   SMASS  =  -3.00    Nose mass-parameter (am)
   estimated Nose-frequenzy (Omega)   =  0.10E-29 period in steps =****** mass=  -0.232E-27a.u.
   SCALEE = 1.0000    scale energy and forces
   NPACO  =    256;   APACO  = 16.0  distance and # of slots for P.C.
   PSTRESS=    0.0 pullay stress

  Mass of Ions in am
   POMASS =  69.72 14.00
  Ionic Valenz
   ZVAL   =  13.00  5.00
  Atomic Wigner-Seitz radii
   RWIGS  =  -1.00 -1.00
  virtual crystal weights 
   VCA    =   1.00  1.00
   NELECT =      36.0000    total number of electrons
   NUPDOWN=      -1.0000    fix difference up-down

 DOS related values:
   EMIN   =  10.00;   EMAX   =-10.00  energy-range for DOS
   EFERMI =   0.00
   ISMEAR =     0;   SIGMA  =   0.01  broadening in eV -4-tet -1-fermi 0-gaus

 Electronic relaxation 2 (details)
   IALGO  =     38    algorithm
   LDIAG  =      T    sub-space diagonalisation (order eigenvalues)
   LSUBROT=      F    optimize rotation matrix (better conditioning)
   TURBO    =      0    0=normal 1=particle mesh
   IRESTART =      0    0=no restart 2=restart with 2 vectors
   NREBOOT  =      0    no. of reboots
   NMIN     =      0    reboot dimension
   EREF     =   0.00    reference energy to select bands
   IMIX   =      4    mixing-type and parameters
     AMIX     =   0.40;   BMIX     =  1.00
     AMIX_MAG =   1.60;   BMIX_MAG =  1.00
     AMIN     =   0.10
     WC   =   100.;   INIMIX=   1;  MIXPRE=   1;  MAXMIX= -45

 Intra band minimization:
   WEIMIN = 0.0010     energy-eigenvalue tresh-hold
   EBREAK =  0.10E-09  absolut break condition
   DEPER  =   0.30     relativ break condition  

   TIME   =   0.40     timestep for ELM

  volume/ion in A,a.u.               =      11.43        77.15
  Fermi-wavevector in a.u.,A,eV,Ry     =   1.511636  2.856578 31.089909  2.285044
  Thomas-Fermi vector in A             =   2.621667
 
 Write flags
   LWAVE        =      F    write WAVECAR
   LDOWNSAMPLE  =      F    k-point downsampling of WAVECAR
   LCHARG       =      T    write CHGCAR
   LVTOT        =      F    write LOCPOT, total local potential
   LVHAR        =      F    write LOCPOT, Hartree potential only
   LELF         =      F    write electronic localiz. function (ELF)
   LORBIT       =      0    0 simple, 1 ext, 2 COOP (PROOUT), +10 PAW based schemes


 Dipole corrections
   LMONO  =      F    monopole corrections only (constant potential shift)
   LDIPOL =      F    correct potential (dipole corrections)
   IDIPOL =      0    1-x, 2-y, 3-z, 4-all directions 
   EPSILON=  1.0000000 bulk dielectric constant

 Exchange correlation treatment:
   GGA     =    --    GGA type
   LEXCH   =     8    internal setting for exchange type
   VOSKOWN=      0    Vosko Wilk Nusair interpolation
   LHFCALC =     F    Hartree Fock is set to
   LHFONE  =     F    Hartree Fock one center treatment
   AEXX    =    0.0000 exact exchange contribution

 Linear response parameters
   LEPSILON=     T    determine dielectric tensor
   LRPA    =     F    only Hartree local field effects (RPA)
   LNABLA  =     F    use nabla operator in PAW spheres
   LVEL    =     F    velocity operator in full k-point grid
   LINTERFAST=   F  fast interpolation
   KINTER  =     0    interpolate to denser k-point grid
   CSHIFT  =0.1000    complex shift for real part using Kramers Kronig
   OMEGAMAX=  -1.0    maximum frequency
   DEG_THRESHOLD= 0.2000000E-02 threshold for treating states as degnerate
   RTIME   =   -0.100 relaxation time in fs
  (WPLASMAI=    0.000 imaginary part of plasma frequency in eV, 0.658/RTIME)
   DFIELD  = 0.0000000 0.0000000 0.0000000 field for delta impulse in time
 
 Orbital magnetization related:
   ORBITALMAG=     F  switch on orbital magnetization
   LCHIMAG   =     F  perturbation theory with respect to B field
   DQ        =  0.001000  dq finite difference perturbation B field
   LLRAUG    =     F  two centre corrections for induced B field

 PEAD related settings:
   LPEAD      =     T    switch on PEAD
   IPEAD      =     4    finite difference order for dpsi/dk
   LCALCPOL   =     F    calculate macroscopic polarization
   LCALCEPS   =     F    calculate dielectric tensor
   EFIELD_PEAD=    0.0000    0.0000    0.0000
   SKIP_EDOTP =     F
   LRPA       =     F
   SKIP_SCF   =     F


--------------------------------------------------------------------------------------------------------


 linear response using symmetry
 charge density and potential will be updated during run
 non-spin polarized calculation
 Variant of blocked Davidson
 Davidson routine will perform the subspace rotation
 perform sub-space diagonalisation
    after iterative eigenvector-optimisation
 modified Broyden-mixing scheme, WC =      100.0
 initial mixing is a Kerker type mixing with AMIX =  0.4000 and BMIX =      1.0000
 Hartree-type preconditioning will be used
 using additional bands            6
 reciprocal scheme for non local part
 use partial core corrections
 calculate Harris-corrections to forces 
   (improved forces if not selfconsistent)
 use gradient corrections 
 use of overlap-Matrix (Vanderbilt PP)
 Gauss-broadening in eV      SIGMA  =   0.01


--------------------------------------------------------------------------------------------------------


  energy-cutoff  :      520.00
  volume of cell :       45.73
      direct lattice vectors                 reciprocal lattice vectors
     3.188930159  0.000000000  0.000000000     0.313584792  0.181048264  0.000000000
    -1.594465079  2.761694528  0.000000000     0.000000000  0.362096528  0.000000000
     0.000000000  0.000000000  5.192356851     0.000000000  0.000000000  0.192590769

  length of vectors
     3.188930159  3.188930159  5.192356851     0.362096528  0.362096528  0.192590769


 
 k-points in units of 2pi/SCALE and weight: pymatgen with grid density = 3000 / numb
   0.00000000  0.00000000  0.00000000       0.002
   0.03135848  0.01810483  0.00000000       0.007
   0.06271696  0.03620965  0.00000000       0.007
   0.09407544  0.05431448  0.00000000       0.007
   0.12543392  0.07241931  0.00000000       0.007
   0.15679240  0.09052413  0.00000000       0.003
   0.00000000  0.03620965  0.00000000       0.003
   0.03135848  0.05431448  0.00000000       0.007
   0.06271696  0.07241931  0.00000000       0.007
   0.09407544  0.09052413  0.00000000       0.007
   0.12543392  0.10862896  0.00000000       0.007
   0.15679240  0.12673378  0.00000000       0.007
  -0.12543392 -0.03620965  0.00000000       0.007
  -0.09407544 -0.01810483  0.00000000       0.007
  -0.06271696 -0.00000000  0.00000000       0.003
   0.00000000  0.07241931  0.00000000       0.003
   0.03135848  0.09052413  0.00000000       0.007
   0.06271696  0.10862896  0.00000000       0.007
   0.09407544  0.12673378  0.00000000       0.007
   0.12543392  0.14483861  0.00000000       0.007
   0.15679240  0.16294344  0.00000000       0.007
  -0.12543392 -0.00000000  0.00000000       0.003
   0.00000000  0.10862896  0.00000000       0.003
   0.03135848  0.12673378  0.00000000       0.007
   0.06271696  0.14483861  0.00000000       0.007
   0.09407544  0.16294344  0.00000000       0.007
   0.12543392  0.18104826  0.00000000       0.003
   0.00000000  0.14483861  0.00000000       0.003
   0.03135848  0.16294344  0.00000000       0.007
   0.06271696  0.18104826  0.00000000       0.003
   0.00000000  0.18104826  0.00000000       0.002
   0.00000000  0.00000000  0.03209846       0.003
   0.03135848  0.01810483  0.03209846       0.007
   0.06271696  0.03620965  0.03209846       0.007
   0.09407544  0.05431448  0.03209846       0.007
   0.12543392  0.07241931  0.03209846       0.007
   0.15679240  0.09052413  0.03209846       0.007
  -0.12543392 -0.07241931  0.03209846       0.007
  -0.09407544 -0.05431448  0.03209846       0.007
  -0.06271696 -0.03620965  0.03209846       0.007
  -0.03135848 -0.01810483  0.03209846       0.007
   0.00000000  0.03620965  0.03209846       0.003
   0.03135848  0.05431448  0.03209846       0.007
   0.06271696  0.07241931  0.03209846       0.007
   0.09407544  0.09052413  0.03209846       0.007
   0.12543392  0.10862896  0.03209846       0.007
   0.15679240  0.12673378  0.03209846       0.007
  -0.12543392 -0.03620965  0.03209846       0.007
  -0.09407544 -0.01810483  0.03209846       0.007
  -0.06271696 -0.00000000  0.03209846       0.007
   0.00000000  0.07241931  0.03209846       0.003
   0.03135848  0.09052413  0.03209846       0.007
   0.06271696  0.10862896  0.03209846       0.007
   0.09407544  0.12673378  0.03209846       0.007
   0.12543392  0.14483861  0.03209846       0.007
   0.15679240  0.16294344  0.03209846       0.007
  -0.12543392 -0.00000000  0.03209846       0.007
  -0.09407544  0.01810483  0.03209846       0.007
   0.00000000  0.10862896  0.03209846       0.003
   0.03135848  0.12673378  0.03209846       0.007
   0.06271696  0.14483861  0.03209846       0.007
   0.09407544  0.16294344  0.03209846       0.007
   0.12543392  0.18104826  0.03209846       0.007
   0.15679240  0.19915309  0.03209846       0.007
  -0.12543392  0.03620965  0.03209846       0.007
   0.00000000  0.14483861  0.03209846       0.003
   0.03135848  0.16294344  0.03209846       0.007
   0.06271696  0.18104826  0.03209846       0.007
   0.09407544  0.19915309  0.03209846       0.007
   0.12543392  0.21725792  0.03209846       0.007
   0.15679240  0.23536274  0.03209846       0.007
   0.00000000  0.18104826  0.03209846       0.003
   0.03135848  0.19915309  0.03209846       0.007
   0.06271696  0.21725792  0.03209846       0.007
   0.09407544  0.23536274  0.03209846       0.007
   0.12543392  0.25346757  0.03209846       0.007
   0.00000000 -0.14483861  0.03209846       0.003
   0.03135848 -0.12673378  0.03209846       0.007
   0.06271696 -0.10862896  0.03209846       0.007
   0.09407544 -0.09052413  0.03209846       0.007
   0.00000000 -0.10862896  0.03209846       0.003
   0.03135848 -0.09052413  0.03209846       0.007
   0.06271696 -0.07241931  0.03209846       0.007
   0.00000000 -0.07241931  0.03209846       0.003
   0.03135848 -0.05431448  0.03209846       0.007
   0.00000000 -0.03620965  0.03209846       0.003
   0.00000000  0.00000000  0.06419692       0.003
   0.03135848  0.01810483  0.06419692       0.007
   0.06271696  0.03620965  0.06419692       0.007
   0.09407544  0.05431448  0.06419692       0.007
   0.12543392  0.07241931  0.06419692       0.007
   0.15679240  0.09052413  0.06419692       0.007
  -0.12543392 -0.07241931  0.06419692       0.007
  -0.09407544 -0.05431448  0.06419692       0.007
  -0.06271696 -0.03620965  0.06419692       0.007
  -0.03135848 -0.01810483  0.06419692       0.007
   0.00000000  0.03620965  0.06419692       0.003
   0.03135848  0.05431448  0.06419692       0.007
   0.06271696  0.07241931  0.06419692       0.007
   0.09407544  0.09052413  0.06419692       0.007
   0.12543392  0.10862896  0.06419692       0.007
   0.15679240  0.12673378  0.06419692       0.007
  -0.12543392 -0.03620965  0.06419692       0.007
  -0.09407544 -0.01810483  0.06419692       0.007
  -0.06271696 -0.00000000  0.06419692       0.007
   0.00000000  0.07241931  0.06419692       0.003
   0.03135848  0.09052413  0.06419692       0.007
   0.06271696  0.10862896  0.06419692       0.007
   0.09407544  0.12673378  0.06419692       0.007
   0.12543392  0.14483861  0.06419692       0.007
   0.15679240  0.16294344  0.06419692       0.007
  -0.12543392 -0.00000000  0.06419692       0.007
  -0.09407544  0.01810483  0.06419692       0.007
   0.00000000  0.10862896  0.06419692       0.003
   0.03135848  0.12673378  0.06419692       0.007
   0.06271696  0.14483861  0.06419692       0.007
   0.09407544  0.16294344  0.06419692       0.007
   0.12543392  0.18104826  0.06419692       0.007
   0.15679240  0.19915309  0.06419692       0.007
  -0.12543392  0.03620965  0.06419692       0.007
   0.00000000  0.14483861  0.06419692       0.003
   0.03135848  0.16294344  0.06419692       0.007
   0.06271696  0.18104826  0.06419692       0.007
   0.09407544  0.19915309  0.06419692       0.007
   0.12543392  0.21725792  0.06419692       0.007
   0.15679240  0.23536274  0.06419692       0.007
   0.00000000  0.18104826  0.06419692       0.003
   0.03135848  0.19915309  0.06419692       0.007
   0.06271696  0.21725792  0.06419692       0.007
   0.09407544  0.23536274  0.06419692       0.007
   0.12543392  0.25346757  0.06419692       0.007
   0.00000000 -0.14483861  0.06419692       0.003
   0.03135848 -0.12673378  0.06419692       0.007
   0.06271696 -0.10862896  0.06419692       0.007
   0.09407544 -0.09052413  0.06419692       0.007
   0.00000000 -0.10862896  0.06419692       0.003
   0.03135848 -0.09052413  0.06419692       0.007
   0.06271696 -0.07241931  0.06419692       0.007
   0.00000000 -0.07241931  0.06419692       0.003
   0.03135848 -0.05431448  0.06419692       0.007
   0.00000000 -0.03620965  0.06419692       0.003
   0.00000000  0.00000000  0.09629538       0.002
   0.03135848  0.01810483  0.09629538       0.007
   0.06271696  0.03620965  0.09629538       0.007
   0.09407544  0.05431448  0.09629538       0.007
   0.12543392  0.07241931  0.09629538       0.007
   0.15679240  0.09052413  0.09629538       0.003
   0.00000000  0.03620965  0.09629538       0.003
   0.03135848  0.05431448  0.09629538       0.007
   0.06271696  0.07241931  0.09629538       0.007
   0.09407544  0.09052413  0.09629538       0.007
   0.12543392  0.10862896  0.09629538       0.007
   0.15679240  0.12673378  0.09629538       0.007
  -0.12543392 -0.03620965  0.09629538       0.007
  -0.09407544 -0.01810483  0.09629538       0.007
  -0.06271696 -0.00000000  0.09629538       0.003
   0.00000000  0.07241931  0.09629538       0.003
[...]
      6      -0.5928      0.00000
      7       0.0663      0.00000
      8       0.0146      0.00000
      9       0.3624      0.00000
     10      -0.2733      0.00000
     11      -0.1417      0.00000
     12       0.3632      0.00000
     13      -1.3521      0.00000
     14       0.5341      0.00000
     15      -2.0616      0.00000
     16       0.6773      0.00000
     17       0.1704      0.00000
     18       1.6790      0.00000
     19      -1.0514      0.00000
     20       1.4556      0.00000
     21      -2.4116      0.00000
     22       2.2967      0.00000
     23      -1.3744      0.00000
     24       1.4151      0.00000

 k-point 172 :       0.0000    0.5000    0.5000
  band No.  band energies     occupation 
      1       0.0978      0.00000
      2      -0.0460      0.00000
      3       0.2992      0.00000
      4      -0.1793      0.00000
      5       0.5550      0.00000
      6      -0.6015      0.00000
      7       0.1308      0.00000
      8      -0.0039      0.00000
      9       0.6745      0.00000
     10      -0.5814      0.00000
     11      -0.2935      0.00000
     12       0.3803      0.00000
     13      -1.4589      0.00000
     14       0.6111      0.00000
     15      -2.1244      0.00000
     16       0.5929      0.00000
     17       0.2358      0.00000
     18       1.8444      0.00000
     19      -0.0556      0.00000
     20       0.9879      0.00000
     21      -4.6170      0.00000
     22       2.4830      0.00000
     23      -4.0892      0.00000
     24       3.3132      0.00000


------------------------ aborting loop because EDIFF is reached ----------------------------------------


    FORLOC:  cpu time    0.0028: real time    0.0028
    FORNL :  cpu time    0.2943: real time    0.2943
    STRESS:  cpu time    1.2190: real time    1.2203
    FORCOR:  cpu time    0.0252: real time    0.0252
    OFIELD:  cpu time    0.0001: real time    0.0001
    FORLOC:  cpu time    0.0018: real time    0.0018
    FORNL :  cpu time    0.2667: real time    0.2667
    STRESS:  cpu time    1.2431: real time    1.2447
    FORCOR:  cpu time    0.0200: real time    0.0250
    OFIELD:  cpu time    0.0001: real time    0.0001
    FORLOC:  cpu time    0.0030: real time    0.0030
    FORNL :  cpu time    0.2988: real time    0.2988
    STRESS:  cpu time    1.2102: real time    1.2115
    FORCOR:  cpu time    0.0108: real time    0.0108
    OFIELD:  cpu time    0.0001: real time    0.0001
    FORLOC:  cpu time    0.0037: real time    0.0037
    FORNL :  cpu time    0.2898: real time    0.2898
    STRESS:  cpu time    1.1946: real time    1.1956
    FORCOR:  cpu time    0.0106: real time    0.0106
    OFIELD:  cpu time    0.0001: real time    0.0001

 INTERNAL STRAIN TENSOR  FOR ION    4  DIRECTION 3   (eV/Angst):
 -----------------------------------------------------------------------------
     5.31071  0.00000  0.00000
     0.00000  5.30745 -0.04337
     0.00000  0.04318-10.08711


 POSITION                   FORCE-CONSTANT FOR ION    4 DIRECTION 3 (eV/Angst/Angst)
 -----------------------------------------------------------------------------------
      0.00000      1.84113      2.59142        -0.000000      0.000132      4.687388
      1.59447      0.92056      5.18760        -0.000000      0.000013      6.928800
      0.00000      1.84113      4.54807        -0.000000     -0.000290      6.005530
      1.59447      0.92056      1.95189         0.000000      0.000144    -17.621719
 -----------------------------------------------------------------------------------
    total drift:                                0.000000      0.000000      0.000000


 BORN EFFECTIVE CHARGE FOR ION    4 DIRECTION 3 :   0.000  -0.000  -2.755
                   rigid augmentation           :   0.000   0.000  -0.212
                   ionic contribution           :   0.000   0.000   5.000
                   Berry contribution           :   0.000  -0.000  -7.543


--------------------------------------------------------------------------------------------------------


  LATTYP: Found a hexagonal cell.
 ALAT       =     3.1889301586
 C/A-ratio  =     1.6282441424
  
  Lattice vectors:
  
 A1 = (   3.1889301586,   0.0000000000,   0.0000000000)
 A2 = (  -1.5944650793,   2.7616945282,   0.0000000000)
 A3 = (   0.0000000000,   0.0000000000,   5.1923568512)


Analysis of symmetry for initial positions (statically):
=====================================================================
 Subroutine PRICEL returns:
 Original cell was already a primitive cell.
 

 Routine SETGRP: Setting up the symmetry group for a 
 hexagonal supercell.


 Subroutine GETGRP returns: Found  2 space group operations
 (whereof  1 operations were pure point group operations)
 out of a pool of 24 trial point group operations.


The static configuration has the point symmetry C_1 .
 The point group associated with its full space group is C_1h.


Analysis of symmetry for dynamics (positions and initial velocities):
=====================================================================
 Subroutine PRICEL returns:
 Original cell was already a primitive cell.
 

 Routine SETGRP: Setting up the symmetry group for a 
 hexagonal supercell.


 Subroutine GETGRP returns: Found  2 space group operations
 (whereof  1 operations were pure point group operations)
 out of a pool of 24 trial point group operations.


The dynamic configuration has the point symmetry C_1 .
 The point group associated with its full space group is C_1h.


 Subroutine INISYM returns: Found  2 space group operations
 (whereof  1 operations are pure point group operations),
 and found     1 'primitive' translations



--------------------------------------------------------------------------------------------------------




 MACROSCOPIC STATIC DIELECTRIC TENSOR (including local field effects in DFT)
 ------------------------------------------------------
           5.713939     0.000000     0.000000
           0.000000     5.705799     0.000011
          -0.000000    -0.000011     5.888001
 ------------------------------------------------------


 PIEZOELECTRIC TENSOR  for field in x, y, z        (e  Angst)
          XX          YY          ZZ          XY          YZ          ZX
  --------------------------------------------------------------------------------
  x     0.00028    -0.00049     0.00028     0.00001     0.00005     1.59446
  y    -0.00003    -0.00000    -0.00011     0.00000     1.59393     0.00000
  z     1.45718     1.45718    -2.95414     0.00000     0.00028     0.00000

 PIEZOELECTRIC TENSOR  for field in x, y, z        (C/m^2)
          XX          YY          ZZ          XY          YZ          ZX
  --------------------------------------------------------------------------------
  x     0.00000     0.00000     0.00000     0.00000     0.00000     0.55865
  y    -0.00001    -0.00000    -0.00004    -0.00000     0.55846     0.00000
  z     0.51055     0.51055    -1.03504     0.00000     0.00010     0.00000
 
 BORN EFFECTIVE CHARGES (in e, cummulative output)
 -------------------------------------------------
 ion    1
    1     2.61566     0.00010     0.00006
    2    -0.00000     2.61567    -0.00004
    3    -0.00000     0.00001     2.75504
 ion    2
    1     2.61566     0.00011    -0.00006
    2    -0.00000     2.61568     0.00003
    3     0.00000     0.00001     2.75503
 ion    3
    1    -2.61564    -0.00013     0.00003
    2     0.00000    -2.61570    -0.00000
    3    -0.00000    -0.00001    -2.75504
 ion    4
    1    -2.61568    -0.00009    -0.00003
    2     0.00000    -2.61565     0.00002
    3    -0.00000    -0.00001    -2.75503

 INTERNAL STRAIN TENSOR FOR ION    1 for displacements in x,y,z  (eV/Angst):
          X           Y           Z          XY          YZ          ZX
  --------------------------------------------------------------------------------
  x    -0.00000     0.00000     0.00000    -7.28821    -0.00000    -5.49714
  y    -7.82177     7.71191     0.11222     0.00000    -4.98852    -0.00000
  z    -5.23621    -5.41177    10.06204    -0.00000     0.15067    -0.00000

 INTERNAL STRAIN TENSOR FOR ION    2 for displacements in x,y,z  (eV/Angst):
          X           Y           Z          XY          YZ          ZX
  --------------------------------------------------------------------------------
  x     0.00000    -0.00000     0.00000     7.29078    -0.00000    -5.49043
  y     7.70927    -7.82051     0.11360    -0.00000    -4.98369    -0.00000
  z    -5.40834    -5.23266    10.05594    -0.00000     0.15070    -0.00000

 INTERNAL STRAIN TENSOR FOR ION    3 for displacements in x,y,z  (eV/Angst):
          X           Y           Z          XY          YZ          ZX
  --------------------------------------------------------------------------------
  x    -0.00000     0.00000     0.00000    -9.72918     0.00000     5.39681
  y    -9.54227     9.54073    -0.00054     0.00000     5.60990     0.00000
  z     5.30859     5.31179   -10.08909     0.00000     0.04317    -0.00000

 INTERNAL STRAIN TENSOR FOR ION    4 for displacements in x,y,z  (eV/Angst):
          X           Y           Z          XY          YZ          ZX
  --------------------------------------------------------------------------------
  x     0.00000    -0.00000    -0.00000     9.72799     0.00000     5.37652
  y     9.54284    -9.54408    -0.00104    -0.00000     5.60409     0.00000
  z     5.31071     5.30745   -10.08711     0.00000     0.04318    -0.00000


--------------------------------------------------------------------------------------------------------


 
 SECOND DERIVATIVES (NOT SYMMETRIZED)
 ------------------------------------
               1X          1Y          1Z          2X          2Y          2Z          3X          3Y          3Z          4X          4Y          4Z 
  1X   -13.069405   -0.000000    0.000000    0.413719    0.000000    0.000000    0.958652    0.000000    0.000000   11.697034    0.000000   -0.000000
  1Y    -0.000000  -13.068967    0.000099    0.000000    0.413361    0.000004    0.000000    0.957992    0.000075    0.000000   11.697614   -0.000178
  1Z    -0.000000   -0.000962  -19.735075    0.000000    0.000723    8.154858    0.000000    0.001337    6.911688   -0.000000   -0.001097    4.668530
  2X     0.413489    0.000000    0.000000  -13.069356   -0.000000    0.000000   11.697751    0.000000   -0.000000    0.958117    0.000000    0.000000
  2Y     0.000000    0.413385    0.000010   -0.000000  -13.068852    0.000150    0.000000   11.697115   -0.000182    0.000000    0.958352    0.000022
  2Z     0.000000    0.000709    8.154934   -0.000000   -0.000921  -19.735036   -0.000000   -0.001115    4.668154    0.000000    0.001327    6.911948
  3X     0.975351    0.000000    0.000000   11.713360    0.000000    0.000000  -13.355018   -0.000000    0.000000    0.666307    0.000000    0.000000
  3Y     0.000000    0.975241    0.000025    0.000000   11.713551   -0.000050   -0.000000  -13.354562   -0.000171    0.000000    0.665770    0.000195
  3Z     0.000000    0.000014    6.928816    0.000000    0.000119    4.687363    0.000000    0.000163  -17.621397   -0.000000   -0.000296    6.005218
  4X    11.713560    0.000000    0.000000    0.975156    0.000000   -0.000000    0.665709    0.000000    0.000000  -13.354424   -0.000000    0.000000
  4Y     0.000000   11.713342    0.000091    0.000000    0.975317   -0.000146    0.000000    0.666295    0.000082   -0.000000  -13.354954   -0.000027
  4Z     0.000000    0.000132    4.687388    0.000000    0.000013    6.928800   -0.000000   -0.000290    6.005530    0.000000    0.000144  -17.621719
 
 
 Eigenvectors and eigenvalues of the dynamical matrix
 ----------------------------------------------------
 
 
   1 f  =   20.332346 THz   127.751898 2PiTHz  678.214041 cm-1    84.087854 meV
             X         Y         Z           dx          dy          dz
      0.000000  1.841130  2.591421    -0.000000    0.000004    0.039230  
      1.594465  0.920565  5.187600    -0.000000   -0.000001   -0.039241  
      0.000000  1.841130  4.548070    -0.000000    0.000002   -0.706006  
      1.594465  0.920565  1.951892     0.000000   -0.000012    0.706029  
 
   2 f  =   16.602468 THz   104.316380 2PiTHz  553.798690 cm-1    68.662311 meV
             X         Y         Z           dx          dy          dz
      0.000000  1.841130  2.591421     0.000000    0.244193   -0.000031  
      1.594465  0.920565  5.187600    -0.000000   -0.243992    0.000031  
      0.000000  1.841130  4.548070     0.000000    0.663415    0.000005  
      1.594465  0.920565  1.951892    -0.000000   -0.663865   -0.000006  
 
   3 f  =   16.602437 THz   104.316185 2PiTHz  553.797654 cm-1    68.662183 meV
             X         Y         Z           dx          dy          dz
      0.000000  1.841130  2.591421    -0.243940    0.000000   -0.000000  
      1.594465  0.920565  5.187600     0.244249   -0.000000    0.000000  
      0.000000  1.841130  4.548070    -0.663985    0.000000   -0.000000  
      1.594465  0.920565  1.951892     0.663295   -0.000000   -0.000000  
 
   4 f  =   16.305071 THz   102.447785 2PiTHz  543.878620 cm-1    67.432379 meV
             X         Y         Z           dx          dy          dz
      0.000000  1.841130  2.591421    -0.288985   -0.000000   -0.000000  
      1.594465  0.920565  5.187600    -0.288711   -0.000000   -0.000000  
      0.000000  1.841130  4.548070     0.645067    0.000000    0.000000  
      1.594465  0.920565  1.951892     0.645772    0.000000    0.000000  
 
   5 f  =   16.305052 THz   102.447663 2PiTHz  543.877975 cm-1    67.432299 meV
             X         Y         Z           dx          dy          dz
      0.000000  1.841130  2.591421     0.000000   -0.288757   -0.000016  
      1.594465  0.920565  5.187600     0.000000   -0.288935   -0.000012  
      0.000000  1.841130  4.548070    -0.000000    0.645651    0.000024  
      1.594465  0.920565  1.951892    -0.000000    0.645191    0.000034  
 
   6 f  =   15.600097 THz    98.018303 2PiTHz  520.363221 cm-1    64.516840 meV
             X         Y         Z           dx          dy          dz
      0.000000  1.841130  2.591421     0.000000   -0.000014    0.288790  
      1.594465  0.920565  5.187600     0.000000   -0.000015    0.288784  
      0.000000  1.841130  4.548070    -0.000000    0.000029   -0.645460  
      1.594465  0.920565  1.951892    -0.000000    0.000030   -0.645435  
 
   7 f  =    9.838083 THz    61.814498 2PiTHz  328.163110 cm-1    40.687055 meV
             X         Y         Z           dx          dy          dz
      0.000000  1.841130  2.591421    -0.000000   -0.000056   -0.706016  
      1.594465  0.920565  5.187600     0.000000    0.000060    0.706019  
      0.000000  1.841130  4.548070    -0.000000   -0.000013   -0.039237  
      1.594465  0.920565  1.951892    -0.000000    0.000010    0.039234  
 
   8 f  =    4.045436 THz    25.418221 2PiTHz  134.941202 cm-1    16.730583 meV
             X         Y         Z           dx          dy          dz
      0.000000  1.841130  2.591421    -0.663635    0.000000   -0.000000  
      1.594465  0.920565  5.187600     0.663645   -0.000000   -0.000000  
      0.000000  1.841130  4.548070     0.244089   -0.000000   -0.000000  
      1.594465  0.920565  1.951892    -0.244100    0.000000   -0.000000  
 
   9 f  =    4.045138 THz    25.416350 2PiTHz  134.931265 cm-1    16.729351 meV
             X         Y         Z           dx          dy          dz
      0.000000  1.841130  2.591421     0.000000    0.663655   -0.000049  
      1.594465  0.920565  5.187600    -0.000000   -0.663626    0.000052  
      0.000000  1.841130  4.548070    -0.000000   -0.244091   -0.000001  
      1.594465  0.920565  1.951892     0.000000    0.244095    0.000004  
 
  10 f/i=    0.007901 THz     0.049641 2PiTHz    0.263535 cm-1     0.032674 meV
             X         Y         Z           dx          dy          dz
      0.000000  1.841130  2.591421     0.645422    0.000000    0.000000  
      1.594465  0.920565  5.187600     0.645418    0.000000    0.000000  
      0.000000  1.841130  4.548070     0.288848    0.000000    0.000000  
      1.594465  0.920565  1.951892     0.288849    0.000000    0.000000  
 
  11 f/i=    0.007962 THz     0.050024 2PiTHz    0.265570 cm-1     0.032927 meV
             X         Y         Z           dx          dy          dz
      0.000000  1.841130  2.591421     0.000000   -0.645406    0.001536  
      1.594465  0.920565  5.187600     0.000000   -0.645432    0.001539  
      0.000000  1.841130  4.548070     0.000000   -0.288850    0.000690  
      1.594465  0.920565  1.951892     0.000000   -0.288840    0.000689  
 
  12 f/i=    0.009032 THz     0.056748 2PiTHz    0.301267 cm-1     0.037352 meV
             X         Y         Z           dx          dy          dz
      0.000000  1.841130  2.591421    -0.000000    0.001536    0.645446  
      1.594465  0.920565  5.187600    -0.000000    0.001539    0.645445  
      0.000000  1.841130  4.548070    -0.000000    0.000690    0.288786  
      1.594465  0.920565  1.951892    -0.000000    0.000688    0.288786  
 


--------------------------------------------------------------------------------------------------------




 MACROSCOPIC STATIC DIELECTRIC TENSOR IONIC CONTRIBUTION
 ------------------------------------------------------
           4.272872     0.000176     0.000002
           0.000176     4.272954    -0.000008
           0.000002    -0.000008     5.179348
 ------------------------------------------------------


 ELASTIC MODULI IONIC CONTR (kBar)
 Direction    XX          YY          ZZ          XY          YZ          ZX
 --------------------------------------------------------------------------------
 XX        -628.6465    287.1634    323.5562     -0.0000      1.0109     -0.0000
 YY         287.1634   -628.6403    323.5409     -0.0000      0.8411      0.0000
 ZZ         323.5562    323.5409   -613.1175      0.0000     -1.6043      0.0000
 XY          -0.0000     -0.0000      0.0000   -473.3736      0.0000      0.5389
 YZ           1.0109      0.8411     -1.6043      0.0000   -155.1580     -0.0000
 ZX          -0.0000      0.0000      0.0000      0.5389     -0.0000   -163.6572
 --------------------------------------------------------------------------------


 PIEZOELECTRIC TENSOR IONIC CONTR  for field in x, y, z        (C/m^2)
          XX          YY          ZZ          XY          YZ          ZX
  --------------------------------------------------------------------------------
  x     0.00001    -0.00001     0.00000     0.00009    -0.00003    -0.78686
  y    -0.00405    -0.00383     0.00821     0.00000    -0.76612     0.00000
  z    -0.88486    -0.88485     1.67678    -0.00000     0.00893    -0.00000


--------------------------------------------------------------------------------------------------------


     LOOP+:  cpu time  960.3530: real time  966.6245
    4ORBIT:  cpu time    0.0000: real time    0.0000

 total amount of memory used by VASP MPI-rank0   106318. kBytes
=======================================================================

   base      :      30000. kBytes
   nonl-proj :      62297. kBytes
   fftplans  :        884. kBytes
   grid      :       2244. kBytes
   one-center:         62. kBytes
   wavefun   :      10831. kBytes
 
  
  
 General timing and accounting informations for this job:
 ========================================================
  
                  Total CPU time used (sec):      962.051
                            User time (sec):      948.341
                          System time (sec):       13.710
                         Elapsed time (sec):      968.388
  
                   Maximum memory used (kb):      404768.
                   Average memory used (kb):           0.
  
                          Minor page faults:       616599
                          Major page faults:           10
                 Voluntary context switches:         9918
