<?xml version="1.0" encoding="ISO-8859-1"?>
<modeling>
 <generator>
  <i name="program" type="string">vasp </i>
  <i name="version" type="string">5.4.4.18Apr17-6-g9f103f2a35  </i>
  <i name="subversion" type="string">(build Aug 24 2017 11:22:49) complex            parallel </i>
  <i name="platform" type="string">LinuxIFC </i>
  <i name="date" type="string">2023 12 25 </i>
  <i name="time" type="string">13:07:25 </i>
 </generator>
 <incar>
  <i type="string" name="PREC">accurate</i>
  <i type="string" name="ALGO"> Normal</i>
  <i type="int" name="NELM">   100</i>
  <i type="int" name="IBRION">     8</i>
  <i name="EDIFF">      0.00000001</i>
  <i name="SYMPREC">      0.00000001</i>
  <i name="ENCUT">    520.00000000</i>
  <i type="logical" name="LREAL"> F  </i>
  <i type="int" name="ISMEAR">     0</i>
  <i name="SIGMA">      0.01000000</i>
  <i type="logical" name="LWAVE"> F  </i>
  <v type="int" name="KPOINT_BSE">    -1     0     0     0</v>
  <i type="int" name="NELM">   100</i>
  <i type="logical" name="LPEAD"> T  </i>
  <i type="logical" name="LEPSILON"> T  </i>
 </incar>
 <structure name="primitive_cell" >
  <crystal>
   <varray name="basis" >
    <v>      -3.22567537       0.00000000       3.22567537 </v>
    <v>       0.00000000       3.22567537       3.22567537 </v>
    <v>      -3.22567537       3.22567537       0.00000000 </v>
   </varray>
   <i name="volume">     67.12618571 </i>
   <varray name="rec_basis" >
    <v>      -0.15500630      -0.15500630       0.15500630 </v>
    <v>       0.15500630       0.15500630       0.15500630 </v>
    <v>      -0.15500630       0.15500630      -0.15500630 </v>
   </varray>
  </crystal>
  <varray name="positions" >
   <v>       0.00000000       0.00000000       0.00000000 </v>
   <v>       0.49999996      -0.49999996       0.49999996 </v>
  </varray>
 </structure>
 <varray name="primitive_index" >
  <v type="int" >        1 </v>
  <v type="int" >        2 </v>
 </varray>
 <kpoints>
  <generation param="Gamma">
   <v type="int" name="divisions">      12       12       12 </v>
   <v name="usershift">      0.00000000       0.00000000       0.00000000 </v>
   <v name="genvec1">      0.08333333       0.00000000       0.00000000 </v>
   <v name="genvec2">      0.00000000       0.08333333      -0.00000000 </v>
   <v name="genvec3">     -0.00000000      -0.00000000       0.08333333 </v>
   <v name="shift">      0.00000000       0.00000000       0.00000000 </v>
  </generation>
  <varray name="kpointlist" >
   <v>       0.00000000       0.00000000       0.00000000 </v>
   <v>       0.08333333       0.00000000       0.00000000 </v>
   <v>       0.16666667       0.00000000      -0.00000000 </v>
   <v>       0.25000000      -0.00000000      -0.00000000 </v>
   <v>       0.33333333      -0.00000000       0.00000000 </v>
   <v>       0.41666667      -0.00000000      -0.00000000 </v>
   <v>       0.50000000      -0.00000000      -0.00000000 </v>
   <v>       0.08333333       0.08333333       0.00000000 </v>
   <v>       0.16666667       0.08333333       0.00000000 </v>
   <v>       0.25000000       0.08333333      -0.00000000 </v>
   <v>       0.33333333       0.08333333      -0.00000000 </v>
   <v>       0.41666667       0.08333333      -0.00000000 </v>
   <v>       0.50000000       0.08333333      -0.00000000 </v>
   <v>      -0.41666667       0.08333333       0.00000000 </v>
   <v>      -0.33333333       0.08333333       0.00000000 </v>
   <v>      -0.25000000       0.08333333       0.00000000 </v>
   <v>      -0.16666667       0.08333333      -0.00000000 </v>
   <v>      -0.08333333       0.08333333      -0.00000000 </v>
   <v>       0.16666667       0.16666667       0.00000000 </v>
   <v>       0.25000000       0.16666667       0.00000000 </v>
   <v>       0.33333333       0.16666667       0.00000000 </v>
   <v>       0.41666667       0.16666667      -0.00000000 </v>
   <v>       0.50000000       0.16666667      -0.00000000 </v>
   <v>      -0.41666667       0.16666667      -0.00000000 </v>
   <v>      -0.33333333       0.16666667       0.00000000 </v>
   <v>      -0.25000000       0.16666667       0.00000000 </v>
   <v>      -0.16666667       0.16666667      -0.00000000 </v>
   <v>       0.25000000       0.25000000       0.00000000 </v>
   <v>       0.33333333       0.25000000       0.00000000 </v>
   <v>       0.41666667       0.25000000      -0.00000000 </v>
   <v>       0.50000000       0.25000000       0.00000000 </v>
   <v>      -0.41666667       0.25000000       0.00000000 </v>
   <v>      -0.33333333       0.25000000       0.00000000 </v>
   <v>      -0.25000000       0.25000000       0.00000000 </v>
   <v>       0.33333333       0.33333333       0.00000000 </v>
   <v>       0.41666667       0.33333333      -0.00000000 </v>
   <v>       0.50000000       0.33333333       0.00000000 </v>
   <v>      -0.41666667       0.33333333      -0.00000000 </v>
   <v>      -0.33333333       0.33333333      -0.00000000 </v>
   <v>       0.41666667       0.41666667       0.00000000 </v>
   <v>       0.50000000       0.41666667       0.00000000 </v>
   <v>      -0.41666667       0.41666667       0.00000000 </v>
   <v>       0.50000000       0.50000000       0.00000000 </v>
   <v>       0.08333333       0.00000000       0.08333333 </v>
   <v>       0.16666667       0.00000000       0.08333333 </v>
   <v>       0.25000000      -0.00000000       0.08333333 </v>
   <v>       0.33333333      -0.00000000       0.08333333 </v>
   <v>       0.41666667      -0.00000000       0.08333333 </v>
   <v>       0.50000000       0.00000000       0.08333333 </v>
   <v>      -0.41666667      -0.00000000       0.08333333 </v>
   <v>      -0.33333333       0.00000000       0.08333333 </v>
   <v>      -0.25000000       0.00000000       0.08333333 </v>
   <v>      -0.16666667       0.00000000       0.08333333 </v>
   <v>      -0.08333333      -0.00000000       0.08333333 </v>
   <v>       0.25000000       0.16666667       0.08333333 </v>
   <v>       0.33333333       0.16666667       0.08333333 </v>
   <v>       0.41666667       0.16666667       0.08333333 </v>
   <v>       0.50000000       0.16666667       0.08333333 </v>
   <v>      -0.41666667       0.16666667       0.08333333 </v>
   <v>       0.16666667       0.25000000       0.08333333 </v>
   <v>       0.33333333       0.25000000       0.08333333 </v>
   <v>       0.41666667       0.25000000       0.08333333 </v>
   <v>       0.50000000       0.25000000       0.08333333 </v>
   <v>      -0.41666667       0.25000000       0.08333333 </v>
   <v>      -0.33333333       0.25000000       0.08333333 </v>
   <v>      -0.25000000       0.25000000       0.08333333 </v>
   <v>      -0.16666667       0.25000000       0.08333333 </v>
   <v>       0.16666667       0.33333333       0.08333333 </v>
   <v>       0.25000000       0.33333333       0.08333333 </v>
   <v>       0.41666667       0.33333333       0.08333333 </v>
   <v>       0.50000000       0.33333333       0.08333333 </v>
   <v>      -0.41666667       0.33333333       0.08333333 </v>
   <v>      -0.33333333       0.33333333       0.08333333 </v>
   <v>      -0.25000000       0.33333333       0.08333333 </v>
   <v>       0.16666667       0.41666667       0.08333333 </v>
   <v>       0.25000000       0.41666667       0.08333333 </v>
   <v>       0.33333333       0.41666667       0.08333333 </v>
   <v>       0.50000000       0.41666667       0.08333333 </v>
   <v>      -0.41666667       0.41666667       0.08333333 </v>
   <v>      -0.33333333       0.41666667       0.08333333 </v>
   <v>       0.16666667       0.50000000       0.08333333 </v>
   <v>       0.25000000       0.50000000       0.08333333 </v>
   <v>       0.33333333       0.50000000       0.08333333 </v>
   <v>       0.41666667       0.50000000       0.08333333 </v>
   <v>      -0.41666667       0.50000000       0.08333333 </v>
   <v>       0.16666667      -0.41666667       0.08333333 </v>
   <v>       0.25000000      -0.41666667       0.08333333 </v>
   <v>       0.33333333      -0.41666667       0.08333333 </v>
   <v>       0.41666667      -0.41666667       0.08333333 </v>
   <v>       0.50000000      -0.41666667       0.08333333 </v>
   <v>       0.16666667      -0.33333333       0.08333333 </v>
   <v>       0.25000000      -0.33333333       0.08333333 </v>
   <v>       0.33333333      -0.33333333       0.08333333 </v>
   <v>       0.41666667      -0.33333333       0.08333333 </v>
   <v>       0.16666667      -0.25000000       0.08333333 </v>
   <v>       0.25000000      -0.25000000       0.08333333 </v>
   <v>       0.33333333      -0.25000000       0.08333333 </v>
   <v>       0.16666667      -0.16666667       0.08333333 </v>
   <v>       0.25000000      -0.16666667       0.08333333 </v>
   <v>       0.16666667      -0.08333333       0.08333333 </v>
   <v>       0.16666667      -0.00000000       0.16666667 </v>
   <v>       0.25000000       0.00000000       0.16666667 </v>
   <v>       0.33333333       0.00000000       0.16666667 </v>
   <v>       0.41666667       0.00000000       0.16666667 </v>
   <v>       0.50000000      -0.00000000       0.16666667 </v>
   <v>      -0.41666667      -0.00000000       0.16666667 </v>
   <v>      -0.33333333      -0.00000000       0.16666667 </v>
   <v>      -0.25000000       0.00000000       0.16666667 </v>
   <v>      -0.16666667      -0.00000000       0.16666667 </v>
   <v>       0.50000000       0.33333333       0.16666667 </v>
   <v>      -0.41666667       0.33333333       0.16666667 </v>
   <v>      -0.33333333       0.33333333       0.16666667 </v>
   <v>       0.25000000       0.41666667       0.16666667 </v>
   <v>      -0.41666667       0.41666667       0.16666667 </v>
   <v>      -0.33333333       0.41666667       0.16666667 </v>
   <v>      -0.25000000       0.41666667       0.16666667 </v>
   <v>       0.25000000       0.50000000       0.16666667 </v>
   <v>       0.33333333       0.50000000       0.16666667 </v>
   <v>      -0.33333333       0.50000000       0.16666667 </v>
   <v>       0.25000000      -0.41666667       0.16666667 </v>
   <v>       0.33333333      -0.41666667       0.16666667 </v>
   <v>       0.41666667      -0.41666667       0.16666667 </v>
   <v>       0.25000000      -0.33333333       0.16666667 </v>
   <v>       0.33333333      -0.33333333       0.16666667 </v>
   <v>       0.41666667      -0.33333333       0.16666667 </v>
   <v>       0.50000000      -0.33333333       0.16666667 </v>
   <v>       0.25000000      -0.25000000       0.16666667 </v>
   <v>       0.33333333      -0.25000000       0.16666667 </v>
   <v>       0.41666667      -0.25000000       0.16666667 </v>
   <v>       0.25000000      -0.16666667       0.16666667 </v>
   <v>       0.33333333      -0.16666667       0.16666667 </v>
   <v>       0.25000000      -0.08333333       0.16666667 </v>
   <v>       0.25000000      -0.00000000       0.25000000 </v>
   <v>       0.33333333       0.00000000       0.25000000 </v>
   <v>       0.41666667      -0.00000000       0.25000000 </v>
   <v>       0.50000000      -0.00000000       0.25000000 </v>
   <v>      -0.41666667      -0.00000000       0.25000000 </v>
   <v>      -0.33333333       0.00000000       0.25000000 </v>
   <v>      -0.25000000      -0.00000000       0.25000000 </v>
   <v>      -0.25000000       0.50000000       0.25000000 </v>
   <v>       0.33333333      -0.41666667       0.25000000 </v>
   <v>       0.33333333      -0.33333333       0.25000000 </v>
   <v>       0.41666667      -0.33333333       0.25000000 </v>
   <v>       0.33333333      -0.25000000       0.25000000 </v>
   <v>       0.41666667      -0.25000000       0.25000000 </v>
   <v>       0.50000000      -0.25000000       0.25000000 </v>
   <v>       0.33333333      -0.16666667       0.25000000 </v>
   <v>       0.41666667      -0.16666667       0.25000000 </v>
   <v>       0.33333333      -0.08333333       0.25000000 </v>
   <v>       0.33333333      -0.00000000       0.33333333 </v>
   <v>       0.41666667       0.00000000       0.33333333 </v>
   <v>       0.50000000      -0.00000000       0.33333333 </v>
   <v>      -0.41666667      -0.00000000       0.33333333 </v>
   <v>      -0.33333333      -0.00000000       0.33333333 </v>
   <v>       0.41666667      -0.25000000       0.33333333 </v>
   <v>       0.41666667      -0.16666667       0.33333333 </v>
   <v>       0.50000000      -0.16666667       0.33333333 </v>
   <v>       0.41666667      -0.08333333       0.33333333 </v>
   <v>       0.41666667      -0.00000000       0.41666667 </v>
   <v>       0.50000000       0.00000000       0.41666667 </v>
   <v>      -0.41666667      -0.00000000       0.41666667 </v>
   <v>       0.50000000      -0.08333333       0.41666667 </v>
   <v>       0.50000000      -0.00000000       0.50000000 </v>
  </varray>
  <varray name="weights" >
   <v>       0.00057870 </v>
   <v>       0.00462963 </v>
   <v>       0.00462963 </v>
   <v>       0.00462963 </v>
   <v>       0.00462963 </v>
   <v>       0.00462963 </v>
   <v>       0.00231481 </v>
   <v>       0.00231481 </v>
   <v>       0.00925926 </v>
   <v>       0.00925926 </v>
   <v>       0.00925926 </v>
   <v>       0.00925926 </v>
   <v>       0.00925926 </v>
   <v>       0.00925926 </v>
   <v>       0.00925926 </v>
   <v>       0.00925926 </v>
   <v>       0.00925926 </v>
   <v>       0.00462963 </v>
   <v>       0.00231481 </v>
   <v>       0.00925926 </v>
   <v>       0.00925926 </v>
   <v>       0.00925926 </v>
   <v>       0.00925926 </v>
   <v>       0.00925926 </v>
   <v>       0.00925926 </v>
   <v>       0.00925926 </v>
   <v>       0.00462963 </v>
   <v>       0.00231481 </v>
   <v>       0.00925926 </v>
   <v>       0.00925926 </v>
   <v>       0.00925926 </v>
   <v>       0.00925926 </v>
   <v>       0.00925926 </v>
   <v>       0.00462963 </v>
   <v>       0.00231481 </v>
   <v>       0.00925926 </v>
   <v>       0.00925926 </v>
   <v>       0.00925926 </v>
   <v>       0.00462963 </v>
   <v>       0.00231481 </v>
   <v>       0.00925926 </v>
   <v>       0.00462963 </v>
   <v>       0.00115741 </v>
   <v>       0.00115741 </v>
   <v>       0.00462963 </v>
   <v>       0.00462963 </v>
   <v>       0.00462963 </v>
   <v>       0.00462963 </v>
   <v>       0.00462963 </v>
   <v>       0.00462963 </v>
   <v>       0.00462963 </v>
   <v>       0.00462963 </v>
   <v>       0.00462963 </v>
   <v>       0.00231481 </v>
   <v>       0.00462963 </v>
   <v>       0.00925926 </v>
   <v>       0.00925926 </v>
   <v>       0.00925926 </v>
   <v>       0.00462963 </v>
   <v>       0.00462963 </v>
   <v>       0.00462963 </v>
   <v>       0.00925926 </v>
   <v>       0.00925926 </v>
   <v>       0.00925926 </v>
   <v>       0.00925926 </v>
   <v>       0.00925926 </v>
   <v>       0.00462963 </v>
   <v>       0.00925926 </v>
   <v>       0.00462963 </v>
   <v>       0.00462963 </v>
   <v>       0.00925926 </v>
   <v>       0.00925926 </v>
   <v>       0.00925926 </v>
   <v>       0.00462963 </v>
   <v>       0.00925926 </v>
   <v>       0.00925926 </v>
   <v>       0.00462963 </v>
   <v>       0.00462963 </v>
   <v>       0.00925926 </v>
   <v>       0.00462963 </v>
   <v>       0.00925926 </v>
   <v>       0.00925926 </v>
   <v>       0.00925926 </v>
   <v>       0.00462963 </v>
   <v>       0.00231481 </v>
   <v>       0.00925926 </v>
   <v>       0.00925926 </v>
   <v>       0.00925926 </v>
   <v>       0.00925926 </v>
   <v>       0.00231481 </v>
   <v>       0.00925926 </v>
   <v>       0.00925926 </v>
   <v>       0.00925926 </v>
   <v>       0.00462963 </v>
   <v>       0.00925926 </v>
   <v>       0.00925926 </v>
   <v>       0.00462963 </v>
   <v>       0.00925926 </v>
   <v>       0.00462963 </v>
   <v>       0.00462963 </v>
   <v>       0.00115741 </v>
   <v>       0.00462963 </v>
   <v>       0.00462963 </v>
   <v>       0.00462963 </v>
   <v>       0.00462963 </v>
   <v>       0.00462963 </v>
   <v>       0.00462963 </v>
   <v>       0.00462963 </v>
   <v>       0.00231481 </v>
   <v>       0.00462963 </v>
   <v>       0.00925926 </v>
   <v>       0.00462963 </v>
   <v>       0.00462963 </v>
   <v>       0.00462963 </v>
   <v>       0.00925926 </v>
   <v>       0.00462963 </v>
   <v>       0.00925926 </v>
   <v>       0.00462963 </v>
   <v>       0.00231481 </v>
   <v>       0.00925926 </v>
   <v>       0.00925926 </v>
   <v>       0.00462963 </v>
   <v>       0.00925926 </v>
   <v>       0.00925926 </v>
   <v>       0.00925926 </v>
   <v>       0.00231481 </v>
   <v>       0.00925926 </v>
   <v>       0.00925926 </v>
   <v>       0.00462963 </v>
   <v>       0.00925926 </v>
   <v>       0.00462963 </v>
   <v>       0.00462963 </v>
   <v>       0.00115741 </v>
   <v>       0.00462963 </v>
   <v>       0.00462963 </v>
   <v>       0.00462963 </v>
   <v>       0.00462963 </v>
   <v>       0.00462963 </v>
   <v>       0.00231481 </v>
   <v>       0.00115741 </v>
   <v>       0.00462963 </v>
   <v>       0.00925926 </v>
   <v>       0.00462963 </v>
   <v>       0.00925926 </v>
   <v>       0.00925926 </v>
   <v>       0.00231481 </v>
   <v>       0.00925926 </v>
   <v>       0.00462963 </v>
   <v>       0.00462963 </v>
   <v>       0.00115741 </v>
   <v>       0.00462963 </v>
   <v>       0.00462963 </v>
   <v>       0.00462963 </v>
   <v>       0.00231481 </v>
   <v>       0.00462963 </v>
   <v>       0.00925926 </v>
   <v>       0.00231481 </v>
   <v>       0.00462963 </v>
   <v>       0.00115741 </v>
   <v>       0.00462963 </v>
   <v>       0.00231481 </v>
   <v>       0.00231481 </v>
   <v>       0.00057870 </v>
  </varray>
 </kpoints>
 <parameters>
  <separator name="general" >
   <i type="string" name="SYSTEM">unknown system</i>
   <i type="logical" name="LCOMPAT"> F  </i>
  </separator>
  <separator name="electronic" >
   <i type="string" name="PREC">accura</i>
   <i name="ENMAX">    520.00000000</i>
   <i name="ENAUG">    351.16500000</i>
   <i name="EDIFF">      0.00000001</i>
   <i type="int" name="IALGO">    38</i>
   <i type="int" name="IWAVPR">    11</i>
   <i type="int" name="NBANDS">    16</i>
   <i name="NELECT">     16.00000000</i>
   <i type="int" name="TURBO">     0</i>
   <i type="int" name="IRESTART">     0</i>
   <i type="int" name="NREBOOT">     0</i>
   <i type="int" name="NMIN">     0</i>
   <i name="EREF">      0.00000000</i>
   <separator name="electronic smearing" >
    <i type="int" name="ISMEAR">     0</i>
    <i name="SIGMA">      0.01000000</i>
    <i name="KSPACING">      0.50000000</i>
    <i type="logical" name="KGAMMA"> T  </i>
   </separator>
   <separator name="electronic projectors" >
    <i type="logical" name="LREAL"> F  </i>
    <v name="ROPT">      0.00000000      0.00000000</v>
    <i type="int" name="LMAXPAW">  -100</i>
    <i type="int" name="LMAXMIX">     2</i>
    <i type="logical" name="NLSPLINE"> F  </i>
   </separator>
   <separator name="electronic startup" >
    <i type="int" name="ISTART">     0</i>
    <i type="int" name="ICHARG">     2</i>
    <i type="int" name="INIWAV">     1</i>
   </separator>
   <separator name="electronic spin" >
    <i type="int" name="ISPIN">     1</i>
    <i type="logical" name="LNONCOLLINEAR"> F  </i>
    <v name="MAGMOM">      1.00000000      1.00000000</v>
    <i name="NUPDOWN">     -1.00000000</i>
    <i type="logical" name="LSORBIT"> F  </i>
    <v name="SAXIS">      0.00000000      0.00000000      1.00000000</v>
    <i type="logical" name="LSPIRAL"> F  </i>
    <v name="QSPIRAL">      0.00000000      0.00000000      0.00000000</v>
    <i type="logical" name="LZEROZ"> F  </i>
   </separator>
   <separator name="electronic exchange-correlation" >
    <i type="logical" name="LASPH"> F  </i>
    <i type="logical" name="LMETAGGA"> F  </i>
   </separator>
   <separator name="electronic convergence" >
    <i type="int" name="NELM">   100</i>
    <i type="int" name="NELMDL">    -5</i>
    <i type="int" name="NELMIN">     2</i>
    <i name="ENINI">    520.00000000</i>
    <separator name="electronic convergence detail" >
     <i type="logical" name="LDIAG"> T  </i>
     <i type="logical" name="LSUBROT"> F  </i>
     <i name="WEIMIN">      0.00100000</i>
     <i name="EBREAK">      0.00000000</i>
     <i name="DEPER">      0.30000000</i>
     <i type="int" name="NRMM">     4</i>
     <i name="TIME">      0.40000000</i>
    </separator>
   </separator>
   <separator name="electronic mixer" >
    <i name="AMIX">      0.40000000</i>
    <i name="BMIX">      1.00000000</i>
    <i name="AMIN">      0.10000000</i>
    <i name="AMIX_MAG">      1.60000000</i>
    <i name="BMIX_MAG">      1.00000000</i>
    <separator name="electronic mixer details" >
     <i type="int" name="IMIX">     4</i>
     <i type="logical" name="MIXFIRST"> F  </i>
     <i type="int" name="MAXMIX">   -45</i>
     <i name="WC">    100.00000000</i>
     <i type="int" name="INIMIX">     1</i>
     <i type="int" name="MIXPRE">     1</i>
     <i type="int" name="MREMOVE">     5</i>
    </separator>
   </separator>
   <separator name="electronic dipolcorrection" >
    <i type="logical" name="LDIPOL"> F  </i>
    <i type="logical" name="LMONO"> F  </i>
    <i type="int" name="IDIPOL">     0</i>
    <i name="EPSILON">      1.00000000</i>
    <v name="DIPOL">   -100.00000000   -100.00000000   -100.00000000</v>
    <i name="EFIELD">      0.00000000</i>
   </separator>
  </separator>
  <separator name="grids" >
   <i type="int" name="NGX">    36</i>
   <i type="int" name="NGY">    36</i>
   <i type="int" name="NGZ">    36</i>
   <i type="int" name="NGXF">    72</i>
   <i type="int" name="NGYF">    72</i>
   <i type="int" name="NGZF">    72</i>
   <i type="logical" name="ADDGRID"> F  </i>
  </separator>
  <separator name="ionic" >
   <i type="int" name="NSW">     1</i>
   <i type="int" name="IBRION">     8</i>
   <i type="int" name="MDALGO">     0</i>
   <i type="int" name="ISIF">     2</i>
   <i name="PSTRESS">      0.00000000</i>
   <i name="EDIFFG">      0.00000010</i>
   <i type="int" name="NFREE">     0</i>
   <i name="POTIM">      0.50000000</i>
   <i name="SMASS">     -3.00000000</i>
   <i name="SCALEE">      1.00000000</i>
  </separator>
  <separator name="ionic md" >
   <i name="TEBEG">      0.00010000</i>
   <i name="TEEND">      0.00010000</i>
   <i type="int" name="NBLOCK">     1</i>
   <i type="int" name="KBLOCK">     1</i>
   <i type="int" name="NPACO">   256</i>
   <i name="APACO">     16.00000000</i>
  </separator>
  <separator name="symmetry" >
   <i type="int" name="ISYM">     2</i>
   <i name="SYMPREC">      0.00000001</i>
  </separator>
  <separator name="dos" >
   <i type="int" name="LORBIT">     0</i>
   <v name="RWIGS">     -1.00000000     -1.00000000</v>
   <i type="int" name="NEDOS">   301</i>
   <i name="EMIN">     10.00000000</i>
   <i name="EMAX">    -10.00000000</i>
   <i name="EFERMI">      0.00000000</i>
  </separator>
  <separator name="writing" >
   <i type="int" name="NWRITE">     2</i>
   <i type="logical" name="LWAVE"> F  </i>
   <i type="logical" name="LDOWNSAMPLE"> F  </i>
   <i type="logical" name="LCHARG"> T  </i>
   <i type="logical" name="LPARD"> F  </i>
   <i type="logical" name="LVTOT"> F  </i>
   <i type="logical" name="LVHAR"> F  </i>
   <i type="logical" name="LELF"> F  </i>
   <i type="logical" name="LOPTICS"> F  </i>
   <v name="STM">      0.00000000      0.00000000      0.00000000      0.00000000      0.00000000      0.00000000      0.00000000</v>
  </separator>
  <separator name="performance" >
   <i type="int" name="NPAR">     8</i>
   <i type="int" name="NSIM">     4</i>
   <i type="int" name="NBLK">    -1</i>
   <i type="logical" name="LPLANE"> T  </i>
   <i type="logical" name="LSCALAPACK"> T  </i>
   <i type="logical" name="LSCAAWARE"> F  </i>
   <i type="logical" name="LSCALU"> F  </i>
   <i type="logical" name="LASYNC"> F  </i>
   <i type="logical" name="LORBITALREAL"> F  </i>
  </separator>
  <separator name="miscellaneous" >
   <i type="int" name="IDIOT">     3</i>
   <i type="int" name="ISPECIAL">     0</i>
   <i type="logical" name="LMUSIC"> F  </i>
   <v name="POMASS">    137.32700000     32.06600000</v>
   <v name="DARWINR">      0.00000000      0.00000000</v>
   <v name="DARWINV">      1.00000000      1.00000000</v>
   <i type="logical" name="LCORR"> T  </i>
  </separator>
  <i type="logical" name="GGA_COMPAT"> T  </i>
  <i type="logical" name="LBERRY"> F  </i>
  <i type="int" name="ICORELEVEL">     0</i>
  <i type="logical" name="LDAU"> F  </i>
  <i type="int" name="I_CONSTRAINED_M">     0</i>
  <separator name="electronic exchange-correlation" >
   <i type="string" name="GGA">--</i>
   <i type="int" name="VOSKOWN">     0</i>
   <i type="logical" name="LHFCALC"> F  </i>
   <i type="string" name="PRECFOCK"></i>
   <i type="logical" name="LSYMGRAD"> F  </i>
   <i type="logical" name="LHFONE"> F  </i>
   <i type="logical" name="LRHFCALC"> F  </i>
   <i type="logical" name="LTHOMAS"> F  </i>
   <i type="logical" name="LMODELHF"> F  </i>
   <i name="ENCUT4O">     -1.00000000</i>
   <i type="int" name="EXXOEP">     0</i>
   <i type="int" name="FOURORBIT">     0</i>
   <i name="AEXX">      0.00000000</i>
   <i name="HFALPHA">      0.00000000</i>
   <i name="MCALPHA">      0.00000000</i>
   <i name="ALDAX">      1.00000000</i>
   <i name="AGGAX">      1.00000000</i>
   <i name="ALDAC">      1.00000000</i>
   <i name="AGGAC">      1.00000000</i>
   <i type="int" name="NKREDX">     1</i>
   <i type="int" name="NKREDY">     1</i>
   <i type="int" name="NKREDZ">     1</i>
   <i type="logical" name="SHIFTRED"> F  </i>
   <i type="logical" name="ODDONLY"> F  </i>
   <i type="logical" name="EVENONLY"> F  </i>
   <i type="int" name="LMAXFOCK">     0</i>
   <i type="int" name="NMAXFOCKAE">     0</i>
   <i type="logical" name="LFOCKAEDFT"> F  </i>
   <i name="HFSCREEN">      0.00000000</i>
   <i name="HFSCREENC">      0.00000000</i>
   <i type="int" name="NBANDSGWLOW">     0</i>
  </separator>
  <separator name="vdW DFT" >
   <i type="logical" name="LUSE_VDW"> F  </i>
   <i name="Zab_VDW">     -0.84910000</i>
   <i name="PARAM1">      0.12340000</i>
   <i name="PARAM2">      1.00000000</i>
   <i name="PARAM3">      0.00000000</i>
  </separator>
  <separator name="model GW" >
   <i type="int" name="MODEL_GW">     0</i>
   <i name="MODEL_EPS0">     20.13785571</i>
   <i name="MODEL_ALPHA">      1.00000000</i>
  </separator>
  <separator name="linear response parameters" >
   <i type="logical" name="LEPSILON"> T  </i>
   <i type="logical" name="LRPA"> F  </i>
   <i type="logical" name="LNABLA"> F  </i>
   <i type="logical" name="LVEL"> F  </i>
   <i type="int" name="KINTER">     0</i>
   <i name="CSHIFT">      0.10000000</i>
   <i name="OMEGAMAX">     -1.00000000</i>
   <i name="DEG_THRESHOLD">      0.00200000</i>
   <i name="RTIME">     -0.10000000</i>
   <i name="WPLASMAI">      0.00000000</i>
   <v name="DFIELD">      0.00000000      0.00000000      0.00000000</v>
   <v name="WPLASMA">      0.00000000      0.00000000      0.00000000      0.00000000      0.00000000      0.00000000      0.00000000      0.00000000      0.00000000</v>
  </separator>
  <separator name="orbital magnetization" >
   <i type="logical" name="NUCIND"> F  </i>
   <v name="MAGPOS">      0.00000000      0.00000000      0.00000000</v>
   <i type="logical" name="LNICSALL"> T  </i>
   <i type="logical" name="ORBITALMAG"> F  </i>
   <i type="logical" name="LMAGBLOCH"> F  </i>
   <i type="logical" name="LCHIMAG"> F  </i>
   <i type="logical" name="LGAUGE"> T  </i>
   <i type="int" name="MAGATOM">     0</i>
   <v name="MAGDIPOL">      0.00000000      0.00000000      0.00000000</v>
   <v name="AVECCONST">      0.00000000      0.00000000      0.00000000</v>
  </separator>
  <separator name="response functions" >
   <i type="logical" name="LADDER"> F  </i>
   <i type="logical" name="LRPAFORCE"> F  </i>
   <i type="logical" name="LFXC"> F  </i>
   <i type="logical" name="LHARTREE"> T  </i>
   <i type="int" name="IBSE">     0</i>
   <v type="int" name="KPOINT">    -1     0     0     0</v>
   <i type="logical" name="LTCTE"> F  </i>
   <i type="logical" name="LTETE"> F  </i>
   <i type="logical" name="LTRIPLET"> F  </i>
   <i type="logical" name="LFXCEPS"> F  </i>
   <i type="logical" name="LFXHEG"> F  </i>
   <i type="int" name="NATURALO">     2</i>
   <i type="logical" name="L2ORDER"> F  </i>
   <i type="logical" name="LMP2LT"> F  </i>
   <i type="logical" name="LUSEW"> F  </i>
   <i name="ENCUTGW">     -2.00000000</i>
   <i name="ENCUTGWSOFT">     -2.00000000</i>
   <i name="ENCUTLF">     -1.00000000</i>
   <i type="int" name="LMAXMP2">    -1</i>
   <i name="SCISSOR">      0.00000000</i>
   <i type="int" name="NOMEGA">     0</i>
   <i type="int" name="NOMEGAR">     0</i>
   <i type="int" name="NBANDSGW">    -1</i>
   <i type="int" name="NBANDSO">    -1</i>
   <i type="int" name="NBANDSV">    -1</i>
   <i type="int" name="NELM">   100</i>
   <i type="int" name="NELMHF">     1</i>
   <i type="int" name="DIM">     3</i>
   <i type="int" name="ANTIRES">     0</i>
   <i name="OMEGAMAX">    -30.00000000</i>
   <i name="OMEGAMIN">    -30.00000000</i>
   <i name="OMEGATL">   -200.00000000</i>
   <i type="int" name="OMEGAGRID">   140</i>
   <i name="CSHIFT">     -0.10000000</i>
   <i type="logical" name="SELFENERGY"> F  </i>
   <i type="logical" name="LSPECTRAL"> F  </i>
   <i type="logical" name="LSPECTRALGW"> F  </i>
   <i type="logical" name="LSINGLES"> F  </i>
   <i type="logical" name="LFERMIGW"> F  </i>
   <i type="logical" name="ODDONLYGW"> F  </i>
   <i type="logical" name="EVENONLYGW"> F  </i>
   <i type="int" name="NKREDLFX">     1</i>
   <i type="int" name="NKREDLFY">     1</i>
   <i type="int" name="NKREDLFZ">     1</i>
   <i type="int" name="MAXMEM">  2800</i>
   <i type="int" name="TELESCOPE">     0</i>
   <i type="int" name="TAUPAR">     1</i>
   <i type="int" name="OMEGAPAR">    -1</i>
   <i name="LAMBDA">      1.00000000</i>
  </separator>
  <separator name="External order field" >
   <i name="OFIELD_KAPPA">      0.00000000</i>
   <v name="OFIELD_K">      0.00000000      0.00000000      0.00000000</v>
   <i name="OFIELD_Q6_NEAR">      0.00000000</i>
   <i name="OFIELD_Q6_FAR">      0.00000000</i>
   <i name="OFIELD_A">      0.00000000</i>
  </separator>
 </parameters>
 <atominfo>
  <atoms>       2 </atoms>
  <types>       2 </types>
  <array name="atoms" >
   <dimension dim="1">ion</dimension>
   <field type="string">element</field>
   <field type="int">atomtype</field>
   <set>
    <rc><c>Ba</c><c>   1</c></rc>
    <rc><c>S </c><c>   2</c></rc>
   </set>
  </array>
  <array name="atomtypes" >
   <dimension dim="1">type</dimension>
   <field type="int">atomspertype</field>
   <field type="string">element</field>
   <field>mass</field>
   <field>valence</field>
   <field type="string">pseudopotential</field>
   <set>
    <rc><c>   1</c><c>Ba</c><c>    137.32700000</c><c>     10.00000000</c><c>  PAW_PBE Ba_sv 06Sep2000               </c></rc>
    <rc><c>   1</c><c>S </c><c>     32.06600000</c><c>      6.00000000</c><c>  PAW_PBE S 06Sep2000                   </c></rc>
   </set>
  </array>
 </atominfo>
 <structure name="initialpos" >
  <crystal>
   <varray name="basis" >
    <v>      -3.22567537       0.00000000       3.22567537 </v>
    <v>       0.00000000       3.22567537       3.22567537 </v>
    <v>      -3.22567537       3.22567537       0.00000000 </v>
   </varray>
   <i name="volume">     67.12618571 </i>
   <varray name="rec_basis" >
    <v>      -0.15500630      -0.15500630       0.15500630 </v>
    <v>       0.15500630       0.15500630       0.15500630 </v>
    <v>      -0.15500630       0.15500630      -0.15500630 </v>
   </varray>
  </crystal>
  <varray name="positions" >
   <v>       0.00000000       0.00000000       0.00000000 </v>
   <v>       0.49999996       0.50000004       0.49999996 </v>
  </varray>
 </structure>
 <calculation>
  <scstep>
   <time name="dav">    2.14    2.16</time>
   <time name="total">    2.19    2.21</time>
   <energy>
    <i name="alphaZ">     68.54719170 </i>
    <i name="ewald">   -841.83082639 </i>
    <i name="hartreedc">   -125.45476402 </i>
    <i name="XCdc">     37.00903739 </i>
    <i name="pawpsdc">    734.83043906 </i>
    <i name="pawaedc">   -729.01297845 </i>
    <i name="eentropy">     -0.00010874 </i>
    <i name="bandstr">    -41.55502287 </i>
    <i name="atom">    977.67688848 </i>
    <i name="e_fr_energy">     80.20985615 </i>
    <i name="e_wo_entrp">     80.20996489 </i>
    <i name="e_0_energy">     80.20991052 </i>
   </energy>
  </scstep>
  <scstep>
   <time name="dav">    2.68    2.70</time>
   <time name="total">    2.68    2.70</time>
   <energy>
    <i name="e_fr_energy">     -5.94892803 </i>
    <i name="e_wo_entrp">     -5.94892803 </i>
    <i name="e_0_energy">     -5.94892803 </i>
   </energy>
  </scstep>
  <scstep>
   <time name="dav">    2.64    2.66</time>
   <time name="total">    2.64    2.66</time>
   <energy>
    <i name="e_fr_energy">    -10.60278300 </i>
    <i name="e_wo_entrp">    -10.60278300 </i>
    <i name="e_0_energy">    -10.60278300 </i>
   </energy>
  </scstep>
  <scstep>
   <time name="dav">    2.33    2.34</time>
   <time name="total">    2.33    2.34</time>
   <energy>
    <i name="e_fr_energy">    -10.68403519 </i>
    <i name="e_wo_entrp">    -10.68403519 </i>
    <i name="e_0_energy">    -10.68403519 </i>
   </energy>
  </scstep>
  <scstep>
   <time name="dav">    2.63    2.65</time>
   <time name="total">    2.74    2.76</time>
   <energy>
    <i name="e_fr_energy">    -10.68604685 </i>
    <i name="e_wo_entrp">    -10.68604685 </i>
    <i name="e_0_energy">    -10.68604685 </i>
   </energy>
  </scstep>
  <scstep>
   <time name="dav">    2.37    2.38</time>
   <time name="total">    2.52    2.53</time>
   <energy>
    <i name="e_fr_energy">    -10.17497663 </i>
    <i name="e_wo_entrp">    -10.17497663 </i>
    <i name="e_0_energy">    -10.17497663 </i>
   </energy>
  </scstep>
  <scstep>
   <time name="dav">    2.58    2.60</time>
   <time name="total">    2.78    2.79</time>
   <energy>
    <i name="e_fr_energy">    -10.17829734 </i>
    <i name="e_wo_entrp">    -10.17829734 </i>
    <i name="e_0_energy">    -10.17829734 </i>
   </energy>
  </scstep>
  <scstep>
   <time name="dav">    2.36    2.37</time>
   <time name="total">    2.49    2.51</time>
   <energy>
    <i name="e_fr_energy">    -10.19248458 </i>
    <i name="e_wo_entrp">    -10.19248458 </i>
    <i name="e_0_energy">    -10.19248458 </i>
   </energy>
  </scstep>
  <scstep>
   <time name="dav">    2.52    2.55</time>
   <time name="total">    2.69    2.72</time>
   <energy>
    <i name="e_fr_energy">    -10.19314522 </i>
    <i name="e_wo_entrp">    -10.19314522 </i>
    <i name="e_0_energy">    -10.19314522 </i>
   </energy>
  </scstep>
  <scstep>
   <time name="dav">    2.19    2.20</time>
   <time name="total">    2.33    2.34</time>
   <energy>
    <i name="e_fr_energy">    -10.19402725 </i>
    <i name="e_wo_entrp">    -10.19402725 </i>
    <i name="e_0_energy">    -10.19402725 </i>
   </energy>
  </scstep>
  <scstep>
   <time name="dav">    2.57    2.59</time>
   <time name="total">    2.70    2.73</time>
   <energy>
    <i name="e_fr_energy">    -10.19412848 </i>
    <i name="e_wo_entrp">    -10.19412848 </i>
    <i name="e_0_energy">    -10.19412848 </i>
   </energy>
  </scstep>
  <scstep>
   <time name="dav">    2.32    2.34</time>
   <time name="total">    2.46    2.49</time>
   <energy>
    <i name="e_fr_energy">    -10.19413183 </i>
    <i name="e_wo_entrp">    -10.19413183 </i>
    <i name="e_0_energy">    -10.19413183 </i>
   </energy>
  </scstep>
  <scstep>
   <time name="dav">    2.59    2.61</time>
   <time name="total">    2.75    2.78</time>
   <energy>
    <i name="e_fr_energy">    -10.19413173 </i>
    <i name="e_wo_entrp">    -10.19413173 </i>
    <i name="e_0_energy">    -10.19413173 </i>
   </energy>
  </scstep>
  <scstep>
   <time name="dav">    2.29    2.30</time>
   <time name="total">    2.42    2.44</time>
   <energy>
    <i name="e_fr_energy">    -10.19413189 </i>
    <i name="e_wo_entrp">    -10.19413189 </i>
    <i name="e_0_energy">    -10.19413189 </i>
   </energy>
  </scstep>
  <scstep>
   <time name="dav">    2.19    2.21</time>
   <time name="total">    2.33    2.34</time>
   <energy>
    <i name="e_fr_energy">    -10.19413186 </i>
    <i name="e_wo_entrp">    -10.19413186 </i>
    <i name="e_0_energy">    -10.19413186 </i>
   </energy>
  </scstep>
  <scstep>
   <time name="dav">    1.77    1.78</time>
   <time name="total">    1.79    1.81</time>
   <energy>
    <i name="alphaZ">     68.54719170 </i>
    <i name="ewald">   -841.83082639 </i>
    <i name="hartreedc">   -131.49514961 </i>
    <i name="XCdc">     37.85831462 </i>
    <i name="pawpsdc">   1171.37917766 </i>
    <i name="pawaedc">  -1167.56033109 </i>
    <i name="eentropy">     -0.00000000 </i>
    <i name="bandstr">   -124.76939721 </i>
    <i name="atom">    977.67688848 </i>
    <i name="e_fr_energy">    -10.19413186 </i>
    <i name="e_wo_entrp">    -10.19413186 </i>
    <i name="e_0_energy">    -10.19413186 </i>
   </energy>
  </scstep>
  <structure>
   <crystal>
    <varray name="basis" >
     <v>      -3.22567537       0.00000000       3.22567537 </v>
     <v>       0.00000000       3.22567537       3.22567537 </v>
     <v>      -3.22567537       3.22567537       0.00000000 </v>
    </varray>
    <i name="volume">     67.12618571 </i>
    <varray name="rec_basis" >
     <v>      -0.15500630      -0.15500630       0.15500630 </v>
     <v>       0.15500630       0.15500630       0.15500630 </v>
     <v>      -0.15500630       0.15500630      -0.15500630 </v>
    </varray>
   </crystal>
   <varray name="positions" >
    <v>       0.00000000       0.00000000       0.00000000 </v>
    <v>       0.49999996       0.50000004       0.49999996 </v>
   </varray>
  </structure>
  <varray name="forces" >
   <v>       0.00000071      -0.00000000       0.00000000 </v>
   <v>      -0.00000071       0.00000000      -0.00000000 </v>
  </varray>
  <varray name="stress" >
   <v>       0.94386365      -0.00000000       0.00000000 </v>
   <v>       0.00000000       0.94386420       0.00000000 </v>
   <v>       0.00000000       0.00000000       0.94386420 </v>
  </varray>
  <energy>
   <i name="e_fr_energy">    -10.19413186 </i>
   <i name="e_wo_entrp">    -10.19413186 </i>
   <i name="e_0_energy">     -0.00000000 </i>
  </energy>
  <scstep>
   <time name="total">    2.12    2.14</time>
   <energy>
    <i name="e_fr_energy">     -0.76514557 </i>
    <i name="e_wo_entrp">     -0.76514557 </i>
    <i name="e_0_energy">     -0.76514557 </i>
   </energy>
  </scstep>
  <scstep>
   <time name="total">    2.06    2.07</time>
   <energy>
    <i name="e_fr_energy">     -0.78529249 </i>
    <i name="e_wo_entrp">     -0.78529249 </i>
    <i name="e_0_energy">     -0.78529249 </i>
   </energy>
  </scstep>
  <scstep>
   <time name="total">    2.09    2.10</time>
   <energy>
    <i name="e_fr_energy">     -0.78706437 </i>
    <i name="e_wo_entrp">     -0.78706437 </i>
    <i name="e_0_energy">     -0.78706437 </i>
   </energy>
  </scstep>
  <scstep>
   <time name="total">    1.99    2.00</time>
   <energy>
    <i name="e_fr_energy">     -0.78717457 </i>
    <i name="e_wo_entrp">     -0.78717457 </i>
    <i name="e_0_energy">     -0.78717457 </i>
   </energy>
  </scstep>
  <scstep>
   <time name="total">    2.03    2.04</time>
   <energy>
    <i name="e_fr_energy">     -0.78717877 </i>
    <i name="e_wo_entrp">     -0.78717877 </i>
    <i name="e_0_energy">     -0.78717877 </i>
   </energy>
  </scstep>
  <scstep>
   <time name="total">    1.99    2.00</time>
   <energy>
    <i name="e_fr_energy">     -0.78717903 </i>
    <i name="e_wo_entrp">     -0.78717903 </i>
    <i name="e_0_energy">     -0.78717903 </i>
   </energy>
  </scstep>
  <scstep>
   <time name="total">    1.97    1.99</time>
   <energy>
    <i name="e_fr_energy">     -0.78717904 </i>
    <i name="e_wo_entrp">     -0.78717904 </i>
    <i name="e_0_energy">     -0.78717904 </i>
   </energy>
  </scstep>
  <scstep>
   <time name="total">    1.95    1.95</time>
   <energy>
    <i name="e_fr_energy">     -0.78717904 </i>
    <i name="e_wo_entrp">     -0.78717904 </i>
    <i name="e_0_energy">     -0.78717904 </i>
   </energy>
  </scstep>
  <scstep>
   <time name="total">    2.09    2.09</time>
   <energy>
    <i name="e_fr_energy">     -0.78301744 </i>
    <i name="e_wo_entrp">     -0.78301744 </i>
    <i name="e_0_energy">     -0.78301744 </i>
   </energy>
  </scstep>
  <scstep>
   <time name="total">    2.02    2.03</time>
   <energy>
    <i name="e_fr_energy">     -0.80705502 </i>
    <i name="e_wo_entrp">     -0.80705502 </i>
    <i name="e_0_energy">     -0.80705502 </i>
   </energy>
  </scstep>
  <scstep>
   <time name="total">    2.04    2.05</time>
   <energy>
    <i name="e_fr_energy">     -0.80879660 </i>
    <i name="e_wo_entrp">     -0.80879660 </i>
    <i name="e_0_energy">     -0.80879660 </i>
   </energy>
  </scstep>
  <scstep>
   <time name="total">    2.04    2.05</time>
   <energy>
    <i name="e_fr_energy">     -0.80890658 </i>
    <i name="e_wo_entrp">     -0.80890658 </i>
    <i name="e_0_energy">     -0.80890658 </i>
   </energy>
  </scstep>
  <scstep>
   <time name="total">    2.00    2.02</time>
   <energy>
    <i name="e_fr_energy">     -0.80891076 </i>
    <i name="e_wo_entrp">     -0.80891076 </i>
    <i name="e_0_energy">     -0.80891076 </i>
   </energy>
  </scstep>
  <scstep>
   <time name="total">    2.01    2.02</time>
   <energy>
    <i name="e_fr_energy">     -0.80891102 </i>
    <i name="e_wo_entrp">     -0.80891102 </i>
    <i name="e_0_energy">     -0.80891102 </i>
   </energy>
  </scstep>
  <scstep>
   <time name="total">    1.98    1.98</time>
   <energy>
    <i name="e_fr_energy">     -0.80891103 </i>
    <i name="e_wo_entrp">     -0.80891103 </i>
    <i name="e_0_energy">     -0.80891103 </i>
   </energy>
  </scstep>
  <scstep>
   <time name="total">    1.99    2.03</time>
   <energy>
    <i name="e_fr_energy">     -0.80891103 </i>
    <i name="e_wo_entrp">     -0.80891103 </i>
    <i name="e_0_energy">     -0.80891103 </i>
   </energy>
  </scstep>
  <scstep>
   <time name="total">    2.03    2.03</time>
   <energy>
    <i name="e_fr_energy">     -0.74719614 </i>
    <i name="e_wo_entrp">     -0.74719614 </i>
    <i name="e_0_energy">     -0.74719614 </i>
   </energy>
  </scstep>
  <scstep>
   <time name="total">    2.00    2.02</time>
   <energy>
    <i name="e_fr_energy">     -0.76368207 </i>
    <i name="e_wo_entrp">     -0.76368207 </i>
    <i name="e_0_energy">     -0.76368207 </i>
   </energy>
  </scstep>
  <scstep>
   <time name="total">    2.02    2.02</time>
   <energy>
    <i name="e_fr_energy">     -0.76548928 </i>
    <i name="e_wo_entrp">     -0.76548928 </i>
    <i name="e_0_energy">     -0.76548928 </i>
   </energy>
  </scstep>
  <scstep>
   <time name="total">    2.04    2.05</time>
   <energy>
    <i name="e_fr_energy">     -0.76559978 </i>
    <i name="e_wo_entrp">     -0.76559978 </i>
    <i name="e_0_energy">     -0.76559978 </i>
   </energy>
  </scstep>
  <scstep>
   <time name="total">    1.98    1.99</time>
   <energy>
    <i name="e_fr_energy">     -0.76560400 </i>
    <i name="e_wo_entrp">     -0.76560400 </i>
    <i name="e_0_energy">     -0.76560400 </i>
   </energy>
  </scstep>
  <scstep>
   <time name="total">    2.04    2.06</time>
   <energy>
    <i name="e_fr_energy">     -0.76560426 </i>
    <i name="e_wo_entrp">     -0.76560426 </i>
    <i name="e_0_energy">     -0.76560426 </i>
   </energy>
  </scstep>
  <scstep>
   <time name="total">    2.02    2.03</time>
   <energy>
    <i name="e_fr_energy">     -0.76560427 </i>
    <i name="e_wo_entrp">     -0.76560427 </i>
    <i name="e_0_energy">     -0.76560427 </i>
   </energy>
  </scstep>
  <scstep>
   <time name="total">    2.00    2.00</time>
   <energy>
    <i name="e_fr_energy">     -0.76560427 </i>
    <i name="e_wo_entrp">     -0.76560427 </i>
    <i name="e_0_energy">     -0.76560427 </i>
   </energy>
  </scstep>
  <varray name="epsilon_rpa" >
   <v>       5.24402067      -0.00000000       0.00000000 </v>
   <v>      -0.00000000       5.24444357      -0.00000000 </v>
   <v>       0.00000000      -0.00000000       5.24444357 </v>
  </varray>
  <kpoints>
   <generation param="Gamma">
    <v type="int" name="divisions">      12       12       12 </v>
    <v name="usershift">      0.00000000       0.00000000       0.00000000 </v>
    <v name="genvec1">      0.08333333       0.00000000       0.00000000 </v>
    <v name="genvec2">      0.00000000       0.08333333      -0.00000000 </v>
    <v name="genvec3">     -0.00000000      -0.00000000       0.08333333 </v>
    <v name="shift">      0.00000000       0.00000000       0.00000000 </v>
   </generation>
   <varray name="kpointlist" >
    <v>       0.00000000       0.00000000       0.00000000 </v>
    <v>       0.08333333       0.00000000       0.00000000 </v>
    <v>       0.16666667       0.00000000      -0.00000000 </v>
    <v>       0.25000000      -0.00000000      -0.00000000 </v>
    <v>       0.33333333      -0.00000000       0.00000000 </v>
    <v>       0.41666667      -0.00000000      -0.00000000 </v>
    <v>       0.50000000      -0.00000000      -0.00000000 </v>
    <v>       0.08333333       0.08333333       0.00000000 </v>
    <v>       0.16666667       0.08333333       0.00000000 </v>
    <v>       0.25000000       0.08333333      -0.00000000 </v>
    <v>       0.33333333       0.08333333      -0.00000000 </v>
    <v>       0.41666667       0.08333333      -0.00000000 </v>
    <v>       0.50000000       0.08333333      -0.00000000 </v>
    <v>      -0.41666667       0.08333333       0.00000000 </v>
    <v>      -0.33333333       0.08333333       0.00000000 </v>
    <v>      -0.25000000       0.08333333       0.00000000 </v>
    <v>      -0.16666667       0.08333333      -0.00000000 </v>
    <v>      -0.08333333       0.08333333      -0.00000000 </v>
    <v>       0.16666667       0.16666667       0.00000000 </v>
    <v>       0.25000000       0.16666667       0.00000000 </v>
    <v>       0.33333333       0.16666667       0.00000000 </v>
    <v>       0.41666667       0.16666667      -0.00000000 </v>
    <v>       0.50000000       0.16666667      -0.00000000 </v>
    <v>      -0.41666667       0.16666667      -0.00000000 </v>
    <v>      -0.33333333       0.16666667       0.00000000 </v>
    <v>      -0.25000000       0.16666667       0.00000000 </v>
    <v>      -0.16666667       0.16666667      -0.00000000 </v>
    <v>       0.25000000       0.25000000       0.00000000 </v>
    <v>       0.33333333       0.25000000       0.00000000 </v>
    <v>       0.41666667       0.25000000      -0.00000000 </v>
    <v>       0.50000000       0.25000000       0.00000000 </v>
    <v>      -0.41666667       0.25000000       0.00000000 </v>
    <v>      -0.33333333       0.25000000       0.00000000 </v>
    <v>      -0.25000000       0.25000000       0.00000000 </v>
    <v>       0.33333333       0.33333333       0.00000000 </v>
    <v>       0.41666667       0.33333333      -0.00000000 </v>
    <v>       0.50000000       0.33333333       0.00000000 </v>
    <v>      -0.41666667       0.33333333      -0.00000000 </v>
    <v>      -0.33333333       0.33333333      -0.00000000 </v>
    <v>       0.41666667       0.41666667       0.00000000 </v>
    <v>       0.50000000       0.41666667       0.00000000 </v>
    <v>      -0.41666667       0.41666667       0.00000000 </v>
    <v>       0.50000000       0.50000000       0.00000000 </v>
    <v>       0.08333333       0.00000000       0.08333333 </v>
    <v>       0.16666667       0.00000000       0.08333333 </v>
    <v>       0.25000000      -0.00000000       0.08333333 </v>
    <v>       0.33333333      -0.00000000       0.08333333 </v>
    <v>       0.41666667      -0.00000000       0.08333333 </v>
    <v>       0.50000000       0.00000000       0.08333333 </v>
    <v>      -0.41666667      -0.00000000       0.08333333 </v>
    <v>      -0.33333333       0.00000000       0.08333333 </v>
    <v>      -0.25000000       0.00000000       0.08333333 </v>
    <v>      -0.16666667       0.00000000       0.08333333 </v>
    <v>      -0.08333333      -0.00000000       0.08333333 </v>
    <v>       0.25000000       0.16666667       0.08333333 </v>
    <v>       0.33333333       0.16666667       0.08333333 </v>
    <v>       0.41666667       0.16666667       0.08333333 </v>
    <v>       0.50000000       0.16666667       0.08333333 </v>
    <v>      -0.41666667       0.16666667       0.08333333 </v>
    <v>       0.16666667       0.25000000       0.08333333 </v>
    <v>       0.33333333       0.25000000       0.08333333 </v>
    <v>       0.41666667       0.25000000       0.08333333 </v>
    <v>       0.50000000       0.25000000       0.08333333 </v>
    <v>      -0.41666667       0.25000000       0.08333333 </v>
    <v>      -0.33333333       0.25000000       0.08333333 </v>
    <v>      -0.25000000       0.25000000       0.08333333 </v>
    <v>      -0.16666667       0.25000000       0.08333333 </v>
    <v>       0.16666667       0.33333333       0.08333333 </v>
    <v>       0.25000000       0.33333333       0.08333333 </v>
    <v>       0.41666667       0.33333333       0.08333333 </v>
    <v>       0.50000000       0.33333333       0.08333333 </v>
    <v>      -0.41666667       0.33333333       0.08333333 </v>
    <v>      -0.33333333       0.33333333       0.08333333 </v>
    <v>      -0.25000000       0.33333333       0.08333333 </v>
    <v>       0.16666667       0.41666667       0.08333333 </v>
    <v>       0.25000000       0.41666667       0.08333333 </v>
    <v>       0.33333333       0.41666667       0.08333333 </v>
    <v>       0.50000000       0.41666667       0.08333333 </v>
    <v>      -0.41666667       0.41666667       0.08333333 </v>
    <v>      -0.33333333       0.41666667       0.08333333 </v>
    <v>       0.16666667       0.50000000       0.08333333 </v>
    <v>       0.25000000       0.50000000       0.08333333 </v>
    <v>       0.33333333       0.50000000       0.08333333 </v>
    <v>       0.41666667       0.50000000       0.08333333 </v>
    <v>      -0.41666667       0.50000000       0.08333333 </v>
    <v>       0.16666667      -0.41666667       0.08333333 </v>
    <v>       0.25000000      -0.41666667       0.08333333 </v>
    <v>       0.33333333      -0.41666667       0.08333333 </v>
    <v>       0.41666667      -0.41666667       0.08333333 </v>
    <v>       0.50000000      -0.41666667       0.08333333 </v>
    <v>       0.16666667      -0.33333333       0.08333333 </v>
    <v>       0.25000000      -0.33333333       0.08333333 </v>
    <v>       0.33333333      -0.33333333       0.08333333 </v>
    <v>       0.41666667      -0.33333333       0.08333333 </v>
    <v>       0.16666667      -0.25000000       0.08333333 </v>
    <v>       0.25000000      -0.25000000       0.08333333 </v>
    <v>       0.33333333      -0.25000000       0.08333333 </v>
    <v>       0.16666667      -0.16666667       0.08333333 </v>
    <v>       0.25000000      -0.16666667       0.08333333 </v>
    <v>       0.16666667      -0.08333333       0.08333333 </v>
    <v>       0.16666667      -0.00000000       0.16666667 </v>
    <v>       0.25000000       0.00000000       0.16666667 </v>
    <v>       0.33333333       0.00000000       0.16666667 </v>
    <v>       0.41666667       0.00000000       0.16666667 </v>
    <v>       0.50000000      -0.00000000       0.16666667 </v>
    <v>      -0.41666667      -0.00000000       0.16666667 </v>
    <v>      -0.33333333      -0.00000000       0.16666667 </v>
    <v>      -0.25000000       0.00000000       0.16666667 </v>
    <v>      -0.16666667      -0.00000000       0.16666667 </v>
    <v>       0.50000000       0.33333333       0.16666667 </v>
    <v>      -0.41666667       0.33333333       0.16666667 </v>
    <v>      -0.33333333       0.33333333       0.16666667 </v>
    <v>       0.25000000       0.41666667       0.16666667 </v>
    <v>      -0.41666667       0.41666667       0.16666667 </v>
    <v>      -0.33333333       0.41666667       0.16666667 </v>
    <v>      -0.25000000       0.41666667       0.16666667 </v>
    <v>       0.25000000       0.50000000       0.16666667 </v>
    <v>       0.33333333       0.50000000       0.16666667 </v>
    <v>      -0.33333333       0.50000000       0.16666667 </v>
    <v>       0.25000000      -0.41666667       0.16666667 </v>
    <v>       0.33333333      -0.41666667       0.16666667 </v>
    <v>       0.41666667      -0.41666667       0.16666667 </v>
    <v>       0.25000000      -0.33333333       0.16666667 </v>
    <v>       0.33333333      -0.33333333       0.16666667 </v>
    <v>       0.41666667      -0.33333333       0.16666667 </v>
    <v>       0.50000000      -0.33333333       0.16666667 </v>
    <v>       0.25000000      -0.25000000       0.16666667 </v>
    <v>       0.33333333      -0.25000000       0.16666667 </v>
    <v>       0.41666667      -0.25000000       0.16666667 </v>
    <v>       0.25000000      -0.16666667       0.16666667 </v>
    <v>       0.33333333      -0.16666667       0.16666667 </v>
    <v>       0.25000000      -0.08333333       0.16666667 </v>
    <v>       0.25000000      -0.00000000       0.25000000 </v>
    <v>       0.33333333       0.00000000       0.25000000 </v>
    <v>       0.41666667      -0.00000000       0.25000000 </v>
    <v>       0.50000000      -0.00000000       0.25000000 </v>
    <v>      -0.41666667      -0.00000000       0.25000000 </v>
    <v>      -0.33333333       0.00000000       0.25000000 </v>
    <v>      -0.25000000      -0.00000000       0.25000000 </v>
    <v>      -0.25000000       0.50000000       0.25000000 </v>
    <v>       0.33333333      -0.41666667       0.25000000 </v>
    <v>       0.33333333      -0.33333333       0.25000000 </v>
    <v>       0.41666667      -0.33333333       0.25000000 </v>
    <v>       0.33333333      -0.25000000       0.25000000 </v>
    <v>       0.41666667      -0.25000000       0.25000000 </v>
    <v>       0.50000000      -0.25000000       0.25000000 </v>
    <v>       0.33333333      -0.16666667       0.25000000 </v>
    <v>       0.41666667      -0.16666667       0.25000000 </v>
    <v>       0.33333333      -0.08333333       0.25000000 </v>
    <v>       0.33333333      -0.00000000       0.33333333 </v>
    <v>       0.41666667       0.00000000       0.33333333 </v>
    <v>       0.50000000      -0.00000000       0.33333333 </v>
    <v>      -0.41666667      -0.00000000       0.33333333 </v>
    <v>      -0.33333333      -0.00000000       0.33333333 </v>
    <v>       0.41666667      -0.25000000       0.33333333 </v>
    <v>       0.41666667      -0.16666667       0.33333333 </v>
    <v>       0.50000000      -0.16666667       0.33333333 </v>
    <v>       0.41666667      -0.08333333       0.33333333 </v>
    <v>       0.41666667      -0.00000000       0.41666667 </v>
    <v>       0.50000000       0.00000000       0.41666667 </v>
    <v>      -0.41666667      -0.00000000       0.41666667 </v>
    <v>       0.50000000      -0.08333333       0.41666667 </v>
    <v>       0.50000000      -0.00000000       0.50000000 </v>
   </varray>
   <varray name="weights" >
    <v>       0.00057870 </v>
    <v>       0.00462963 </v>
    <v>       0.00462963 </v>
    <v>       0.00462963 </v>
    <v>       0.00462963 </v>
    <v>       0.00462963 </v>
    <v>       0.00231481 </v>
    <v>       0.00231481 </v>
    <v>       0.00925926 </v>
    <v>       0.00925926 </v>
    <v>       0.00925926 </v>
    <v>       0.00925926 </v>
    <v>       0.00925926 </v>
    <v>       0.00925926 </v>
    <v>       0.00925926 </v>
    <v>       0.00925926 </v>
    <v>       0.00925926 </v>
    <v>       0.00462963 </v>
    <v>       0.00231481 </v>
    <v>       0.00925926 </v>
    <v>       0.00925926 </v>
    <v>       0.00925926 </v>
    <v>       0.00925926 </v>
    <v>       0.00925926 </v>
    <v>       0.00925926 </v>
    <v>       0.00925926 </v>
    <v>       0.00462963 </v>
    <v>       0.00231481 </v>
    <v>       0.00925926 </v>
    <v>       0.00925926 </v>
    <v>       0.00925926 </v>
    <v>       0.00925926 </v>
    <v>       0.00925926 </v>
    <v>       0.00462963 </v>
    <v>       0.00231481 </v>
    <v>       0.00925926 </v>
    <v>       0.00925926 </v>
    <v>       0.00925926 </v>
    <v>       0.00462963 </v>
    <v>       0.00231481 </v>
    <v>       0.00925926 </v>
    <v>       0.00462963 </v>
    <v>       0.00115741 </v>
    <v>       0.00115741 </v>
    <v>       0.00462963 </v>
    <v>       0.00462963 </v>
    <v>       0.00462963 </v>
    <v>       0.00462963 </v>
    <v>       0.00462963 </v>
    <v>       0.00462963 </v>
    <v>       0.00462963 </v>
    <v>       0.00462963 </v>
    <v>       0.00462963 </v>
    <v>       0.00231481 </v>
    <v>       0.00462963 </v>
    <v>       0.00925926 </v>
    <v>       0.00925926 </v>
    <v>       0.00925926 </v>
    <v>       0.00462963 </v>
    <v>       0.00462963 </v>
    <v>       0.00462963 </v>
    <v>       0.00925926 </v>
    <v>       0.00925926 </v>
    <v>       0.00925926 </v>
    <v>       0.00925926 </v>
    <v>       0.00925926 </v>
    <v>       0.00462963 </v>
    <v>       0.00925926 </v>
    <v>       0.00462963 </v>
    <v>       0.00462963 </v>
    <v>       0.00925926 </v>
    <v>       0.00925926 </v>
    <v>       0.00925926 </v>
    <v>       0.00462963 </v>
    <v>       0.00925926 </v>
    <v>       0.00925926 </v>
    <v>       0.00462963 </v>
    <v>       0.00462963 </v>
    <v>       0.00925926 </v>
    <v>       0.00462963 </v>
    <v>       0.00925926 </v>
    <v>       0.00925926 </v>
    <v>       0.00925926 </v>
    <v>       0.00462963 </v>
    <v>       0.00231481 </v>
    <v>       0.00925926 </v>
    <v>       0.00925926 </v>
    <v>       0.00925926 </v>
    <v>       0.00925926 </v>
    <v>       0.00231481 </v>
    <v>       0.00925926 </v>
    <v>       0.00925926 </v>
    <v>       0.00925926 </v>
    <v>       0.00462963 </v>
    <v>       0.00925926 </v>
    <v>       0.00925926 </v>
    <v>       0.00462963 </v>
    <v>       0.00925926 </v>
    <v>       0.00462963 </v>
    <v>       0.00462963 </v>
    <v>       0.00115741 </v>
    <v>       0.00462963 </v>
    <v>       0.00462963 </v>
    <v>       0.00462963 </v>
    <v>       0.00462963 </v>
    <v>       0.00462963 </v>
    <v>       0.00462963 </v>
    <v>       0.00462963 </v>
    <v>       0.00231481 </v>
    <v>       0.00462963 </v>
    <v>       0.00925926 </v>
    <v>       0.00462963 </v>
    <v>       0.00462963 </v>
    <v>       0.00462963 </v>
    <v>       0.00925926 </v>
    <v>       0.00462963 </v>
    <v>       0.00925926 </v>
    <v>       0.00462963 </v>
    <v>       0.00231481 </v>
    <v>       0.00925926 </v>
    <v>       0.00925926 </v>
    <v>       0.00462963 </v>
    <v>       0.00925926 </v>
    <v>       0.00925926 </v>
    <v>       0.00925926 </v>
    <v>       0.00231481 </v>
    <v>       0.00925926 </v>
    <v>       0.00925926 </v>
    <v>       0.00462963 </v>
    <v>       0.00925926 </v>
    <v>       0.00462963 </v>
    <v>       0.00462963 </v>
    <v>       0.00115741 </v>
    <v>       0.00462963 </v>
    <v>       0.00462963 </v>
    <v>       0.00462963 </v>
    <v>       0.00462963 </v>
    <v>       0.00462963 </v>
    <v>       0.00231481 </v>
    <v>       0.00115741 </v>
    <v>       0.00462963 </v>
    <v>       0.00925926 </v>
    <v>       0.00462963 </v>
    <v>       0.00925926 </v>
    <v>       0.00925926 </v>
    <v>       0.00231481 </v>
    <v>       0.00925926 </v>
    <v>       0.00462963 </v>
    <v>       0.00462963 </v>
    <v>       0.00115741 </v>
    <v>       0.00462963 </v>
    <v>       0.00462963 </v>
    <v>       0.00462963 </v>
    <v>       0.00231481 </v>
    <v>       0.00462963 </v>
    <v>       0.00925926 </v>
    <v>       0.00231481 </v>
    <v>       0.00462963 </v>
    <v>       0.00115741 </v>
    <v>       0.00462963 </v>
    <v>       0.00231481 </v>
    <v>       0.00231481 </v>
    <v>       0.00057870 </v>
   </varray>
  </kpoints>
  <scstep>
   <time name="total">    1.96    1.96</time>
   <energy>
    <i name="e_fr_energy">     -0.76514557 </i>
    <i name="e_wo_entrp">     -0.76514557 </i>
    <i name="e_0_energy">     -0.76514557 </i>
   </energy>
  </scstep>
  <scstep>
   <time name="total">    2.33    2.33</time>
   <energy>
    <i name="e_fr_energy">     -0.78529249 </i>
    <i name="e_wo_entrp">     -0.78529249 </i>
    <i name="e_0_energy">     -0.78529249 </i>
   </energy>
  </scstep>
  <scstep>
   <time name="total">    2.60    2.61</time>
   <energy>
    <i name="e_fr_energy">     -0.72536709 </i>
    <i name="e_wo_entrp">     -0.72536709 </i>
    <i name="e_0_energy">     -0.72536709 </i>
   </energy>
  </scstep>
  <scstep>
   <time name="total">    2.93    2.94</time>
   <energy>
    <i name="e_fr_energy">     -0.75456908 </i>
    <i name="e_wo_entrp">     -0.75456908 </i>
    <i name="e_0_energy">     -0.75456908 </i>
   </energy>
  </scstep>
  <scstep>
   <time name="total">    2.63    2.64</time>
   <energy>
    <i name="e_fr_energy">     -0.78919674 </i>
    <i name="e_wo_entrp">     -0.78919674 </i>
    <i name="e_0_energy">     -0.78919674 </i>
   </energy>
  </scstep>
  <scstep>
   <time name="total">    3.22    3.24</time>
   <energy>
    <i name="e_fr_energy">     -0.79165798 </i>
    <i name="e_wo_entrp">     -0.79165798 </i>
    <i name="e_0_energy">     -0.79165798 </i>
   </energy>
  </scstep>
  <scstep>
   <time name="total">    3.06    3.07</time>
   <energy>
    <i name="e_fr_energy">     -0.79339090 </i>
    <i name="e_wo_entrp">     -0.79339090 </i>
    <i name="e_0_energy">     -0.79339090 </i>
   </energy>
  </scstep>
  <scstep>
   <time name="total">    3.17    3.19</time>
   <energy>
    <i name="e_fr_energy">     -0.79398826 </i>
    <i name="e_wo_entrp">     -0.79398826 </i>
    <i name="e_0_energy">     -0.79398826 </i>
   </energy>
  </scstep>
  <scstep>
   <time name="total">    3.28    3.31</time>
   <energy>
    <i name="e_fr_energy">     -0.79399809 </i>
    <i name="e_wo_entrp">     -0.79399809 </i>
    <i name="e_0_energy">     -0.79399809 </i>
   </energy>
  </scstep>
  <scstep>
   <time name="total">    3.18    3.18</time>
   <energy>
    <i name="e_fr_energy">     -0.79402949 </i>
    <i name="e_wo_entrp">     -0.79402949 </i>
    <i name="e_0_energy">     -0.79402949 </i>
   </energy>
  </scstep>
  <scstep>
   <time name="total">    3.22    3.24</time>
   <energy>
    <i name="e_fr_energy">     -0.79402327 </i>
    <i name="e_wo_entrp">     -0.79402327 </i>
    <i name="e_0_energy">     -0.79402327 </i>
   </energy>
  </scstep>
  <scstep>
   <time name="total">    3.22    3.24</time>
   <energy>
    <i name="e_fr_energy">     -0.79402477 </i>
    <i name="e_wo_entrp">     -0.79402477 </i>
    <i name="e_0_energy">     -0.79402477 </i>
   </energy>
  </scstep>
  <scstep>
   <time name="total">    2.91    2.93</time>
   <energy>
    <i name="e_fr_energy">     -0.79402459 </i>
    <i name="e_wo_entrp">     -0.79402459 </i>
    <i name="e_0_energy">     -0.79402459 </i>
   </energy>
  </scstep>
  <kpoints>
   <generation param="Gamma">
    <v type="int" name="divisions">      12       12       12 </v>
    <v name="usershift">      0.00000000       0.00000000       0.00000000 </v>
    <v name="genvec1">      0.08333333       0.00000000       0.00000000 </v>
    <v name="genvec2">      0.00000000       0.08333333      -0.00000000 </v>
    <v name="genvec3">     -0.00000000      -0.00000000       0.08333333 </v>
    <v name="shift">      0.00000000       0.00000000       0.00000000 </v>
   </generation>
   <varray name="kpointlist" >
    <v>       0.00000000       0.00000000       0.00000000 </v>
    <v>       0.08333333       0.00000000       0.00000000 </v>
    <v>       0.16666667       0.00000000      -0.00000000 </v>
    <v>       0.25000000      -0.00000000      -0.00000000 </v>
    <v>       0.33333333      -0.00000000       0.00000000 </v>
    <v>       0.41666667      -0.00000000      -0.00000000 </v>
    <v>       0.50000000      -0.00000000      -0.00000000 </v>
    <v>       0.08333333       0.08333333       0.00000000 </v>
    <v>       0.16666667       0.08333333       0.00000000 </v>
    <v>       0.25000000       0.08333333      -0.00000000 </v>
    <v>       0.33333333       0.08333333      -0.00000000 </v>
    <v>       0.41666667       0.08333333      -0.00000000 </v>
    <v>       0.50000000       0.08333333      -0.00000000 </v>
    <v>      -0.41666667       0.08333333       0.00000000 </v>
    <v>      -0.33333333       0.08333333       0.00000000 </v>
    <v>      -0.25000000       0.08333333       0.00000000 </v>
    <v>      -0.16666667       0.08333333      -0.00000000 </v>
    <v>      -0.08333333       0.08333333      -0.00000000 </v>
    <v>       0.16666667       0.16666667       0.00000000 </v>
    <v>       0.25000000       0.16666667       0.00000000 </v>
    <v>       0.33333333       0.16666667       0.00000000 </v>
    <v>       0.41666667       0.16666667      -0.00000000 </v>
    <v>       0.50000000       0.16666667      -0.00000000 </v>
    <v>      -0.41666667       0.16666667      -0.00000000 </v>
    <v>      -0.33333333       0.16666667       0.00000000 </v>
    <v>      -0.25000000       0.16666667       0.00000000 </v>
    <v>      -0.16666667       0.16666667      -0.00000000 </v>
    <v>       0.25000000       0.25000000       0.00000000 </v>
    <v>       0.33333333       0.25000000       0.00000000 </v>
    <v>       0.41666667       0.25000000      -0.00000000 </v>
    <v>       0.50000000       0.25000000       0.00000000 </v>
    <v>      -0.41666667       0.25000000       0.00000000 </v>
    <v>      -0.33333333       0.25000000       0.00000000 </v>
    <v>      -0.25000000       0.25000000       0.00000000 </v>
    <v>       0.33333333       0.33333333       0.00000000 </v>
    <v>       0.41666667       0.33333333      -0.00000000 </v>
    <v>       0.50000000       0.33333333       0.00000000 </v>
    <v>      -0.41666667       0.33333333      -0.00000000 </v>
    <v>      -0.33333333       0.33333333      -0.00000000 </v>
    <v>       0.41666667       0.41666667       0.00000000 </v>
    <v>       0.50000000       0.41666667       0.00000000 </v>
    <v>      -0.41666667       0.41666667       0.00000000 </v>
    <v>       0.50000000       0.50000000       0.00000000 </v>
    <v>      -0.00000000      -0.00000000       0.08333333 </v>
    <v>       0.08333333       0.00000000       0.08333333 </v>
    <v>       0.16666667       0.00000000       0.08333333 </v>
    <v>       0.25000000      -0.00000000       0.08333333 </v>
    <v>       0.33333333      -0.00000000       0.08333333 </v>
    <v>       0.41666667      -0.00000000       0.08333333 </v>
    <v>       0.50000000       0.00000000       0.08333333 </v>
    <v>      -0.41666667      -0.00000000       0.08333333 </v>
    <v>      -0.33333333       0.00000000       0.08333333 </v>
    <v>      -0.25000000       0.00000000       0.08333333 </v>
    <v>      -0.16666667       0.00000000       0.08333333 </v>
    <v>      -0.08333333      -0.00000000       0.08333333 </v>
    <v>      -0.00000000       0.08333333       0.08333333 </v>
    <v>       0.16666667       0.08333333       0.08333333 </v>
    <v>       0.25000000       0.08333333       0.08333333 </v>
    <v>       0.33333333       0.08333333       0.08333333 </v>
    <v>       0.41666667       0.08333333       0.08333333 </v>
    <v>       0.50000000       0.08333333       0.08333333 </v>
    <v>      -0.41666667       0.08333333       0.08333333 </v>
    <v>      -0.33333333       0.08333333       0.08333333 </v>
    <v>      -0.25000000       0.08333333       0.08333333 </v>
    <v>      -0.16666667       0.08333333       0.08333333 </v>
    <v>      -0.08333333       0.08333333       0.08333333 </v>
    <v>       0.16666667       0.16666667       0.08333333 </v>
    <v>       0.25000000       0.16666667       0.08333333 </v>
    <v>       0.33333333       0.16666667       0.08333333 </v>
    <v>       0.41666667       0.16666667       0.08333333 </v>
    <v>       0.50000000       0.16666667       0.08333333 </v>
    <v>      -0.41666667       0.16666667       0.08333333 </v>
    <v>      -0.33333333       0.16666667       0.08333333 </v>
    <v>      -0.25000000       0.16666667       0.08333333 </v>
    <v>      -0.16666667       0.16666667       0.08333333 </v>
    <v>      -0.08333333       0.16666667       0.08333333 </v>
    <v>       0.16666667       0.25000000       0.08333333 </v>
    <v>       0.25000000       0.25000000       0.08333333 </v>
    <v>       0.33333333       0.25000000       0.08333333 </v>
    <v>       0.41666667       0.25000000       0.08333333 </v>
    <v>       0.50000000       0.25000000       0.08333333 </v>
    <v>      -0.41666667       0.25000000       0.08333333 </v>
    <v>      -0.33333333       0.25000000       0.08333333 </v>
    <v>      -0.25000000       0.25000000       0.08333333 </v>
    <v>      -0.16666667       0.25000000       0.08333333 </v>
    <v>       0.16666667       0.33333333       0.08333333 </v>
    <v>       0.25000000       0.33333333       0.08333333 </v>
    <v>       0.33333333       0.33333333       0.08333333 </v>
    <v>       0.41666667       0.33333333       0.08333333 </v>
    <v>       0.50000000       0.33333333       0.08333333 </v>
    <v>      -0.41666667       0.33333333       0.08333333 </v>
    <v>      -0.33333333       0.33333333       0.08333333 </v>
    <v>      -0.25000000       0.33333333       0.08333333 </v>
    <v>       0.16666667       0.41666667       0.08333333 </v>
    <v>       0.25000000       0.41666667       0.08333333 </v>
    <v>       0.33333333       0.41666667       0.08333333 </v>
    <v>       0.41666667       0.41666667       0.08333333 </v>
    <v>       0.50000000       0.41666667       0.08333333 </v>
    <v>      -0.41666667       0.41666667       0.08333333 </v>
    <v>      -0.33333333       0.41666667       0.08333333 </v>
    <v>       0.16666667       0.50000000       0.08333333 </v>
    <v>       0.25000000       0.50000000       0.08333333 </v>
    <v>       0.33333333       0.50000000       0.08333333 </v>
    <v>       0.41666667       0.50000000       0.08333333 </v>
    <v>       0.50000000       0.50000000       0.08333333 </v>
    <v>      -0.41666667       0.50000000       0.08333333 </v>
    <v>       0.16666667      -0.41666667       0.08333333 </v>
    <v>       0.25000000      -0.41666667       0.08333333 </v>
    <v>       0.33333333      -0.41666667       0.08333333 </v>
    <v>       0.41666667      -0.41666667       0.08333333 </v>
    <v>       0.50000000      -0.41666667       0.08333333 </v>
    <v>       0.16666667      -0.33333333       0.08333333 </v>
    <v>       0.25000000      -0.33333333       0.08333333 </v>
    <v>       0.33333333      -0.33333333       0.08333333 </v>
    <v>       0.41666667      -0.33333333       0.08333333 </v>
    <v>       0.16666667      -0.25000000       0.08333333 </v>
    <v>       0.25000000      -0.25000000       0.08333333 </v>
    <v>       0.33333333      -0.25000000       0.08333333 </v>
    <v>       0.16666667      -0.16666667       0.08333333 </v>
    <v>       0.25000000      -0.16666667       0.08333333 </v>
    <v>       0.16666667      -0.08333333       0.08333333 </v>
    <v>      -0.00000000      -0.00000000       0.16666667 </v>
    <v>       0.08333333       0.00000000       0.16666667 </v>
    <v>       0.16666667      -0.00000000       0.16666667 </v>
    <v>       0.25000000       0.00000000       0.16666667 </v>
    <v>       0.33333333       0.00000000       0.16666667 </v>
    <v>       0.41666667       0.00000000       0.16666667 </v>
    <v>       0.50000000      -0.00000000       0.16666667 </v>
    <v>      -0.41666667      -0.00000000       0.16666667 </v>
    <v>      -0.33333333      -0.00000000       0.16666667 </v>
    <v>      -0.25000000       0.00000000       0.16666667 </v>
    <v>      -0.16666667      -0.00000000       0.16666667 </v>
    <v>      -0.08333333       0.00000000       0.16666667 </v>
    <v>      -0.00000000       0.08333333       0.16666667 </v>
    <v>       0.08333333       0.08333333       0.16666667 </v>
    <v>       0.25000000       0.08333333       0.16666667 </v>
    <v>       0.33333333       0.08333333       0.16666667 </v>
    <v>       0.41666667       0.08333333       0.16666667 </v>
    <v>       0.50000000       0.08333333       0.16666667 </v>
    <v>      -0.41666667       0.08333333       0.16666667 </v>
    <v>      -0.33333333       0.08333333       0.16666667 </v>
    <v>      -0.25000000       0.08333333       0.16666667 </v>
    <v>      -0.16666667       0.08333333       0.16666667 </v>
    <v>      -0.08333333       0.08333333       0.16666667 </v>
    <v>      -0.00000000       0.16666667       0.16666667 </v>
    <v>       0.25000000       0.16666667       0.16666667 </v>
    <v>       0.33333333       0.16666667       0.16666667 </v>
    <v>       0.41666667       0.16666667       0.16666667 </v>
    <v>       0.50000000       0.16666667       0.16666667 </v>
    <v>      -0.41666667       0.16666667       0.16666667 </v>
    <v>      -0.33333333       0.16666667       0.16666667 </v>
    <v>      -0.25000000       0.16666667       0.16666667 </v>
    <v>      -0.16666667       0.16666667       0.16666667 </v>
    <v>      -0.08333333       0.16666667       0.16666667 </v>
    <v>       0.25000000       0.25000000       0.16666667 </v>
    <v>       0.33333333       0.25000000       0.16666667 </v>
    <v>       0.41666667       0.25000000       0.16666667 </v>
    <v>       0.50000000       0.25000000       0.16666667 </v>
    <v>      -0.41666667       0.25000000       0.16666667 </v>
    <v>      -0.33333333       0.25000000       0.16666667 </v>
    <v>      -0.25000000       0.25000000       0.16666667 </v>
    <v>      -0.16666667       0.25000000       0.16666667 </v>
    <v>      -0.08333333       0.25000000       0.16666667 </v>
    <v>       0.25000000       0.33333333       0.16666667 </v>
    <v>       0.33333333       0.33333333       0.16666667 </v>
    <v>       0.41666667       0.33333333       0.16666667 </v>
    <v>       0.50000000       0.33333333       0.16666667 </v>
    <v>      -0.41666667       0.33333333       0.16666667 </v>
    <v>      -0.33333333       0.33333333       0.16666667 </v>
    <v>      -0.25000000       0.33333333       0.16666667 </v>
    <v>      -0.16666667       0.33333333       0.16666667 </v>
    <v>       0.25000000       0.41666667       0.16666667 </v>
    <v>       0.33333333       0.41666667       0.16666667 </v>
    <v>       0.41666667       0.41666667       0.16666667 </v>
    <v>       0.50000000       0.41666667       0.16666667 </v>
    <v>      -0.41666667       0.41666667       0.16666667 </v>
    <v>      -0.33333333       0.41666667       0.16666667 </v>
    <v>      -0.25000000       0.41666667       0.16666667 </v>
    <v>       0.25000000       0.50000000       0.16666667 </v>
    <v>       0.33333333       0.50000000       0.16666667 </v>
    <v>       0.41666667       0.50000000       0.16666667 </v>
    <v>       0.50000000       0.50000000       0.16666667 </v>
    <v>      -0.41666667       0.50000000       0.16666667 </v>
    <v>      -0.33333333       0.50000000       0.16666667 </v>
    <v>       0.25000000      -0.41666667       0.16666667 </v>
    <v>       0.33333333      -0.41666667       0.16666667 </v>
    <v>       0.41666667      -0.41666667       0.16666667 </v>
    <v>       0.50000000      -0.41666667       0.16666667 </v>
    <v>      -0.41666667      -0.41666667       0.16666667 </v>
    <v>       0.25000000      -0.33333333       0.16666667 </v>
    <v>       0.33333333      -0.33333333       0.16666667 </v>
    <v>       0.41666667      -0.33333333       0.16666667 </v>
    <v>       0.50000000      -0.33333333       0.16666667 </v>
    <v>       0.25000000      -0.25000000       0.16666667 </v>
    <v>       0.33333333      -0.25000000       0.16666667 </v>
    <v>       0.41666667      -0.25000000       0.16666667 </v>
    <v>       0.25000000      -0.16666667       0.16666667 </v>
    <v>       0.33333333      -0.16666667       0.16666667 </v>
    <v>       0.25000000      -0.08333333       0.16666667 </v>
    <v>       0.00000000       0.00000000       0.25000000 </v>
    <v>       0.08333333       0.00000000       0.25000000 </v>
    <v>       0.16666667      -0.00000000       0.25000000 </v>
    <v>       0.25000000      -0.00000000       0.25000000 </v>
    <v>       0.33333333       0.00000000       0.25000000 </v>
    <v>       0.41666667      -0.00000000       0.25000000 </v>
    <v>       0.50000000      -0.00000000       0.25000000 </v>
    <v>      -0.41666667      -0.00000000       0.25000000 </v>
    <v>      -0.33333333       0.00000000       0.25000000 </v>
    <v>      -0.25000000      -0.00000000       0.25000000 </v>
    <v>      -0.16666667       0.00000000       0.25000000 </v>
    <v>      -0.08333333       0.00000000       0.25000000 </v>
    <v>      -0.00000000       0.08333333       0.25000000 </v>
    <v>       0.08333333       0.08333333       0.25000000 </v>
    <v>       0.16666667       0.08333333       0.25000000 </v>
    <v>       0.33333333       0.08333333       0.25000000 </v>
    <v>       0.41666667       0.08333333       0.25000000 </v>
    <v>       0.50000000       0.08333333       0.25000000 </v>
    <v>      -0.41666667       0.08333333       0.25000000 </v>
    <v>      -0.33333333       0.08333333       0.25000000 </v>
    <v>      -0.25000000       0.08333333       0.25000000 </v>
    <v>      -0.16666667       0.08333333       0.25000000 </v>
    <v>      -0.08333333       0.08333333       0.25000000 </v>
    <v>      -0.00000000       0.16666667       0.25000000 </v>
    <v>       0.08333333       0.16666667       0.25000000 </v>
    <v>       0.33333333       0.16666667       0.25000000 </v>
    <v>       0.41666667       0.16666667       0.25000000 </v>
    <v>       0.50000000       0.16666667       0.25000000 </v>
    <v>      -0.41666667       0.16666667       0.25000000 </v>
    <v>      -0.33333333       0.16666667       0.25000000 </v>
    <v>      -0.25000000       0.16666667       0.25000000 </v>
    <v>      -0.16666667       0.16666667       0.25000000 </v>
    <v>      -0.08333333       0.16666667       0.25000000 </v>
    <v>      -0.00000000       0.25000000       0.25000000 </v>
    <v>       0.33333333       0.25000000       0.25000000 </v>
    <v>       0.41666667       0.25000000       0.25000000 </v>
    <v>       0.50000000       0.25000000       0.25000000 </v>
    <v>      -0.41666667       0.25000000       0.25000000 </v>
    <v>      -0.33333333       0.25000000       0.25000000 </v>
    <v>      -0.25000000       0.25000000       0.25000000 </v>
    <v>      -0.16666667       0.25000000       0.25000000 </v>
    <v>      -0.08333333       0.25000000       0.25000000 </v>
    <v>       0.33333333       0.33333333       0.25000000 </v>
    <v>       0.41666667       0.33333333       0.25000000 </v>
    <v>       0.50000000       0.33333333       0.25000000 </v>
    <v>      -0.41666667       0.33333333       0.25000000 </v>
    <v>      -0.33333333       0.33333333       0.25000000 </v>
    <v>      -0.25000000       0.33333333       0.25000000 </v>
    <v>      -0.16666667       0.33333333       0.25000000 </v>
    <v>      -0.08333333       0.33333333       0.25000000 </v>
    <v>       0.33333333       0.41666667       0.25000000 </v>
    <v>       0.41666667       0.41666667       0.25000000 </v>
    <v>       0.50000000       0.41666667       0.25000000 </v>
    <v>      -0.41666667       0.41666667       0.25000000 </v>
[...]
       <r>    8.1246    0.0000 </r>
       <r>    8.6511    0.0000 </r>
       <r>    9.4169    0.0000 </r>
       <r>   10.9163    0.0000 </r>
       <r>   12.5067    0.0000 </r>
      </set>
      <set comment="kpoint 158">
       <r>  -24.8221    1.0000 </r>
       <r>  -10.4288    1.0000 </r>
       <r>  -10.1223    1.0000 </r>
       <r>  -10.1047    1.0000 </r>
       <r>   -8.6937    1.0000 </r>
       <r>    0.5291    1.0000 </r>
       <r>    0.8948    1.0000 </r>
       <r>    1.0564    1.0000 </r>
       <r>    3.8260    0.0000 </r>
       <r>    7.0134    0.0000 </r>
       <r>    7.4893    0.0000 </r>
       <r>    8.0744    0.0000 </r>
       <r>    8.4667    0.0000 </r>
       <r>    9.1915    0.0000 </r>
       <r>   10.1272    0.0000 </r>
       <r>   12.2823    0.0000 </r>
      </set>
      <set comment="kpoint 159">
       <r>  -24.8224    1.0000 </r>
       <r>  -10.4048    1.0000 </r>
       <r>  -10.0870    1.0000 </r>
       <r>  -10.0870    1.0000 </r>
       <r>   -8.8095    1.0000 </r>
       <r>    0.5521    1.0000 </r>
       <r>    1.1401    1.0000 </r>
       <r>    1.1401    1.0000 </r>
       <r>    3.5355    0.0000 </r>
       <r>    6.9100    0.0000 </r>
       <r>    7.0644    0.0000 </r>
       <r>    8.4854    0.0000 </r>
       <r>    8.4854    0.0000 </r>
       <r>    9.2412    0.0000 </r>
       <r>    9.9473    0.0000 </r>
       <r>   12.4325    0.0000 </r>
      </set>
      <set comment="kpoint 160">
       <r>  -24.8199    1.0000 </r>
       <r>  -10.3723    1.0000 </r>
       <r>  -10.1484    1.0000 </r>
       <r>  -10.0895    1.0000 </r>
       <r>   -8.8203    1.0000 </r>
       <r>    0.6884    1.0000 </r>
       <r>    1.0258    1.0000 </r>
       <r>    1.0828    1.0000 </r>
       <r>    3.6255    0.0000 </r>
       <r>    7.2225    0.0000 </r>
       <r>    7.2940    0.0000 </r>
       <r>    8.3224    0.0000 </r>
       <r>    8.5259    0.0000 </r>
       <r>    8.8648    0.0000 </r>
       <r>    9.9941    0.0000 </r>
       <r>   12.8270    0.0000 </r>
      </set>
      <set comment="kpoint 161">
       <r>  -24.8192    1.0000 </r>
       <r>  -10.3265    1.0000 </r>
       <r>  -10.3065    1.0000 </r>
       <r>  -10.0752    1.0000 </r>
       <r>   -8.6806    1.0000 </r>
       <r>    0.7260    1.0000 </r>
       <r>    0.7415    1.0000 </r>
       <r>    0.9198    1.0000 </r>
       <r>    4.0089    0.0000 </r>
       <r>    7.6015    0.0000 </r>
       <r>    7.7463    0.0000 </r>
       <r>    7.7671    0.0000 </r>
       <r>    8.3095    0.0000 </r>
       <r>    8.7381    0.0000 </r>
       <r>   10.4603    0.0000 </r>
       <r>   12.9135    0.0000 </r>
      </set>
      <set comment="kpoint 162">
       <r>  -24.8191    1.0000 </r>
       <r>  -10.3431    1.0000 </r>
       <r>  -10.1858    1.0000 </r>
       <r>  -10.1165    1.0000 </r>
       <r>   -8.7880    1.0000 </r>
       <r>    0.7440    1.0000 </r>
       <r>    0.8912    1.0000 </r>
       <r>    1.0636    1.0000 </r>
       <r>    3.7513    0.0000 </r>
       <r>    7.2074    0.0000 </r>
       <r>    7.6500    0.0000 </r>
       <r>    7.9404    0.0000 </r>
       <r>    8.6403    0.0000 </r>
       <r>    8.7431    0.0000 </r>
       <r>   10.1764    0.0000 </r>
       <r>   13.1633    0.0000 </r>
      </set>
      <set comment="kpoint 163">
       <r>  -24.8191    1.0000 </r>
       <r>  -10.3601    1.0000 </r>
       <r>  -10.0983    1.0000 </r>
       <r>  -10.0983    1.0000 </r>
       <r>   -8.9180    1.0000 </r>
       <r>    0.7467    1.0000 </r>
       <r>    1.1504    1.0000 </r>
       <r>    1.1504    1.0000 </r>
       <r>    3.4567    0.0000 </r>
       <r>    7.1491    0.0000 </r>
       <r>    7.1583    0.0000 </r>
       <r>    8.6350    0.0000 </r>
       <r>    8.6350    0.0000 </r>
       <r>    8.7702    0.0000 </r>
       <r>    9.6896    0.0000 </r>
       <r>   13.4464    0.0000 </r>
      </set>
     </set>
    </set>
   </array>
  </eigenvalues>
  <separator name="orbital magnetization" >
   <v name="MAGDIPOLOUT">      0.00000000      0.00000000      0.00000000</v>
  </separator>
  <dos>
   <i name="efermi">      1.34066382 </i>
   <total>
    <array>
     <dimension dim="1">gridpoints</dimension>
     <dimension dim="2">spin</dimension>
     <field>energy</field>
     <field>total</field>
     <field>integrated</field>
     <set>
      <set comment="spin 1">
       <r>   -26.9040     0.0000     0.0000 </r>
       <r>   -26.7548     0.0000     0.0000 </r>
       <r>   -26.6055     0.0000     0.0000 </r>
       <r>   -26.4563     0.0000     0.0000 </r>
       <r>   -26.3070     0.0000     0.0000 </r>
       <r>   -26.1578     0.0000     0.0000 </r>
       <r>   -26.0085     0.0000     0.0000 </r>
       <r>   -25.8593     0.0000     0.0000 </r>
       <r>   -25.7101     0.0000     0.0000 </r>
       <r>   -25.5608     0.0000     0.0000 </r>
       <r>   -25.4116     0.0000     0.0000 </r>
       <r>   -25.2623     0.0000     0.0000 </r>
       <r>   -25.1131     0.0000     0.0000 </r>
       <r>   -24.9638     0.0000     0.0000 </r>
       <r>   -24.8146    12.4632     1.8601 </r>
       <r>   -24.6653     0.0000     2.0000 </r>
       <r>   -24.5161     0.0000     2.0000 </r>
       <r>   -24.3669     0.0000     2.0000 </r>
       <r>   -24.2176     0.0000     2.0000 </r>
       <r>   -24.0684     0.0000     2.0000 </r>
       <r>   -23.9191     0.0000     2.0000 </r>
       <r>   -23.7699     0.0000     2.0000 </r>
       <r>   -23.6206     0.0000     2.0000 </r>
       <r>   -23.4714     0.0000     2.0000 </r>
       <r>   -23.3221     0.0000     2.0000 </r>
       <r>   -23.1729     0.0000     2.0000 </r>
       <r>   -23.0236     0.0000     2.0000 </r>
       <r>   -22.8744     0.0000     2.0000 </r>
       <r>   -22.7252     0.0000     2.0000 </r>
       <r>   -22.5759     0.0000     2.0000 </r>
       <r>   -22.4267     0.0000     2.0000 </r>
       <r>   -22.2774     0.0000     2.0000 </r>
       <r>   -22.1282     0.0000     2.0000 </r>
       <r>   -21.9789     0.0000     2.0000 </r>
       <r>   -21.8297     0.0000     2.0000 </r>
       <r>   -21.6804     0.0000     2.0000 </r>
       <r>   -21.5312     0.0000     2.0000 </r>
       <r>   -21.3819     0.0000     2.0000 </r>
       <r>   -21.2327     0.0000     2.0000 </r>
       <r>   -21.0835     0.0000     2.0000 </r>
       <r>   -20.9342     0.0000     2.0000 </r>
       <r>   -20.7850     0.0000     2.0000 </r>
       <r>   -20.6357     0.0000     2.0000 </r>
       <r>   -20.4865     0.0000     2.0000 </r>
       <r>   -20.3372     0.0000     2.0000 </r>
       <r>   -20.1880     0.0000     2.0000 </r>
       <r>   -20.0387     0.0000     2.0000 </r>
       <r>   -19.8895     0.0000     2.0000 </r>
       <r>   -19.7402     0.0000     2.0000 </r>
       <r>   -19.5910     0.0000     2.0000 </r>
       <r>   -19.4418     0.0000     2.0000 </r>
       <r>   -19.2925     0.0000     2.0000 </r>
       <r>   -19.1433     0.0000     2.0000 </r>
       <r>   -18.9940     0.0000     2.0000 </r>
       <r>   -18.8448     0.0000     2.0000 </r>
       <r>   -18.6955     0.0000     2.0000 </r>
       <r>   -18.5463     0.0000     2.0000 </r>
       <r>   -18.3970     0.0000     2.0000 </r>
       <r>   -18.2478     0.0000     2.0000 </r>
       <r>   -18.0985     0.0000     2.0000 </r>
       <r>   -17.9493     0.0000     2.0000 </r>
       <r>   -17.8001     0.0000     2.0000 </r>
       <r>   -17.6508     0.0000     2.0000 </r>
       <r>   -17.5016     0.0000     2.0000 </r>
       <r>   -17.3523     0.0000     2.0000 </r>
       <r>   -17.2031     0.0000     2.0000 </r>
       <r>   -17.0538     0.0000     2.0000 </r>
       <r>   -16.9046     0.0000     2.0000 </r>
       <r>   -16.7553     0.0000     2.0000 </r>
       <r>   -16.6061     0.0000     2.0000 </r>
       <r>   -16.4568     0.0000     2.0000 </r>
       <r>   -16.3076     0.0000     2.0000 </r>
       <r>   -16.1584     0.0000     2.0000 </r>
       <r>   -16.0091     0.0000     2.0000 </r>
       <r>   -15.8599     0.0000     2.0000 </r>
       <r>   -15.7106     0.0000     2.0000 </r>
       <r>   -15.5614     0.0000     2.0000 </r>
       <r>   -15.4121     0.0000     2.0000 </r>
       <r>   -15.2629     0.0000     2.0000 </r>
       <r>   -15.1136     0.0000     2.0000 </r>
       <r>   -14.9644     0.0000     2.0000 </r>
       <r>   -14.8151     0.0000     2.0000 </r>
       <r>   -14.6659     0.0000     2.0000 </r>
       <r>   -14.5167     0.0000     2.0000 </r>
       <r>   -14.3674     0.0000     2.0000 </r>
       <r>   -14.2182     0.0000     2.0000 </r>
       <r>   -14.0689     0.0000     2.0000 </r>
       <r>   -13.9197     0.0000     2.0000 </r>
       <r>   -13.7704     0.0000     2.0000 </r>
       <r>   -13.6212     0.0000     2.0000 </r>
       <r>   -13.4719     0.0000     2.0000 </r>
       <r>   -13.3227     0.0000     2.0000 </r>
       <r>   -13.1734     0.0000     2.0000 </r>
       <r>   -13.0242     0.0000     2.0000 </r>
       <r>   -12.8750     0.0000     2.0000 </r>
       <r>   -12.7257     0.0000     2.0000 </r>
       <r>   -12.5765     0.0000     2.0000 </r>
       <r>   -12.4272     0.0000     2.0000 </r>
       <r>   -12.2780     0.0000     2.0000 </r>
       <r>   -12.1287     0.0000     2.0000 </r>
       <r>   -11.9795     0.0000     2.0000 </r>
       <r>   -11.8302     0.0000     2.0000 </r>
       <r>   -11.6810     0.0000     2.0000 </r>
       <r>   -11.5317     0.0000     2.0000 </r>
       <r>   -11.3825     0.0000     2.0000 </r>
       <r>   -11.2333     0.0000     2.0000 </r>
       <r>   -11.0840     0.0000     2.0000 </r>
       <r>   -10.9348     0.0184     2.0028 </r>
       <r>   -10.7855     1.2966     2.2630 </r>
       <r>   -10.6363     2.5052     2.8137 </r>
       <r>   -10.4870     2.0414     3.4945 </r>
       <r>   -10.3378     0.9415     3.8951 </r>
       <r>   -10.1885     2.0315     4.2997 </r>
       <r>   -10.0393     8.2725     5.9812 </r>
       <r>    -9.8900     4.3351     8.0000 </r>
       <r>    -9.7408     0.0000     8.0000 </r>
       <r>    -9.5916     0.0000     8.0000 </r>
       <r>    -9.4423     0.0000     8.0000 </r>
       <r>    -9.2931     0.0000     8.0000 </r>
       <r>    -9.1438     0.0000     8.0000 </r>
       <r>    -8.9946     0.0077     8.0012 </r>
       <r>    -8.8453     0.1138     8.0181 </r>
       <r>    -8.6961     0.1626     8.0937 </r>
       <r>    -8.5468     0.8039     8.3005 </r>
       <r>    -8.3976     1.8435     8.7774 </r>
       <r>    -8.2484     2.7640     9.2644 </r>
       <r>    -8.0991     1.1391     9.7441 </r>
       <r>    -7.9499     0.3974     9.9899 </r>
       <r>    -7.8006     0.0000    10.0000 </r>
       <r>    -7.6514     0.0000    10.0000 </r>
       <r>    -7.5021     0.0000    10.0000 </r>
       <r>    -7.3529     0.0000    10.0000 </r>
       <r>    -7.2036     0.0000    10.0000 </r>
       <r>    -7.0544     0.0000    10.0000 </r>
       <r>    -6.9051     0.0000    10.0000 </r>
       <r>    -6.7559     0.0000    10.0000 </r>
       <r>    -6.6067     0.0000    10.0000 </r>
       <r>    -6.4574     0.0000    10.0000 </r>
       <r>    -6.3082     0.0000    10.0000 </r>
       <r>    -6.1589     0.0000    10.0000 </r>
       <r>    -6.0097     0.0000    10.0000 </r>
       <r>    -5.8604     0.0000    10.0000 </r>
       <r>    -5.7112     0.0000    10.0000 </r>
       <r>    -5.5619     0.0000    10.0000 </r>
       <r>    -5.4127     0.0000    10.0000 </r>
       <r>    -5.2634     0.0000    10.0000 </r>
       <r>    -5.1142     0.0000    10.0000 </r>
       <r>    -4.9650     0.0000    10.0000 </r>
       <r>    -4.8157     0.0000    10.0000 </r>
       <r>    -4.6665     0.0000    10.0000 </r>
       <r>    -4.5172     0.0000    10.0000 </r>
       <r>    -4.3680     0.0000    10.0000 </r>
       <r>    -4.2187     0.0000    10.0000 </r>
       <r>    -4.0695     0.0000    10.0000 </r>
       <r>    -3.9202     0.0000    10.0000 </r>
       <r>    -3.7710     0.0000    10.0000 </r>
       <r>    -3.6217     0.0000    10.0000 </r>
       <r>    -3.4725     0.0000    10.0000 </r>
       <r>    -3.3233     0.0000    10.0000 </r>
       <r>    -3.1740     0.0000    10.0000 </r>
       <r>    -3.0248     0.0000    10.0000 </r>
       <r>    -2.8755     0.0000    10.0000 </r>
       <r>    -2.7263     0.0000    10.0000 </r>
       <r>    -2.5770     0.0000    10.0000 </r>
       <r>    -2.4278     0.0000    10.0000 </r>
       <r>    -2.2785     0.0000    10.0000 </r>
       <r>    -2.1293     0.0000    10.0000 </r>
       <r>    -1.9800     0.0000    10.0000 </r>
       <r>    -1.8308     0.0000    10.0000 </r>
       <r>    -1.6816     0.0000    10.0000 </r>
       <r>    -1.5323     0.0000    10.0000 </r>
       <r>    -1.3831     0.0000    10.0000 </r>
       <r>    -1.2338     0.0000    10.0000 </r>
       <r>    -1.0846     0.0000    10.0000 </r>
       <r>    -0.9353     0.0000    10.0000 </r>
       <r>    -0.7861     0.0000    10.0000 </r>
       <r>    -0.6368     0.0000    10.0000 </r>
       <r>    -0.4876     0.0340    10.0097 </r>
       <r>    -0.3383     0.3567    10.1227 </r>
       <r>    -0.1891     0.3638    10.3182 </r>
       <r>    -0.0399     1.0493    10.7214 </r>
       <r>     0.1094     1.5709    11.2159 </r>
       <r>     0.2586     1.0954    11.5130 </r>
       <r>     0.4079     3.6431    12.2497 </r>
       <r>     0.5571     3.9895    13.0862 </r>
       <r>     0.7064     3.2405    13.8332 </r>
       <r>     0.8556     2.1739    14.8025 </r>
       <r>     1.0049     1.9303    15.4328 </r>
       <r>     1.1541     1.2782    15.9304 </r>
       <r>     1.3034     0.1069    15.9986 </r>
       <r>     1.4526     0.0000    16.0000 </r>
       <r>     1.6018     0.0000    16.0000 </r>
       <r>     1.7511     0.0000    16.0000 </r>
       <r>     1.9003     0.0000    16.0000 </r>
       <r>     2.0496     0.0000    16.0000 </r>
       <r>     2.1988     0.0000    16.0000 </r>
       <r>     2.3481     0.0000    16.0000 </r>
       <r>     2.4973     0.0000    16.0000 </r>
       <r>     2.6466     0.0000    16.0000 </r>
       <r>     2.7958     0.0000    16.0000 </r>
       <r>     2.9451     0.0000    16.0000 </r>
       <r>     3.0943     0.0000    16.0000 </r>
       <r>     3.2435     0.0000    16.0000 </r>
       <r>     3.3928     0.0000    16.0000 </r>
       <r>     3.5420     0.0382    16.0092 </r>
       <r>     3.6913     0.1861    16.0382 </r>
       <r>     3.8405     0.4151    16.1140 </r>
       <r>     3.9898     0.0003    16.1146 </r>
       <r>     4.1390     0.4163    16.2184 </r>
       <r>     4.2883     0.1095    16.2907 </r>
       <r>     4.4375     0.1861    16.3854 </r>
       <r>     4.5868     0.6742    16.5138 </r>
       <r>     4.7360     0.2368    16.6083 </r>
       <r>     4.8852     0.1885    16.7411 </r>
       <r>     5.0345     0.8951    16.9577 </r>
       <r>     5.1837     0.4044    17.1020 </r>
       <r>     5.3330     0.6400    17.3120 </r>
       <r>     5.4822     0.5368    17.5466 </r>
       <r>     5.6315     0.5957    17.7428 </r>
       <r>     5.7807     1.8786    18.0639 </r>
       <r>     5.9300     0.7556    18.2760 </r>
       <r>     6.0792     0.5674    18.3937 </r>
       <r>     6.2284     1.8701    18.7548 </r>
       <r>     6.3777     0.8653    19.1396 </r>
       <r>     6.5269     1.5433    19.4838 </r>
       <r>     6.6762     1.1523    19.8097 </r>
       <r>     6.8254     1.6485    20.2264 </r>
       <r>     6.9747     2.3846    20.8478 </r>
       <r>     7.1239     1.0482    21.1460 </r>
       <r>     7.2732     1.7607    21.5255 </r>
       <r>     7.4224     2.1798    22.1714 </r>
       <r>     7.5717     1.9796    22.7457 </r>
       <r>     7.7209     1.1166    23.2280 </r>
       <r>     7.8701     1.6741    23.7695 </r>
       <r>     8.0194     2.0085    24.2014 </r>
       <r>     8.1686     1.4069    24.6602 </r>
       <r>     8.3179     0.9244    24.9354 </r>
       <r>     8.4671     1.4847    25.2413 </r>
       <r>     8.6164     0.0488    25.5316 </r>
       <r>     8.7656     0.6593    25.7199 </r>
       <r>     8.9149     0.7894    26.0484 </r>
       <r>     9.0641     0.1097    26.1830 </r>
       <r>     9.2134     0.9647    26.3384 </r>
       <r>     9.3626     0.8582    26.6281 </r>
       <r>     9.5118     1.1167    26.8657 </r>
       <r>     9.6611     0.9976    27.0980 </r>
       <r>     9.8103     0.8163    27.3105 </r>
       <r>     9.9596     1.0847    27.7117 </r>
       <r>    10.1088     1.5794    28.0459 </r>
       <r>    10.2581     0.8299    28.3368 </r>
       <r>    10.4073     0.2697    28.4384 </r>
       <r>    10.5566     0.9720    28.8418 </r>
       <r>    10.7058     1.0215    29.1062 </r>
       <r>    10.8551     1.1612    29.3076 </r>
       <r>    11.0043     0.5278    29.5302 </r>
       <r>    11.1535     1.1167    29.8634 </r>
       <r>    11.3028     1.0555    30.0765 </r>
       <r>    11.4520     0.2797    30.1482 </r>
       <r>    11.6013     1.2998    30.4070 </r>
       <r>    11.7505     1.7525    30.8079 </r>
       <r>    11.8998     0.7445    31.0833 </r>
       <r>    12.0490     1.3574    31.3276 </r>
       <r>    12.1983     0.8735    31.4868 </r>
       <r>    12.3475     0.5529    31.6265 </r>
       <r>    12.4968     0.1161    31.6632 </r>
       <r>    12.6460     0.0465    31.7384 </r>
       <r>    12.7952     0.0000    31.7454 </r>
       <r>    12.9445     0.3577    31.8543 </r>
       <r>    13.0937     0.0000    31.8981 </r>
       <r>    13.2430     0.1551    31.9213 </r>
       <r>    13.3922     0.0000    31.9213 </r>
       <r>    13.5415     0.0000    31.9248 </r>
       <r>    13.6907     0.0000    31.9248 </r>
       <r>    13.8400     0.0000    31.9317 </r>
       <r>    13.9892     0.0620    31.9410 </r>
       <r>    14.1385     0.0000    31.9687 </r>
       <r>    14.2877     0.0000    31.9826 </r>
       <r>    14.4369     0.0000    31.9826 </r>
       <r>    14.5862     0.0000    31.9826 </r>
       <r>    14.7354     0.0000    31.9826 </r>
       <r>    14.8847     0.0000    31.9826 </r>
       <r>    15.0339     0.0429    31.9890 </r>
       <r>    15.1832     0.0620    31.9988 </r>
       <r>    15.3324     0.0000    31.9988 </r>
       <r>    15.4817     0.0000    31.9988 </r>
       <r>    15.6309     0.0000    31.9988 </r>
       <r>    15.7802     0.0000    31.9988 </r>
       <r>    15.9294     0.0000    32.0000 </r>
       <r>    16.0786     0.0000    32.0000 </r>
       <r>    16.2279     0.0000    32.0000 </r>
       <r>    16.3771     0.0000    32.0000 </r>
       <r>    16.5264     0.0000    32.0000 </r>
       <r>    16.6756     0.0000    32.0000 </r>
       <r>    16.8249     0.0000    32.0000 </r>
       <r>    16.9741     0.0000    32.0000 </r>
       <r>    17.1234     0.0000    32.0000 </r>
       <r>    17.2726     0.0000    32.0000 </r>
       <r>    17.4219     0.0000    32.0000 </r>
       <r>    17.5711     0.0000    32.0000 </r>
       <r>    17.7203     0.0000    32.0000 </r>
       <r>    17.8696     0.0000    32.0000 </r>
      </set>
     </set>
    </array>
   </total>
  </dos>
 </calculation>
 <structure name="finalpos" >
  <crystal>
   <varray name="basis" >
    <v>      -3.22567537       0.00000000       3.22567537 </v>
    <v>       0.00000000       3.22567537       3.22567537 </v>
    <v>      -3.22567537       3.22567537       0.00000000 </v>
   </varray>
   <i name="volume">     67.12618571 </i>
   <varray name="rec_basis" >
    <v>      -0.15500630      -0.15500630       0.15500630 </v>
    <v>       0.15500630       0.15500630       0.15500630 </v>
    <v>      -0.15500630       0.15500630      -0.15500630 </v>
   </varray>
  </crystal>
  <varray name="positions" >
   <v>       0.00000000       0.00000000       0.00000000 </v>
   <v>       0.49999996       0.50000004       0.49999996 </v>
  </varray>
 </structure>
</modeling>
