 
             +---------------------------------------------------+
             |                                                   |
             |                   WANNIER90                       |
             |                                                   |
             +---------------------------------------------------+
             |                                                   |
             |        Welcome to the Maximally-Localized         |
             |        Generalized Wannier Functions code         |
             |            http://www.wannier.org                 |
             |                                                   |
             |                                                   |
             |  Wannier90 Developer Group:                       |
             |    Giovanni Pizzi    (EPFL)                       |
             |    Valerio Vitale    (Cambridge)                  |
             |    David Vanderbilt  (Rutgers University)         |
             |    Nicola Marzari    (EPFL)                       |
             |    Ivo Souza         (Universidad del Pais Vasco) |
             |    Arash A. Mostofi  (Imperial College London)    |
             |    Jonathan R. Yates (University of Oxford)       |
             |                                                   |
             |  For the full list of Wannier90 3.x authors,      |
             |  please check the code documentation and the      |
             |  README on the GitHub page of the code            |
             |                                                   |
             |                                                   |
             |  Please cite                                      |
             |                                                   |
             |  [ref] "Wannier90 as a community code:            |
             |        new features and applications",            |
             |        G. Pizzi et al., J. Phys. Cond. Matt. 32,  |
             |        165902 (2020).                             |
             |        http://doi.org/10.1088/1361-648X/ab51ff    |
             |                                                   |
             |  in any publications arising from the use of      |
             |  this code. For the method please cite            |
             |                                                   |
             |  [ref] "Maximally Localized Generalised Wannier   |
             |         Functions for Composite Energy Bands"     |
             |         N. Marzari and D. Vanderbilt              |
             |         Phys. Rev. B 56 12847 (1997)              |
             |                                                   |
             |  [ref] "Maximally Localized Wannier Functions     |
             |         for Entangled Energy Bands"               |
             |         I. Souza, N. Marzari and D. Vanderbilt    |
             |         Phys. Rev. B 65 035109 (2001)             |
             |                                                   |
             |                                                   |
             | Copyright (c) 1996-2020                           |
             |        The Wannier90 Developer Group and          |
             |        individual contributors                    |
             |                                                   |
             |      Release: 3.1.0        5th March    2020      |
             |                                                   |
             | This program is free software; you can            |
             | redistribute it and/or modify it under the terms  |
             | of the GNU General Public License as published by |
             | the Free Software Foundation; either version 2 of |
             | the License, or (at your option) any later version|
             |                                                   |
             | This program is distributed in the hope that it   |
             | will be useful, but WITHOUT ANY WARRANTY; without |
             | even the implied warranty of MERCHANTABILITY or   |
             | FITNESS FOR A PARTICULAR PURPOSE. See the GNU     |
             | General Public License for more details.          |
             |                                                   |
             | You should have received a copy of the GNU General|
             | Public License along with this program; if not,   |
             | write to the Free Software Foundation, Inc.,      |
             | 675 Mass Ave, Cambridge, MA 02139, USA.           |
             |                                                   |
             +---------------------------------------------------+
             |    Execution started on  3Jan2024 at 14:27:16     |
             +---------------------------------------------------+
 
 ******************************************************************************
 * -> Using CODATA 2006 constant values                                       *
 *    (http://physics.nist.gov/cuu/Constants/index.html)                      *
 * -> Using Bohr value from CODATA                                            *
 ******************************************************************************
 

 Running in parallel on   8 CPUs

 
                                    ------
                                    SYSTEM
                                    ------
 
                              Lattice Vectors (Ang)
                    a_1    -2.097510   0.000000   2.097510
                    a_2     0.000000   2.097510   2.097510
                    a_3    -2.097510   2.097510   0.000000
 
                   Unit Cell Volume:      18.45619  (Ang^3)
 
                        Reciprocal-Space Vectors (Ang^-1)
                    b_1    -1.497772  -1.497772   1.497772
                    b_2     1.497772   1.497772   1.497772
                    b_3    -1.497772   1.497772  -1.497772
  
 *----------------------------------------------------------------------------*
 |   Site       Fractional Coordinate          Cartesian Coordinate (Ang)     |
 +----------------------------------------------------------------------------+
 | Ne   1   0.00000   0.00000   0.00000   |    0.00000   0.00000   0.00000    |
 *----------------------------------------------------------------------------*
                                ------------
                                K-POINT GRID
                                ------------
  
             Grid size = 14 x 14 x 14      Total points = 2744
  
  
 *---------------------------------- MAIN ------------------------------------*
 |  Number of Wannier Functions               :                 3             |
 |  Number of Objective Wannier Functions     :                 3             |
 |  Number of input Bloch states              :                 3             |
 |  Output verbosity (1=low, 5=high)          :                 1             |
 |  Timing Level (1=low, 5=high)              :                 1             |
 |  Optimisation (0=memory, 3=speed)          :                 3             |
 |  Length Unit                               :               Ang             |
 |  Post-processing setup (write *.nnkp)      :                 F             |
 |  Using Gamma-only branch of algorithms     :                 F             |
 *----------------------------------------------------------------------------*
 *------------------------------- WANNIERISE ---------------------------------*
 |  Total number of iterations                :               500             |
 |  Number of CG steps before reset           :                 5             |
 |  Trial step length for line search         :             2.000             |
 |  Convergence tolerence                     :         0.100E-09             |
 |  Convergence window                        :                -1             |
 |  Iterations between writing output         :                 1             |
 |  Iterations between backing up to disk     :               100             |
 |  Write r^2_nm to file                      :                 F             |
 |  Write xyz WF centres to file              :                 F             |
 |  Write on-site energies <0n|H|0n> to file  :                 F             |
 |  Use guiding centre to control phases      :                 F             |
 |  Use phases for initial projections        :                 F             |
 *----------------------------------------------------------------------------*
 Time to read parameters        0.160 (sec)

 *---------------------------------- K-MESH ----------------------------------*
 +----------------------------------------------------------------------------+
 |                    Distance to Nearest-Neighbour Shells                    |
 |                    ------------------------------------                    |
 |          Shell             Distance (Ang^-1)          Multiplicity         |
 |          -----             -----------------          ------------         |
 |             1                   0.185301                      8            |
 |             2                   0.213967                      6            |
 |             3                   0.302596                     12            |
 |             4                   0.354825                     24            |
 |             5                   0.370603                      8            |
 |             6                   0.427935                      6            |
 |             7                   0.466331                     24            |
 |             8                   0.478446                     24            |
 |             9                   0.524111                     24            |
 |            10                   0.555904                     32            |
 |            11                   0.605191                     12            |
 |            12                   0.632924                     48            |
 |            13                   0.641902                     30            |
 |            14                   0.676625                     24            |
 |            15                   0.701539                     24            |
 |            16                   0.709650                     24            |
 |            17                   0.741205                      8            |
 |            18                   0.764017                     48            |
 |            19                   0.771471                     24            |
 |            20                   0.800593                     48            |
 |            21                   0.821758                     72            |
 |            22                   0.855870                      6            |
 |            23                   0.875700                     24            |
 |            24                   0.882211                     48            |
 |            25                   0.907787                     36            |
 |            26                   0.926506                     56            |
 |            27                   0.932663                     24            |
 |            28                   0.956892                     24            |
 |            29                   0.974668                     72            |
 |            30                   0.980522                     48            |
 |            31                   1.003596                     24            |
 |            32                   1.020560                     48            |
 |            33                   1.048222                     24            |
 |            34                   1.064475                     72            |
 |            35                   1.069837                     30            |
 |            36                   1.091024                     72            |
 +----------------------------------------------------------------------------+
 | The b-vectors are chosen automatically                                     |
 | The following shells are used:   1                                         |
 +----------------------------------------------------------------------------+
 |                        Shell   # Nearest-Neighbours                        |
 |                        -----   --------------------                        |
 |                          1               8                                 |
 +----------------------------------------------------------------------------+
 | Completeness relation is fully satisfied [Eq. (B1), PRB 56, 12847 (1997)]  |
 +----------------------------------------------------------------------------+
 |                  b_k Vectors (Ang^-1) and Weights (Ang^2)                  |
 |                  ----------------------------------------                  |
 |            No.         b_k(x)      b_k(y)      b_k(z)        w_b           |
 |            ---        --------------------------------     --------        |
 |             1        -0.106984    0.106984   -0.106984    10.921302        |
 |             2         0.106984    0.106984    0.106984    10.921302        |
 |             3        -0.106984   -0.106984    0.106984    10.921302        |
 |             4        -0.106984    0.106984    0.106984    10.921302        |
 |             5         0.106984   -0.106984    0.106984    10.921302        |
 |             6        -0.106984   -0.106984   -0.106984    10.921302        |
 |             7         0.106984    0.106984   -0.106984    10.921302        |
 |             8         0.106984   -0.106984   -0.106984    10.921302        |
 +----------------------------------------------------------------------------+
 |                           b_k Directions (Ang^-1)                          |
 |                           -----------------------                          |
 |            No.           x           y           z                         |
 |            ---        --------------------------------                     |
 |             1        -0.106984    0.106984   -0.106984                     |
 |             2         0.106984    0.106984    0.106984                     |
 |             3        -0.106984   -0.106984    0.106984                     |
 |             4        -0.106984    0.106984    0.106984                     |
 +----------------------------------------------------------------------------+
  
 Time to get kmesh              1.796 (sec)
 *============================================================================*
 |                              MEMORY ESTIMATE                               |
 |         Maximum RAM allocated during each phase of the calculation         |
 *============================================================================*
 |                            Wannierise:           11.12 Mb                  |
 |                          plot_wannier:           11.12 Mb                  |
 *----------------------------------------------------------------------------*
  
 Starting a new Wannier90 calculation ...


 Reading overlaps from mp-111.mmn    :  Created on  3Jan2024 at 14:27: 7

 Reading projections from mp-111.amn :  Created on  3Jan2024 at 14:27: 6  with SCDM

 Time to read overlaps          0.215 (sec)

 Writing checkpoint file mp-111.chk... done

 
 *------------------------------- WANNIERISE ---------------------------------*
 +--------------------------------------------------------------------+<-- CONV
 | Iter  Delta Spread     RMS Gradient      Spread (Ang^2)      Time  |<-- CONV
 +--------------------------------------------------------------------+<-- CONV
 
 ------------------------------------------------------------------------------
 Initial State
  WF centre and spread    1  ( -0.000078, -0.000096, -0.000074 )     0.44468355
  WF centre and spread    2  (  0.000125,  0.000027, -0.000027 )     0.44488442
  WF centre and spread    3  ( -0.000038,  0.000059,  0.000111 )     0.44486263
  Sum of centres and spreads (  0.000009, -0.000010,  0.000011 )     1.33443060
 
      0     0.133E+01     0.0000000000        1.3344306038       0.00  <-- CONV
        O_D=      0.0025448 O_OD=      0.0035986 O_TOT=      1.3344306 <-- SPRD
 ------------------------------------------------------------------------------
 Cycle:      1
  WF centre and spread    1  ( -0.000002, -0.000002, -0.000001 )     0.44309979
  WF centre and spread    2  (  0.000003,  0.000000, -0.000001 )     0.44309997
  WF centre and spread    3  ( -0.000001,  0.000001,  0.000002 )     0.44311255
  Sum of centres and spreads (  0.000000, -0.000000,  0.000000 )     1.32931231
 
      1    -0.512E-02     0.0081169091        1.3293123088       0.01  <-- CONV
        O_D=      0.0000388 O_OD=      0.0009863 O_TOT=      1.3293123 <-- SPRD
 Delta: O_D= -0.2505963E-02 O_OD= -0.2612332E-02 O_TOT= -0.5118295E-02 <-- DLTA
 ------------------------------------------------------------------------------
 Cycle:      2
  WF centre and spread    1  ( -0.000001, -0.000001, -0.000001 )     0.44308277
  WF centre and spread    2  (  0.000001,  0.000000, -0.000000 )     0.44308195
  WF centre and spread    3  ( -0.000000,  0.000001,  0.000001 )     0.44309466
  Sum of centres and spreads (  0.000000, -0.000000,  0.000000 )     1.32925939
 
      2    -0.529E-04     0.0040707077        1.3292593904       0.02  <-- CONV
        O_D=      0.0000211 O_OD=      0.0009511 O_TOT=      1.3292594 <-- SPRD
 Delta: O_D= -0.1770920E-04 O_OD= -0.3520917E-04 O_TOT= -0.5291837E-04 <-- DLTA
 ------------------------------------------------------------------------------
 Cycle:      3
  WF centre and spread    1  ( -0.000001, -0.000001, -0.000000 )     0.44307679
  WF centre and spread    2  (  0.000001,  0.000000, -0.000000 )     0.44307507
  WF centre and spread    3  ( -0.000000,  0.000000,  0.000001 )     0.44308797
  Sum of centres and spreads (  0.000000, -0.000000,  0.000000 )     1.32923983
 
      3    -0.196E-04     0.0017072973        1.3292398271       0.03  <-- CONV
        O_D=      0.0000121 O_OD=      0.0009404 O_TOT=      1.3292398 <-- SPRD
 Delta: O_D= -0.8960382E-05 O_OD= -0.1060288E-04 O_TOT= -0.1956326E-04 <-- DLTA
 ------------------------------------------------------------------------------
 Cycle:      4
  WF centre and spread    1  ( -0.000000, -0.000000, -0.000000 )     0.44307025
  WF centre and spread    2  (  0.000000,  0.000000, -0.000000 )     0.44306746
  WF centre and spread    3  ( -0.000000,  0.000000,  0.000000 )     0.44308075
  Sum of centres and spreads (  0.000000, -0.000000,  0.000000 )     1.32921846
 
      4    -0.214E-04     0.0016766408        1.3292184619       0.04  <-- CONV
        O_D=      0.0000031 O_OD=      0.0009281 O_TOT=      1.3292185 <-- SPRD
 Delta: O_D= -0.9023540E-05 O_OD= -0.1234163E-04 O_TOT= -0.2136517E-04 <-- DLTA
 ------------------------------------------------------------------------------
 Cycle:      5
  WF centre and spread    1  ( -0.000000, -0.000000, -0.000000 )     0.44306851
  WF centre and spread    2  (  0.000000,  0.000000, -0.000000 )     0.44306552
  WF centre and spread    3  ( -0.000000,  0.000000,  0.000000 )     0.44307896
  Sum of centres and spreads (  0.000000, -0.000000,  0.000000 )     1.32921298
 
      5    -0.548E-05     0.0011896314        1.3292129835       0.05  <-- CONV
        O_D=      0.0000012 O_OD=      0.0009245 O_TOT=      1.3292130 <-- SPRD
 Delta: O_D= -0.1853527E-05 O_OD= -0.3624881E-05 O_TOT= -0.5478408E-05 <-- DLTA
 ------------------------------------------------------------------------------
 Cycle:      6
  WF centre and spread    1  ( -0.000000, -0.000000, -0.000000 )     0.44306809
  WF centre and spread    2  (  0.000000, -0.000000, -0.000000 )     0.44306500
  WF centre and spread    3  ( -0.000000,  0.000000,  0.000000 )     0.44307851
  Sum of centres and spreads (  0.000000,  0.000000,  0.000000 )     1.32921160
 
      6    -0.139E-05     0.0005056282        1.3292115983       0.06  <-- CONV
        O_D=      0.0000007 O_OD=      0.0009236 O_TOT=      1.3292116 <-- SPRD
 Delta: O_D= -0.5326078E-06 O_OD= -0.8526149E-06 O_TOT= -0.1385223E-05 <-- DLTA
 ------------------------------------------------------------------------------
 Cycle:      7
  WF centre and spread    1  ( -0.000000, -0.000000, -0.000000 )     0.44306791
  WF centre and spread    2  (  0.000000, -0.000000, -0.000000 )     0.44306478
  WF centre and spread    3  ( -0.000000,  0.000000,  0.000000 )     0.44307831
  Sum of centres and spreads (  0.000000,  0.000000,  0.000000 )     1.32921100
 
      7    -0.599E-06     0.0003888503        1.3292109988       0.07  <-- CONV
        O_D=      0.0000005 O_OD=      0.0009233 O_TOT=      1.3292110 <-- SPRD
 Delta: O_D= -0.2247105E-06 O_OD= -0.3747656E-06 O_TOT= -0.5994762E-06 <-- DLTA
 ------------------------------------------------------------------------------
 Cycle:      8
  WF centre and spread    1  ( -0.000000, -0.000000, -0.000000 )     0.44306772
  WF centre and spread    2  (  0.000000, -0.000000, -0.000000 )     0.44306451
  WF centre and spread    3  ( -0.000000,  0.000000,  0.000000 )     0.44307811
  Sum of centres and spreads (  0.000000,  0.000000,  0.000000 )     1.32921034
 
      8    -0.655E-06     0.0002798545        1.3292103442       0.08  <-- CONV
        O_D=      0.0000002 O_OD=      0.0009229 O_TOT=      1.3292103 <-- SPRD
 Delta: O_D= -0.2733913E-06 O_OD= -0.3812681E-06 O_TOT= -0.6546594E-06 <-- DLTA
 ------------------------------------------------------------------------------
 Cycle:      9
  WF centre and spread    1  ( -0.000000, -0.000000, -0.000000 )     0.44306761
  WF centre and spread    2  (  0.000000, -0.000000, -0.000000 )     0.44306436
  WF centre and spread    3  ( -0.000000,  0.000000,  0.000000 )     0.44307800
  Sum of centres and spreads (  0.000000,  0.000000,  0.000000 )     1.32920997
 
      9    -0.374E-06     0.0002680355        1.3292099699       0.09  <-- CONV
        O_D=      0.0000001 O_OD=      0.0009226 O_TOT=      1.3292100 <-- SPRD
 Delta: O_D= -0.1321256E-06 O_OD= -0.2421986E-06 O_TOT= -0.3743242E-06 <-- DLTA
 ------------------------------------------------------------------------------
 Cycle:     10
  WF centre and spread    1  ( -0.000000, -0.000000, -0.000000 )     0.44306758
  WF centre and spread    2  (  0.000000, -0.000000, -0.000000 )     0.44306431
  WF centre and spread    3  ( -0.000000,  0.000000,  0.000000 )     0.44307798
  Sum of centres and spreads (  0.000000,  0.000000,  0.000000 )     1.32920987
 
     10    -0.101E-06     0.0001451089        1.3292098691       0.10  <-- CONV
        O_D=      0.0000000 O_OD=      0.0009226 O_TOT=      1.3292099 <-- SPRD
 Delta: O_D= -0.3708760E-07 O_OD= -0.6371232E-07 O_TOT= -0.1007999E-06 <-- DLTA
 ------------------------------------------------------------------------------
 Cycle:     11
  WF centre and spread    1  ( -0.000000, -0.000000, -0.000000 )     0.44306756
  WF centre and spread    2  (  0.000000, -0.000000, -0.000000 )     0.44306428
  WF centre and spread    3  ( -0.000000,  0.000000,  0.000000 )     0.44307796
  Sum of centres and spreads (  0.000000,  0.000000,  0.000000 )     1.32920980
 
     11    -0.670E-07     0.0000969761        1.3292098020       0.11  <-- CONV
        O_D=      0.0000000 O_OD=      0.0009225 O_TOT=      1.3292098 <-- SPRD
 Delta: O_D= -0.2701067E-07 O_OD= -0.4000146E-07 O_TOT= -0.6701213E-07 <-- DLTA
 ------------------------------------------------------------------------------
 Cycle:     12
  WF centre and spread    1  ( -0.000000, -0.000000, -0.000000 )     0.44306755
  WF centre and spread    2  (  0.000000, -0.000000, -0.000000 )     0.44306425
  WF centre and spread    3  ( -0.000000,  0.000000,  0.000000 )     0.44307795
  Sum of centres and spreads (  0.000000,  0.000000,  0.000000 )     1.32920976
 
     12    -0.407E-07     0.0000876549        1.3292097614       0.12  <-- CONV
        O_D=      0.0000000 O_OD=      0.0009225 O_TOT=      1.3292098 <-- SPRD
 Delta: O_D= -0.1406741E-07 O_OD= -0.2661710E-07 O_TOT= -0.4068450E-07 <-- DLTA
 ------------------------------------------------------------------------------
 Cycle:     13
  WF centre and spread    1  ( -0.000000, -0.000000, -0.000000 )     0.44306755
  WF centre and spread    2  (  0.000000, -0.000000, -0.000000 )     0.44306425
  WF centre and spread    3  ( -0.000000,  0.000000,  0.000000 )     0.44307795
  Sum of centres and spreads (  0.000000,  0.000000,  0.000000 )     1.32920975
 
     13    -0.697E-08     0.0000407699        1.3292097544       0.13  <-- CONV
        O_D=      0.0000000 O_OD=      0.0009225 O_TOT=      1.3292098 <-- SPRD
 Delta: O_D= -0.2498872E-08 O_OD= -0.4472200E-08 O_TOT= -0.6971072E-08 <-- DLTA
 ------------------------------------------------------------------------------
 Cycle:     14
  WF centre and spread    1  ( -0.000000, -0.000000,  0.000000 )     0.44306755
  WF centre and spread    2  (  0.000000, -0.000000, -0.000000 )     0.44306425
  WF centre and spread    3  (  0.000000,  0.000000,  0.000000 )     0.44307795
  Sum of centres and spreads (  0.000000,  0.000000,  0.000000 )     1.32920975
 
     14    -0.485E-08     0.0000290170        1.3292097495       0.14  <-- CONV
        O_D=      0.0000000 O_OD=      0.0009225 O_TOT=      1.3292097 <-- SPRD
 Delta: O_D= -0.1878969E-08 O_OD= -0.2968266E-08 O_TOT= -0.4847236E-08 <-- DLTA
 ------------------------------------------------------------------------------
 Cycle:     15
  WF centre and spread    1  ( -0.000000, -0.000000,  0.000000 )     0.44306755
  WF centre and spread    2  (  0.000000, -0.000000, -0.000000 )     0.44306425
  WF centre and spread    3  (  0.000000,  0.000000,  0.000000 )     0.44307795
  Sum of centres and spreads (  0.000000,  0.000000,  0.000000 )     1.32920975
 
     15    -0.260E-08     0.0000223361        1.3292097469       0.15  <-- CONV
        O_D=      0.0000000 O_OD=      0.0009225 O_TOT=      1.3292097 <-- SPRD
 Delta: O_D= -0.6238223E-09 O_OD= -0.1974179E-08 O_TOT= -0.2598002E-08 <-- DLTA
 ------------------------------------------------------------------------------
 Cycle:     16
  WF centre and spread    1  ( -0.000000, -0.000000,  0.000000 )     0.44306755
  WF centre and spread    2  (  0.000000, -0.000000, -0.000000 )     0.44306425
  WF centre and spread    3  (  0.000000,  0.000000,  0.000000 )     0.44307795
  Sum of centres and spreads (  0.000000,  0.000000,  0.000000 )     1.32920975
 
     16    -0.139E-08     0.0000199698        1.3292097456       0.16  <-- CONV
        O_D=      0.0000000 O_OD=      0.0009225 O_TOT=      1.3292097 <-- SPRD
 Delta: O_D= -0.2352943E-09 O_OD= -0.1155399E-08 O_TOT= -0.1390693E-08 <-- DLTA
 ------------------------------------------------------------------------------
 Cycle:     17
  WF centre and spread    1  ( -0.000000, -0.000000,  0.000000 )     0.44306755
  WF centre and spread    2  (  0.000000, -0.000000, -0.000000 )     0.44306425
  WF centre and spread    3  (  0.000000,  0.000000,  0.000000 )     0.44307795
  Sum of centres and spreads (  0.000000,  0.000000,  0.000000 )     1.32920974
 
     17    -0.123E-08     0.0000149467        1.3292097443       0.17  <-- CONV
        O_D=      0.0000000 O_OD=      0.0009225 O_TOT=      1.3292097 <-- SPRD
 Delta: O_D= -0.2761463E-09 O_OD= -0.9550217E-09 O_TOT= -0.1231168E-08 <-- DLTA
 ------------------------------------------------------------------------------
 Cycle:     18
  WF centre and spread    1  ( -0.000000, -0.000000,  0.000000 )     0.44306755
  WF centre and spread    2  (  0.000000, -0.000000, -0.000000 )     0.44306425
  WF centre and spread    3  (  0.000000,  0.000000,  0.000000 )     0.44307795
  Sum of centres and spreads (  0.000000,  0.000000,  0.000000 )     1.32920974
 
     18    -0.849E-12     0.0000107764        1.3292097443       0.17  <-- CONV
        O_D=      0.0000000 O_OD=      0.0009225 O_TOT=      1.3292097 <-- SPRD
 Delta: O_D= -0.2160154E-12 O_OD= -0.6325400E-12 O_TOT= -0.8486545E-12 <-- DLTA
 ------------------------------------------------------------------------------
 Cycle:     19
  WF centre and spread    1  ( -0.000000, -0.000000,  0.000000 )     0.44306755
  WF centre and spread    2  (  0.000000, -0.000000, -0.000000 )     0.44306425
  WF centre and spread    3  (  0.000000,  0.000000,  0.000000 )     0.44307795
  Sum of centres and spreads (  0.000000,  0.000000,  0.000000 )     1.32920974
 
     19    -0.664E-12     0.0000107726        1.3292097443       0.18  <-- CONV
        O_D=      0.0000000 O_OD=      0.0009225 O_TOT=      1.3292097 <-- SPRD
 Delta: O_D= -0.2027925E-12 O_OD= -0.4611952E-12 O_TOT= -0.6639134E-12 <-- DLTA
 ------------------------------------------------------------------------------
 Cycle:     20
  WF centre and spread    1  ( -0.000000, -0.000000,  0.000000 )     0.44306755
  WF centre and spread    2  (  0.000000, -0.000000, -0.000000 )     0.44306425
  WF centre and spread    3  (  0.000000,  0.000000,  0.000000 )     0.44307795
  Sum of centres and spreads (  0.000000,  0.000000,  0.000000 )     1.32920974
 
     20    -0.783E-09     0.0000107681        1.3292097435       0.19  <-- CONV
        O_D=      0.0000000 O_OD=      0.0009225 O_TOT=      1.3292097 <-- SPRD
 Delta: O_D= -0.2276182E-09 O_OD= -0.5556987E-09 O_TOT= -0.7833167E-09 <-- DLTA
 ------------------------------------------------------------------------------
 Cycle:     21
  WF centre and spread    1  ( -0.000000, -0.000000,  0.000000 )     0.44306755
  WF centre and spread    2  (  0.000000, -0.000000, -0.000000 )     0.44306425
  WF centre and spread    3  (  0.000000,  0.000000,  0.000000 )     0.44307795
  Sum of centres and spreads (  0.000000,  0.000000,  0.000000 )     1.32920974
 
     21    -0.647E-12     0.0000104133        1.3292097435       0.19  <-- CONV
        O_D=      0.0000000 O_OD=      0.0009225 O_TOT=      1.3292097 <-- SPRD
 Delta: O_D= -0.1510524E-12 O_OD= -0.4959646E-12 O_TOT= -0.6470380E-12 <-- DLTA
 ------------------------------------------------------------------------------
 Cycle:     22
  WF centre and spread    1  ( -0.000000,  0.000000,  0.000000 )     0.44306755
  WF centre and spread    2  (  0.000000, -0.000000, -0.000000 )     0.44306425
  WF centre and spread    3  (  0.000000,  0.000000,  0.000000 )     0.44307795
  Sum of centres and spreads (  0.000000,  0.000000,  0.000000 )     1.32920974
 
     22    -0.931E-09     0.0000104139        1.3292097426       0.20  <-- CONV
        O_D=      0.0000000 O_OD=      0.0009225 O_TOT=      1.3292097 <-- SPRD
 Delta: O_D= -0.1601380E-09 O_OD= -0.7706856E-09 O_TOT= -0.9308239E-09 <-- DLTA
 ------------------------------------------------------------------------------
 Cycle:     23
  WF centre and spread    1  ( -0.000000,  0.000000,  0.000000 )     0.44306755
  WF centre and spread    2  (  0.000000, -0.000000, -0.000000 )     0.44306425
  WF centre and spread    3  (  0.000000,  0.000000,  0.000000 )     0.44307795
  Sum of centres and spreads (  0.000000,  0.000000,  0.000000 )     1.32920974
 
     23    -0.314E-09     0.0000081180        1.3292097423       0.21  <-- CONV
        O_D=      0.0000000 O_OD=      0.0009225 O_TOT=      1.3292097 <-- SPRD
 Delta: O_D= -0.5782699E-11 O_OD= -0.3084760E-09 O_TOT= -0.3142586E-09 <-- DLTA
 ------------------------------------------------------------------------------
 Cycle:     24
  WF centre and spread    1  ( -0.000000,  0.000000,  0.000000 )     0.44306755
  WF centre and spread    2  (  0.000000, -0.000000, -0.000000 )     0.44306425
  WF centre and spread    3  (  0.000000,  0.000000,  0.000000 )     0.44307795
  Sum of centres and spreads (  0.000000,  0.000000,  0.000000 )     1.32920974
 
     24    -0.599E-12     0.0000075472        1.3292097423       0.22  <-- CONV
        O_D=      0.0000000 O_OD=      0.0009225 O_TOT=      1.3292097 <-- SPRD
 Delta: O_D= -0.4653001E-13 O_OD= -0.5526431E-12 O_TOT= -0.5990763E-12 <-- DLTA
 ------------------------------------------------------------------------------
 Cycle:     25
  WF centre and spread    1  ( -0.000000,  0.000000,  0.000000 )     0.44306755
  WF centre and spread    2  (  0.000000, -0.000000, -0.000000 )     0.44306425
  WF centre and spread    3  (  0.000000,  0.000000,  0.000000 )     0.44307795
  Sum of centres and spreads (  0.000000,  0.000000,  0.000000 )     1.32920974
 
     25    -0.326E-12     0.0000075439        1.3292097423       0.22  <-- CONV
        O_D=      0.0000000 O_OD=      0.0009225 O_TOT=      1.3292097 <-- SPRD
 Delta: O_D= -0.7087822E-13 O_OD= -0.2547310E-12 O_TOT= -0.3255174E-12 <-- DLTA
 ------------------------------------------------------------------------------
 Cycle:     26
  WF centre and spread    1  ( -0.000000,  0.000000,  0.000000 )     0.44306755
  WF centre and spread    2  (  0.000000, -0.000000, -0.000000 )     0.44306425
  WF centre and spread    3  (  0.000000,  0.000000,  0.000000 )     0.44307795
  Sum of centres and spreads (  0.000000,  0.000000,  0.000000 )     1.32920974
 
     26    -0.650E-12     0.0000075404        1.3292097423       0.23  <-- CONV
        O_D=      0.0000000 O_OD=      0.0009225 O_TOT=      1.3292097 <-- SPRD
 Delta: O_D= -0.1415180E-12 O_OD= -0.5087746E-12 O_TOT= -0.6503686E-12 <-- DLTA
 ------------------------------------------------------------------------------
 Cycle:     27
  WF centre and spread    1  ( -0.000000,  0.000000,  0.000000 )     0.44306755
  WF centre and spread    2  (  0.000000, -0.000000, -0.000000 )     0.44306425
  WF centre and spread    3  (  0.000000,  0.000000,  0.000000 )     0.44307795
  Sum of centres and spreads (  0.000000,  0.000000,  0.000000 )     1.32920974
 
     27    -0.341E-09     0.0000075332        1.3292097420       0.24  <-- CONV
        O_D=      0.0000000 O_OD=      0.0009225 O_TOT=      1.3292097 <-- SPRD
 Delta: O_D= -0.5627462E-10 O_OD= -0.2847390E-09 O_TOT= -0.3410137E-09 <-- DLTA
 ------------------------------------------------------------------------------
 Cycle:     28
  WF centre and spread    1  ( -0.000000,  0.000000,  0.000000 )     0.44306755
  WF centre and spread    2  (  0.000000, -0.000000, -0.000000 )     0.44306425
  WF centre and spread    3  (  0.000000,  0.000000,  0.000000 )     0.44307795
  Sum of centres and spreads (  0.000000,  0.000000,  0.000000 )     1.32920974
 
     28    -0.988E-10     0.0000072502        1.3292097419       0.25  <-- CONV
        O_D=      0.0000000 O_OD=      0.0009225 O_TOT=      1.3292097 <-- SPRD
 Delta: O_D=  0.1711333E-10 O_OD= -0.1158925E-09 O_TOT= -0.9877921E-10 <-- DLTA
 ------------------------------------------------------------------------------
 Cycle:     29
  WF centre and spread    1  ( -0.000000,  0.000000,  0.000000 )     0.44306755
  WF centre and spread    2  (  0.000000, -0.000000, -0.000000 )     0.44306424
  WF centre and spread    3  (  0.000000,  0.000000,  0.000000 )     0.44307795
  Sum of centres and spreads (  0.000000,  0.000000,  0.000000 )     1.32920974
 
     29    -0.143E-09     0.0000098922        1.3292097417       0.26  <-- CONV
        O_D=      0.0000000 O_OD=      0.0009225 O_TOT=      1.3292097 <-- SPRD
 Delta: O_D=  0.4223849E-10 O_OD= -0.1849537E-09 O_TOT= -0.1427150E-09 <-- DLTA
 ------------------------------------------------------------------------------
 Cycle:     30
  WF centre and spread    1  ( -0.000000,  0.000000,  0.000000 )     0.44306755
  WF centre and spread    2  (  0.000000, -0.000000,  0.000000 )     0.44306424
  WF centre and spread    3  (  0.000000,  0.000000,  0.000000 )     0.44307795
  Sum of centres and spreads (  0.000000,  0.000000,  0.000000 )     1.32920974
 
     30    -0.225E-09     0.0000113407        1.3292097415       0.27  <-- CONV
        O_D=      0.0000000 O_OD=      0.0009225 O_TOT=      1.3292097 <-- SPRD
 Delta: O_D=  0.1203656E-09 O_OD= -0.3451352E-09 O_TOT= -0.2247698E-09 <-- DLTA
 ------------------------------------------------------------------------------
 Cycle:     31
  WF centre and spread    1  ( -0.000000,  0.000000,  0.000000 )     0.44306755
  WF centre and spread    2  (  0.000000, -0.000000,  0.000000 )     0.44306424
  WF centre and spread    3  (  0.000000,  0.000000,  0.000000 )     0.44307795
  Sum of centres and spreads (  0.000000,  0.000000,  0.000000 )     1.32920974
 
     31    -0.878E-12     0.0000123843        1.3292097415       0.27  <-- CONV
        O_D=      0.0000000 O_OD=      0.0009225 O_TOT=      1.3292097 <-- SPRD
 Delta: O_D= -0.2408988E-12 O_OD= -0.6365650E-12 O_TOT= -0.8775203E-12 <-- DLTA
 ------------------------------------------------------------------------------
 Cycle:     32
  WF centre and spread    1  ( -0.000000,  0.000000,  0.000000 )     0.44306755
  WF centre and spread    2  (  0.000000, -0.000000,  0.000000 )     0.44306424
  WF centre and spread    3  (  0.000000,  0.000000,  0.000000 )     0.44307795
  Sum of centres and spreads (  0.000000,  0.000000,  0.000000 )     1.32920974
 
     32    -0.821E-09     0.0000123777        1.3292097407       0.28  <-- CONV
        O_D=      0.0000000 O_OD=      0.0009225 O_TOT=      1.3292097 <-- SPRD
 Delta: O_D= -0.2066918E-09 O_OD= -0.6140342E-09 O_TOT= -0.8207259E-09 <-- DLTA
 ------------------------------------------------------------------------------
 Cycle:     33
  WF centre and spread    1  ( -0.000000,  0.000000,  0.000000 )     0.44306755
  WF centre and spread    2  (  0.000000, -0.000000,  0.000000 )     0.44306424
  WF centre and spread    3  (  0.000000,  0.000000,  0.000000 )     0.44307795
  Sum of centres and spreads (  0.000000,  0.000000,  0.000000 )     1.32920974
 
     33    -0.262E-12     0.0000069908        1.3292097407       0.29  <-- CONV
        O_D=      0.0000000 O_OD=      0.0009225 O_TOT=      1.3292097 <-- SPRD
 Delta: O_D= -0.4012626E-13 O_OD= -0.2223758E-12 O_TOT= -0.2624567E-12 <-- DLTA
 ------------------------------------------------------------------------------
 Cycle:     34
  WF centre and spread    1  ( -0.000000,  0.000000,  0.000000 )     0.44306755
  WF centre and spread    2  (  0.000000, -0.000000,  0.000000 )     0.44306424
  WF centre and spread    3  (  0.000000,  0.000000,  0.000000 )     0.44307795
  Sum of centres and spreads (  0.000000,  0.000000,  0.000000 )     1.32920974
 
     34    -0.542E-12     0.0000069889        1.3292097407       0.29  <-- CONV
        O_D=      0.0000000 O_OD=      0.0009225 O_TOT=      1.3292097 <-- SPRD
 Delta: O_D= -0.9710133E-13 O_OD= -0.4444544E-12 O_TOT= -0.5415668E-12 <-- DLTA
 ------------------------------------------------------------------------------
 Cycle:     35
  WF centre and spread    1  ( -0.000000,  0.000000,  0.000000 )     0.44306755
  WF centre and spread    2  (  0.000000, -0.000000,  0.000000 )     0.44306424
  WF centre and spread    3  (  0.000000,  0.000000,  0.000000 )     0.44307795
  Sum of centres and spreads (  0.000000,  0.000000,  0.000000 )     1.32920974
 
     35    -0.265E-09     0.0000069826        1.3292097404       0.30  <-- CONV
        O_D=      0.0000000 O_OD=      0.0009225 O_TOT=      1.3292097 <-- SPRD
 Delta: O_D=  0.2392016E-11 O_OD= -0.2675054E-09 O_TOT= -0.2651133E-09 <-- DLTA
 ------------------------------------------------------------------------------
 Cycle:     36
  WF centre and spread    1  ( -0.000000,  0.000000,  0.000000 )     0.44306755
  WF centre and spread    2  (  0.000000, -0.000000,  0.000000 )     0.44306424
  WF centre and spread    3  (  0.000000,  0.000000,  0.000000 )     0.44307795
  Sum of centres and spreads (  0.000000,  0.000000,  0.000000 )     1.32920974
 
     36    -0.154E-11     0.0000089994        1.3292097404       0.31  <-- CONV
        O_D=      0.0000000 O_OD=      0.0009225 O_TOT=      1.3292097 <-- SPRD
 Delta: O_D=  0.1686509E-10 O_OD= -0.1840240E-10 O_TOT= -0.1537215E-11 <-- DLTA
 ------------------------------------------------------------------------------
 Cycle:     37
  WF centre and spread    1  ( -0.000000,  0.000000,  0.000000 )     0.44306755
  WF centre and spread    2  (  0.000000, -0.000000,  0.000000 )     0.44306424
  WF centre and spread    3  (  0.000000,  0.000000,  0.000000 )     0.44307795
  Sum of centres and spreads (  0.000000,  0.000000,  0.000000 )     1.32920974
 
     37    -0.593E-12     0.0000101778        1.3292097404       0.32  <-- CONV
        O_D=      0.0000000 O_OD=      0.0009225 O_TOT=      1.3292097 <-- SPRD
 Delta: O_D= -0.1381354E-12 O_OD= -0.4543991E-12 O_TOT= -0.5926371E-12 <-- DLTA
 ------------------------------------------------------------------------------
 Cycle:     38
  WF centre and spread    1  ( -0.000000,  0.000000,  0.000000 )     0.44306755
  WF centre and spread    2  (  0.000000, -0.000000,  0.000000 )     0.44306424
  WF centre and spread    3  (  0.000000,  0.000000,  0.000000 )     0.44307795
  Sum of centres and spreads (  0.000000,  0.000000,  0.000000 )     1.32920974
 
     38    -0.310E-09     0.0000101684        1.3292097401       0.33  <-- CONV
        O_D=      0.0000000 O_OD=      0.0009225 O_TOT=      1.3292097 <-- SPRD
 Delta: O_D= -0.5459837E-10 O_OD= -0.2553528E-09 O_TOT= -0.3099514E-09 <-- DLTA
 ------------------------------------------------------------------------------
 Cycle:     39
  WF centre and spread    1  ( -0.000000,  0.000000,  0.000000 )     0.44306755
  WF centre and spread    2  (  0.000000, -0.000000,  0.000000 )     0.44306424
  WF centre and spread    3  (  0.000000,  0.000000,  0.000000 )     0.44307795
  Sum of centres and spreads (  0.000000,  0.000000,  0.000000 )     1.32920974
 
     39    -0.311E-10     0.0000061678        1.3292097401       0.34  <-- CONV
        O_D=      0.0000000 O_OD=      0.0009225 O_TOT=      1.3292097 <-- SPRD
 Delta: O_D=  0.1952362E-11 O_OD= -0.3304226E-10 O_TOT= -0.3108980E-10 <-- DLTA
 ------------------------------------------------------------------------------
 Cycle:     40
  WF centre and spread    1  ( -0.000000,  0.000000,  0.000000 )     0.44306755
  WF centre and spread    2  (  0.000000, -0.000000,  0.000000 )     0.44306424
  WF centre and spread    3  (  0.000000,  0.000000,  0.000000 )     0.44307795
  Sum of centres and spreads (  0.000000,  0.000000,  0.000000 )     1.32920974
 
     40    -0.376E-12     0.0000064683        1.3292097401       0.34  <-- CONV
        O_D=      0.0000000 O_OD=      0.0009225 O_TOT=      1.3292097 <-- SPRD
 Delta: O_D= -0.2672668E-13 O_OD= -0.3496167E-12 O_TOT= -0.3761436E-12 <-- DLTA
 ------------------------------------------------------------------------------
 Cycle:     41
  WF centre and spread    1  ( -0.000000,  0.000000,  0.000000 )     0.44306755
  WF centre and spread    2  (  0.000000, -0.000000,  0.000000 )     0.44306424
  WF centre and spread    3  (  0.000000,  0.000000,  0.000000 )     0.44307795
  Sum of centres and spreads (  0.000000,  0.000000,  0.000000 )     1.32920974
 
     41    -0.615E-12     0.0000064652        1.3292097401       0.35  <-- CONV
        O_D=      0.0000000 O_OD=      0.0009225 O_TOT=      1.3292097 <-- SPRD
 Delta: O_D= -0.6515233E-13 O_OD= -0.5497017E-12 O_TOT= -0.6150636E-12 <-- DLTA
 ------------------------------------------------------------------------------
 Cycle:     42
  WF centre and spread    1  ( -0.000000,  0.000000,  0.000000 )     0.44306755
  WF centre and spread    2  (  0.000000, -0.000000,  0.000000 )     0.44306424
  WF centre and spread    3  (  0.000000,  0.000000,  0.000000 )     0.44307795
  Sum of centres and spreads (  0.000000,  0.000000,  0.000000 )     1.32920974
 
     42    -0.264E-09     0.0000064575        1.3292097398       0.36  <-- CONV
        O_D=      0.0000000 O_OD=      0.0009225 O_TOT=      1.3292097 <-- SPRD
 Delta: O_D= -0.1142293E-10 O_OD= -0.2522665E-09 O_TOT= -0.2636893E-09 <-- DLTA
 ------------------------------------------------------------------------------
 Cycle:     43
  WF centre and spread    1  ( -0.000000,  0.000000,  0.000000 )     0.44306755
  WF centre and spread    2  (  0.000000, -0.000000,  0.000000 )     0.44306424
  WF centre and spread    3  (  0.000000,  0.000000,  0.000000 )     0.44307795
  Sum of centres and spreads (  0.000000,  0.000000,  0.000000 )     1.32920974
 
     43    -0.166E-12     0.0000053890        1.3292097398       0.37  <-- CONV
        O_D=      0.0000000 O_OD=      0.0009225 O_TOT=      1.3292097 <-- SPRD
 Delta: O_D= -0.1797555E-13 O_OD= -0.1481777E-12 O_TOT= -0.1663114E-12 <-- DLTA
 ------------------------------------------------------------------------------
 Cycle:     44
  WF centre and spread    1  ( -0.000000,  0.000000,  0.000000 )     0.44306755
  WF centre and spread    2  (  0.000000, -0.000000,  0.000000 )     0.44306424
  WF centre and spread    3  (  0.000000,  0.000000,  0.000000 )     0.44307795
  Sum of centres and spreads (  0.000000,  0.000000,  0.000000 )     1.32920974
 
     44    -0.101E-09     0.0000053861        1.3292097397       0.37  <-- CONV
        O_D=      0.0000000 O_OD=      0.0009225 O_TOT=      1.3292097 <-- SPRD
 Delta: O_D= -0.7274808E-11 O_OD= -0.9344673E-10 O_TOT= -0.1007214E-09 <-- DLTA
 ------------------------------------------------------------------------------
 Cycle:     45
  WF centre and spread    1  ( -0.000000,  0.000000,  0.000000 )     0.44306755
  WF centre and spread    2  (  0.000000, -0.000000,  0.000000 )     0.44306424
  WF centre and spread    3  (  0.000000,  0.000000,  0.000000 )     0.44307795
  Sum of centres and spreads (  0.000000,  0.000000,  0.000000 )     1.32920974
 
     45    -0.210E-12     0.0000041188        1.3292097397       0.38  <-- CONV
        O_D=      0.0000000 O_OD=      0.0009225 O_TOT=      1.3292097 <-- SPRD
 Delta: O_D= -0.2287074E-14 O_OD= -0.2076057E-12 O_TOT= -0.2098322E-12 <-- DLTA
 ------------------------------------------------------------------------------
 Cycle:     46
  WF centre and spread    1  ( -0.000000,  0.000000,  0.000000 )     0.44306755
  WF centre and spread    2  (  0.000000, -0.000000,  0.000000 )     0.44306424
  WF centre and spread    3  (  0.000000,  0.000000,  0.000000 )     0.44307795
  Sum of centres and spreads (  0.000000,  0.000000,  0.000000 )     1.32920974
 
     46    -0.307E-12     0.0000041188        1.3292097397       0.39  <-- CONV
        O_D=      0.0000000 O_OD=      0.0009225 O_TOT=      1.3292097 <-- SPRD
 Delta: O_D= -0.3372553E-14 O_OD= -0.3034759E-12 O_TOT= -0.3068656E-12 <-- DLTA
 ------------------------------------------------------------------------------
 Cycle:     47
  WF centre and spread    1  ( -0.000000,  0.000000,  0.000000 )     0.44306755
  WF centre and spread    2  (  0.000000, -0.000000,  0.000000 )     0.44306424
  WF centre and spread    3  (  0.000000,  0.000000,  0.000000 )     0.44307795
  Sum of centres and spreads (  0.000000,  0.000000,  0.000000 )     1.32920974
 
     47    -0.404E-12     0.0000041188        1.3292097397       0.39  <-- CONV
        O_D=      0.0000000 O_OD=      0.0009225 O_TOT=      1.3292097 <-- SPRD
 Delta: O_D= -0.4456788E-14 O_OD= -0.3993454E-12 O_TOT= -0.4036771E-12 <-- DLTA
 ------------------------------------------------------------------------------
 Cycle:     48
  WF centre and spread    1  ( -0.000000,  0.000000,  0.000000 )     0.44306755
  WF centre and spread    2  (  0.000000, -0.000000,  0.000000 )     0.44306424
  WF centre and spread    3  (  0.000000,  0.000000,  0.000000 )     0.44307795
  Sum of centres and spreads (  0.000000,  0.000000,  0.000000 )     1.32920974
 
     48    -0.501E-12     0.0000041187        1.3292097397       0.40  <-- CONV
        O_D=      0.0000000 O_OD=      0.0009225 O_TOT=      1.3292097 <-- SPRD
 Delta: O_D= -0.5538873E-14 O_OD= -0.4952037E-12 O_TOT= -0.5009326E-12 <-- DLTA
 ------------------------------------------------------------------------------
 Cycle:     49
  WF centre and spread    1  ( -0.000000,  0.000000,  0.000000 )     0.44306755
  WF centre and spread    2  (  0.000000, -0.000000,  0.000000 )     0.44306424
  WF centre and spread    3  (  0.000000,  0.000000,  0.000000 )     0.44307795
  Sum of centres and spreads (  0.000000,  0.000000,  0.000000 )     1.32920974
 
     49    -0.970E-13     0.0000041186        1.3292097397       0.40  <-- CONV
        O_D=      0.0000000 O_OD=      0.0009225 O_TOT=      1.3292097 <-- SPRD
 Delta: O_D= -0.1112570E-14 O_OD= -0.9595688E-13 O_TOT= -0.9703349E-13 <-- DLTA
 ------------------------------------------------------------------------------
 Cycle:     50
  WF centre and spread    1  ( -0.000000,  0.000000,  0.000000 )     0.44306755
  WF centre and spread    2  (  0.000000, -0.000000,  0.000000 )     0.44306424
  WF centre and spread    3  (  0.000000,  0.000000,  0.000000 )     0.44307795
  Sum of centres and spreads (  0.000000,  0.000000,  0.000000 )     1.32920974
 
     50    -0.194E-12     0.0000041186        1.3292097397       0.41  <-- CONV
        O_D=      0.0000000 O_OD=      0.0009225 O_TOT=      1.3292097 <-- SPRD
 Delta: O_D= -0.2224095E-14 O_OD= -0.1919206E-12 O_TOT= -0.1940670E-12 <-- DLTA
 ------------------------------------------------------------------------------
 Cycle:     51
  WF centre and spread    1  ( -0.000000,  0.000000,  0.000000 )     0.44306755
  WF centre and spread    2  (  0.000000, -0.000000,  0.000000 )     0.44306424
  WF centre and spread    3  (  0.000000,  0.000000,  0.000000 )     0.44307795
  Sum of centres and spreads (  0.000000,  0.000000,  0.000000 )     1.32920974
 
     51    -0.291E-12     0.0000041185        1.3292097397       0.41  <-- CONV
        O_D=      0.0000000 O_OD=      0.0009225 O_TOT=      1.3292097 <-- SPRD
 Delta: O_D= -0.3333511E-14 O_OD= -0.2878625E-12 O_TOT= -0.2913225E-12 <-- DLTA
 ------------------------------------------------------------------------------
 Cycle:     52
  WF centre and spread    1  ( -0.000000,  0.000000,  0.000000 )     0.44306755
  WF centre and spread    2  (  0.000000, -0.000000,  0.000000 )     0.44306424
  WF centre and spread    3  (  0.000000,  0.000000,  0.000000 )     0.44307795
  Sum of centres and spreads (  0.000000,  0.000000,  0.000000 )     1.32920974
 
     52    -0.388E-12     0.0000041184        1.3292097397       0.42  <-- CONV
        O_D=      0.0000000 O_OD=      0.0009225 O_TOT=      1.3292097 <-- SPRD
 Delta: O_D= -0.4439758E-14 O_OD= -0.3837926E-12 O_TOT= -0.3881340E-12 <-- DLTA
 ------------------------------------------------------------------------------
 Cycle:     53
  WF centre and spread    1  ( -0.000000,  0.000000,  0.000000 )     0.44306755
  WF centre and spread    2  (  0.000000, -0.000000,  0.000000 )     0.44306424
  WF centre and spread    3  (  0.000000,  0.000000,  0.000000 )     0.44307795
  Sum of centres and spreads (  0.000000,  0.000000,  0.000000 )     1.32920974
 
     53    -0.485E-12     0.0000041182        1.3292097397       0.42  <-- CONV
        O_D=      0.0000000 O_OD=      0.0009225 O_TOT=      1.3292097 <-- SPRD
 Delta: O_D= -0.5541790E-14 O_OD= -0.4796974E-12 O_TOT= -0.4851675E-12 <-- DLTA
 ------------------------------------------------------------------------------
 Cycle:     54
  WF centre and spread    1  ( -0.000000,  0.000000,  0.000000 )     0.44306755
  WF centre and spread    2  (  0.000000, -0.000000,  0.000000 )     0.44306424
  WF centre and spread    3  (  0.000000,  0.000000,  0.000000 )     0.44307795
  Sum of centres and spreads (  0.000000,  0.000000,  0.000000 )     1.32920974
 
     54    -0.582E-12     0.0000041180        1.3292097397       0.43  <-- CONV
        O_D=      0.0000000 O_OD=      0.0009225 O_TOT=      1.3292097 <-- SPRD
 Delta: O_D= -0.6638567E-14 O_OD= -0.5755687E-12 O_TOT= -0.5822010E-12 <-- DLTA
 ------------------------------------------------------------------------------
 Cycle:     55
  WF centre and spread    1  ( -0.000000,  0.000000,  0.000000 )     0.44306755
  WF centre and spread    2  (  0.000000, -0.000000,  0.000000 )     0.44306424
  WF centre and spread    3  (  0.000000,  0.000000,  0.000000 )     0.44307795
  Sum of centres and spreads (  0.000000,  0.000000,  0.000000 )     1.32920974
 
     55    -0.973E-13     0.0000041178        1.3292097397       0.43  <-- CONV
        O_D=      0.0000000 O_OD=      0.0009225 O_TOT=      1.3292097 <-- SPRD
 Delta: O_D= -0.1101919E-14 O_OD= -0.9593433E-13 O_TOT= -0.9725554E-13 <-- DLTA
 ------------------------------------------------------------------------------
 Cycle:     56
  WF centre and spread    1  ( -0.000000,  0.000000,  0.000000 )     0.44306755
  WF centre and spread    2  (  0.000000, -0.000000,  0.000000 )     0.44306424
  WF centre and spread    3  (  0.000000,  0.000000,  0.000000 )     0.44307795
  Sum of centres and spreads (  0.000000,  0.000000,  0.000000 )     1.32920974
 
     56    -0.194E-12     0.0000041177        1.3292097397       0.44  <-- CONV
        O_D=      0.0000000 O_OD=      0.0009225 O_TOT=      1.3292097 <-- SPRD
 Delta: O_D= -0.2202821E-14 O_OD= -0.1918597E-12 O_TOT= -0.1940670E-12 <-- DLTA
 ------------------------------------------------------------------------------
 Cycle:     57
  WF centre and spread    1  ( -0.000000,  0.000000,  0.000000 )     0.44306755
  WF centre and spread    2  (  0.000000, -0.000000,  0.000000 )     0.44306424
  WF centre and spread    3  (  0.000000,  0.000000,  0.000000 )     0.44307795
  Sum of centres and spreads (  0.000000,  0.000000,  0.000000 )     1.32920974
 
     57    -0.291E-12     0.0000041176        1.3292097397       0.45  <-- CONV
        O_D=      0.0000000 O_OD=      0.0009225 O_TOT=      1.3292097 <-- SPRD
 Delta: O_D= -0.3301672E-14 O_OD= -0.2877793E-12 O_TOT= -0.2911005E-12 <-- DLTA
 ------------------------------------------------------------------------------
 Cycle:     58
  WF centre and spread    1  ( -0.000000,  0.000000,  0.000000 )     0.44306755
  WF centre and spread    2  (  0.000000, -0.000000,  0.000000 )     0.44306424
  WF centre and spread    3  (  0.000000,  0.000000,  0.000000 )     0.44307795
  Sum of centres and spreads (  0.000000,  0.000000,  0.000000 )     1.32920974
 
     58    -0.388E-12     0.0000041175        1.3292097397       0.45  <-- CONV
        O_D=      0.0000000 O_OD=      0.0009225 O_TOT=      1.3292097 <-- SPRD
 Delta: O_D= -0.4397442E-14 O_OD= -0.3836776E-12 O_TOT= -0.3881340E-12 <-- DLTA
 ------------------------------------------------------------------------------
 Cycle:     59
  WF centre and spread    1  ( -0.000000,  0.000000,  0.000000 )     0.44306755
  WF centre and spread    2  (  0.000000, -0.000000,  0.000000 )     0.44306424
  WF centre and spread    3  (  0.000000,  0.000000,  0.000000 )     0.44307795
  Sum of centres and spreads (  0.000000,  0.000000,  0.000000 )     1.32920974
 
     59    -0.485E-12     0.0000041174        1.3292097397       0.46  <-- CONV
        O_D=      0.0000000 O_OD=      0.0009225 O_TOT=      1.3292097 <-- SPRD
 Delta: O_D= -0.5489111E-14 O_OD= -0.4795551E-12 O_TOT= -0.4849454E-12 <-- DLTA
 ------------------------------------------------------------------------------
 Cycle:     60
  WF centre and spread    1  ( -0.000000,  0.000000,  0.000000 )     0.44306755
  WF centre and spread    2  (  0.000000, -0.000000,  0.000000 )     0.44306424
  WF centre and spread    3  (  0.000000,  0.000000,  0.000000 )     0.44307795
  Sum of centres and spreads (  0.000000,  0.000000,  0.000000 )     1.32920974
 
     60    -0.582E-12     0.0000041172        1.3292097397       0.46  <-- CONV
        O_D=      0.0000000 O_OD=      0.0009225 O_TOT=      1.3292097 <-- SPRD
 Delta: O_D= -0.6575670E-14 O_OD= -0.5754002E-12 O_TOT= -0.5819789E-12 <-- DLTA
 ------------------------------------------------------------------------------
 Cycle:     61
  WF centre and spread    1  ( -0.000000,  0.000000,  0.000000 )     0.44306755
  WF centre and spread    2  (  0.000000, -0.000000,  0.000000 )     0.44306424
  WF centre and spread    3  (  0.000000,  0.000000,  0.000000 )     0.44307795
  Sum of centres and spreads (  0.000000,  0.000000,  0.000000 )     1.32920974
 
     61    -0.970E-13     0.0000041169        1.3292097397       0.47  <-- CONV
        O_D=      0.0000000 O_OD=      0.0009225 O_TOT=      1.3292097 <-- SPRD
 Delta: O_D= -0.1091557E-14 O_OD= -0.9590462E-13 O_TOT= -0.9703349E-13 <-- DLTA
 ------------------------------------------------------------------------------
 Cycle:     62
  WF centre and spread    1  ( -0.000000,  0.000000,  0.000000 )     0.44306755
  WF centre and spread    2  (  0.000000, -0.000000,  0.000000 )     0.44306424
  WF centre and spread    3  (  0.000000,  0.000000,  0.000000 )     0.44307795
  Sum of centres and spreads (  0.000000,  0.000000,  0.000000 )     1.32920974
 
     62    -0.194E-12     0.0000041169        1.3292097397       0.47  <-- CONV
        O_D=      0.0000000 O_OD=      0.0009225 O_TOT=      1.3292097 <-- SPRD
 Delta: O_D= -0.2182124E-14 O_OD= -0.1918024E-12 O_TOT= -0.1938449E-12 <-- DLTA
 ------------------------------------------------------------------------------
 Cycle:     63
  WF centre and spread    1  ( -0.000000,  0.000000,  0.000000 )     0.44306755
  WF centre and spread    2  (  0.000000, -0.000000,  0.000000 )     0.44306424
  WF centre and spread    3  (  0.000000,  0.000000,  0.000000 )     0.44307795
  Sum of centres and spreads (  0.000000,  0.000000,  0.000000 )     1.32920974
 
     63    -0.291E-12     0.0000041168        1.3292097397       0.48  <-- CONV
        O_D=      0.0000000 O_OD=      0.0009225 O_TOT=      1.3292097 <-- SPRD
 Delta: O_D= -0.3270696E-14 O_OD= -0.2876956E-12 O_TOT= -0.2911005E-12 <-- DLTA
 ------------------------------------------------------------------------------
 Cycle:     64
  WF centre and spread    1  ( -0.000000,  0.000000,  0.000000 )     0.44306755
  WF centre and spread    2  (  0.000000, -0.000000,  0.000000 )     0.44306424
  WF centre and spread    3  (  0.000000,  0.000000,  0.000000 )     0.44307795
  Sum of centres and spreads (  0.000000,  0.000000,  0.000000 )     1.32920974
 
     64    -0.388E-12     0.0000041167        1.3292097397       0.48  <-- CONV
        O_D=      0.0000000 O_OD=      0.0009225 O_TOT=      1.3292097 <-- SPRD
 Delta: O_D= -0.4356271E-14 O_OD= -0.3835676E-12 O_TOT= -0.3876899E-12 <-- DLTA
 ------------------------------------------------------------------------------
 Cycle:     65
  WF centre and spread    1  ( -0.000000,  0.000000,  0.000000 )     0.44306755
  WF centre and spread    2  (  0.000000, -0.000000,  0.000000 )     0.44306424
  WF centre and spread    3  (  0.000000,  0.000000,  0.000000 )     0.44307795
  Sum of centres and spreads (  0.000000,  0.000000,  0.000000 )     1.32920974
 
     65    -0.485E-12     0.0000041166        1.3292097397       0.49  <-- CONV
        O_D=      0.0000000 O_OD=      0.0009225 O_TOT=      1.3292097 <-- SPRD
 Delta: O_D= -0.5437857E-14 O_OD= -0.4794170E-12 O_TOT= -0.4851675E-12 <-- DLTA
 ------------------------------------------------------------------------------
 Cycle:     66
  WF centre and spread    1  ( -0.000000,  0.000000,  0.000000 )     0.44306755
  WF centre and spread    2  (  0.000000, -0.000000,  0.000000 )     0.44306424
  WF centre and spread    3  (  0.000000,  0.000000,  0.000000 )     0.44307795
  Sum of centres and spreads (  0.000000,  0.000000,  0.000000 )     1.32920974
 
     66    -0.582E-12     0.0000041164        1.3292097397       0.49  <-- CONV
        O_D=      0.0000000 O_OD=      0.0009225 O_TOT=      1.3292097 <-- SPRD
 Delta: O_D= -0.6514472E-14 O_OD= -0.5752405E-12 O_TOT= -0.5815348E-12 <-- DLTA
 ------------------------------------------------------------------------------
 Cycle:     67
  WF centre and spread    1  ( -0.000000,  0.000000,  0.000000 )     0.44306755
  WF centre and spread    2  (  0.000000, -0.000000,  0.000000 )     0.44306424
  WF centre and spread    3  (  0.000000,  0.000000,  0.000000 )     0.44307795
  Sum of centres and spreads (  0.000000,  0.000000,  0.000000 )     1.32920974
 
     67    -0.970E-13     0.0000041162        1.3292097397       0.50  <-- CONV
        O_D=      0.0000000 O_OD=      0.0009225 O_TOT=      1.3292097 <-- SPRD
 Delta: O_D= -0.1081473E-14 O_OD= -0.9587481E-13 O_TOT= -0.9703349E-13 <-- DLTA
 ------------------------------------------------------------------------------
 Cycle:     68
  WF centre and spread    1  ( -0.000000,  0.000000,  0.000000 )     0.44306755
  WF centre and spread    2  (  0.000000, -0.000000,  0.000000 )     0.44306424
  WF centre and spread    3  (  0.000000,  0.000000,  0.000000 )     0.44307795
  Sum of centres and spreads (  0.000000,  0.000000,  0.000000 )     1.32920974
 
     68    -0.194E-12     0.0000041161        1.3292097397       0.50  <-- CONV
        O_D=      0.0000000 O_OD=      0.0009225 O_TOT=      1.3292097 <-- SPRD
 Delta: O_D= -0.2161984E-14 O_OD= -0.1917518E-12 O_TOT= -0.1940670E-12 <-- DLTA
 ------------------------------------------------------------------------------
 Cycle:     69
  WF centre and spread    1  ( -0.000000,  0.000000,  0.000000 )     0.44306755
  WF centre and spread    2  (  0.000000, -0.000000,  0.000000 )     0.44306424
  WF centre and spread    3  (  0.000000,  0.000000,  0.000000 )     0.44307795
  Sum of centres and spreads (  0.000000,  0.000000,  0.000000 )     1.32920974
 
     69    -0.291E-12     0.0000041160        1.3292097397       0.51  <-- CONV
        O_D=      0.0000000 O_OD=      0.0009225 O_TOT=      1.3292097 <-- SPRD
 Delta: O_D= -0.3240553E-14 O_OD= -0.2876138E-12 O_TOT= -0.2906564E-12 <-- DLTA
 ------------------------------------------------------------------------------
 Cycle:     70
  WF centre and spread    1  ( -0.000000,  0.000000,  0.000000 )     0.44306755
  WF centre and spread    2  (  0.000000, -0.000000,  0.000000 )     0.44306424
  WF centre and spread    3  (  0.000000,  0.000000,  0.000000 )     0.44307795
  Sum of centres and spreads (  0.000000,  0.000000,  0.000000 )     1.32920974
 
     70    -0.388E-12     0.0000041159        1.3292097397       0.52  <-- CONV
        O_D=      0.0000000 O_OD=      0.0009225 O_TOT=      1.3292097 <-- SPRD
 Delta: O_D= -0.4316206E-14 O_OD= -0.3834581E-12 O_TOT= -0.3879119E-12 <-- DLTA
 ------------------------------------------------------------------------------
 Cycle:     71
  WF centre and spread    1  ( -0.000000,  0.000000,  0.000000 )     0.44306755
  WF centre and spread    2  (  0.000000, -0.000000,  0.000000 )     0.44306424
  WF centre and spread    3  (  0.000000,  0.000000,  0.000000 )     0.44307795
  Sum of centres and spreads (  0.000000,  0.000000,  0.000000 )     1.32920974
 
     71    -0.485E-12     0.0000041158        1.3292097397       0.52  <-- CONV
        O_D=      0.0000000 O_OD=      0.0009225 O_TOT=      1.3292097 <-- SPRD
 Delta: O_D= -0.5387978E-14 O_OD= -0.4792826E-12 O_TOT= -0.4845013E-12 <-- DLTA
 ------------------------------------------------------------------------------
 Cycle:     72
  WF centre and spread    1  ( -0.000000,  0.000000,  0.000000 )     0.44306755
  WF centre and spread    2  (  0.000000, -0.000000,  0.000000 )     0.44306424
  WF centre and spread    3  (  0.000000,  0.000000,  0.000000 )     0.44307795
  Sum of centres and spreads (  0.000000,  0.000000,  0.000000 )     1.32920974
 
     72    -0.582E-12     0.0000041156        1.3292097397       0.53  <-- CONV
        O_D=      0.0000000 O_OD=      0.0009225 O_TOT=      1.3292097 <-- SPRD
 Delta: O_D= -0.6454912E-14 O_OD= -0.5750800E-12 O_TOT= -0.5815348E-12 <-- DLTA
 ------------------------------------------------------------------------------
 Cycle:     73
  WF centre and spread    1  ( -0.000000,  0.000000,  0.000000 )     0.44306755
  WF centre and spread    2  (  0.000000, -0.000000,  0.000000 )     0.44306424
  WF centre and spread    3  (  0.000000,  0.000000,  0.000000 )     0.44307795
  Sum of centres and spreads (  0.000000,  0.000000,  0.000000 )     1.32920974
 
     73    -0.970E-13     0.0000041154        1.3292097397       0.53  <-- CONV
        O_D=      0.0000000 O_OD=      0.0009225 O_TOT=      1.3292097 <-- SPRD
 Delta: O_D= -0.1071659E-14 O_OD= -0.9585269E-13 O_TOT= -0.9703349E-13 <-- DLTA
 ------------------------------------------------------------------------------
 Cycle:     74
  WF centre and spread    1  ( -0.000000,  0.000000,  0.000000 )     0.44306755
  WF centre and spread    2  (  0.000000, -0.000000,  0.000000 )     0.44306424
  WF centre and spread    3  (  0.000000,  0.000000,  0.000000 )     0.44307795
  Sum of centres and spreads (  0.000000,  0.000000,  0.000000 )     1.32920974
 
     74    -0.194E-12     0.0000041153        1.3292097397       0.54  <-- CONV
        O_D=      0.0000000 O_OD=      0.0009225 O_TOT=      1.3292097 <-- SPRD
 Delta: O_D= -0.2142381E-14 O_OD= -0.1916931E-12 O_TOT= -0.1938449E-12 <-- DLTA
 ------------------------------------------------------------------------------
 Cycle:     75
  WF centre and spread    1  ( -0.000000,  0.000000,  0.000000 )     0.44306755
  WF centre and spread    2  (  0.000000, -0.000000,  0.000000 )     0.44306424
  WF centre and spread    3  (  0.000000,  0.000000,  0.000000 )     0.44307795
  Sum of centres and spreads (  0.000000,  0.000000,  0.000000 )     1.32920974
 
     75    -0.291E-12     0.0000041153        1.3292097397       0.54  <-- CONV
        O_D=      0.0000000 O_OD=      0.0009225 O_TOT=      1.3292097 <-- SPRD
 Delta: O_D= -0.3211213E-14 O_OD= -0.2875370E-12 O_TOT= -0.2906564E-12 <-- DLTA
 ------------------------------------------------------------------------------
 Cycle:     76
  WF centre and spread    1  ( -0.000000,  0.000000,  0.000000 )     0.44306755
  WF centre and spread    2  (  0.000000, -0.000000,  0.000000 )     0.44306424
  WF centre and spread    3  (  0.000000,  0.000000,  0.000000 )     0.44307795
  Sum of centres and spreads (  0.000000,  0.000000,  0.000000 )     1.32920974
 
     76    -0.388E-12     0.0000041152        1.3292097397       0.55  <-- CONV
        O_D=      0.0000000 O_OD=      0.0009225 O_TOT=      1.3292097 <-- SPRD
 Delta: O_D= -0.4277207E-14 O_OD= -0.3833526E-12 O_TOT= -0.3876899E-12 <-- DLTA
 ------------------------------------------------------------------------------
 Cycle:     77
  WF centre and spread    1  ( -0.000000,  0.000000,  0.000000 )     0.44306755
  WF centre and spread    2  (  0.000000, -0.000000,  0.000000 )     0.44306424
  WF centre and spread    3  (  0.000000,  0.000000,  0.000000 )     0.44307795
  Sum of centres and spreads (  0.000000,  0.000000,  0.000000 )     1.32920974
 
     77    -0.485E-12     0.0000041150        1.3292097397       0.55  <-- CONV
        O_D=      0.0000000 O_OD=      0.0009225 O_TOT=      1.3292097 <-- SPRD
 Delta: O_D= -0.5339423E-14 O_OD= -0.4791552E-12 O_TOT= -0.4845013E-12 <-- DLTA
 ------------------------------------------------------------------------------
 Cycle:     78
  WF centre and spread    1  ( -0.000000,  0.000000,  0.000000 )     0.44306755
  WF centre and spread    2  (  0.000000, -0.000000,  0.000000 )     0.44306424
  WF centre and spread    3  (  0.000000,  0.000000,  0.000000 )     0.44307795
  Sum of centres and spreads (  0.000000,  0.000000,  0.000000 )     1.32920974
 
     78    -0.581E-12     0.0000041148        1.3292097397       0.56  <-- CONV
        O_D=      0.0000000 O_OD=      0.0009225 O_TOT=      1.3292097 <-- SPRD
 Delta: O_D= -0.6396932E-14 O_OD= -0.5749261E-12 O_TOT= -0.5813128E-12 <-- DLTA
 ------------------------------------------------------------------------------
 Cycle:     79
  WF centre and spread    1  ( -0.000000,  0.000000,  0.000000 )     0.44306755
  WF centre and spread    2  (  0.000000, -0.000000,  0.000000 )     0.44306424
  WF centre and spread    3  (  0.000000,  0.000000,  0.000000 )     0.44307795
  Sum of centres and spreads (  0.000000,  0.000000,  0.000000 )     1.32920974
 
     79    -0.968E-13     0.0000041146        1.3292097397       0.56  <-- CONV
        O_D=      0.0000000 O_OD=      0.0009225 O_TOT=      1.3292097 <-- SPRD
 Delta: O_D= -0.1062104E-14 O_OD= -0.9582005E-13 O_TOT= -0.9681145E-13 <-- DLTA
 ------------------------------------------------------------------------------
 Cycle:     80
  WF centre and spread    1  ( -0.000000,  0.000000,  0.000000 )     0.44306755
  WF centre and spread    2  (  0.000000, -0.000000,  0.000000 )     0.44306424
  WF centre and spread    3  (  0.000000,  0.000000,  0.000000 )     0.44307795
  Sum of centres and spreads (  0.000000,  0.000000,  0.000000 )     1.32920974
 
     80    -0.194E-12     0.0000041146        1.3292097397       0.57  <-- CONV
        O_D=      0.0000000 O_OD=      0.0009225 O_TOT=      1.3292097 <-- SPRD
 Delta: O_D= -0.2123296E-14 O_OD= -0.1916476E-12 O_TOT= -0.1936229E-12 <-- DLTA
 ------------------------------------------------------------------------------
 Cycle:     81
  WF centre and spread    1  ( -0.000000,  0.000000,  0.000000 )     0.44306755
  WF centre and spread    2  (  0.000000, -0.000000,  0.000000 )     0.44306424
  WF centre and spread    3  (  0.000000,  0.000000,  0.000000 )     0.44307795
  Sum of centres and spreads (  0.000000,  0.000000,  0.000000 )     1.32920974
 
     81    -0.291E-12     0.0000041145        1.3292097397       0.57  <-- CONV
        O_D=      0.0000000 O_OD=      0.0009225 O_TOT=      1.3292097 <-- SPRD
 Delta: O_D= -0.3182648E-14 O_OD= -0.2874554E-12 O_TOT= -0.2908784E-12 <-- DLTA
 ------------------------------------------------------------------------------
 Cycle:     82
  WF centre and spread    1  ( -0.000000,  0.000000,  0.000000 )     0.44306755
  WF centre and spread    2  (  0.000000, -0.000000,  0.000000 )     0.44306424
  WF centre and spread    3  (  0.000000,  0.000000,  0.000000 )     0.44307795
  Sum of centres and spreads (  0.000000,  0.000000,  0.000000 )     1.32920974
 
     82    -0.387E-12     0.0000041144        1.3292097397       0.58  <-- CONV
        O_D=      0.0000000 O_OD=      0.0009225 O_TOT=      1.3292097 <-- SPRD
 Delta: O_D= -0.4239237E-14 O_OD= -0.3832503E-12 O_TOT= -0.3874678E-12 <-- DLTA
 ------------------------------------------------------------------------------
 Cycle:     83
  WF centre and spread    1  ( -0.000000,  0.000000,  0.000000 )     0.44306755
  WF centre and spread    2  (  0.000000, -0.000000,  0.000000 )     0.44306424
  WF centre and spread    3  (  0.000000,  0.000000,  0.000000 )     0.44307795
  Sum of centres and spreads (  0.000000,  0.000000,  0.000000 )     1.32920974
 
     83    -0.484E-12     0.0000041143        1.3292097397       0.59  <-- CONV
        O_D=      0.0000000 O_OD=      0.0009225 O_TOT=      1.3292097 <-- SPRD
 Delta: O_D= -0.5292148E-14 O_OD= -0.4790269E-12 O_TOT= -0.4842793E-12 <-- DLTA
 ------------------------------------------------------------------------------
 Cycle:     84
  WF centre and spread    1  ( -0.000000,  0.000000,  0.000000 )     0.44306755
  WF centre and spread    2  (  0.000000, -0.000000,  0.000000 )     0.44306424
  WF centre and spread    3  (  0.000000,  0.000000,  0.000000 )     0.44307795
  Sum of centres and spreads (  0.000000,  0.000000,  0.000000 )     1.32920974
 
     84    -0.581E-12     0.0000041141        1.3292097397       0.59  <-- CONV
        O_D=      0.0000000 O_OD=      0.0009225 O_TOT=      1.3292097 <-- SPRD
 Delta: O_D= -0.6340476E-14 O_OD= -0.5747730E-12 O_TOT= -0.5810907E-12 <-- DLTA
 ------------------------------------------------------------------------------
 Cycle:     85
  WF centre and spread    1  ( -0.000000,  0.000000,  0.000000 )     0.44306755
  WF centre and spread    2  (  0.000000, -0.000000,  0.000000 )     0.44306424
  WF centre and spread    3  (  0.000000,  0.000000,  0.000000 )     0.44307795
  Sum of centres and spreads (  0.000000,  0.000000,  0.000000 )     1.32920974
 
     85    -0.968E-13     0.0000041139        1.3292097397       0.60  <-- CONV
        O_D=      0.0000000 O_OD=      0.0009225 O_TOT=      1.3292097 <-- SPRD
 Delta: O_D= -0.1052799E-14 O_OD= -0.9580000E-13 O_TOT= -0.9681145E-13 <-- DLTA
 ------------------------------------------------------------------------------
 Cycle:     86
  WF centre and spread    1  ( -0.000000,  0.000000,  0.000000 )     0.44306755
  WF centre and spread    2  (  0.000000, -0.000000,  0.000000 )     0.44306424
  WF centre and spread    3  (  0.000000,  0.000000,  0.000000 )     0.44307795
  Sum of centres and spreads (  0.000000,  0.000000,  0.000000 )     1.32920974
 
     86    -0.194E-12     0.0000041139        1.3292097397       0.60  <-- CONV
        O_D=      0.0000000 O_OD=      0.0009225 O_TOT=      1.3292097 <-- SPRD
 Delta: O_D= -0.2104710E-14 O_OD= -0.1915936E-12 O_TOT= -0.1936229E-12 <-- DLTA
 ------------------------------------------------------------------------------
 Cycle:     87
  WF centre and spread    1  ( -0.000000,  0.000000,  0.000000 )     0.44306755
  WF centre and spread    2  (  0.000000, -0.000000,  0.000000 )     0.44306424
  WF centre and spread    3  (  0.000000,  0.000000,  0.000000 )     0.44307795
  Sum of centres and spreads (  0.000000,  0.000000,  0.000000 )     1.32920974
 
     87    -0.291E-12     0.0000041138        1.3292097397       0.61  <-- CONV
        O_D=      0.0000000 O_OD=      0.0009225 O_TOT=      1.3292097 <-- SPRD
 Delta: O_D= -0.3154830E-14 O_OD= -0.2873817E-12 O_TOT= -0.2906564E-12 <-- DLTA
 ------------------------------------------------------------------------------
 Cycle:     88
  WF centre and spread    1  ( -0.000000,  0.000000,  0.000000 )     0.44306755
  WF centre and spread    2  (  0.000000, -0.000000,  0.000000 )     0.44306424
  WF centre and spread    3  (  0.000000,  0.000000,  0.000000 )     0.44307795
  Sum of centres and spreads (  0.000000,  0.000000,  0.000000 )     1.32920974
 
     88    -0.387E-12     0.0000041137        1.3292097397       0.61  <-- CONV
        O_D=      0.0000000 O_OD=      0.0009225 O_TOT=      1.3292097 <-- SPRD
 Delta: O_D= -0.4202259E-14 O_OD= -0.3831507E-12 O_TOT= -0.3874678E-12 <-- DLTA
 ------------------------------------------------------------------------------
 Cycle:     89
  WF centre and spread    1  ( -0.000000,  0.000000,  0.000000 )     0.44306755
  WF centre and spread    2  (  0.000000, -0.000000,  0.000000 )     0.44306424
  WF centre and spread    3  (  0.000000,  0.000000,  0.000000 )     0.44307795
  Sum of centres and spreads (  0.000000,  0.000000,  0.000000 )     1.32920974
 
     89    -0.484E-12     0.0000041135        1.3292097397       0.62  <-- CONV
        O_D=      0.0000000 O_OD=      0.0009225 O_TOT=      1.3292097 <-- SPRD
 Delta: O_D= -0.5246107E-14 O_OD= -0.4789033E-12 O_TOT= -0.4840572E-12 <-- DLTA
 ------------------------------------------------------------------------------
 Cycle:     90
  WF centre and spread    1  ( -0.000000,  0.000000,  0.000000 )     0.44306755
  WF centre and spread    2  (  0.000000, -0.000000,  0.000000 )     0.44306424
  WF centre and spread    3  (  0.000000,  0.000000,  0.000000 )     0.44307795
  Sum of centres and spreads (  0.000000,  0.000000,  0.000000 )     1.32920974
 
     90    -0.581E-12     0.0000041134        1.3292097397       0.62  <-- CONV
        O_D=      0.0000000 O_OD=      0.0009225 O_TOT=      1.3292097 <-- SPRD
 Delta: O_D= -0.6285492E-14 O_OD= -0.5746250E-12 O_TOT= -0.5810907E-12 <-- DLTA
 ------------------------------------------------------------------------------
 Cycle:     91
  WF centre and spread    1  ( -0.000000,  0.000000,  0.000000 )     0.44306755
  WF centre and spread    2  (  0.000000, -0.000000,  0.000000 )     0.44306424
  WF centre and spread    3  (  0.000000,  0.000000,  0.000000 )     0.44307795
  Sum of centres and spreads (  0.000000,  0.000000,  0.000000 )     1.32920974
 
     91    -0.966E-13     0.0000041132        1.3292097397       0.63  <-- CONV
        O_D=      0.0000000 O_OD=      0.0009225 O_TOT=      1.3292097 <-- SPRD
 Delta: O_D= -0.1043736E-14 O_OD= -0.9577235E-13 O_TOT= -0.9658940E-13 <-- DLTA
 ------------------------------------------------------------------------------
 Cycle:     92
  WF centre and spread    1  ( -0.000000,  0.000000,  0.000000 )     0.44306755
  WF centre and spread    2  (  0.000000, -0.000000,  0.000000 )     0.44306424
  WF centre and spread    3  (  0.000000,  0.000000,  0.000000 )     0.44307795
  Sum of centres and spreads (  0.000000,  0.000000,  0.000000 )     1.32920974
 
     92    -0.194E-12     0.0000041131        1.3292097397       0.63  <-- CONV
        O_D=      0.0000000 O_OD=      0.0009225 O_TOT=      1.3292097 <-- SPRD
 Delta: O_D= -0.2086608E-14 O_OD= -0.1915481E-12 O_TOT= -0.1938449E-12 <-- DLTA
 ------------------------------------------------------------------------------
 Cycle:     93
  WF centre and spread    1  ( -0.000000,  0.000000,  0.000000 )     0.44306755
  WF centre and spread    2  (  0.000000, -0.000000,  0.000000 )     0.44306424
  WF centre and spread    3  (  0.000000,  0.000000,  0.000000 )     0.44307795
  Sum of centres and spreads (  0.000000,  0.000000,  0.000000 )     1.32920974
 
     93    -0.290E-12     0.0000041131        1.3292097397       0.64  <-- CONV
        O_D=      0.0000000 O_OD=      0.0009225 O_TOT=      1.3292097 <-- SPRD
 Delta: O_D= -0.3127734E-14 O_OD= -0.2873083E-12 O_TOT= -0.2904343E-12 <-- DLTA
 ------------------------------------------------------------------------------
 Cycle:     94
  WF centre and spread    1  ( -0.000000,  0.000000,  0.000000 )     0.44306755
  WF centre and spread    2  (  0.000000, -0.000000,  0.000000 )     0.44306424
  WF centre and spread    3  (  0.000000,  0.000000,  0.000000 )     0.44307795
  Sum of centres and spreads (  0.000000,  0.000000,  0.000000 )     1.32920974
 
     94    -0.387E-12     0.0000041130        1.3292097397       0.65  <-- CONV
        O_D=      0.0000000 O_OD=      0.0009225 O_TOT=      1.3292097 <-- SPRD
 Delta: O_D= -0.4166240E-14 O_OD= -0.3830552E-12 O_TOT= -0.3872458E-12 <-- DLTA
 ------------------------------------------------------------------------------
 Cycle:     95
  WF centre and spread    1  ( -0.000000,  0.000000,  0.000000 )     0.44306755
  WF centre and spread    2  (  0.000000, -0.000000,  0.000000 )     0.44306424
  WF centre and spread    3  (  0.000000,  0.000000,  0.000000 )     0.44307795
  Sum of centres and spreads (  0.000000,  0.000000,  0.000000 )     1.32920974
 
     95    -0.484E-12     0.0000041128        1.3292097397       0.65  <-- CONV
        O_D=      0.0000000 O_OD=      0.0009225 O_TOT=      1.3292097 <-- SPRD
 Delta: O_D= -0.5201258E-14 O_OD= -0.4787785E-12 O_TOT= -0.4838352E-12 <-- DLTA
 ------------------------------------------------------------------------------
 Cycle:     96
  WF centre and spread    1  ( -0.000000,  0.000000,  0.000000 )     0.44306755
  WF centre and spread    2  (  0.000000, -0.000000,  0.000000 )     0.44306424
  WF centre and spread    3  (  0.000000,  0.000000,  0.000000 )     0.44307795
  Sum of centres and spreads (  0.000000,  0.000000,  0.000000 )     1.32920974
 
     96    -0.581E-12     0.0000041127        1.3292097397       0.66  <-- CONV
        O_D=      0.0000000 O_OD=      0.0009225 O_TOT=      1.3292097 <-- SPRD
 Delta: O_D= -0.6231929E-14 O_OD= -0.5744845E-12 O_TOT= -0.5806466E-12 <-- DLTA
 ------------------------------------------------------------------------------
 Cycle:     97
  WF centre and spread    1  ( -0.000000,  0.000000,  0.000000 )     0.44306755
  WF centre and spread    2  (  0.000000, -0.000000,  0.000000 )     0.44306424
  WF centre and spread    3  (  0.000000,  0.000000,  0.000000 )     0.44307795
  Sum of centres and spreads (  0.000000,  0.000000,  0.000000 )     1.32920974
 
     97    -0.968E-13     0.0000041125        1.3292097397       0.66  <-- CONV
[...]
  Sum of centres and spreads (  0.000000,  0.000000,  0.000000 )     1.32920974
 
    473    -0.472E-12     0.0000040624        1.3292097390       2.73  <-- CONV
        O_D=      0.0000000 O_OD=      0.0009225 O_TOT=      1.3292097 <-- SPRD
 Delta: O_D= -0.2444538E-14 O_OD= -0.4697483E-12 O_TOT= -0.4720668E-12 <-- DLTA
 ------------------------------------------------------------------------------
 Cycle:    474
  WF centre and spread    1  ( -0.000000,  0.000000,  0.000000 )     0.44306755
  WF centre and spread    2  (  0.000000, -0.000000,  0.000000 )     0.44306424
  WF centre and spread    3  (  0.000000,  0.000000,  0.000000 )     0.44307795
  Sum of centres and spreads (  0.000000,  0.000000,  0.000000 )     1.32920974
 
    474    -0.567E-12     0.0000040623        1.3292097390       2.73  <-- CONV
        O_D=      0.0000000 O_OD=      0.0009225 O_TOT=      1.3292097 <-- SPRD
 Delta: O_D= -0.2928970E-14 O_OD= -0.5636701E-12 O_TOT= -0.5666578E-12 <-- DLTA
 ------------------------------------------------------------------------------
 Cycle:    475
  WF centre and spread    1  ( -0.000000,  0.000000,  0.000000 )     0.44306755
  WF centre and spread    2  (  0.000000, -0.000000,  0.000000 )     0.44306424
  WF centre and spread    3  (  0.000000,  0.000000,  0.000000 )     0.44307795
  Sum of centres and spreads (  0.000000,  0.000000,  0.000000 )     1.32920974
 
    475    -0.946E-13     0.0000040622        1.3292097390       2.74  <-- CONV
        O_D=      0.0000000 O_OD=      0.0009225 O_TOT=      1.3292097 <-- SPRD
 Delta: O_D= -0.4863555E-15 O_OD= -0.9394742E-13 O_TOT= -0.9459100E-13 <-- DLTA
 ------------------------------------------------------------------------------
 Cycle:    476
  WF centre and spread    1  ( -0.000000,  0.000000,  0.000000 )     0.44306755
  WF centre and spread    2  (  0.000000, -0.000000,  0.000000 )     0.44306424
  WF centre and spread    3  (  0.000000,  0.000000,  0.000000 )     0.44307795
  Sum of centres and spreads (  0.000000,  0.000000,  0.000000 )     1.32920974
 
    476    -0.189E-12     0.0000040622        1.3292097390       2.74  <-- CONV
        O_D=      0.0000000 O_OD=      0.0009225 O_TOT=      1.3292097 <-- SPRD
 Delta: O_D= -0.9723203E-15 O_OD= -0.1878903E-12 O_TOT= -0.1887379E-12 <-- DLTA
 ------------------------------------------------------------------------------
 Cycle:    477
  WF centre and spread    1  ( -0.000000,  0.000000,  0.000000 )     0.44306755
  WF centre and spread    2  (  0.000000, -0.000000,  0.000000 )     0.44306424
  WF centre and spread    3  (  0.000000,  0.000000,  0.000000 )     0.44307795
  Sum of centres and spreads (  0.000000,  0.000000,  0.000000 )     1.32920974
 
    477    -0.284E-12     0.0000040621        1.3292097390       2.75  <-- CONV
        O_D=      0.0000000 O_OD=      0.0009225 O_TOT=      1.3292097 <-- SPRD
 Delta: O_D= -0.1457502E-14 O_OD= -0.2818320E-12 O_TOT= -0.2835510E-12 <-- DLTA
 ------------------------------------------------------------------------------
 Cycle:    478
  WF centre and spread    1  ( -0.000000,  0.000000,  0.000000 )     0.44306755
  WF centre and spread    2  (  0.000000, -0.000000,  0.000000 )     0.44306424
  WF centre and spread    3  (  0.000000,  0.000000,  0.000000 )     0.44307795
  Sum of centres and spreads (  0.000000,  0.000000,  0.000000 )     1.32920974
 
    478    -0.377E-12     0.0000040621        1.3292097390       2.75  <-- CONV
        O_D=      0.0000000 O_OD=      0.0009225 O_TOT=      1.3292097 <-- SPRD
 Delta: O_D= -0.1941510E-14 O_OD= -0.3757656E-12 O_TOT= -0.3774758E-12 <-- DLTA
 ------------------------------------------------------------------------------
 Cycle:    479
  WF centre and spread    1  ( -0.000000,  0.000000,  0.000000 )     0.44306755
  WF centre and spread    2  (  0.000000, -0.000000,  0.000000 )     0.44306424
  WF centre and spread    3  (  0.000000,  0.000000,  0.000000 )     0.44307795
  Sum of centres and spreads (  0.000000,  0.000000,  0.000000 )     1.32920974
 
    479    -0.472E-12     0.0000040620        1.3292097390       2.76  <-- CONV
        O_D=      0.0000000 O_OD=      0.0009225 O_TOT=      1.3292097 <-- SPRD
 Delta: O_D= -0.2423961E-14 O_OD= -0.4696890E-12 O_TOT= -0.4720668E-12 <-- DLTA
 ------------------------------------------------------------------------------
 Cycle:    480
  WF centre and spread    1  ( -0.000000,  0.000000,  0.000000 )     0.44306755
  WF centre and spread    2  (  0.000000, -0.000000,  0.000000 )     0.44306424
  WF centre and spread    3  (  0.000000,  0.000000,  0.000000 )     0.44307795
  Sum of centres and spreads (  0.000000,  0.000000,  0.000000 )     1.32920974
 
    480    -0.566E-12     0.0000040619        1.3292097390       2.76  <-- CONV
        O_D=      0.0000000 O_OD=      0.0009225 O_TOT=      1.3292097 <-- SPRD
 Delta: O_D= -0.2904477E-14 O_OD= -0.5636011E-12 O_TOT= -0.5664358E-12 <-- DLTA
 ------------------------------------------------------------------------------
 Cycle:    481
  WF centre and spread    1  ( -0.000000,  0.000000,  0.000000 )     0.44306755
  WF centre and spread    2  (  0.000000, -0.000000,  0.000000 )     0.44306424
  WF centre and spread    3  (  0.000000,  0.000000,  0.000000 )     0.44307795
  Sum of centres and spreads (  0.000000,  0.000000,  0.000000 )     1.32920974
 
    481    -0.944E-13     0.0000040618        1.3292097390       2.77  <-- CONV
        O_D=      0.0000000 O_OD=      0.0009225 O_TOT=      1.3292097 <-- SPRD
 Delta: O_D= -0.4823535E-15 O_OD= -0.9393365E-13 O_TOT= -0.9436896E-13 <-- DLTA
 ------------------------------------------------------------------------------
 Cycle:    482
  WF centre and spread    1  ( -0.000000,  0.000000,  0.000000 )     0.44306755
  WF centre and spread    2  (  0.000000, -0.000000,  0.000000 )     0.44306424
  WF centre and spread    3  (  0.000000,  0.000000,  0.000000 )     0.44307795
  Sum of centres and spreads (  0.000000,  0.000000,  0.000000 )     1.32920974
 
    482    -0.189E-12     0.0000040618        1.3292097390       2.78  <-- CONV
        O_D=      0.0000000 O_OD=      0.0009225 O_TOT=      1.3292097 <-- SPRD
 Delta: O_D= -0.9643336E-15 O_OD= -0.1878673E-12 O_TOT= -0.1891820E-12 <-- DLTA
 ------------------------------------------------------------------------------
 Cycle:    483
  WF centre and spread    1  ( -0.000000,  0.000000,  0.000000 )     0.44306755
  WF centre and spread    2  (  0.000000, -0.000000,  0.000000 )     0.44306424
  WF centre and spread    3  (  0.000000,  0.000000,  0.000000 )     0.44307795
  Sum of centres and spreads (  0.000000,  0.000000,  0.000000 )     1.32920974
 
    483    -0.283E-12     0.0000040618        1.3292097390       2.78  <-- CONV
        O_D=      0.0000000 O_OD=      0.0009225 O_TOT=      1.3292097 <-- SPRD
 Delta: O_D= -0.1445565E-14 O_OD= -0.2817966E-12 O_TOT= -0.2831069E-12 <-- DLTA
 ------------------------------------------------------------------------------
 Cycle:    484
  WF centre and spread    1  ( -0.000000,  0.000000,  0.000000 )     0.44306755
  WF centre and spread    2  (  0.000000, -0.000000,  0.000000 )     0.44306424
  WF centre and spread    3  (  0.000000,  0.000000,  0.000000 )     0.44307795
  Sum of centres and spreads (  0.000000,  0.000000,  0.000000 )     1.32920974
 
    484    -0.378E-12     0.0000040618        1.3292097390       2.79  <-- CONV
        O_D=      0.0000000 O_OD=      0.0009225 O_TOT=      1.3292097 <-- SPRD
 Delta: O_D= -0.1925675E-14 O_OD= -0.3757188E-12 O_TOT= -0.3776979E-12 <-- DLTA
 ------------------------------------------------------------------------------
 Cycle:    485
  WF centre and spread    1  ( -0.000000,  0.000000,  0.000000 )     0.44306755
  WF centre and spread    2  (  0.000000, -0.000000,  0.000000 )     0.44306424
  WF centre and spread    3  (  0.000000,  0.000000,  0.000000 )     0.44307795
  Sum of centres and spreads (  0.000000,  0.000000,  0.000000 )     1.32920974
 
    485    -0.472E-12     0.0000040617        1.3292097390       2.79  <-- CONV
        O_D=      0.0000000 O_OD=      0.0009225 O_TOT=      1.3292097 <-- SPRD
 Delta: O_D= -0.2404297E-14 O_OD= -0.4696319E-12 O_TOT= -0.4720668E-12 <-- DLTA
 ------------------------------------------------------------------------------
 Cycle:    486
  WF centre and spread    1  ( -0.000000,  0.000000,  0.000000 )     0.44306755
  WF centre and spread    2  (  0.000000, -0.000000,  0.000000 )     0.44306424
  WF centre and spread    3  (  0.000000,  0.000000,  0.000000 )     0.44307795
  Sum of centres and spreads (  0.000000,  0.000000,  0.000000 )     1.32920974
 
    486    -0.566E-12     0.0000040616        1.3292097390       2.80  <-- CONV
        O_D=      0.0000000 O_OD=      0.0009225 O_TOT=      1.3292097 <-- SPRD
 Delta: O_D= -0.2881070E-14 O_OD= -0.5635338E-12 O_TOT= -0.5664358E-12 <-- DLTA
 ------------------------------------------------------------------------------
 Cycle:    487
  WF centre and spread    1  ( -0.000000,  0.000000,  0.000000 )     0.44306755
  WF centre and spread    2  (  0.000000, -0.000000,  0.000000 )     0.44306424
  WF centre and spread    3  (  0.000000,  0.000000,  0.000000 )     0.44307795
  Sum of centres and spreads (  0.000000,  0.000000,  0.000000 )     1.32920974
 
    487    -0.944E-13     0.0000040615        1.3292097390       2.80  <-- CONV
        O_D=      0.0000000 O_OD=      0.0009225 O_TOT=      1.3292097 <-- SPRD
 Delta: O_D= -0.4785282E-15 O_OD= -0.9392162E-13 O_TOT= -0.9436896E-13 <-- DLTA
 ------------------------------------------------------------------------------
 Cycle:    488
  WF centre and spread    1  ( -0.000000,  0.000000,  0.000000 )     0.44306755
  WF centre and spread    2  (  0.000000, -0.000000,  0.000000 )     0.44306424
  WF centre and spread    3  (  0.000000,  0.000000,  0.000000 )     0.44307795
  Sum of centres and spreads (  0.000000,  0.000000,  0.000000 )     1.32920974
 
    488    -0.189E-12     0.0000040615        1.3292097390       2.81  <-- CONV
        O_D=      0.0000000 O_OD=      0.0009225 O_TOT=      1.3292097 <-- SPRD
 Delta: O_D= -0.9566995E-15 O_OD= -0.1878491E-12 O_TOT= -0.1887379E-12 <-- DLTA
 ------------------------------------------------------------------------------
 Cycle:    489
  WF centre and spread    1  ( -0.000000,  0.000000,  0.000000 )     0.44306755
  WF centre and spread    2  (  0.000000, -0.000000,  0.000000 )     0.44306424
  WF centre and spread    3  (  0.000000,  0.000000,  0.000000 )     0.44307795
  Sum of centres and spreads (  0.000000,  0.000000,  0.000000 )     1.32920974
 
    489    -0.283E-12     0.0000040615        1.3292097390       2.81  <-- CONV
        O_D=      0.0000000 O_OD=      0.0009225 O_TOT=      1.3292097 <-- SPRD
 Delta: O_D= -0.1434155E-14 O_OD= -0.2817584E-12 O_TOT= -0.2833289E-12 <-- DLTA
 ------------------------------------------------------------------------------
 Cycle:    490
  WF centre and spread    1  ( -0.000000,  0.000000,  0.000000 )     0.44306755
  WF centre and spread    2  (  0.000000, -0.000000,  0.000000 )     0.44306424
  WF centre and spread    3  (  0.000000,  0.000000,  0.000000 )     0.44307795
  Sum of centres and spreads (  0.000000,  0.000000,  0.000000 )     1.32920974
 
    490    -0.212E-09     0.0000040614        1.3292097387       2.82  <-- CONV
        O_D=      0.0000000 O_OD=      0.0009225 O_TOT=      1.3292097 <-- SPRD
 Delta: O_D= -0.8551299E-12 O_OD= -0.2115601E-09 O_TOT= -0.2124150E-09 <-- DLTA
 ------------------------------------------------------------------------------
 Cycle:    491
  WF centre and spread    1  ( -0.000000,  0.000000,  0.000000 )     0.44306755
  WF centre and spread    2  (  0.000000, -0.000000,  0.000000 )     0.44306424
  WF centre and spread    3  (  0.000000,  0.000000,  0.000000 )     0.44307795
  Sum of centres and spreads (  0.000000,  0.000000,  0.000000 )     1.32920974
 
    491    -0.470E-12     0.0000040662        1.3292097387       2.83  <-- CONV
        O_D=      0.0000000 O_OD=      0.0009225 O_TOT=      1.3292097 <-- SPRD
 Delta: O_D= -0.1672556E-14 O_OD= -0.4682710E-12 O_TOT= -0.4698464E-12 <-- DLTA
 ------------------------------------------------------------------------------
 Cycle:    492
  WF centre and spread    1  ( -0.000000,  0.000000,  0.000000 )     0.44306755
  WF centre and spread    2  (  0.000000, -0.000000,  0.000000 )     0.44306424
  WF centre and spread    3  (  0.000000,  0.000000,  0.000000 )     0.44307795
  Sum of centres and spreads (  0.000000,  0.000000,  0.000000 )     1.32920974
 
    492    -0.565E-12     0.0000040662        1.3292097387       2.83  <-- CONV
        O_D=      0.0000000 O_OD=      0.0009225 O_TOT=      1.3292097 <-- SPRD
 Delta: O_D= -0.2226387E-14 O_OD= -0.5623399E-12 O_TOT= -0.5646594E-12 <-- DLTA
 ------------------------------------------------------------------------------
 Cycle:    493
  WF centre and spread    1  ( -0.000000,  0.000000,  0.000000 )     0.44306755
  WF centre and spread    2  (  0.000000, -0.000000,  0.000000 )     0.44306424
  WF centre and spread    3  (  0.000000,  0.000000,  0.000000 )     0.44307795
  Sum of centres and spreads (  0.000000,  0.000000,  0.000000 )     1.32920974
 
    493    -0.946E-13     0.0000040662        1.3292097387       2.84  <-- CONV
        O_D=      0.0000000 O_OD=      0.0009225 O_TOT=      1.3292097 <-- SPRD
 Delta: O_D= -0.5541703E-15 O_OD= -0.9406636E-13 O_TOT= -0.9459100E-13 <-- DLTA
 ------------------------------------------------------------------------------
 Cycle:    494
  WF centre and spread    1  ( -0.000000,  0.000000,  0.000000 )     0.44306755
  WF centre and spread    2  (  0.000000, -0.000000,  0.000000 )     0.44306424
  WF centre and spread    3  (  0.000000,  0.000000,  0.000000 )     0.44307795
  Sum of centres and spreads (  0.000000,  0.000000,  0.000000 )     1.32920974
 
    494    -0.189E-12     0.0000040662        1.3292097387       2.84  <-- CONV
        O_D=      0.0000000 O_OD=      0.0009225 O_TOT=      1.3292097 <-- SPRD
 Delta: O_D= -0.1107204E-14 O_OD= -0.1881249E-12 O_TOT= -0.1894040E-12 <-- DLTA
 ------------------------------------------------------------------------------
 Cycle:    495
  WF centre and spread    1  ( -0.000000,  0.000000,  0.000000 )     0.44306755
  WF centre and spread    2  (  0.000000, -0.000000,  0.000000 )     0.44306424
  WF centre and spread    3  (  0.000000,  0.000000,  0.000000 )     0.44307795
  Sum of centres and spreads (  0.000000,  0.000000,  0.000000 )     1.32920974
 
    495    -0.284E-12     0.0000040661        1.3292097387       2.85  <-- CONV
        O_D=      0.0000000 O_OD=      0.0009225 O_TOT=      1.3292097 <-- SPRD
 Delta: O_D= -0.1657960E-14 O_OD= -0.2821709E-12 O_TOT= -0.2837730E-12 <-- DLTA
 ------------------------------------------------------------------------------
 Cycle:    496
  WF centre and spread    1  ( -0.000000,  0.000000,  0.000000 )     0.44306755
  WF centre and spread    2  (  0.000000, -0.000000,  0.000000 )     0.44306424
  WF centre and spread    3  (  0.000000,  0.000000,  0.000000 )     0.44307795
  Sum of centres and spreads (  0.000000,  0.000000,  0.000000 )     1.32920974
 
    496    -0.378E-12     0.0000040659        1.3292097387       2.86  <-- CONV
        O_D=      0.0000000 O_OD=      0.0009225 O_TOT=      1.3292097 <-- SPRD
 Delta: O_D= -0.2205305E-14 O_OD= -0.3762006E-12 O_TOT= -0.3783640E-12 <-- DLTA
 ------------------------------------------------------------------------------
 Cycle:    497
  WF centre and spread    1  ( -0.000000,  0.000000,  0.000000 )     0.44306755
  WF centre and spread    2  (  0.000000, -0.000000,  0.000000 )     0.44306424
  WF centre and spread    3  (  0.000000,  0.000000,  0.000000 )     0.44307795
  Sum of centres and spreads (  0.000000,  0.000000,  0.000000 )     1.32920974
 
    497    -0.473E-12     0.0000040657        1.3292097387       2.86  <-- CONV
        O_D=      0.0000000 O_OD=      0.0009225 O_TOT=      1.3292097 <-- SPRD
 Delta: O_D= -0.2748129E-14 O_OD= -0.4702011E-12 O_TOT= -0.4729550E-12 <-- DLTA
 ------------------------------------------------------------------------------
 Cycle:    498
  WF centre and spread    1  ( -0.000000,  0.000000,  0.000000 )     0.44306755
  WF centre and spread    2  (  0.000000, -0.000000,  0.000000 )     0.44306424
  WF centre and spread    3  (  0.000000,  0.000000,  0.000000 )     0.44307795
  Sum of centres and spreads (  0.000000,  0.000000,  0.000000 )     1.32920974
 
    498    -0.567E-12     0.0000040655        1.3292097387       2.87  <-- CONV
        O_D=      0.0000000 O_OD=      0.0009225 O_TOT=      1.3292097 <-- SPRD
 Delta: O_D= -0.3285342E-14 O_OD= -0.5641670E-12 O_TOT= -0.5673240E-12 <-- DLTA
 ------------------------------------------------------------------------------
 Cycle:    499
  WF centre and spread    1  ( -0.000000,  0.000000,  0.000000 )     0.44306755
  WF centre and spread    2  (  0.000000, -0.000000,  0.000000 )     0.44306424
  WF centre and spread    3  (  0.000000,  0.000000,  0.000000 )     0.44307795
  Sum of centres and spreads (  0.000000,  0.000000,  0.000000 )     1.32920974
 
    499    -0.948E-13     0.0000040652        1.3292097387       2.87  <-- CONV
        O_D=      0.0000000 O_OD=      0.0009225 O_TOT=      1.3292097 <-- SPRD
 Delta: O_D= -0.5425772E-15 O_OD= -0.9403275E-13 O_TOT= -0.9481305E-13 <-- DLTA
 ------------------------------------------------------------------------------
 Cycle:    500
  WF centre and spread    1  ( -0.000000,  0.000000,  0.000000 )     0.44306755
  WF centre and spread    2  (  0.000000, -0.000000,  0.000000 )     0.44306424
  WF centre and spread    3  (  0.000000,  0.000000,  0.000000 )     0.44307795
  Sum of centres and spreads (  0.000000,  0.000000,  0.000000 )     1.32920974
 
    500    -0.189E-12     0.0000040652        1.3292097387       2.88  <-- CONV
        O_D=      0.0000000 O_OD=      0.0009225 O_TOT=      1.3292097 <-- SPRD
 Delta: O_D= -0.1084078E-14 O_OD= -0.1880586E-12 O_TOT= -0.1891820E-12 <-- DLTA
 ------------------------------------------------------------------------------

 Writing checkpoint file mp-111.chk... done

 Final State
  WF centre and spread    1  ( -0.000000,  0.000000,  0.000000 )     0.44306755
  WF centre and spread    2  (  0.000000, -0.000000,  0.000000 )     0.44306424
  WF centre and spread    3  (  0.000000,  0.000000,  0.000000 )     0.44307795
  Sum of centres and spreads (  0.000000,  0.000000,  0.000000 )     1.32920974
 
         Spreads (Ang^2)       Omega I      =     1.328287255
        ================       Omega D      =     0.000000000
                               Omega OD     =     0.000922484
    Final Spread (Ang^2)       Omega Total  =     1.329209739
 ------------------------------------------------------------------------------
 Time for wannierise            2.872 (sec)

 Writing checkpoint file mp-111.chk... done

 Time for plotting              0.000 (sec)
 Total Execution Time           5.046 (sec)

 *===========================================================================*
 |                             TIMING INFORMATION                            |
 *===========================================================================*
 |    Tag                                                Ncalls      Time (s)|
 |---------------------------------------------------------------------------|
 |kmesh: get                                        :         1         1.796|
 |overlap: allocate                                 :         1         0.002|
 |overlap: read                                     :         1         0.211|
 |wann: main                                        :         1         2.872|
 |plot: main                                        :         1         0.000|
 *---------------------------------------------------------------------------*
 
 All done: wannier90 exiting
