
     Program PWSCF v.7.1 starts on  8Apr2024 at 15:10:40 

     This program is part of the open-source Quantum ESPRESSO suite
     for quantum simulation of materials; please cite
         "P. Giannozzi et al., J. Phys.:Condens. Matter 21 395502 (2009);
         "P. Giannozzi et al., J. Phys.:Condens. Matter 29 465901 (2017);
         "P. Giannozzi et al., J. Chem. Phys. 152 154105 (2020);
          URL http://www.quantum-espresso.org", 
     in publications or presentations arising from this work. More details at
     http://www.quantum-espresso.org/quote

     Parallel version (MPI), running on    16 processors

     MPI processes distributed on     1 nodes
     214207 MiB available memory on the printing compute node when the environment starts
 
     Reading input from pw_mp-111_nscf_k3000_E65.in
Warning: card &IONS ignored
Warning: card / ignored
Warning: card &CELL ignored
Warning: card / ignored

     Current dimensions of program PWSCF are:
     Max number of different atomic species (ntypx) = 10
     Max number of k-points (npk) =  40000
     Max angular momentum in pseudopotentials (lmaxx) =  4

     Atomic positions and unit cell read from directory:
     out/mp-111.save/
 
 
     K-points division:     npool     =       2
     R & G space division:  proc/nbgrp/npool/nimage =       8
     Subspace diagonalization in iterative solution of the eigenvalue problem:
     a serial algorithm will be used

 
     Parallelization info
     --------------------
     sticks:   dense  smooth     PW     G-vecs:    dense   smooth      PW
     Min          69      69     24                 1097     1097     227
     Max          70      70     25                 1101     1101     230
     Sum         559     559    199                 8801     8801    1837
 
     Using Slab Decomposition
 


     bravais-lattice index     =            2
     lattice parameter (alat)  =       7.9274  a.u.
     unit-cell volume          =     124.5485 (a.u.)^3
     number of atoms/cell      =            1
     number of atomic types    =            1
     number of electrons       =         8.00
     number of Kohn-Sham states=            8
     kinetic-energy cutoff     =      65.0000  Ry
     charge density cutoff     =     260.0000  Ry
     Exchange-correlation= PBE
                           (   1   4   3   4   0   0   0)

     celldm(1)=   7.927438  celldm(2)=   0.000000  celldm(3)=   0.000000
     celldm(4)=   0.000000  celldm(5)=   0.000000  celldm(6)=   0.000000

     crystal axes: (cart. coord. in units of alat)
               a(1) = (  -0.500000   0.000000   0.500000 )  
               a(2) = (   0.000000   0.500000   0.500000 )  
               a(3) = (  -0.500000   0.500000   0.000000 )  

     reciprocal axes: (cart. coord. in units 2 pi/alat)
               b(1) = ( -1.000000 -1.000000  1.000000 )  
               b(2) = (  1.000000  1.000000  1.000000 )  
               b(3) = ( -1.000000  1.000000 -1.000000 )  


     PseudoPot. # 1 for Ne read from file:
     /usr/scratch4/magr4826/Promotion/Python/Code/devEb/pseudo/SG15/Ne.upf
     MD5 check sum: 56c1d532db00fbb77b1f83d77596279c
     Pseudo is Norm-conserving, Zval =  8.0
     Generated using ONCVPSP code by D. R. Hamann
     Using radial grid of  602 points,  4 beta functions with: 
                l(1) =   0
                l(2) =   0
                l(3) =   1
                l(4) =   1

     atomic species   valence    mass     pseudopotential
        Ne             8.00    20.17970     Ne( 1.00)

     No symmetry found



   Cartesian axes

     site n.     atom                  positions (alat units)
         1           Ne  tau(   1) = (   0.0000000   0.0000000   0.0000000  )

     number of k points=  2744  Gaussian smearing, width (Ry)=  0.0005

     Number of k-points >= 100: set verbosity='high' to print them.

     Dense  grid:     8801 G-vectors     FFT dimensions: (  30,  30,  30)

     Estimated max dynamical RAM per process >      23.82 MB

     Estimated total dynamical RAM >     381.11 MB

     The potential is recalculated from file :
     out/mp-111.save/charge-density

     Starting wfcs are random

     Band Structure Calculation
     Davidson diagonalization with overlap

     ethr =  5.00E-06,  avg # of iterations = 12.3

     total cpu time spent up to now is       15.4 secs

     End of band structure calculation

     Number of k-points >= 100: set verbosity='high' to print the bands.

     the Fermi energy is    -2.6123 ev
     (compare with:    -2.6123 eV, computed in scf)

     Writing all to output data dir out/mp-111.save/
 
     init_run     :      0.06s CPU      0.12s WALL (       1 calls)
     electrons    :      9.27s CPU     15.11s WALL (       1 calls)

     Called by init_run:
     wfcinit      :      0.00s CPU      0.00s WALL (       1 calls)
     potinit      :      0.03s CPU      0.04s WALL (       1 calls)
     hinit0       :      0.03s CPU      0.06s WALL (       1 calls)

     Called by electrons:
     c_bands      :      9.27s CPU     15.11s WALL (       1 calls)
     v_of_rho     :      0.00s CPU      0.00s WALL (       1 calls)

     Called by c_bands:
     init_us_2    :      0.02s CPU      0.02s WALL (    1372 calls)
     init_us_2:cp :      0.02s CPU      0.02s WALL (    1372 calls)
     cegterg      :      8.16s CPU      8.69s WALL (    1376 calls)

     Called by *egterg:
     cdiaghg      :      1.24s CPU      1.33s WALL (   18377 calls)
     h_psi        :      6.75s CPU      7.20s WALL (   19753 calls)
     g_psi        :      0.04s CPU      0.04s WALL (   17005 calls)

     Called by h_psi:
     h_psi:calbec :      0.18s CPU      0.20s WALL (   19753 calls)
     vloc_psi     :      6.40s CPU      6.83s WALL (   19753 calls)
     add_vuspsi   :      0.08s CPU      0.09s WALL (   19753 calls)

     General routines
     calbec       :      0.16s CPU      0.18s WALL (   19753 calls)
     fft          :      0.00s CPU      0.03s WALL (      10 calls)
     fftw         :      5.90s CPU      6.29s WALL (  240160 calls)
 
     Parallel routines
 
     PWSCF        :     12.51s CPU     33.13s WALL

 
   This run was terminated on:  15:11:13   8Apr2024            

=------------------------------------------------------------------------------=
   JOB DONE.
=------------------------------------------------------------------------------=
