
     Program PWSCF v.7.1 starts on  8Apr2024 at 15:11:39 

     This program is part of the open-source Quantum ESPRESSO suite
     for quantum simulation of materials; please cite
         "P. Giannozzi et al., J. Phys.:Condens. Matter 21 395502 (2009);
         "P. Giannozzi et al., J. Phys.:Condens. Matter 29 465901 (2017);
         "P. Giannozzi et al., J. Chem. Phys. 152 154105 (2020);
          URL http://www.quantum-espresso.org", 
     in publications or presentations arising from this work. More details at
     http://www.quantum-espresso.org/quote

     Parallel version (MPI), running on    16 processors

     MPI processes distributed on     1 nodes
     245865 MiB available memory on the printing compute node when the environment starts
 
     Reading input from pw_mp-1253_scf_k3000_E65.in
Warning: card &CELL ignored
Warning: card / ignored

     Current dimensions of program PWSCF are:
     Max number of different atomic species (ntypx) = 10
     Max number of k-points (npk) =  40000
     Max angular momentum in pseudopotentials (lmaxx) =  4
 
     R & G space division:  proc/nbgrp/npool/nimage =      16
     Subspace diagonalization in iterative solution of the eigenvalue problem:
     a serial algorithm will be used

 
     Parallelization info
     --------------------
     sticks:   dense  smooth     PW     G-vecs:    dense   smooth      PW
     Min          88      88     26                 2220     2220     349
     Max          89      89     27                 2224     2224     352
     Sum        1417    1417    421                35557    35557    5601
 
     Using Slab Decomposition
 


     bravais-lattice index     =            2
     lattice parameter (alat)  =      12.5993  a.u.
     unit-cell volume          =     500.0063 (a.u.)^3
     number of atoms/cell      =            2
     number of atomic types    =            2
     number of electrons       =        16.00
     number of Kohn-Sham states=           16
     kinetic-energy cutoff     =      65.0000  Ry
     charge density cutoff     =     260.0000  Ry
     scf convergence threshold =      1.0E-10
     mixing beta               =       0.7000
     number of iterations used =            8  plain     mixing
     Exchange-correlation= PBE
                           (   1   4   3   4   0   0   0)

     celldm(1)=  12.599264  celldm(2)=   0.000000  celldm(3)=   0.000000
     celldm(4)=   0.000000  celldm(5)=   0.000000  celldm(6)=   0.000000

     crystal axes: (cart. coord. in units of alat)
               a(1) = (  -0.500000   0.000000   0.500000 )  
               a(2) = (   0.000000   0.500000   0.500000 )  
               a(3) = (  -0.500000   0.500000   0.000000 )  

     reciprocal axes: (cart. coord. in units 2 pi/alat)
               b(1) = ( -1.000000 -1.000000  1.000000 )  
               b(2) = (  1.000000  1.000000  1.000000 )  
               b(3) = ( -1.000000  1.000000 -1.000000 )  


     PseudoPot. # 1 for Ba read from file:
     /usr/scratch4/magr4826/Promotion/Python/Code/devEb/pseudo/SG15/Ba.upf
     MD5 check sum: ac4691792522964bb0504809e83fae44
     Pseudo is Norm-conserving, Zval = 10.0
     Generated using ONCVPSP code by D. R. Hamann
     Using radial grid of  602 points,  8 beta functions with: 
                l(1) =   0
                l(2) =   0
                l(3) =   1
                l(4) =   1
                l(5) =   2
                l(6) =   2
                l(7) =   3
                l(8) =   3

     PseudoPot. # 2 for Se read from file:
     /usr/scratch4/magr4826/Promotion/Python/Code/devEb/pseudo/SG15/Se.upf
     MD5 check sum: e78e48a4f5d8ce1f8dc76ec1271f249c
     Pseudo is Norm-conserving, Zval =  6.0
     Generated using ONCVPSP code by D. R. Hamann
     Using radial grid of  602 points,  6 beta functions with: 
                l(1) =   0
                l(2) =   0
                l(3) =   1
                l(4) =   1
                l(5) =   2
                l(6) =   2

     atomic species   valence    mass     pseudopotential
        Ba            10.00   137.32700     Ba( 1.00)
        Se             6.00    78.96000     Se( 1.00)

     48 Sym. Ops., with inversion, found



   Cartesian axes

     site n.     atom                  positions (alat units)
         1           Ba  tau(   1) = (   0.0000000   0.0000000   0.0000000  )
         2           Se  tau(   2) = (  -0.5000000   0.5000000   0.5000000  )

     number of k points=    72  Gaussian smearing, width (Ry)=  0.0005
                       cart. coord. in units 2pi/alat
        k(    1) = (   0.0000000   0.0000000   0.0000000), wk =   0.0011574
        k(    2) = (  -0.0833333   0.0833333  -0.0833333), wk =   0.0092593
        k(    3) = (  -0.1666667   0.1666667  -0.1666667), wk =   0.0092593
        k(    4) = (  -0.2500000   0.2500000  -0.2500000), wk =   0.0092593
        k(    5) = (  -0.3333333   0.3333333  -0.3333333), wk =   0.0092593
        k(    6) = (  -0.4166667   0.4166667  -0.4166667), wk =   0.0092593
        k(    7) = (   0.5000000  -0.5000000   0.5000000), wk =   0.0046296
        k(    8) = (   0.0000000   0.1666667   0.0000000), wk =   0.0069444
        k(    9) = (  -0.0833333   0.2500000  -0.0833333), wk =   0.0277778
        k(   10) = (  -0.1666667   0.3333333  -0.1666667), wk =   0.0277778
        k(   11) = (  -0.2500000   0.4166667  -0.2500000), wk =   0.0277778
        k(   12) = (  -0.3333333   0.5000000  -0.3333333), wk =   0.0277778
        k(   13) = (   0.5833333  -0.4166667   0.5833333), wk =   0.0277778
        k(   14) = (   0.5000000  -0.3333333   0.5000000), wk =   0.0277778
        k(   15) = (   0.4166667  -0.2500000   0.4166667), wk =   0.0277778
        k(   16) = (   0.3333333  -0.1666667   0.3333333), wk =   0.0277778
        k(   17) = (   0.2500000  -0.0833333   0.2500000), wk =   0.0277778
        k(   18) = (   0.1666667  -0.0000000   0.1666667), wk =   0.0138889
        k(   19) = (   0.0000000   0.3333333   0.0000000), wk =   0.0069444
        k(   20) = (  -0.0833333   0.4166667  -0.0833333), wk =   0.0277778
        k(   21) = (  -0.1666667   0.5000000  -0.1666667), wk =   0.0277778
        k(   22) = (  -0.2500000   0.5833333  -0.2500000), wk =   0.0277778
        k(   23) = (   0.6666667  -0.3333333   0.6666667), wk =   0.0277778
        k(   24) = (   0.5833333  -0.2500000   0.5833333), wk =   0.0277778
        k(   25) = (   0.5000000  -0.1666667   0.5000000), wk =   0.0277778
        k(   26) = (   0.4166667  -0.0833333   0.4166667), wk =   0.0277778
        k(   27) = (   0.3333333   0.0000000   0.3333333), wk =   0.0138889
        k(   28) = (   0.0000000   0.5000000   0.0000000), wk =   0.0069444
        k(   29) = (  -0.0833333   0.5833333  -0.0833333), wk =   0.0277778
        k(   30) = (  -0.1666667   0.6666667  -0.1666667), wk =   0.0277778
        k(   31) = (   0.7500000  -0.2500000   0.7500000), wk =   0.0277778
        k(   32) = (   0.6666667  -0.1666667   0.6666667), wk =   0.0277778
        k(   33) = (   0.5833333  -0.0833333   0.5833333), wk =   0.0277778
        k(   34) = (   0.5000000   0.0000000   0.5000000), wk =   0.0138889
        k(   35) = (   0.0000000   0.6666667   0.0000000), wk =   0.0069444
        k(   36) = (  -0.0833333   0.7500000  -0.0833333), wk =   0.0277778
        k(   37) = (   0.8333333  -0.1666667   0.8333333), wk =   0.0277778
        k(   38) = (   0.7500000  -0.0833333   0.7500000), wk =   0.0277778
        k(   39) = (   0.6666667  -0.0000000   0.6666667), wk =   0.0138889
        k(   40) = (   0.0000000   0.8333333   0.0000000), wk =   0.0069444
        k(   41) = (   0.9166667  -0.0833333   0.9166667), wk =   0.0277778
        k(   42) = (   0.8333333   0.0000000   0.8333333), wk =   0.0138889
        k(   43) = (   0.0000000  -1.0000000   0.0000000), wk =   0.0034722
        k(   44) = (  -0.1666667   0.3333333   0.0000000), wk =   0.0277778
        k(   45) = (  -0.2500000   0.4166667  -0.0833333), wk =   0.0555556
        k(   46) = (  -0.3333333   0.5000000  -0.1666667), wk =   0.0555556
        k(   47) = (   0.5833333  -0.4166667   0.7500000), wk =   0.0555556
        k(   48) = (   0.5000000  -0.3333333   0.6666667), wk =   0.0277778
        k(   49) = (  -0.1666667   0.5000000   0.0000000), wk =   0.0277778
        k(   50) = (  -0.2500000   0.5833333  -0.0833333), wk =   0.0555556
        k(   51) = (   0.6666667  -0.3333333   0.8333333), wk =   0.0555556
        k(   52) = (   0.5833333  -0.2500000   0.7500000), wk =   0.0555556
        k(   53) = (   0.5000000  -0.1666667   0.6666667), wk =   0.0555556
        k(   54) = (   0.4166667  -0.0833333   0.5833333), wk =   0.0555556
        k(   55) = (   0.3333333   0.0000000   0.5000000), wk =   0.0277778
        k(   56) = (  -0.1666667   0.6666667  -0.0000000), wk =   0.0277778
        k(   57) = (   0.7500000  -0.2500000   0.9166667), wk =   0.0555556
        k(   58) = (   0.6666667  -0.1666667   0.8333333), wk =   0.0555556
        k(   59) = (   0.5833333  -0.0833333   0.7500000), wk =   0.0555556
        k(   60) = (   0.5000000   0.0000000   0.6666667), wk =   0.0277778
        k(   61) = (   0.8333333  -0.1666667   1.0000000), wk =   0.0277778
        k(   62) = (   0.7500000  -0.0833333   0.9166667), wk =   0.0555556
        k(   63) = (   0.6666667   0.0000000   0.8333333), wk =   0.0277778
        k(   64) = (  -0.1666667  -1.0000000  -0.0000000), wk =   0.0138889
        k(   65) = (   0.6666667  -0.3333333   1.0000000), wk =   0.0277778
        k(   66) = (   0.5833333  -0.2500000   0.9166667), wk =   0.0555556
        k(   67) = (   0.5000000  -0.1666667   0.8333333), wk =   0.0277778
        k(   68) = (   0.6666667  -0.1666667   1.0000000), wk =   0.0277778
        k(   69) = (   0.5833333  -0.0833333   0.9166667), wk =   0.0555556
        k(   70) = (   0.5000000   0.0000000   0.8333333), wk =   0.0277778
        k(   71) = (  -0.3333333  -1.0000000   0.0000000), wk =   0.0138889
        k(   72) = (  -0.5000000  -1.0000000   0.0000000), wk =   0.0069444

     Dense  grid:    35557 G-vectors     FFT dimensions: (  45,  45,  45)

     Estimated max dynamical RAM per process >      12.89 MB

     Estimated total dynamical RAM >     206.30 MB

     Initial potential from superposition of free atoms

     starting charge      15.5903, renormalised to      16.0000
     Starting wfcs are random

     total cpu time spent up to now is        0.4 secs

     Self-consistent Calculation

     iteration #  1     ecut=    65.00 Ry     beta= 0.70
     ParO style diagonalization
     c_bands:  1 eigenvalues not converged
     c_bands:  1 eigenvalues not converged
     c_bands:  1 eigenvalues not converged
     c_bands:  1 eigenvalues not converged
     ethr =  5.00E-06,  avg # of iterations = 31.7

     total cpu time spent up to now is        7.3 secs

     total energy              =     -70.61046678 Ry
     estimated scf accuracy    <       0.17794281 Ry

     iteration #  2     ecut=    65.00 Ry     beta= 0.70
     ParO style diagonalization
     ethr =  1.11E-03,  avg # of iterations =  9.2

     total cpu time spent up to now is       13.6 secs

     total energy              =     -70.65864232 Ry
     estimated scf accuracy    <       0.09221586 Ry

     iteration #  3     ecut=    65.00 Ry     beta= 0.70
     ParO style diagonalization
     ethr =  5.76E-04,  avg # of iterations =  6.6

     total cpu time spent up to now is       15.3 secs

     total energy              =     -70.67873118 Ry
     estimated scf accuracy    <       0.00113909 Ry

     iteration #  4     ecut=    65.00 Ry     beta= 0.70
     ParO style diagonalization
     c_bands:  1 eigenvalues not converged
     ethr =  7.12E-06,  avg # of iterations =  9.4

     total cpu time spent up to now is       17.5 secs

     total energy              =     -70.67889682 Ry
     estimated scf accuracy    <       0.00002019 Ry

     iteration #  5     ecut=    65.00 Ry     beta= 0.70
     ParO style diagonalization
     c_bands:  1 eigenvalues not converged
     ethr =  1.26E-07,  avg # of iterations =  9.9

     total cpu time spent up to now is       20.1 secs

     total energy              =     -70.67890044 Ry
     estimated scf accuracy    <       0.00000054 Ry

     iteration #  6     ecut=    65.00 Ry     beta= 0.70
     ParO style diagonalization
     c_bands:  1 eigenvalues not converged
     ethr =  3.39E-09,  avg # of iterations = 11.0

     total cpu time spent up to now is       23.6 secs

     total energy              =     -70.67890058 Ry
     estimated scf accuracy    <       0.00000008 Ry

     iteration #  7     ecut=    65.00 Ry     beta= 0.70
     ParO style diagonalization
     c_bands:  1 eigenvalues not converged
     ethr =  4.81E-10,  avg # of iterations =  9.7

     total cpu time spent up to now is       27.7 secs

     total energy              =     -70.67890060 Ry
     estimated scf accuracy    <          2.2E-09 Ry

     iteration #  8     ecut=    65.00 Ry     beta= 0.70
     ParO style diagonalization
     c_bands:  1 eigenvalues not converged
     ethr =  1.35E-11,  avg # of iterations = 11.3

     total cpu time spent up to now is       32.6 secs

     End of self-consistent calculation

          k = 0.0000 0.0000 0.0000 (  4477 PWs)   bands (ev):

   -21.1028  -6.2140  -6.2140  -6.2140  -5.4423   5.3178   5.3178   5.3178
     8.3008   8.9218   8.9218   8.9218   9.7263   9.7263  12.3110  14.6901

          k =-0.0833 0.0833-0.0833 (  4447 PWs)   bands (ev):

   -21.1011  -6.3276  -6.2156  -6.2156  -5.3210   5.1011   5.2264   5.2264
     8.5665   8.9503   9.0132   9.0132   9.9135   9.9135  12.5058  14.6570

          k =-0.1667 0.1667-0.1667 (  4429 PWs)   bands (ev):

   -21.0964  -6.5486  -6.2199  -6.2199  -5.0785   4.6317   5.0035   5.0035
     8.8560   9.2743   9.2743   9.4035  10.4278  10.4278  12.9901  14.5269

          k =-0.2500 0.2500-0.2500 (  4432 PWs)   bands (ev):

   -21.0901  -6.7662  -6.2259  -6.2259  -4.8309   4.1380   4.7441   4.7441
     9.0271   9.6833   9.6833  10.2296  11.1638  11.1638  13.5071  14.2420

          k =-0.3333 0.3333-0.3333 (  4426 PWs)   bands (ev):

   -21.0837  -6.9395  -6.2317  -6.2317  -4.6263   3.7326   4.5204   4.5204
     9.3389  10.2089  10.2089  10.9015  12.0056  12.0056  13.6911  13.7806

          k =-0.4167 0.4167-0.4167 (  4425 PWs)   bands (ev):

   -21.0790  -7.0497  -6.2360  -6.2360  -4.4924   3.4704   4.3732   4.3732
     9.8004  10.7682  10.7682  10.9455  12.7231  12.7231  13.3435  13.3435

          k = 0.5000-0.5000 0.5000 (  4446 PWs)   bands (ev):

   -21.0773  -7.0874  -6.2376  -6.2376  -4.4458   3.3799   4.3222   4.3222
    10.2176  10.6108  11.0749  11.0749  12.7018  12.7018  13.5789  13.5789

          k = 0.0000 0.1667 0.0000 (  4457 PWs)   bands (ev):

   -21.1005  -6.3427  -6.2226  -6.2226  -5.2926   4.9287   5.2756   5.2756
     8.5932   8.7466   9.1421   9.1421   9.7786  10.1997  12.5628  14.6551

          k =-0.0833 0.2500-0.0833 (  4442 PWs)   bands (ev):

   -21.0969  -6.5021  -6.2317  -6.2255  -5.1180   4.5706   5.1148   5.1583
     8.6594   8.9786   9.4261   9.4271  10.0183  10.8120  12.9348  14.5300

          k =-0.1667 0.3333-0.1667 (  4431 PWs)   bands (ev):

   -21.0911  -6.6998  -6.2404  -6.2285  -4.9019   4.1889   4.8274   4.9357
     8.7306   9.5317   9.8378   9.9264  10.5748  11.5920  13.4348  14.2417

          k =-0.2500 0.4167-0.2500 (  4427 PWs)   bands (ev):

   -21.0847  -6.8739  -6.2463  -6.2356  -4.7062   3.8472   4.5650   4.6931
     8.9737  10.0727  10.3554  10.6021  11.3180  12.3327  13.7079  13.7767

          k =-0.3333 0.5000-0.3333 (  4431 PWs)   bands (ev):

   -21.0795  -6.9971  -6.2479  -6.2450  -4.5634   3.5934   4.3985   4.4924
     9.3870  10.6441  10.8913  10.9247  12.1038  12.7880  13.2785  13.7341

          k = 0.5833-0.4167 0.5833 (  4426 PWs)   bands (ev):

   -21.0768  -7.0560  -6.2542  -6.2448  -4.4927   3.4647   4.3477   4.3687
     9.9050  10.5966  11.1180  11.1697  12.6603  12.9639  13.2962  13.3850

          k = 0.5000-0.3333 0.5000 (  4430 PWs)   bands (ev):

   -21.0773  -7.0452  -6.2604  -6.2378  -4.5032   3.4826   4.3391   4.4109
     9.8665  10.6460  10.7548  11.2945  12.4105  13.1312  13.2333  13.5723

          k = 0.4167-0.2500 0.4167 (  4438 PWs)   bands (ev):

   -21.0810  -6.9660  -6.2616  -6.2288  -4.5941   3.6496   4.4077   4.5745
     9.3969  10.1949  10.8150  10.8393  11.8560  12.7783  13.4836  13.8362

          k = 0.3333-0.1667 0.3333 (  4432 PWs)   bands (ev):

   -21.0868  -6.8266  -6.2570  -6.2201  -4.7545   3.9496   4.5662   4.8099
     9.0593   9.6831  10.1492  10.3397  11.3741  11.9169  13.6462  13.8543

          k = 0.2500-0.0833 0.2500 (  4432 PWs)   bands (ev):

   -21.0932  -6.6443  -6.2468  -6.2141  -4.9619   4.3467   4.7914   5.0608
     8.8954   9.2961   9.4287   9.8076  10.6779  11.0782  13.2756  14.2345

          k = 0.1667-0.0000 0.1667 (  4435 PWs)   bands (ev):

   -21.0984  -6.4542  -6.2316  -6.2125  -5.1766   4.7770   5.0367   5.2282
     8.8645   8.8850   9.0665   9.3638  10.0931  10.3776  12.7896  14.5410

          k = 0.0000 0.3333 0.0000 (  4452 PWs)   bands (ev):

   -21.0944  -6.5391  -6.2462  -6.2462  -5.0641   4.3259   5.1893   5.1893
     8.3586   9.0006   9.7387   9.7387   9.9292  11.5001  13.1423  14.5409

          k =-0.0833 0.4167-0.0833 (  4445 PWs)   bands (ev):

   -21.0896  -6.6528  -6.2596  -6.2550  -4.9508   4.1000   5.0342   5.0814
     8.2661   9.3693  10.1006  10.1425  10.2584  12.2871  13.5218  14.2701

          k =-0.1667 0.5000-0.1667 (  4431 PWs)   bands (ev):

   -21.0838  -6.7859  -6.2683  -6.2636  -4.8212   3.9308   4.7556   4.8861
     8.3963   9.9980  10.5746  10.5929  10.8338  12.8382  13.8314  13.8458

          k =-0.2500 0.5833-0.2500 (  4427 PWs)   bands (ev):

   -21.0786  -6.8969  -6.2792  -6.2701  -4.7061   3.8069   4.5160   4.6741
     8.7257  10.6727  10.9651  11.1007  11.4989  12.7387  13.3572  13.9093

          k = 0.6667-0.3333 0.6667 (  4430 PWs)   bands (ev):

   -21.0754  -6.9650  -6.2985  -6.2644  -4.6255   3.7035   4.4214   4.4994
     9.2279  10.6490  11.2455  11.3860  12.2882  12.9791  13.2054  13.2120

          k = 0.5833-0.2500 0.5833 (  4423 PWs)   bands (ev):

   -21.0749  -6.9815  -6.3144  -6.2528  -4.5929   3.6399   4.3941   4.4811
     9.7746  10.2068  10.8601  11.5045  12.5622  13.1519  13.3280  13.5066

          k = 0.5000-0.1667 0.5000 (  4425 PWs)   bands (ev):

   -21.0774  -6.9466  -6.3197  -6.2383  -4.6161   3.6629   4.3739   4.6423
     9.5480  10.3234  10.4647  11.0806  11.9882  13.4903  13.6054  13.9007

          k = 0.4167-0.0833 0.4167 (  4430 PWs)   bands (ev):

   -21.0822  -6.8676  -6.3095  -6.2248  -4.6953   3.7957   4.4419   4.8435
     9.2228   9.8427  10.0724  10.9452  11.6019  12.7467  13.5749  13.9415

          k = 0.3333 0.0000 0.3333 (  4419 PWs)   bands (ev):

   -21.0880  -6.7595  -6.2830  -6.2159  -4.8193   4.0340   4.5892   5.0102
     9.0255   9.4900   9.5975  10.3730  11.2769  11.8827  13.6613  13.7621

          k = 0.0000 0.5000 0.0000 (  4432 PWs)   bands (ev):

   -21.0860  -6.6545  -6.2785  -6.2785  -4.9684   4.0242   5.1220   5.1220
     7.9496   9.4210  10.1573  10.5645  10.5645  13.0337  13.7537  14.2761

          k =-0.0833 0.5833-0.0833 (  4442 PWs)   bands (ev):

   -21.0813  -6.7042  -6.2939  -6.2919  -4.9499   4.0092   4.9902   5.0403
     7.9001   9.8129  10.4360  10.9918  11.0222  13.3501  13.9329  13.9988

          k =-0.1667 0.6667-0.1667 (  4424 PWs)   bands (ev):

   -21.0767  -6.7695  -6.3191  -6.2964  -4.8970   4.0422   4.7334   4.8754
     8.1057  10.4361  10.9827  11.3121  11.4066  12.9137  13.5341  13.5341

          k = 0.7500-0.2500 0.7500 (  4427 PWs)   bands (ev):

   -21.0734  -6.8254  -6.3554  -6.2909  -4.8222   4.0444   4.5395   4.6874
     8.5210  10.7842  11.4471  11.4841  11.7218  12.7136  13.0367  13.4166

          k = 0.6667-0.1667 0.6667 (  4420 PWs)   bands (ev):

   -21.0724  -6.8632  -6.3851  -6.2767  -4.7462   3.9222   4.5257   4.5551
     9.1076  10.3866  11.0799  11.4142  12.5604  12.7878  13.3365  13.6832

          k = 0.5833-0.0833 0.5833 (  4428 PWs)   bands (ev):

   -21.0739  -6.8832  -6.3892  -6.2575  -4.6907   3.7896   4.4214   4.6752
     9.7517   9.9609  10.5894  10.8873  12.7307  13.3561  13.7826  14.0586

          k = 0.5000 0.0000 0.5000 (  4403 PWs)   bands (ev):

   -21.0775  -6.8857  -6.3606  -6.2385  -4.6717   3.7395   4.3917   4.7903
     9.5286  10.1299  10.1540  10.8439  12.0616  13.4871  13.9705  14.0396

          k = 0.0000 0.6667 0.0000 (  4424 PWs)   bands (ev):

   -21.0778  -6.6599  -6.3107  -6.3107  -5.0567   4.1178   5.0975   5.0975
     7.6190   9.9021  10.4208  11.4017  11.4017  13.5012  13.9365  14.0047

          k =-0.0833 0.7500-0.0833 (  4415 PWs)   bands (ev):

   -21.0742  -6.6534  -6.3377  -6.3198  -5.0966   4.2527   4.9810   5.0368
     7.6347  10.2979  10.6923  11.6618  11.7010  13.0320  13.1946  13.7599

          k = 0.8333-0.1667 0.8333 (  4403 PWs)   bands (ev):

   -21.0715  -6.6641  -6.4007  -6.3170  -5.0483   4.3732   4.7238   4.8888
     7.9199  10.8391  11.2071  11.5251  11.7116  12.3868  13.1439  13.6762

          k = 0.7500-0.0833 0.7500 (  4412 PWs)   bands (ev):

   -21.0705  -6.7032  -6.4565  -6.3029  -4.9369   4.2856   4.6066   4.7070
     8.4135  10.7994  11.3205  11.3891  11.8948  12.3458  13.4758  13.8791

          k = 0.6667-0.0000 0.6667 (  4426 PWs)   bands (ev):

   -21.0714  -6.7899  -6.4461  -6.2812  -4.8056   4.0137   4.5398   4.6569
     9.0686  10.3414  10.9670  11.0064  12.6497  12.9078  13.8185  14.0527

          k = 0.0000 0.8333 0.0000 (  4436 PWs)   bands (ev):

   -21.0718  -6.5884  -6.3342  -6.3342  -5.2397   4.4260   5.1015   5.1015
     7.4091  10.3793  10.6465  11.9320  11.9320  12.5546  13.0988  13.9547

          k = 0.9167-0.0833 0.9167 (  4407 PWs)   bands (ev):

   -21.0701  -6.5551  -6.3865  -6.3359  -5.2498   4.5497   4.9790   5.0468
     7.4974  10.6985  10.8622  11.8139  11.9543  12.1502  13.0509  13.8611

          k = 0.8333 0.0000 0.8333 (  4400 PWs)   bands (ev):

   -21.0697  -6.5296  -6.5131  -6.3245  -5.1251   4.6076   4.6701   4.8980
     7.8566  11.1073  11.3008  11.3273  11.7256  12.0012  13.3515  13.9500

          k = 0.0000-1.0000 0.0000 (  4432 PWs)   bands (ev):

   -21.0696  -6.5385  -6.3428  -6.3428  -5.3384   4.5988   5.1072   5.1072
     7.3375  10.6154  10.7389  12.0638  12.0638  12.0664  12.8210  13.8693

          k =-0.1667 0.3333 0.0000 (  4439 PWs)   bands (ev):

   -21.0926  -6.6234  -6.2561  -6.2259  -4.9789   4.2639   4.9154   5.1306
     8.5836   9.2547   9.6128   9.8971  10.3529  11.5469  13.3056  14.2425

          k =-0.2500 0.4167-0.0833 (  4439 PWs)   bands (ev):

   -21.0869  -6.7679  -6.2767  -6.2294  -4.8202   3.9886   4.6676   4.9642
     8.6847   9.7156   9.9785  10.4180  10.9813  12.3039  13.6955  13.8314

          k =-0.3333 0.5000-0.1667 (  4421 PWs)   bands (ev):

   -21.0811  -6.8942  -6.2879  -6.2387  -4.6838   3.7748   4.4741   4.7378
     8.9560  10.2453  10.5316  10.9558  11.5222  12.7587  13.6154  13.9307

          k = 0.5833-0.4167 0.7500 (  4428 PWs)   bands (ev):

   -21.0769  -6.9782  -6.2908  -6.2498  -4.5938   3.6376   4.3831   4.5361
     9.3917  10.5905  10.8338  11.3262  12.0404  13.2127  13.2926  13.6418

          k = 0.5000-0.3333 0.6667 (  4422 PWs)   bands (ev):

   -21.0753  -7.0074  -6.2903  -6.2554  -4.5626   3.5899   4.3976   4.4186
     9.8124  10.2085  11.1648  11.4509  12.7103  12.9423  13.1398  13.4639

          k =-0.1667 0.5000 0.0000 (  4453 PWs)   bands (ev):

   -21.0849  -6.7212  -6.2895  -6.2583  -4.8915   3.9827   4.8675   5.0509
     8.1985   9.6546  10.4565  10.4748  10.7610  12.9253  13.8216  13.9225

          k =-0.2500 0.5833-0.0833 (  4436 PWs)   bands (ev):

   -21.0797  -6.8004  -6.3128  -6.2678  -4.8193   3.9261   4.6445   4.9051
     8.3660  10.1165  10.8395  11.1072  11.1692  12.8854  13.7784  13.9941

          k = 0.6667-0.3333 0.8333 (  4427 PWs)   bands (ev):

   -21.0755  -6.8658  -6.3285  -6.2810  -4.7509   3.8942   4.4883   4.7113
     8.7269  10.5656  11.1170  11.2702  11.8317  12.9727  13.3851  13.4460

          k = 0.5833-0.2500 0.7500 (  4418 PWs)   bands (ev):

   -21.0734  -6.9034  -6.3441  -6.2825  -4.7004   3.8391   4.4790   4.5416
     9.2513  10.1958  11.3600  11.4788  12.2539  12.9717  13.3191  13.5576

          k = 0.5000-0.1667 0.6667 (  4418 PWs)   bands (ev):

   -21.0739  -6.9081  -6.3547  -6.2698  -4.6790   3.7852   4.4323   4.6004
     9.5611   9.9652  11.0116  11.2326  12.4681  13.2152  13.4873  13.8278

          k = 0.4167-0.0833 0.5833 (  4425 PWs)   bands (ev):

   -21.0770  -6.8823  -6.3480  -6.2516  -4.6935   3.7810   4.4205   4.7652
     9.1469  10.2569  10.6120  10.9294  12.0047  13.2620  13.7730  13.9306

          k = 0.3333 0.0000 0.5000 (  4430 PWs)   bands (ev):

   -21.0817  -6.8325  -6.3197  -6.2363  -4.7438   3.8472   4.5060   4.9087
     8.8420   9.9298  10.2149  11.0136  11.4309  12.7742  13.7589  13.9571

          k =-0.1667 0.6667-0.0000 (  4433 PWs)   bands (ev):

   -21.0772  -6.7126  -6.3229  -6.3031  -4.9725   4.0861   4.8605   5.0149
     7.8849  10.0973  10.7850  11.3303  11.4054  13.1208  13.5849  13.9469

          k = 0.7500-0.2500 0.9167 (  4424 PWs)   bands (ev):

   -21.0735  -6.7314  -6.3563  -6.3204  -4.9468   4.1801   4.6590   4.8875
     8.1267  10.4992  11.1570  11.5703  11.6161  12.8330  13.1521  13.6542

          k = 0.6667-0.1667 0.8333 (  4411 PWs)   bands (ev):

   -21.0714  -6.7561  -6.4026  -6.3178  -4.8829   4.1701   4.5642   4.7149
     8.5697  10.4845  11.2219  11.6543  11.8518  12.7692  13.2771  13.7097

          k = 0.5833-0.0833 0.7500 (  4421 PWs)   bands (ev):

   -21.0714  -6.7944  -6.4241  -6.2995  -4.8048   4.0159   4.5535   4.6386
     9.1752   9.9667  11.1040  11.3504  12.1747  13.3704  13.5918  14.0537

          k = 0.5000 0.0000 0.6667 (  4433 PWs)   bands (ev):

   -21.0734  -6.8433  -6.4013  -6.2744  -4.7363   3.8676   4.4481   4.7261
     9.5014   9.8629  10.7654  10.9478  12.5943  13.3657  13.8905  13.9376

          k = 0.8333-0.1667 1.0000 (  4407 PWs)   bands (ev):

   -21.0716  -6.6170  -6.3637  -6.3473  -5.1365   4.4090   4.8668   5.0102
     7.6864  10.5200  11.0332  11.5868  11.9128  12.4644  13.1669  13.8495

          k = 0.7500-0.0833 0.9167 (  4410 PWs)   bands (ev):

   -21.0700  -6.5946  -6.4502  -6.3481  -5.0748   4.5020   4.6502   4.8893
     8.0025  10.8059  11.0369  11.5601  11.9287  12.2370  13.3550  13.8847

          k = 0.6667 0.0000 0.8333 (  4412 PWs)   bands (ev):

   -21.0700  -6.6604  -6.4786  -6.3289  -4.9483   4.2945   4.6325   4.7202
     8.5158  10.4400  11.1412  11.6560  11.6790  12.8143  13.6053  14.0149

          k =-0.1667-1.0000-0.0000 (  4400 PWs)   bands (ev):

   -21.0696  -6.5257  -6.4252  -6.3562  -5.2216   4.6032   4.8567   5.0126
     7.6190  10.7205  11.1802  11.4645  12.0217  12.0677  13.1430  13.9202

          k = 0.6667-0.3333 1.0000 (  4418 PWs)   bands (ev):

   -21.0755  -6.8047  -6.3562  -6.2872  -4.8135   3.9678   4.5264   4.8552
     8.5737  10.2608  10.9870  11.1501  11.8555  13.0558  13.4710  13.8980

          k = 0.5833-0.2500 0.9167 (  4424 PWs)   bands (ev):

   -21.0725  -6.8013  -6.3839  -6.3143  -4.8069   4.0081   4.5031   4.7340
     8.9580  10.1048  10.9060  11.4814  12.1999  13.2321  13.5512  13.6680

          k = 0.5000-0.1667 0.8333 (  4418 PWs)   bands (ev):

   -21.0714  -6.7986  -6.3923  -6.3279  -4.8040   4.0182   4.5800   4.6074
     9.4234   9.5642  11.2562  11.6442  11.8601  13.2706  13.8520  13.9564

          k = 0.6667-0.1667 1.0000 (  4413 PWs)   bands (ev):

   -21.0711  -6.6872  -6.3828  -6.3781  -4.9518   4.2696   4.5849   4.8387
     8.3974  10.4218  10.8346  11.8549  11.8647  12.7701  13.4957  13.8301

          k = 0.5833-0.0833 0.9167 (  4414 PWs)   bands (ev):

   -21.0699  -6.6672  -6.4375  -6.3824  -4.9189   4.2209   4.6304   4.7282
     8.8526   9.8922  11.0182  11.5571  11.9406  13.4839  13.6188  13.9144

          k = 0.5000 0.0000 0.8333 (  4417 PWs)   bands (ev):

   -21.0705  -6.7189  -6.4309  -6.3562  -4.8658   4.1183   4.5968   4.7036
     9.3650   9.4480  10.9722  11.7665  11.7728  13.7334  13.7795  13.9722

          k =-0.3333-1.0000 0.0000 (  4416 PWs)   bands (ev):

   -21.0695  -6.5550  -6.4904  -6.3926  -5.0208   4.4222   4.6281   4.8367
     8.3372  10.4141  10.8573  11.5215  12.0756  12.8010  13.5026  13.9010

          k =-0.5000-1.0000 0.0000 (  4420 PWs)   bands (ev):

   -21.0694  -6.6093  -6.4418  -6.4418  -4.9300   4.2281   4.6997   4.6997
     9.3142   9.3142  10.9629  11.4062  12.0796  13.7384  13.7384  14.1349

     the Fermi energy is     5.7731 ev

!    total energy              =     -70.67890060 Ry
     estimated scf accuracy    <          2.3E-12 Ry
     smearing contrib. (-TS)   =      -0.00000000 Ry
     internal energy E=F+TS    =     -70.67890060 Ry

     The total energy is F=E-TS. E is the sum of the following terms:
     one-electron contribution =      -8.78333959 Ry
     hartree contribution      =       9.58796611 Ry
     xc contribution           =     -11.61422059 Ry
     ewald contribution        =     -59.86930653 Ry

     convergence has been achieved in   8 iterations

     Writing all to output data dir out/mp-1253.save/
 
     init_run     :      0.33s CPU      0.36s WALL (       1 calls)
     electrons    :     19.11s CPU     32.17s WALL (       1 calls)

     Called by init_run:
     wfcinit      :      0.28s CPU      0.29s WALL (       1 calls)
     potinit      :      0.01s CPU      0.01s WALL (       1 calls)
     hinit0       :      0.01s CPU      0.03s WALL (       1 calls)

     Called by electrons:
     c_bands      :     18.41s CPU     31.35s WALL (       8 calls)
     sum_band     :      0.68s CPU      0.69s WALL (       8 calls)
     v_of_rho     :      0.02s CPU      0.02s WALL (       9 calls)
     mix_rho      :      0.00s CPU      0.00s WALL (       8 calls)

     Called by c_bands:
     init_us_2    :      0.08s CPU      0.08s WALL (    1224 calls)
     init_us_2:cp :      0.08s CPU      0.08s WALL (    1224 calls)
     paro_k       :     17.90s CPU     18.61s WALL (     576 calls)

     Called by paro_*:
     h_psi        :     15.54s CPU     16.15s WALL (   20143 calls)
     g_psi        :      0.14s CPU      0.14s WALL (  119565 calls)

     Called by h_psi:
     h_psi:calbec :      0.55s CPU      0.57s WALL (   20143 calls)
     vloc_psi     :     14.62s CPU     15.19s WALL (   20143 calls)
     add_vuspsi   :      0.30s CPU      0.31s WALL (   20143 calls)

     General routines
     calbec       :      0.53s CPU      0.55s WALL (   20143 calls)
     fft          :      0.01s CPU      0.02s WALL (      89 calls)
     ffts         :      0.00s CPU      0.00s WALL (       8 calls)
     fftw         :     14.53s CPU     15.08s WALL (  217114 calls)
 
     Parallel routines
 
     PWSCF        :     19.65s CPU     33.32s WALL

 
   This run was terminated on:  15:12:12   8Apr2024            

=------------------------------------------------------------------------------=
   JOB DONE.
=------------------------------------------------------------------------------=
