 vasp.5.4.4.18Apr17-6-g9f103f2a35 (build Aug 24 2017 11:22:49) complex          
  
 executed on             LinuxIFC date 2023.12.25  13:07:14
 running on    8 total cores
 distrk:  each k-point on    8 cores,    1 groups
 distr:  one band on NCORES_PER_BAND=   1 cores,    8 groups


--------------------------------------------------------------------------------------------------------


 INCAR:
 POTCAR:    PAW_PBE As 22Sep2009                  
 POTCAR:    PAW_PBE Se 06Sep2000                  

 ----------------------------------------------------------------------------- 
|                                                                             |
|           W    W    AA    RRRRR   N    N  II  N    N   GGGG   !!!           |
|           W    W   A  A   R    R  NN   N  II  NN   N  G    G  !!!           |
|           W    W  A    A  R    R  N N  N  II  N N  N  G       !!!           |
|           W WW W  AAAAAA  RRRRR   N  N N  II  N  N N  G  GGG   !            |
|           WW  WW  A    A  R   R   N   NN  II  N   NN  G    G                |
|           W    W  A    A  R    R  N    N  II  N    N   GGGG   !!!           |
|                                                                             |
|      For optimal performance we recommend to set                            |
|        NCORE= 4 - approx SQRT( number of cores)                             |
|      NCORE specifies how many cores store one orbital (NPAR=cpu/NCORE).     |
|      This setting can  greatly improve the performance of VASP for DFT.     |
|      The default,   NCORE=1            might be grossly inefficient         |
|      on modern multi-core architectures or massively parallel machines.     |
|      Do your own testing !!!!                                               |
|      Unfortunately you need to use the default for GW and RPA calculations. |
|      (for HF NCORE is supported but not extensively tested yet)             |
|                                                                             |
 ----------------------------------------------------------------------------- 

 POTCAR:    PAW_PBE As 22Sep2009                  
   VRHFIN =As: s2p3                                                             
   LEXCH  = PE                                                                  
   EATOM  =   170.1867 eV,   12.5084 Ry                                         
                                                                                
   TITEL  = PAW_PBE As 22Sep2009                                                
   LULTRA =        F    use ultrasoft PP ?                                      
   IUNSCR =        1    unscreen: 0-lin 1-nonlin 2-no                           
   RPACOR =    1.900    partial core radius                                     
   POMASS =   74.922; ZVAL   =    5.000    mass and valenz                      
   RCORE  =    2.100    outmost cutoff radius                                   
   RWIGS  =    2.300; RWIGS  =    1.217    wigner-seitz radius (au A)           
   ENMAX  =  208.702; ENMIN  =  156.526 eV                                      
   ICORE  =        3    local potential                                         
   LCOR   =        T    correct aug charges                                     
   LPAW   =        T    paw PP                                                  
   EAUG   =  462.758                                                            
   DEXC   =    0.000                                                            
   RMAX   =    2.144    core radius for proj-oper                               
   RAUG   =    1.300    factor for augmentation sphere                          
   RDEP   =    2.140    radius for radial grids                                 
   RDEPT  =    1.956    core radius for aug-charge                              
                                                                                
   Atomic configuration                                                         
   10 entries                                                                   
     n  l   j            E        occ.                                          
     1  0  0.50    -11718.0418   2.0000                                         
     2  0  0.50     -1486.5454   2.0000                                         
     2  1  1.50     -1303.3889   6.0000                                         
     3  0  0.50      -190.2849   2.0000                                         
     3  1  1.50      -133.6555   6.0000                                         
     3  2  2.50       -40.6443  10.0000                                         
     4  0  0.50       -14.4936   2.0000                                         
     4  1  0.50        -5.1947   3.0000                                         
     4  2  1.50        -5.4423   0.0000                                         
     4  3  2.50        -5.4423   0.0000                                         
   Description                                                                  
     l       E           TYP  RCUT    TYP  RCUT                                 
     0    -14.4935570     23  2.100                                             
     0    -11.9212055     23  2.100                                             
     1     -5.1947127     23  2.100                                             
     1     27.2116520     23  2.100                                             
     2     -5.4423304     23  2.100                                             
     3     -1.3605826      7  2.100                                             
  local pseudopotential read in
  partial core-charges read in
  partial kinetic energy density read in
  atomic valenz-charges read in
  non local Contribution for L=           0  read in
    real space projection operators read in
  non local Contribution for L=           0  read in
    real space projection operators read in
  non local Contribution for L=           1  read in
    real space projection operators read in
  non local Contribution for L=           1  read in
    real space projection operators read in
  non local Contribution for L=           2  read in
    real space projection operators read in
    PAW grid and wavefunctions read in
 
   number of l-projection  operators is LMAX  =           5
   number of lm-projection operators is LMMAX =          13
 
 POTCAR:    PAW_PBE Se 06Sep2000                  
   VRHFIN =Se: s2p4                                                             
   LEXCH  = PE                                                                  
   EATOM  =   257.1286 eV,   18.8984 Ry                                         
                                                                                
   TITEL  = PAW_PBE Se 06Sep2000                                                
   LULTRA =        F    use ultrasoft PP ?                                      
   IUNSCR =        1    unscreen: 0-lin 1-nonlin 2-no                           
   RPACOR =    1.900    partial core radius                                     
   POMASS =   78.960; ZVAL   =    6.000    mass and valenz                      
   RCORE  =    2.100    outmost cutoff radius                                   
   RWIGS  =    2.200; RWIGS  =    1.164    wigner-seitz radius (au A)           
   ENMAX  =  211.555; ENMIN  =  158.666 eV                                      
   ICORE  =        3    local potential                                         
   LCOR   =        T    correct aug charges                                     
   LPAW   =        T    paw PP                                                  
   EAUG   =  446.842                                                            
   DEXC   =    0.000                                                            
   RMAX   =    2.147    core radius for proj-oper                               
   RAUG   =    1.300    factor for augmentation sphere                          
   RDEP   =    2.177    radius for radial grids                                 
   RDEPT  =    1.928    core radius for aug-charge                              
                                                                                
   Atomic configuration                                                         
   10 entries                                                                   
     n  l   j            E        occ.                                          
     1  0  0.50    -12503.4787   2.0000                                         
     2  0  0.50     -1606.9547   2.0000                                         
     2  1  1.50     -1413.3140   6.0000                                         
     3  0  0.50      -213.4885   2.0000                                         
     3  1  1.50      -152.9538   6.0000                                         
     3  2  2.50       -53.1221  10.0000                                         
     4  0  0.50       -17.2865   2.0000                                         
     4  1  0.50        -6.5110   4.0000                                         
     4  2  2.50        -6.8029   0.0000                                         
     4  3  2.50        -6.8029   0.0000                                         
   Description                                                                  
     l       E           TYP  RCUT    TYP  RCUT                                 
     0    -17.2865377     23  2.100                                             
     0    -15.3094411     23  2.100                                             
     1     -6.5110275     23  2.100                                             
     1     -0.0695192     23  2.100                                             
     2     -6.8029130     23  2.100                                             
     3     -1.3605826      7  2.100                                             
  local pseudopotential read in
  partial core-charges read in
  partial kinetic energy density read in
  atomic valenz-charges read in
  non local Contribution for L=           0  read in
    real space projection operators read in
  non local Contribution for L=           0  read in
    real space projection operators read in
  non local Contribution for L=           1  read in
    real space projection operators read in
  non local Contribution for L=           1  read in
    real space projection operators read in
  non local Contribution for L=           2  read in
    real space projection operators read in
    PAW grid and wavefunctions read in
 
   number of l-projection  operators is LMAX  =           5
   number of lm-projection operators is LMMAX =          13
 

 ----------------------------------------------------------------------------- 
|                                                                             |
|  ADVICE TO THIS USER RUNNING 'VASP/VAMP'   (HEAR YOUR MASTER'S VOICE ...):  |
|                                                                             |
|      You have a (more or less) 'large supercell' and for larger cells       |
|      it might be more efficient to use real space projection opertators     |
|      So try LREAL= Auto  in the INCAR   file.                               |
|      Mind:          For very  accurate calculation you might also keep the  |
|      reciprocal projection scheme          (i.e. LREAL=.FALSE.)             |
|                                                                             |
 ----------------------------------------------------------------------------- 

  PAW_PBE As 22Sep2009                  :
 energy of atom  1       EATOM= -170.1867
 kinetic energy error for atom=    0.0005 (will be added to EATOM!!)
  PAW_PBE Se 06Sep2000                  :
 energy of atom  2       EATOM= -257.1286
 kinetic energy error for atom=    0.0007 (will be added to EATOM!!)
 
 
 POSCAR: As8 Se12                                
  positions in direct lattice
  No initial velocities read in
 exchange correlation table for  LEXCH =        8
   RHO(1)=    0.500       N(1)  =     2000
   RHO(2)=  100.500       N(2)  =     4000
 


--------------------------------------------------------------------------------------------------------


 ion  position               nearest neighbor table
   1  0.380  0.197  0.263-  13 2.41   9 2.42  17 2.43
   2  0.620  0.697  0.237-  14 2.41  10 2.42  18 2.43
   3  0.620  0.803  0.737-  15 2.41  11 2.42  19 2.43
   4  0.380  0.303  0.763-  16 2.41  12 2.42  20 2.43
   5  0.109  0.322  0.485-   9 2.39  13 2.43  20 2.45
   6  0.891  0.822  0.015-  10 2.39  14 2.43  19 2.45
   7  0.891  0.678  0.515-  11 2.39  15 2.43  18 2.45
   8  0.109  0.178  0.985-  12 2.39  16 2.43  17 2.45
   9  0.869  0.124  0.401-   5 2.39   1 2.42
  10  0.131  0.624  0.099-   6 2.39   2 2.42
  11  0.131  0.876  0.599-   7 2.39   3 2.42
  12  0.869  0.376  0.901-   8 2.39   4 2.42
  13  0.314  0.400  0.344-   1 2.41   5 2.43
  14  0.686  0.900  0.156-   2 2.41   6 2.43
  15  0.686  0.600  0.656-   3 2.41   7 2.43
  16  0.314  0.100  0.844-   4 2.41   8 2.43
  17  0.549  0.294  0.120-   1 2.43   8 2.45
  18  0.451  0.794  0.380-   2 2.43   7 2.45
  19  0.451  0.706  0.880-   3 2.43   6 2.45
  20  0.549  0.206  0.620-   4 2.43   5 2.45
 
  LATTYP: Found a simple monoclinic cell.
 ALAT       =    12.8973197456
 B/A-ratio  =     0.8045641385
 C/A-ratio  =     1.9041465046
 COS(beta)  =    -0.9852891363
  
  Lattice vectors:
  
 A1 = (  -4.5881279628,   0.0000000000, -12.0536276041)
 A2 = (   0.0000000000, -10.3767209500,   0.0000000000)
 A3 = (   4.6855719575,   0.0000000000,  24.1072552082)


Analysis of symmetry for initial positions (statically):
=====================================================================
 Subroutine PRICEL returns:
 Original cell was already a primitive cell.
 

 Routine SETGRP: Setting up the symmetry group for a 
 simple monoclinic supercell.


 Subroutine GETGRP returns: Found  4 space group operations
 (whereof  2 operations were pure point group operations)
 out of a pool of  4 trial point group operations.


The static configuration has the point symmetry S_2 .
 The point group associated with its full space group is C_2h.


Analysis of symmetry for dynamics (positions and initial velocities):
=====================================================================
 Subroutine PRICEL returns:
 Original cell was already a primitive cell.
 

 Routine SETGRP: Setting up the symmetry group for a 
 simple monoclinic supercell.


 Subroutine GETGRP returns: Found  4 space group operations
 (whereof  2 operations were pure point group operations)
 out of a pool of  4 trial point group operations.


The dynamic configuration has the point symmetry S_2 .
 The point group associated with its full space group is C_2h.


 Subroutine INISYM returns: Found  4 space group operations
 (whereof  2 operations are pure point group operations),
 and found     1 'primitive' translations

 
 
 KPOINTS: pymatgen with grid density = 3000 / numb

Automatic generation of k-mesh.
Space group operators:
 irot       det(A)        alpha          n_x          n_y          n_z        tau_x        tau_y        tau_z
    1     1.000000     0.000000     1.000000     0.000000     0.000000     0.000000     0.000000     0.000000
    2    -1.000000     0.000000     1.000000     0.000000     0.000000     0.000000     0.000000     0.000000
    3     1.000000   180.000000     0.000000     1.000000     0.000000    -1.000000    -0.500000    -0.500000
    4    -1.000000   180.000000     0.000000     1.000000     0.000000    -1.000000    -0.500000    -0.500000
 
 Subroutine IBZKPT returns following result:
 ===========================================
 
 Found     66 irreducible k-points:
 
 Following reciprocal coordinates:
            Coordinates               Weight
  0.000000  0.000000  0.000000      1.000000
  0.100000  0.000000  0.000000      2.000000
  0.200000  0.000000 -0.000000      2.000000
  0.300000  0.000000 -0.000000      2.000000
  0.400000  0.000000 -0.000000      2.000000
  0.500000  0.000000 -0.000000      1.000000
  0.000000  0.250000  0.000000      2.000000
  0.100000  0.250000  0.000000      4.000000
  0.200000  0.250000 -0.000000      4.000000
  0.300000  0.250000 -0.000000      4.000000
  0.400000  0.250000 -0.000000      4.000000
  0.500000  0.250000 -0.000000      2.000000
  0.000000  0.500000  0.000000      1.000000
  0.100000  0.500000  0.000000      2.000000
  0.200000  0.500000 -0.000000      2.000000
  0.300000  0.500000 -0.000000      2.000000
  0.400000  0.500000 -0.000000      2.000000
  0.500000  0.500000 -0.000000      1.000000
  0.000000  0.000000  0.250000      2.000000
  0.100000  0.000000  0.250000      2.000000
  0.200000  0.000000  0.250000      2.000000
  0.300000  0.000000  0.250000      2.000000
  0.400000  0.000000  0.250000      2.000000
  0.500000  0.000000  0.250000      2.000000
 -0.400000  0.000000  0.250000      2.000000
 -0.300000  0.000000  0.250000      2.000000
 -0.200000  0.000000  0.250000      2.000000
 -0.100000  0.000000  0.250000      2.000000
  0.000000  0.250000  0.250000      4.000000
  0.100000  0.250000  0.250000      4.000000
  0.200000  0.250000  0.250000      4.000000
  0.300000  0.250000  0.250000      4.000000
  0.400000  0.250000  0.250000      4.000000
  0.500000  0.250000  0.250000      4.000000
 -0.400000  0.250000  0.250000      4.000000
 -0.300000  0.250000  0.250000      4.000000
 -0.200000  0.250000  0.250000      4.000000
 -0.100000  0.250000  0.250000      4.000000
  0.000000  0.500000  0.250000      2.000000
  0.100000  0.500000  0.250000      2.000000
  0.200000  0.500000  0.250000      2.000000
  0.300000  0.500000  0.250000      2.000000
  0.400000  0.500000  0.250000      2.000000
  0.500000  0.500000  0.250000      2.000000
 -0.400000  0.500000  0.250000      2.000000
 -0.300000  0.500000  0.250000      2.000000
 -0.200000  0.500000  0.250000      2.000000
 -0.100000  0.500000  0.250000      2.000000
  0.000000  0.000000  0.500000      1.000000
  0.100000  0.000000  0.500000      2.000000
  0.200000  0.000000  0.500000      2.000000
  0.300000  0.000000  0.500000      2.000000
  0.400000  0.000000  0.500000      2.000000
  0.500000  0.000000  0.500000      1.000000
  0.000000  0.250000  0.500000      2.000000
  0.100000  0.250000  0.500000      4.000000
  0.200000  0.250000  0.500000      4.000000
  0.300000  0.250000  0.500000      4.000000
  0.400000  0.250000  0.500000      4.000000
  0.500000  0.250000  0.500000      2.000000
  0.000000  0.500000  0.500000      1.000000
  0.100000  0.500000  0.500000      2.000000
  0.200000  0.500000  0.500000      2.000000
  0.300000  0.500000  0.500000      2.000000
  0.400000  0.500000  0.500000      2.000000
  0.500000  0.500000  0.500000      1.000000
 
 Following cartesian coordinates:
            Coordinates               Weight
  0.000000  0.000000  0.000000      1.000000
  0.022268  0.000000  0.008116      2.000000
  0.044537  0.000000  0.016232      2.000000
  0.066805  0.000000  0.024349      2.000000
  0.089073  0.000000  0.032465      2.000000
  0.111342  0.000000  0.040581      1.000000
  0.000000  0.024092  0.000000      2.000000
  0.022268  0.024092  0.008116      4.000000
  0.044537  0.024092  0.016232      4.000000
  0.066805  0.024092  0.024349      4.000000
  0.089073  0.024092  0.032465      4.000000
  0.111342  0.024092  0.040581      2.000000
  0.000000  0.048185  0.000000      1.000000
  0.022268  0.048185  0.008116      2.000000
  0.044537  0.048185  0.016232      2.000000
  0.066805  0.048185  0.024349      2.000000
  0.089073  0.048185  0.032465      2.000000
  0.111342  0.048185  0.040581      1.000000
  0.000000  0.000000  0.020741      2.000000
  0.022268  0.000000  0.028857      2.000000
  0.044537  0.000000  0.036973      2.000000
  0.066805  0.000000  0.045089      2.000000
  0.089073  0.000000  0.053206      2.000000
  0.111342  0.000000  0.061322      2.000000
 -0.089073  0.000000 -0.011724      2.000000
 -0.066805  0.000000 -0.003608      2.000000
 -0.044537  0.000000  0.004508      2.000000
 -0.022268  0.000000  0.012624      2.000000
  0.000000  0.024092  0.020741      4.000000
  0.022268  0.024092  0.028857      4.000000
  0.044537  0.024092  0.036973      4.000000
  0.066805  0.024092  0.045089      4.000000
  0.089073  0.024092  0.053206      4.000000
  0.111342  0.024092  0.061322      4.000000
 -0.089073  0.024092 -0.011724      4.000000
 -0.066805  0.024092 -0.003608      4.000000
 -0.044537  0.024092  0.004508      4.000000
 -0.022268  0.024092  0.012624      4.000000
  0.000000  0.048185  0.020741      2.000000
  0.022268  0.048185  0.028857      2.000000
  0.044537  0.048185  0.036973      2.000000
  0.066805  0.048185  0.045089      2.000000
  0.089073  0.048185  0.053206      2.000000
  0.111342  0.048185  0.061322      2.000000
 -0.089073  0.048185 -0.011724      2.000000
 -0.066805  0.048185 -0.003608      2.000000
 -0.044537  0.048185  0.004508      2.000000
 -0.022268  0.048185  0.012624      2.000000
  0.000000  0.000000  0.041481      1.000000
  0.022268  0.000000  0.049598      2.000000
  0.044537  0.000000  0.057714      2.000000
  0.066805  0.000000  0.065830      2.000000
  0.089073  0.000000  0.073946      2.000000
  0.111342  0.000000  0.082062      1.000000
  0.000000  0.024092  0.041481      2.000000
  0.022268  0.024092  0.049598      4.000000
  0.044537  0.024092  0.057714      4.000000
  0.066805  0.024092  0.065830      4.000000
  0.089073  0.024092  0.073946      4.000000
  0.111342  0.024092  0.082062      2.000000
  0.000000  0.048185  0.041481      1.000000
  0.022268  0.048185  0.049598      2.000000
  0.044537  0.048185  0.057714      2.000000
  0.066805  0.048185  0.065830      2.000000
  0.089073  0.048185  0.073946      2.000000
  0.111342  0.048185  0.082062      1.000000
 
 
 Subroutine IBZKPT_HF returns following result:
 ==============================================
 
 Found    160 k-points in 1st BZ
 the following    160 k-points will be used (e.g. in the exchange kernel)
 Following reciprocal coordinates:   # in IRBZ
  0.000000  0.000000  0.000000    0.00625000   1 t-inv F
  0.100000  0.000000  0.000000    0.00625000   2 t-inv F
  0.200000  0.000000 -0.000000    0.00625000   3 t-inv F
  0.300000  0.000000 -0.000000    0.00625000   4 t-inv F
  0.400000  0.000000 -0.000000    0.00625000   5 t-inv F
  0.500000  0.000000 -0.000000    0.00625000   6 t-inv F
  0.000000  0.250000  0.000000    0.00625000   7 t-inv F
  0.100000  0.250000  0.000000    0.00625000   8 t-inv F
  0.200000  0.250000 -0.000000    0.00625000   9 t-inv F
  0.300000  0.250000 -0.000000    0.00625000  10 t-inv F
  0.400000  0.250000 -0.000000    0.00625000  11 t-inv F
  0.500000  0.250000 -0.000000    0.00625000  12 t-inv F
  0.000000  0.500000  0.000000    0.00625000  13 t-inv F
  0.100000  0.500000  0.000000    0.00625000  14 t-inv F
  0.200000  0.500000 -0.000000    0.00625000  15 t-inv F
  0.300000  0.500000 -0.000000    0.00625000  16 t-inv F
  0.400000  0.500000 -0.000000    0.00625000  17 t-inv F
  0.500000  0.500000 -0.000000    0.00625000  18 t-inv F
  0.000000  0.000000  0.250000    0.00625000  19 t-inv F
  0.100000  0.000000  0.250000    0.00625000  20 t-inv F
  0.200000  0.000000  0.250000    0.00625000  21 t-inv F
  0.300000  0.000000  0.250000    0.00625000  22 t-inv F
  0.400000  0.000000  0.250000    0.00625000  23 t-inv F
  0.500000  0.000000  0.250000    0.00625000  24 t-inv F
 -0.400000  0.000000  0.250000    0.00625000  25 t-inv F
 -0.300000  0.000000  0.250000    0.00625000  26 t-inv F
 -0.200000  0.000000  0.250000    0.00625000  27 t-inv F
 -0.100000  0.000000  0.250000    0.00625000  28 t-inv F
  0.000000  0.250000  0.250000    0.00625000  29 t-inv F
  0.100000  0.250000  0.250000    0.00625000  30 t-inv F
  0.200000  0.250000  0.250000    0.00625000  31 t-inv F
  0.300000  0.250000  0.250000    0.00625000  32 t-inv F
  0.400000  0.250000  0.250000    0.00625000  33 t-inv F
  0.500000  0.250000  0.250000    0.00625000  34 t-inv F
 -0.400000  0.250000  0.250000    0.00625000  35 t-inv F
 -0.300000  0.250000  0.250000    0.00625000  36 t-inv F
 -0.200000  0.250000  0.250000    0.00625000  37 t-inv F
 -0.100000  0.250000  0.250000    0.00625000  38 t-inv F
  0.000000  0.500000  0.250000    0.00625000  39 t-inv F
  0.100000  0.500000  0.250000    0.00625000  40 t-inv F
  0.200000  0.500000  0.250000    0.00625000  41 t-inv F
  0.300000  0.500000  0.250000    0.00625000  42 t-inv F
  0.400000  0.500000  0.250000    0.00625000  43 t-inv F
  0.500000  0.500000  0.250000    0.00625000  44 t-inv F
 -0.400000  0.500000  0.250000    0.00625000  45 t-inv F
 -0.300000  0.500000  0.250000    0.00625000  46 t-inv F
 -0.200000  0.500000  0.250000    0.00625000  47 t-inv F
 -0.100000  0.500000  0.250000    0.00625000  48 t-inv F
  0.000000  0.000000  0.500000    0.00625000  49 t-inv F
  0.100000  0.000000  0.500000    0.00625000  50 t-inv F
  0.200000  0.000000  0.500000    0.00625000  51 t-inv F
  0.300000  0.000000  0.500000    0.00625000  52 t-inv F
  0.400000  0.000000  0.500000    0.00625000  53 t-inv F
  0.500000  0.000000  0.500000    0.00625000  54 t-inv F
  0.000000  0.250000  0.500000    0.00625000  55 t-inv F
  0.100000  0.250000  0.500000    0.00625000  56 t-inv F
  0.200000  0.250000  0.500000    0.00625000  57 t-inv F
  0.300000  0.250000  0.500000    0.00625000  58 t-inv F
  0.400000  0.250000  0.500000    0.00625000  59 t-inv F
  0.500000  0.250000  0.500000    0.00625000  60 t-inv F
  0.000000  0.500000  0.500000    0.00625000  61 t-inv F
  0.100000  0.500000  0.500000    0.00625000  62 t-inv F
  0.200000  0.500000  0.500000    0.00625000  63 t-inv F
  0.300000  0.500000  0.500000    0.00625000  64 t-inv F
  0.400000  0.500000  0.500000    0.00625000  65 t-inv F
  0.500000  0.500000  0.500000    0.00625000  66 t-inv F
 -0.100000  0.000000 -0.000000    0.00625000   2 t-inv F
 -0.200000  0.000000  0.000000    0.00625000   3 t-inv F
 -0.300000  0.000000  0.000000    0.00625000   4 t-inv F
 -0.400000  0.000000  0.000000    0.00625000   5 t-inv F
  0.000000 -0.250000  0.000000    0.00625000   7 t-inv F
 -0.100000 -0.250000 -0.000000    0.00625000   8 t-inv F
 -0.100000  0.250000 -0.000000    0.00625000   8 t-inv F
  0.100000 -0.250000  0.000000    0.00625000   8 t-inv F
 -0.200000 -0.250000  0.000000    0.00625000   9 t-inv F
 -0.200000  0.250000  0.000000    0.00625000   9 t-inv F
  0.200000 -0.250000 -0.000000    0.00625000   9 t-inv F
 -0.300000 -0.250000  0.000000    0.00625000  10 t-inv F
 -0.300000  0.250000  0.000000    0.00625000  10 t-inv F
  0.300000 -0.250000 -0.000000    0.00625000  10 t-inv F
 -0.400000 -0.250000  0.000000    0.00625000  11 t-inv F
 -0.400000  0.250000  0.000000    0.00625000  11 t-inv F
  0.400000 -0.250000 -0.000000    0.00625000  11 t-inv F
 -0.500000 -0.250000  0.000000    0.00625000  12 t-inv F
 -0.100000 -0.500000 -0.000000    0.00625000  14 t-inv F
 -0.200000 -0.500000  0.000000    0.00625000  15 t-inv F
 -0.300000 -0.500000  0.000000    0.00625000  16 t-inv F
 -0.400000 -0.500000  0.000000    0.00625000  17 t-inv F
  0.000000  0.000000 -0.250000    0.00625000  19 t-inv F
 -0.100000  0.000000 -0.250000    0.00625000  20 t-inv F
 -0.200000  0.000000 -0.250000    0.00625000  21 t-inv F
 -0.300000  0.000000 -0.250000    0.00625000  22 t-inv F
 -0.400000  0.000000 -0.250000    0.00625000  23 t-inv F
 -0.500000  0.000000 -0.250000    0.00625000  24 t-inv F
  0.400000  0.000000 -0.250000    0.00625000  25 t-inv F
  0.300000  0.000000 -0.250000    0.00625000  26 t-inv F
  0.200000  0.000000 -0.250000    0.00625000  27 t-inv F
  0.100000  0.000000 -0.250000    0.00625000  28 t-inv F
  0.000000 -0.250000 -0.250000    0.00625000  29 t-inv F
  0.000000  0.250000 -0.250000    0.00625000  29 t-inv F
  0.000000 -0.250000  0.250000    0.00625000  29 t-inv F
 -0.100000 -0.250000 -0.250000    0.00625000  30 t-inv F
 -0.100000  0.250000 -0.250000    0.00625000  30 t-inv F
  0.100000 -0.250000  0.250000    0.00625000  30 t-inv F
 -0.200000 -0.250000 -0.250000    0.00625000  31 t-inv F
 -0.200000  0.250000 -0.250000    0.00625000  31 t-inv F
  0.200000 -0.250000  0.250000    0.00625000  31 t-inv F
 -0.300000 -0.250000 -0.250000    0.00625000  32 t-inv F
 -0.300000  0.250000 -0.250000    0.00625000  32 t-inv F
  0.300000 -0.250000  0.250000    0.00625000  32 t-inv F
 -0.400000 -0.250000 -0.250000    0.00625000  33 t-inv F
 -0.400000  0.250000 -0.250000    0.00625000  33 t-inv F
  0.400000 -0.250000  0.250000    0.00625000  33 t-inv F
 -0.500000 -0.250000 -0.250000    0.00625000  34 t-inv F
 -0.500000  0.250000 -0.250000    0.00625000  34 t-inv F
  0.500000 -0.250000  0.250000    0.00625000  34 t-inv F
  0.400000 -0.250000 -0.250000    0.00625000  35 t-inv F
  0.400000  0.250000 -0.250000    0.00625000  35 t-inv F
 -0.400000 -0.250000  0.250000    0.00625000  35 t-inv F
  0.300000 -0.250000 -0.250000    0.00625000  36 t-inv F
  0.300000  0.250000 -0.250000    0.00625000  36 t-inv F
 -0.300000 -0.250000  0.250000    0.00625000  36 t-inv F
  0.200000 -0.250000 -0.250000    0.00625000  37 t-inv F
  0.200000  0.250000 -0.250000    0.00625000  37 t-inv F
 -0.200000 -0.250000  0.250000    0.00625000  37 t-inv F
  0.100000 -0.250000 -0.250000    0.00625000  38 t-inv F
  0.100000  0.250000 -0.250000    0.00625000  38 t-inv F
 -0.100000 -0.250000  0.250000    0.00625000  38 t-inv F
  0.000000 -0.500000 -0.250000    0.00625000  39 t-inv F
 -0.100000 -0.500000 -0.250000    0.00625000  40 t-inv F
 -0.200000 -0.500000 -0.250000    0.00625000  41 t-inv F
 -0.300000 -0.500000 -0.250000    0.00625000  42 t-inv F
 -0.400000 -0.500000 -0.250000    0.00625000  43 t-inv F
 -0.500000 -0.500000 -0.250000    0.00625000  44 t-inv F
  0.400000 -0.500000 -0.250000    0.00625000  45 t-inv F
  0.300000 -0.500000 -0.250000    0.00625000  46 t-inv F
  0.200000 -0.500000 -0.250000    0.00625000  47 t-inv F
  0.100000 -0.500000 -0.250000    0.00625000  48 t-inv F
 -0.100000  0.000000 -0.500000    0.00625000  50 t-inv F
 -0.200000  0.000000 -0.500000    0.00625000  51 t-inv F
 -0.300000  0.000000 -0.500000    0.00625000  52 t-inv F
 -0.400000  0.000000 -0.500000    0.00625000  53 t-inv F
  0.000000 -0.250000 -0.500000    0.00625000  55 t-inv F
 -0.100000 -0.250000 -0.500000    0.00625000  56 t-inv F
 -0.100000  0.250000 -0.500000    0.00625000  56 t-inv F
  0.100000 -0.250000  0.500000    0.00625000  56 t-inv F
 -0.200000 -0.250000 -0.500000    0.00625000  57 t-inv F
 -0.200000  0.250000 -0.500000    0.00625000  57 t-inv F
  0.200000 -0.250000  0.500000    0.00625000  57 t-inv F
 -0.300000 -0.250000 -0.500000    0.00625000  58 t-inv F
 -0.300000  0.250000 -0.500000    0.00625000  58 t-inv F
  0.300000 -0.250000  0.500000    0.00625000  58 t-inv F
 -0.400000 -0.250000 -0.500000    0.00625000  59 t-inv F
 -0.400000  0.250000 -0.500000    0.00625000  59 t-inv F
  0.400000 -0.250000  0.500000    0.00625000  59 t-inv F
 -0.500000 -0.250000 -0.500000    0.00625000  60 t-inv F
 -0.100000 -0.500000 -0.500000    0.00625000  62 t-inv F
 -0.200000 -0.500000 -0.500000    0.00625000  63 t-inv F
 -0.300000 -0.500000 -0.500000    0.00625000  64 t-inv F
 -0.400000 -0.500000 -0.500000    0.00625000  65 t-inv F


--------------------------------------------------------------------------------------------------------




 Dimension of arrays:
   k-points           NKPTS =     66   k-points in BZ     NKDIM =     66   number of bands    NBANDS=     72
   number of dos      NEDOS =    301   number of ions     NIONS =     20
   non local maximal  LDIM  =      5   non local SUM 2l+1 LMDIM =     13
   total plane-waves  NPLWV = 276480
   max r-space proj   IRMAX =      1   max aug-charges    IRDMAX=  21663
   dimension x,y,z NGX =    36 NGY =   80 NGZ =   96
   dimension x,y,z NGXF=    72 NGYF=  160 NGZF=  192
   support grid    NGXF=    72 NGYF=  160 NGZF=  192
   ions per type =               8  12
   NGX,Y,Z   is equivalent  to a cutoff of  13.33, 12.82, 12.44 a.u.
   NGXF,Y,Z  is equivalent  to a cutoff of  26.65, 25.63, 24.88 a.u.

 SYSTEM =  unknown system                          
 POSCAR =  As8 Se12                                

 Startparameter for this run:
   NWRITE =      2    write-flag & timer
   PREC   = accura    normal or accurate (medium, high low for compatibility)
   ISTART =      0    job   : 0-new  1-cont  2-samecut
   ICHARG =      2    charge: 1-file 2-atom 10-const
   ISPIN  =      1    spin polarized calculation?
   LNONCOLLINEAR =      F non collinear calculations
   LSORBIT =      F    spin-orbit coupling
   INIWAV =      1    electr: 0-lowe 1-rand  2-diag
   LASPH  =      F    aspherical Exc in radial PAW
   METAGGA=      F    non-selfconsistent MetaGGA calc.

 Electronic Relaxation 1
   ENCUT  =  520.0 eV  38.22 Ry    6.18 a.u.   8.35 19.29 23.85*2*pi/ulx,y,z
   ENINI  =  520.0     initial cutoff
   ENAUG  =  462.8 eV  augmentation charge cutoff
   NELM   =    100;   NELMIN=  2; NELMDL= -5     # of ELM steps 
   EDIFF  = 0.1E-07   stopping-criterion for ELM
   LREAL  =      F    real-space projection
   NLSPLINE    = F    spline interpolate recip. space projectors
   LCOMPAT=      F    compatible to vasp.4.4
   GGA_COMPAT  = T    GGA compatible to vasp.4.4-vasp.4.6
   LMAXPAW     = -100 max onsite density
   LMAXMIX     =    2 max onsite mixed and CHGCAR
   VOSKOWN=      0    Vosko Wilk Nusair interpolation
   ROPT   =    0.00000   0.00000
 Ionic relaxation
   EDIFFG = 0.1E-06   stopping-criterion for IOM
   NSW    =      1    number of steps for IOM
   NBLOCK =      1;   KBLOCK =      1    inner block; outer block 
   IBRION =      8    ionic relax: 0-MD 1-quasi-New 2-CG
   NFREE  =      0    steps in history (QN), initial steepest desc. (CG)
   ISIF   =      2    stress and relaxation
   IWAVPR =     11    prediction:  0-non 1-charg 2-wave 3-comb
   ISYM   =      2    0-nonsym 1-usesym 2-fastsym
   LCORR  =      T    Harris-Foulkes like correction to forces

   POTIM  = 0.5000    time-step for ionic-motion
   TEIN   =    0.0    initial temperature
   TEBEG  =    0.0;   TEEND  =   0.0 temperature during run
   SMASS  =  -3.00    Nose mass-parameter (am)
   estimated Nose-frequenzy (Omega)   =  0.10E-29 period in steps =****** mass=  -0.461E-27a.u.
   SCALEE = 1.0000    scale energy and forces
   NPACO  =    256;   APACO  = 16.0  distance and # of slots for P.C.
   PSTRESS=    0.0 pullay stress

  Mass of Ions in am
   POMASS =  74.92 78.96
  Ionic Valenz
   ZVAL   =   5.00  6.00
  Atomic Wigner-Seitz radii
   RWIGS  =  -1.00 -1.00
  virtual crystal weights 
   VCA    =   1.00  1.00
   NELECT =     112.0000    total number of electrons
   NUPDOWN=      -1.0000    fix difference up-down

 DOS related values:
   EMIN   =  10.00;   EMAX   =-10.00  energy-range for DOS
   EFERMI =   0.00
   ISMEAR =     0;   SIGMA  =   0.01  broadening in eV -4-tet -1-fermi 0-gaus

 Electronic relaxation 2 (details)
   IALGO  =     38    algorithm
   LDIAG  =      T    sub-space diagonalisation (order eigenvalues)
   LSUBROT=      F    optimize rotation matrix (better conditioning)
   TURBO    =      0    0=normal 1=particle mesh
   IRESTART =      0    0=no restart 2=restart with 2 vectors
   NREBOOT  =      0    no. of reboots
   NMIN     =      0    reboot dimension
   EREF     =   0.00    reference energy to select bands
   IMIX   =      4    mixing-type and parameters
     AMIX     =   0.40;   BMIX     =  1.00
     AMIX_MAG =   1.60;   BMIX_MAG =  1.00
     AMIN     =   0.10
     WC   =   100.;   INIMIX=   1;  MIXPRE=   1;  MAXMIX= -45

 Intra band minimization:
   WEIMIN = 0.0010     energy-eigenvalue tresh-hold
   EBREAK =  0.35E-10  absolut break condition
   DEPER  =   0.30     relativ break condition  

   TIME   =   0.40     timestep for ELM

  volume/ion in A,a.u.               =      28.08       189.52
  Fermi-wavevector in a.u.,A,eV,Ry     =   0.956425  1.807380 12.445900  0.914748
  Thomas-Fermi vector in A             =   2.085351
 
 Write flags
   LWAVE        =      F    write WAVECAR
   LDOWNSAMPLE  =      F    k-point downsampling of WAVECAR
   LCHARG       =      T    write CHGCAR
   LVTOT        =      F    write LOCPOT, total local potential
   LVHAR        =      F    write LOCPOT, Hartree potential only
   LELF         =      F    write electronic localiz. function (ELF)
   LORBIT       =      0    0 simple, 1 ext, 2 COOP (PROOUT), +10 PAW based schemes


 Dipole corrections
   LMONO  =      F    monopole corrections only (constant potential shift)
   LDIPOL =      F    correct potential (dipole corrections)
   IDIPOL =      0    1-x, 2-y, 3-z, 4-all directions 
   EPSILON=  1.0000000 bulk dielectric constant

 Exchange correlation treatment:
   GGA     =    --    GGA type
   LEXCH   =     8    internal setting for exchange type
   VOSKOWN=      0    Vosko Wilk Nusair interpolation
   LHFCALC =     F    Hartree Fock is set to
   LHFONE  =     F    Hartree Fock one center treatment
   AEXX    =    0.0000 exact exchange contribution

 Linear response parameters
   LEPSILON=     T    determine dielectric tensor
   LRPA    =     F    only Hartree local field effects (RPA)
   LNABLA  =     F    use nabla operator in PAW spheres
   LVEL    =     F    velocity operator in full k-point grid
   LINTERFAST=   F  fast interpolation
   KINTER  =     0    interpolate to denser k-point grid
   CSHIFT  =0.1000    complex shift for real part using Kramers Kronig
   OMEGAMAX=  -1.0    maximum frequency
   DEG_THRESHOLD= 0.2000000E-02 threshold for treating states as degnerate
   RTIME   =   -0.100 relaxation time in fs
  (WPLASMAI=    0.000 imaginary part of plasma frequency in eV, 0.658/RTIME)
   DFIELD  = 0.0000000 0.0000000 0.0000000 field for delta impulse in time
 
 Orbital magnetization related:
   ORBITALMAG=     F  switch on orbital magnetization
   LCHIMAG   =     F  perturbation theory with respect to B field
   DQ        =  0.001000  dq finite difference perturbation B field
   LLRAUG    =     F  two centre corrections for induced B field

 PEAD related settings:
   LPEAD      =     T    switch on PEAD
   IPEAD      =     4    finite difference order for dpsi/dk
   LCALCPOL   =     F    calculate macroscopic polarization
   LCALCEPS   =     F    calculate dielectric tensor
   EFIELD_PEAD=    0.0000    0.0000    0.0000
   SKIP_EDOTP =     F
   LRPA       =     F
   SKIP_SCF   =     F


--------------------------------------------------------------------------------------------------------


 linear response using symmetry
 charge density and potential will be updated during run
 non-spin polarized calculation
 Variant of blocked Davidson
 Davidson routine will perform the subspace rotation
 perform sub-space diagonalisation
    after iterative eigenvector-optimisation
 modified Broyden-mixing scheme, WC =      100.0
 initial mixing is a Kerker type mixing with AMIX =  0.4000 and BMIX =      1.0000
 Hartree-type preconditioning will be used
 using additional bands           16
 reciprocal scheme for non local part
 use partial core corrections
 calculate Harris-corrections to forces 
   (improved forces if not selfconsistent)
 use gradient corrections 
 use of overlap-Matrix (Vanderbilt PP)
 Gauss-broadening in eV      SIGMA  =   0.01


--------------------------------------------------------------------------------------------------------


  energy-cutoff  :      520.00
  volume of cell :      561.68
      direct lattice vectors                 reciprocal lattice vectors
     4.490683968  0.000000000  0.000000000     0.222683228  0.000000000  0.081162359
     0.000000000 10.376720950  0.000000000     0.000000000  0.096369557  0.000000000
    -4.393239973  0.000000000 12.053627604     0.000000000  0.000000000  0.082962576

  length of vectors
     4.490683968 10.376720950 12.829282750     0.237012971  0.096369557  0.082962576


 
 k-points in units of 2pi/SCALE and weight: pymatgen with grid density = 3000 / numb
   0.00000000  0.00000000  0.00000000       0.006
   0.02226832  0.00000000  0.00811624       0.013
   0.04453665  0.00000000  0.01623247       0.013
   0.06680497  0.00000000  0.02434871       0.013
   0.08907329  0.00000000  0.03246494       0.013
   0.11134161  0.00000000  0.04058118       0.006
   0.00000000  0.02409239  0.00000000       0.013
   0.02226832  0.02409239  0.00811624       0.025
   0.04453665  0.02409239  0.01623247       0.025
   0.06680497  0.02409239  0.02434871       0.025
   0.08907329  0.02409239  0.03246494       0.025
   0.11134161  0.02409239  0.04058118       0.013
   0.00000000  0.04818478  0.00000000       0.006
   0.02226832  0.04818478  0.00811624       0.013
   0.04453665  0.04818478  0.01623247       0.013
   0.06680497  0.04818478  0.02434871       0.013
   0.08907329  0.04818478  0.03246494       0.013
   0.11134161  0.04818478  0.04058118       0.006
   0.00000000  0.00000000  0.02074064       0.013
   0.02226832  0.00000000  0.02885688       0.013
   0.04453665  0.00000000  0.03697312       0.013
   0.06680497  0.00000000  0.04508935       0.013
   0.08907329  0.00000000  0.05320559       0.013
   0.11134161  0.00000000  0.06132182       0.013
  -0.08907329  0.00000000 -0.01172430       0.013
  -0.06680497  0.00000000 -0.00360806       0.013
  -0.04453665  0.00000000  0.00450817       0.013
  -0.02226832  0.00000000  0.01262441       0.013
   0.00000000  0.02409239  0.02074064       0.025
   0.02226832  0.02409239  0.02885688       0.025
   0.04453665  0.02409239  0.03697312       0.025
   0.06680497  0.02409239  0.04508935       0.025
   0.08907329  0.02409239  0.05320559       0.025
   0.11134161  0.02409239  0.06132182       0.025
  -0.08907329  0.02409239 -0.01172430       0.025
  -0.06680497  0.02409239 -0.00360806       0.025
  -0.04453665  0.02409239  0.00450817       0.025
  -0.02226832  0.02409239  0.01262441       0.025
   0.00000000  0.04818478  0.02074064       0.013
   0.02226832  0.04818478  0.02885688       0.013
   0.04453665  0.04818478  0.03697312       0.013
   0.06680497  0.04818478  0.04508935       0.013
   0.08907329  0.04818478  0.05320559       0.013
   0.11134161  0.04818478  0.06132182       0.013
  -0.08907329  0.04818478 -0.01172430       0.013
  -0.06680497  0.04818478 -0.00360806       0.013
  -0.04453665  0.04818478  0.00450817       0.013
  -0.02226832  0.04818478  0.01262441       0.013
   0.00000000  0.00000000  0.04148129       0.006
   0.02226832  0.00000000  0.04959752       0.013
   0.04453665  0.00000000  0.05771376       0.013
   0.06680497  0.00000000  0.06583000       0.013
   0.08907329  0.00000000  0.07394623       0.013
   0.11134161  0.00000000  0.08206247       0.006
   0.00000000  0.02409239  0.04148129       0.013
   0.02226832  0.02409239  0.04959752       0.025
   0.04453665  0.02409239  0.05771376       0.025
   0.06680497  0.02409239  0.06583000       0.025
   0.08907329  0.02409239  0.07394623       0.025
   0.11134161  0.02409239  0.08206247       0.013
   0.00000000  0.04818478  0.04148129       0.006
   0.02226832  0.04818478  0.04959752       0.013
   0.04453665  0.04818478  0.05771376       0.013
   0.06680497  0.04818478  0.06583000       0.013
   0.08907329  0.04818478  0.07394623       0.013
   0.11134161  0.04818478  0.08206247       0.006
 
 k-points in reciprocal lattice and weights: pymatgen with grid density = 3000 / numb
   0.00000000  0.00000000  0.00000000       0.006
   0.10000000  0.00000000  0.00000000       0.013
   0.20000000  0.00000000 -0.00000000       0.013
   0.30000000  0.00000000 -0.00000000       0.013
   0.40000000  0.00000000 -0.00000000       0.013
   0.50000000  0.00000000 -0.00000000       0.006
   0.00000000  0.25000000  0.00000000       0.013
   0.10000000  0.25000000  0.00000000       0.025
   0.20000000  0.25000000 -0.00000000       0.025
   0.30000000  0.25000000 -0.00000000       0.025
   0.40000000  0.25000000 -0.00000000       0.025
   0.50000000  0.25000000 -0.00000000       0.013
   0.00000000  0.50000000  0.00000000       0.006
   0.10000000  0.50000000  0.00000000       0.013
   0.20000000  0.50000000 -0.00000000       0.013
   0.30000000  0.50000000 -0.00000000       0.013
   0.40000000  0.50000000 -0.00000000       0.013
   0.50000000  0.50000000 -0.00000000       0.006
   0.00000000  0.00000000  0.25000000       0.013
   0.10000000  0.00000000  0.25000000       0.013
   0.20000000  0.00000000  0.25000000       0.013
   0.30000000  0.00000000  0.25000000       0.013
   0.40000000  0.00000000  0.25000000       0.013
   0.50000000  0.00000000  0.25000000       0.013
  -0.40000000  0.00000000  0.25000000       0.013
  -0.30000000  0.00000000  0.25000000       0.013
  -0.20000000  0.00000000  0.25000000       0.013
  -0.10000000  0.00000000  0.25000000       0.013
   0.00000000  0.25000000  0.25000000       0.025
   0.10000000  0.25000000  0.25000000       0.025
   0.20000000  0.25000000  0.25000000       0.025
   0.30000000  0.25000000  0.25000000       0.025
   0.40000000  0.25000000  0.25000000       0.025
   0.50000000  0.25000000  0.25000000       0.025
  -0.40000000  0.25000000  0.25000000       0.025
  -0.30000000  0.25000000  0.25000000       0.025
  -0.20000000  0.25000000  0.25000000       0.025
  -0.10000000  0.25000000  0.25000000       0.025
   0.00000000  0.50000000  0.25000000       0.013
   0.10000000  0.50000000  0.25000000       0.013
   0.20000000  0.50000000  0.25000000       0.013
   0.30000000  0.50000000  0.25000000       0.013
   0.40000000  0.50000000  0.25000000       0.013
   0.50000000  0.50000000  0.25000000       0.013
  -0.40000000  0.50000000  0.25000000       0.013
  -0.30000000  0.50000000  0.25000000       0.013
  -0.20000000  0.50000000  0.25000000       0.013
  -0.10000000  0.50000000  0.25000000       0.013
   0.00000000  0.00000000  0.50000000       0.006
   0.10000000  0.00000000  0.50000000       0.013
   0.20000000  0.00000000  0.50000000       0.013
   0.30000000  0.00000000  0.50000000       0.013
   0.40000000  0.00000000  0.50000000       0.013
   0.50000000  0.00000000  0.50000000       0.006
   0.00000000  0.25000000  0.50000000       0.013
   0.10000000  0.25000000  0.50000000       0.025
   0.20000000  0.25000000  0.50000000       0.025
   0.30000000  0.25000000  0.50000000       0.025
   0.40000000  0.25000000  0.50000000       0.025
   0.50000000  0.25000000  0.50000000       0.013
   0.00000000  0.50000000  0.50000000       0.006
   0.10000000  0.50000000  0.50000000       0.013
   0.20000000  0.50000000  0.50000000       0.013
   0.30000000  0.50000000  0.50000000       0.013
   0.40000000  0.50000000  0.50000000       0.013
   0.50000000  0.50000000  0.50000000       0.006
 
 position of ions in fractional coordinates (direct lattice) 
   0.38034754  0.19738300  0.26337217
   0.61965246  0.69738300  0.23662783
   0.61965246  0.80261700  0.73662783
   0.38034754  0.30261700  0.76337217
   0.10885333  0.32190035  0.48493644
   0.89114667  0.82190035  0.01506356
   0.89114667  0.67809965  0.51506356
   0.10885333  0.17809965  0.98493644
   0.86890717  0.12425234  0.40089952
   0.13109283  0.62425234  0.09910048
   0.13109283  0.87574766  0.59910048
   0.86890717  0.37574766  0.90089952
   0.31430141  0.40038274  0.34417633
   0.68569859  0.90038274  0.15582367
   0.68569859  0.59961726  0.65582367
   0.31430141  0.09961726  0.84417633
   0.54863396  0.29358558  0.11956954
   0.45136604  0.79358558  0.38043046
   0.45136604  0.70641442  0.88043046
   0.54863396  0.20641442  0.61956954
 
 position of ions in cartesian coordinates  (Angst):
   0.55096346  2.04818831  3.17459006
   1.74310053  7.23654879  2.85222374
  -0.45351946  8.32853264  8.87903755
  -1.64565653  3.14017216  9.20140386
  -1.64161625  3.34027011  5.84524326
   3.93568023  8.52863058  0.18157054
   1.73906024  7.03645084  6.20838434
  -3.83823624  1.84809037 11.87205706
   2.14073970  1.28933186  4.83229352
   0.15332428  6.47769233  1.19452028
  -2.04329571  9.08738909  7.22133408
  -0.05588029  3.89902862 10.85910732
  -0.10062091  4.15465997  4.14857331
   2.39468489  9.34302044  1.87824049
   0.19806490  6.22206098  7.90505429
  -2.29724089  1.03370051 10.17538711
   1.93844405  3.04645564  1.44124671
   0.35561994  8.23481611  4.58556709
  -1.84100005  7.33026531 10.61238090
  -0.25817594  2.14190484  7.46806051
 


--------------------------------------------------------------------------------------------------------


 k-point  1 :   0.0000 0.0000 0.0000  plane waves:   15149
 k-point  2 :   0.1000 0.0000 0.0000  plane waves:   15152
 k-point  3 :   0.2000 0.0000-0.0000  plane waves:   15138
 k-point  4 :   0.3000 0.0000-0.0000  plane waves:   15125
 k-point  5 :   0.4000 0.0000-0.0000  plane waves:   15098
 k-point  6 :   0.5000 0.0000-0.0000  plane waves:   15116
 k-point  7 :   0.0000 0.2500 0.0000  plane waves:   15131
 k-point  8 :   0.1000 0.2500 0.0000  plane waves:   15125
 k-point  9 :   0.2000 0.2500-0.0000  plane waves:   15129
 k-point 10 :   0.3000 0.2500-0.0000  plane waves:   15108
 k-point 11 :   0.4000 0.2500-0.0000  plane waves:   15115
 k-point 12 :   0.5000 0.2500-0.0000  plane waves:   15114
 k-point 13 :   0.0000 0.5000 0.0000  plane waves:   15134
 k-point 14 :   0.1000 0.5000 0.0000  plane waves:   15150
 k-point 15 :   0.2000 0.5000-0.0000  plane waves:   15148
 k-point 16 :   0.3000 0.5000-0.0000  plane waves:   15110
 k-point 17 :   0.4000 0.5000-0.0000  plane waves:   15084
 k-point 18 :   0.5000 0.5000-0.0000  plane waves:   15084
 k-point 19 :   0.0000 0.0000 0.2500  plane waves:   15128
 k-point 20 :   0.1000 0.0000 0.2500  plane waves:   15159
 k-point 21 :   0.2000 0.0000 0.2500  plane waves:   15101
 k-point 22 :   0.3000 0.0000 0.2500  plane waves:   15103
 k-point 23 :   0.4000 0.0000 0.2500  plane waves:   15117
 k-point 24 :   0.5000 0.0000 0.2500  plane waves:   15128
 k-point 25 :  -0.4000 0.0000 0.2500  plane waves:   15106
 k-point 26 :  -0.3000 0.0000 0.2500  plane waves:   15133
 k-point 27 :  -0.2000 0.0000 0.2500  plane waves:   15141
 k-point 28 :  -0.1000 0.0000 0.2500  plane waves:   15141
 k-point 29 :   0.0000 0.2500 0.2500  plane waves:   15150
 k-point 30 :   0.1000 0.2500 0.2500  plane waves:   15139
 k-point 31 :   0.2000 0.2500 0.2500  plane waves:   15125
 k-point 32 :   0.3000 0.2500 0.2500  plane waves:   15110
 k-point 33 :   0.4000 0.2500 0.2500  plane waves:   15088
 k-point 34 :   0.5000 0.2500 0.2500  plane waves:   15119
 k-point 35 :  -0.4000 0.2500 0.2500  plane waves:   15127
 k-point 36 :  -0.3000 0.2500 0.2500  plane waves:   15127
 k-point 37 :  -0.2000 0.2500 0.2500  plane waves:   15138
 k-point 38 :  -0.1000 0.2500 0.2500  plane waves:   15124
 k-point 39 :   0.0000 0.5000 0.2500  plane waves:   15154
 k-point 40 :   0.1000 0.5000 0.2500  plane waves:   15132
 k-point 41 :   0.2000 0.5000 0.2500  plane waves:   15162
 k-point 42 :   0.3000 0.5000 0.2500  plane waves:   15116
 k-point 43 :   0.4000 0.5000 0.2500  plane waves:   15086
 k-point 44 :   0.5000 0.5000 0.2500  plane waves:   15078
 k-point 45 :  -0.4000 0.5000 0.2500  plane waves:   15084
 k-point 46 :  -0.3000 0.5000 0.2500  plane waves:   15118
 k-point 47 :  -0.2000 0.5000 0.2500  plane waves:   15134
 k-point 48 :  -0.1000 0.5000 0.2500  plane waves:   15156
 k-point 49 :   0.0000 0.0000 0.5000  plane waves:   15152
 k-point 50 :   0.1000 0.0000 0.5000  plane waves:   15130
 k-point 51 :   0.2000 0.0000 0.5000  plane waves:   15121
 k-point 52 :   0.3000 0.0000 0.5000  plane waves:   15127
 k-point 53 :   0.4000 0.0000 0.5000  plane waves:   15112
 k-point 54 :   0.5000 0.0000 0.5000  plane waves:   15120
 k-point 55 :   0.0000 0.2500 0.5000  plane waves:   15156
 k-point 56 :   0.1000 0.2500 0.5000  plane waves:   15143
 k-point 57 :   0.2000 0.2500 0.5000  plane waves:   15126
 k-point 58 :   0.3000 0.2500 0.5000  plane waves:   15124
 k-point 59 :   0.4000 0.2500 0.5000  plane waves:   15119
 k-point 60 :   0.5000 0.2500 0.5000  plane waves:   15104
 k-point 61 :   0.0000 0.5000 0.5000  plane waves:   15140
 k-point 62 :   0.1000 0.5000 0.5000  plane waves:   15156
 k-point 63 :   0.2000 0.5000 0.5000  plane waves:   15146
 k-point 64 :   0.3000 0.5000 0.5000  plane waves:   15104
 k-point 65 :   0.4000 0.5000 0.5000  plane waves:   15124
 k-point 66 :   0.5000 0.5000 0.5000  plane waves:   15080

 maximum and minimum number of plane-waves per node :     15162    15078

 maximum number of plane-waves:     15162
 maximum index in each direction: 
   IXMAX=    8   IYMAX=   19   IZMAX=   23
   IXMIN=   -8   IYMIN=  -19   IZMIN=  -24


 serial   3D FFT for wavefunctions
 parallel 3D FFT for charge:
    minimum data exchange during FFTs selected (reduces bandwidth)


 total amount of memory used by VASP MPI-rank0   427130. kBytes
=======================================================================

   base      :      30000. kBytes
   nonl-proj :     213080. kBytes
   fftplans  :      10520. kBytes
   grid      :      26703. kBytes
   one-center:        162. kBytes
   wavefun   :     146665. kBytes
 
     INWAV:  cpu time    0.0001: real time    0.0000
 Broyden mixing: mesh for mixing (old mesh)
   NGX = 17   NGY = 39   NGZ = 47
  (NGX  = 72   NGY  =160   NGZ  =192)
  gives a total of  31161 points

 initial charge density was supplied:
 charge density of overlapping atoms calculated
 number of electron     112.0000000 magnetization 
 keeping initial charge density in first step


--------------------------------------------------------------------------------------------------------


 Maximum index for augmentation-charges         2645 (set IRDMAX)


--------------------------------------------------------------------------------------------------------


 First call to EWALD:  gamma=   0.215
 Maximum number of real-space cells 5x 2x 2
 Maximum number of reciprocal cells 2x 3x 4

    FEWALD:  cpu time    0.0018: real time    0.0018


--------------------------------------- Iteration      1(   1)  ---------------------------------------


    POTLOK:  cpu time    0.2210: real time    0.2237
    SETDIJ:  cpu time    0.0149: real time    0.0149
     EDDAV:  cpu time   42.4884: real time   42.7703
       DOS:  cpu time    0.0023: real time    0.0026
    --------------------------------------------
      LOOP:  cpu time   42.7266: real time   43.0114

 eigenvalue-minimisations  :  9504
 total energy-change (2. order) : 0.6229606E+03  (-0.4419283E+04)
 number of electron     112.0000000 magnetization 
 augmentation part      112.0000000 magnetization 

 Free energy of the ion-electron system (eV)
  ---------------------------------------------------
  alpha Z        PSCENC =       214.75419344
  Ewald energy   TEWEN  =     -3942.89072556
  -Hartree energ DENC   =      -607.68467295
  -exchange      EXHF   =         0.00000000
  -V(xc)+E(xc)   XCENC  =      -103.80388105
  PAW double counting   =      3700.12087125    -3363.34006483
  entropy T*S    EENTRO =        -0.00048100
  eigenvalues    EBANDS =       278.78155823
  atomic energy  EATOM  =      4447.02381356
  Solvation  Ediel_sol  =         0.00000000
  ---------------------------------------------------
  free energy    TOTEN  =       622.96061111 eV

  energy without entropy =      622.96109211  energy(sigma->0) =      622.96085161


--------------------------------------------------------------------------------------------------------




--------------------------------------- Iteration      1(   2)  ---------------------------------------


     EDDAV:  cpu time   49.1949: real time   49.4720
       DOS:  cpu time    0.0007: real time    0.0010
    --------------------------------------------
      LOOP:  cpu time   49.1956: real time   49.4730

 eigenvalue-minimisations  : 12000
 total energy-change (2. order) :-0.6411214E+03  (-0.6154679E+03)
 number of electron     112.0000000 magnetization 
 augmentation part      112.0000000 magnetization 

 Free energy of the ion-electron system (eV)
  ---------------------------------------------------
  alpha Z        PSCENC =       214.75419344
  Ewald energy   TEWEN  =     -3942.89072556
  -Hartree energ DENC   =      -607.68467295
  -exchange      EXHF   =         0.00000000
  -V(xc)+E(xc)   XCENC  =      -103.80388105
  PAW double counting   =      3700.12087125    -3363.34006483
  entropy T*S    EENTRO =        -0.00000000
  eigenvalues    EBANDS =      -362.34034365
  atomic energy  EATOM  =      4447.02381356
  Solvation  Ediel_sol  =         0.00000000
  ---------------------------------------------------
  free energy    TOTEN  =       -18.16080977 eV

  energy without entropy =      -18.16080977  energy(sigma->0) =      -18.16080977


--------------------------------------------------------------------------------------------------------




--------------------------------------- Iteration      1(   3)  ---------------------------------------


     EDDAV:  cpu time   45.2707: real time   45.5412
       DOS:  cpu time    0.0006: real time    0.0006
    --------------------------------------------
      LOOP:  cpu time   45.2713: real time   45.5417

 eigenvalue-minimisations  : 11128
 total energy-change (2. order) :-0.6273144E+02  (-0.6181667E+02)
 number of electron     112.0000000 magnetization 
 augmentation part      112.0000000 magnetization 

 Free energy of the ion-electron system (eV)
  ---------------------------------------------------
  alpha Z        PSCENC =       214.75419344
  Ewald energy   TEWEN  =     -3942.89072556
  -Hartree energ DENC   =      -607.68467295
  -exchange      EXHF   =         0.00000000
  -V(xc)+E(xc)   XCENC  =      -103.80388105
  PAW double counting   =      3700.12087125    -3363.34006483
  entropy T*S    EENTRO =        -0.00000000
  eigenvalues    EBANDS =      -425.07178675
  atomic energy  EATOM  =      4447.02381356
  Solvation  Ediel_sol  =         0.00000000
  ---------------------------------------------------
  free energy    TOTEN  =       -80.89225287 eV

  energy without entropy =      -80.89225287  energy(sigma->0) =      -80.89225287


--------------------------------------------------------------------------------------------------------




--------------------------------------- Iteration      1(   4)  ---------------------------------------


     EDDAV:  cpu time   51.5877: real time   51.9166
       DOS:  cpu time    0.0010: real time    0.0010
    --------------------------------------------
      LOOP:  cpu time   51.5887: real time   51.9176

 eigenvalue-minimisations  : 12896
 total energy-change (2. order) :-0.1921109E+01  (-0.1902741E+01)
 number of electron     112.0000000 magnetization 
 augmentation part      112.0000000 magnetization 

 Free energy of the ion-electron system (eV)
  ---------------------------------------------------
  alpha Z        PSCENC =       214.75419344
  Ewald energy   TEWEN  =     -3942.89072556
  -Hartree energ DENC   =      -607.68467295
  -exchange      EXHF   =         0.00000000
  -V(xc)+E(xc)   XCENC  =      -103.80388105
  PAW double counting   =      3700.12087125    -3363.34006483
  entropy T*S    EENTRO =        -0.00000000
  eigenvalues    EBANDS =      -426.99289621
  atomic energy  EATOM  =      4447.02381356
  Solvation  Ediel_sol  =         0.00000000
  ---------------------------------------------------
  free energy    TOTEN  =       -82.81336234 eV

  energy without entropy =      -82.81336234  energy(sigma->0) =      -82.81336234


--------------------------------------------------------------------------------------------------------




--------------------------------------- Iteration      1(   5)  ---------------------------------------


     EDDAV:  cpu time   48.2186: real time   48.5162
       DOS:  cpu time    0.0010: real time    0.0012
    CHARGE:  cpu time    2.4264: real time    2.4407
    MIXING:  cpu time    0.0066: real time    0.0066
    --------------------------------------------
      LOOP:  cpu time   50.6527: real time   50.9648

 eigenvalue-minimisations  : 11456
 total energy-change (2. order) :-0.4162371E-01  (-0.4154124E-01)
 number of electron     112.0000004 magnetization 
 augmentation part      -20.3243467 magnetization 

 Broyden mixing:
  rms(total) = 0.14178E+01    rms(broyden)= 0.14178E+01
  rms(prec ) = 0.15219E+01
  weight for this iteration     100.00

 Free energy of the ion-electron system (eV)
  ---------------------------------------------------
  alpha Z        PSCENC =       214.75419344
  Ewald energy   TEWEN  =     -3942.89072556
  -Hartree energ DENC   =      -607.68467295
  -exchange      EXHF   =         0.00000000
  -V(xc)+E(xc)   XCENC  =      -103.80388105
  PAW double counting   =      3700.12087125    -3363.34006483
  entropy T*S    EENTRO =        -0.00000000
  eigenvalues    EBANDS =      -427.03451993
  atomic energy  EATOM  =      4447.02381356
  Solvation  Ediel_sol  =         0.00000000
  ---------------------------------------------------
  free energy    TOTEN  =       -82.85498605 eV

  energy without entropy =      -82.85498605  energy(sigma->0) =      -82.85498605


--------------------------------------------------------------------------------------------------------




--------------------------------------- Iteration      1(   6)  ---------------------------------------


    POTLOK:  cpu time    0.1974: real time    0.1990
    SETDIJ:  cpu time    0.0115: real time    0.0115
     EDDAV:  cpu time   47.9116: real time   48.2039
       DOS:  cpu time    0.0091: real time    0.0094
    CHARGE:  cpu time    2.2740: real time    2.2842
    MIXING:  cpu time    0.0068: real time    0.0067
    --------------------------------------------
      LOOP:  cpu time   50.4104: real time   50.7148

 eigenvalue-minimisations  : 11712
 total energy-change (2. order) : 0.1142565E+01  (-0.2144636E+00)
 number of electron     112.0000004 magnetization 
 augmentation part      -20.2278131 magnetization 

 Broyden mixing:
  rms(total) = 0.90997E+00    rms(broyden)= 0.90997E+00
  rms(prec ) = 0.93988E+00
  weight for this iteration     100.00

 eigenvalues of (default mixing * dielectric matrix)
  average eigenvalue GAMMA=   2.3798
  2.3798

 Free energy of the ion-electron system (eV)
  ---------------------------------------------------
  alpha Z        PSCENC =       214.75419344
  Ewald energy   TEWEN  =     -3942.89072556
  -Hartree energ DENC   =      -618.03790865
  -exchange      EXHF   =         0.00000000
  -V(xc)+E(xc)   XCENC  =      -102.39495978
  PAW double counting   =      4452.47317319    -4116.49119391
  entropy T*S    EENTRO =        -0.00000000
  eigenvalues    EBANDS =      -416.14881384
  atomic energy  EATOM  =      4447.02381356
  Solvation  Ediel_sol  =         0.00000000
  ---------------------------------------------------
  free energy    TOTEN  =       -81.71242155 eV

  energy without entropy =      -81.71242155  energy(sigma->0) =      -81.71242155


--------------------------------------------------------------------------------------------------------




--------------------------------------- Iteration      1(   7)  ---------------------------------------


    POTLOK:  cpu time    0.2088: real time    0.2110
    SETDIJ:  cpu time    0.0112: real time    0.0112
     EDDAV:  cpu time   45.1619: real time   45.4027
       DOS:  cpu time    0.0007: real time    0.0009
    CHARGE:  cpu time    2.2329: real time    2.2464
    MIXING:  cpu time    0.0056: real time    0.0056
    --------------------------------------------
      LOOP:  cpu time   47.6212: real time   47.8778

 eigenvalue-minimisations  : 10952
 total energy-change (2. order) : 0.9924579E-01  (-0.1044747E+00)
 number of electron     112.0000005 magnetization 
 augmentation part      -20.1695080 magnetization 

 Broyden mixing:
  rms(total) = 0.17193E+00    rms(broyden)= 0.17193E+00
  rms(prec ) = 0.18495E+00
  weight for this iteration     100.00

 eigenvalues of (default mixing * dielectric matrix)
  average eigenvalue GAMMA=   1.6479
  1.0223  2.2734

 Free energy of the ion-electron system (eV)
  ---------------------------------------------------
  alpha Z        PSCENC =       214.75419344
  Ewald energy   TEWEN  =     -3942.89072556
  -Hartree energ DENC   =      -627.01039239
  -exchange      EXHF   =         0.00000000
  -V(xc)+E(xc)   XCENC  =      -100.92083614
  PAW double counting   =      5519.46988685    -5184.22011821
  entropy T*S    EENTRO =        -0.00000000
  eigenvalues    EBANDS =      -407.81899731
  atomic energy  EATOM  =      4447.02381356
  Solvation  Ediel_sol  =         0.00000000
  ---------------------------------------------------
  free energy    TOTEN  =       -81.61317575 eV

  energy without entropy =      -81.61317575  energy(sigma->0) =      -81.61317575


--------------------------------------------------------------------------------------------------------




--------------------------------------- Iteration      1(   8)  ---------------------------------------


    POTLOK:  cpu time    0.1692: real time    0.1702
    SETDIJ:  cpu time    0.0114: real time    0.0114
     EDDAV:  cpu time   49.8364: real time   50.0967
       DOS:  cpu time    0.0011: real time    0.0013
    CHARGE:  cpu time    2.3295: real time    2.3408
    MIXING:  cpu time    0.0168: real time    0.0168
    --------------------------------------------
      LOOP:  cpu time   52.3645: real time   52.6373

 eigenvalue-minimisations  : 12360
 total energy-change (2. order) : 0.7487136E-02  (-0.5895071E-02)
 number of electron     112.0000004 magnetization 
 augmentation part      -20.1784152 magnetization 

 Broyden mixing:
  rms(total) = 0.52964E-01    rms(broyden)= 0.52964E-01
  rms(prec ) = 0.58657E-01
  weight for this iteration     100.00

 eigenvalues of (default mixing * dielectric matrix)
  average eigenvalue GAMMA=   1.5619
  2.3578  1.0729  1.2550

 Free energy of the ion-electron system (eV)
  ---------------------------------------------------
  alpha Z        PSCENC =       214.75419344
  Ewald energy   TEWEN  =     -3942.89072556
  -Hartree energ DENC   =      -627.65334294
  -exchange      EXHF   =         0.00000000
  -V(xc)+E(xc)   XCENC  =      -100.68655982
  PAW double counting   =      5737.96818272    -5402.84758240
  entropy T*S    EENTRO =        -0.00000000
  eigenvalues    EBANDS =      -407.27366762
  atomic energy  EATOM  =      4447.02381356
  Solvation  Ediel_sol  =         0.00000000
  ---------------------------------------------------
  free energy    TOTEN  =       -81.60568862 eV

  energy without entropy =      -81.60568862  energy(sigma->0) =      -81.60568862


--------------------------------------------------------------------------------------------------------




--------------------------------------- Iteration      1(   9)  ---------------------------------------


    POTLOK:  cpu time    0.1848: real time    0.1867
    SETDIJ:  cpu time    0.0151: real time    0.0151
     EDDAV:  cpu time   46.6952: real time   46.9673
       DOS:  cpu time    0.0006: real time    0.0006
    CHARGE:  cpu time    2.4343: real time    2.4506
    MIXING:  cpu time    0.0058: real time    0.0058
    --------------------------------------------
      LOOP:  cpu time   49.3359: real time   49.6261

 eigenvalue-minimisations  : 11128
 total energy-change (2. order) :-0.1382855E-02  (-0.1321205E-02)
 number of electron     112.0000004 magnetization 
 augmentation part      -20.1819643 magnetization 

 Broyden mixing:
  rms(total) = 0.16375E-01    rms(broyden)= 0.16375E-01
  rms(prec ) = 0.19109E-01
  weight for this iteration     100.00

 eigenvalues of (default mixing * dielectric matrix)
  average eigenvalue GAMMA=   1.5232
  2.3704  1.0020  1.4893  1.2310

 Free energy of the ion-electron system (eV)
  ---------------------------------------------------
  alpha Z        PSCENC =       214.75419344
  Ewald energy   TEWEN  =     -3942.89072556
  -Hartree energ DENC   =      -628.05801698
  -exchange      EXHF   =         0.00000000
  -V(xc)+E(xc)   XCENC  =      -100.58279733
  PAW double counting   =      5801.16023647    -5466.09233834
  entropy T*S    EENTRO =        -0.00000000
  eigenvalues    EBANDS =      -406.92143674
  atomic energy  EATOM  =      4447.02381356
  Solvation  Ediel_sol  =         0.00000000
  ---------------------------------------------------
  free energy    TOTEN  =       -81.60707147 eV

  energy without entropy =      -81.60707147  energy(sigma->0) =      -81.60707147


--------------------------------------------------------------------------------------------------------




--------------------------------------- Iteration      1(  10)  ---------------------------------------


    POTLOK:  cpu time    0.1639: real time    0.1656
    SETDIJ:  cpu time    0.0146: real time    0.0146
     EDDAV:  cpu time   49.8374: real time   50.1589
       DOS:  cpu time    0.0009: real time    0.0011
    CHARGE:  cpu time    2.4759: real time    2.4891
    MIXING:  cpu time    0.0059: real time    0.0059
    --------------------------------------------
      LOOP:  cpu time   52.4986: real time   52.8351

 eigenvalue-minimisations  : 12352
 total energy-change (2. order) :-0.3705045E-03  (-0.1276180E-03)
 number of electron     112.0000004 magnetization 
 augmentation part      -20.1818869 magnetization 

 Broyden mixing:
  rms(total) = 0.73240E-02    rms(broyden)= 0.73240E-02
  rms(prec ) = 0.83750E-02
  weight for this iteration     100.00

 eigenvalues of (default mixing * dielectric matrix)
  average eigenvalue GAMMA=   1.6114
  2.3619  2.3619  0.9925  1.1704  1.1704

 Free energy of the ion-electron system (eV)
  ---------------------------------------------------
  alpha Z        PSCENC =       214.75419344
  Ewald energy   TEWEN  =     -3942.89072556
  -Hartree energ DENC   =      -628.23743750
  -exchange      EXHF   =         0.00000000
  -V(xc)+E(xc)   XCENC  =      -100.55376279
  PAW double counting   =      5800.20430535    -5465.14077691
  entropy T*S    EENTRO =        -0.00000000
  eigenvalues    EBANDS =      -406.76705156
  atomic energy  EATOM  =      4447.02381356
  Solvation  Ediel_sol  =         0.00000000
  ---------------------------------------------------
  free energy    TOTEN  =       -81.60744198 eV

  energy without entropy =      -81.60744198  energy(sigma->0) =      -81.60744198


--------------------------------------------------------------------------------------------------------




--------------------------------------- Iteration      1(  11)  ---------------------------------------


    POTLOK:  cpu time    0.2207: real time    0.2214
    SETDIJ:  cpu time    0.0124: real time    0.0124
     EDDAV:  cpu time   45.4218: real time   45.7946
       DOS:  cpu time    0.0007: real time    0.0009
    CHARGE:  cpu time    2.2752: real time    2.2772
    MIXING:  cpu time    0.0062: real time    0.0062
    --------------------------------------------
      LOOP:  cpu time   47.9369: real time   48.3128

 eigenvalue-minimisations  : 10936
 total energy-change (2. order) :-0.2037914E-03  (-0.2995179E-04)
 number of electron     112.0000004 magnetization 
 augmentation part      -20.1822293 magnetization 

 Broyden mixing:
  rms(total) = 0.26971E-02    rms(broyden)= 0.26971E-02
  rms(prec ) = 0.31202E-02
  weight for this iteration     100.00

 eigenvalues of (default mixing * dielectric matrix)
  average eigenvalue GAMMA=   1.6064
  2.4528  2.4528  0.9235  1.2986  1.2555  1.2555

 Free energy of the ion-electron system (eV)
  ---------------------------------------------------
  alpha Z        PSCENC =       214.75419344
  Ewald energy   TEWEN  =     -3942.89072556
  -Hartree energ DENC   =      -628.31915408
  -exchange      EXHF   =         0.00000000
  -V(xc)+E(xc)   XCENC  =      -100.53908475
  PAW double counting   =      5796.17379709    -5461.10973688
  entropy T*S    EENTRO =        -0.00000000
  eigenvalues    EBANDS =      -406.70074858
  atomic energy  EATOM  =      4447.02381356
  Solvation  Ediel_sol  =         0.00000000
  ---------------------------------------------------
  free energy    TOTEN  =       -81.60764577 eV

  energy without entropy =      -81.60764577  energy(sigma->0) =      -81.60764577


--------------------------------------------------------------------------------------------------------




--------------------------------------- Iteration      1(  12)  ---------------------------------------


    POTLOK:  cpu time    0.1990: real time    0.2008
    SETDIJ:  cpu time    0.0117: real time    0.0117
     EDDAV:  cpu time   46.8630: real time   47.1511
       DOS:  cpu time    0.0006: real time    0.0006
    CHARGE:  cpu time    2.2308: real time    2.2420
    MIXING:  cpu time    0.0087: real time    0.0087
    --------------------------------------------
      LOOP:  cpu time   49.3138: real time   49.6148

 eigenvalue-minimisations  : 11456
 total energy-change (2. order) :-0.3053307E-04  (-0.5203481E-05)
 number of electron     112.0000004 magnetization 
 augmentation part      -20.1823300 magnetization 

 Broyden mixing:
  rms(total) = 0.15626E-02    rms(broyden)= 0.15626E-02
  rms(prec ) = 0.16996E-02
  weight for this iteration     100.00

 eigenvalues of (default mixing * dielectric matrix)
  average eigenvalue GAMMA=   1.5867
  2.6976  2.4696  1.5029  1.2170  1.0364  1.0916  1.0916

 Free energy of the ion-electron system (eV)
  ---------------------------------------------------
  alpha Z        PSCENC =       214.75419344
  Ewald energy   TEWEN  =     -3942.89072556
  -Hartree energ DENC   =      -628.36885422
  -exchange      EXHF   =         0.00000000
  -V(xc)+E(xc)   XCENC  =      -100.53172475
  PAW double counting   =      5796.36906518    -5461.30595622
  entropy T*S    EENTRO =        -0.00000000
  eigenvalues    EBANDS =      -406.65748773
  atomic energy  EATOM  =      4447.02381356
  Solvation  Ediel_sol  =         0.00000000
  ---------------------------------------------------
  free energy    TOTEN  =       -81.60767630 eV

  energy without entropy =      -81.60767630  energy(sigma->0) =      -81.60767630


--------------------------------------------------------------------------------------------------------




--------------------------------------- Iteration      1(  13)  ---------------------------------------


    POTLOK:  cpu time    0.1631: real time    0.1649
    SETDIJ:  cpu time    0.0117: real time    0.0117
     EDDAV:  cpu time   46.9838: real time   47.2211
       DOS:  cpu time    0.0006: real time    0.0006
    CHARGE:  cpu time    2.3574: real time    2.3666
    MIXING:  cpu time    0.0061: real time    0.0061
    --------------------------------------------
      LOOP:  cpu time   49.5228: real time   49.7710

 eigenvalue-minimisations  : 11216
 total energy-change (2. order) :-0.4746054E-05  (-0.7862830E-06)
 number of electron     112.0000004 magnetization 
 augmentation part      -20.1822327 magnetization 

 Broyden mixing:
  rms(total) = 0.60553E-03    rms(broyden)= 0.60553E-03
  rms(prec ) = 0.66077E-03
  weight for this iteration     100.00

 eigenvalues of (default mixing * dielectric matrix)
  average eigenvalue GAMMA=   1.6133
  2.9002  2.4254  1.9063  1.2929  0.9362  1.0252  1.2103  1.2103

 Free energy of the ion-electron system (eV)
  ---------------------------------------------------
  alpha Z        PSCENC =       214.75419344
  Ewald energy   TEWEN  =     -3942.89072556
  -Hartree energ DENC   =      -628.39405783
  -exchange      EXHF   =         0.00000000
  -V(xc)+E(xc)   XCENC  =      -100.52938472
  PAW double counting   =      5795.17713376    -5460.11328197
  entropy T*S    EENTRO =        -0.00000000
  eigenvalues    EBANDS =      -406.63537173
  atomic energy  EATOM  =      4447.02381356
  Solvation  Ediel_sol  =         0.00000000
  ---------------------------------------------------
  free energy    TOTEN  =       -81.60768105 eV

  energy without entropy =      -81.60768105  energy(sigma->0) =      -81.60768105


--------------------------------------------------------------------------------------------------------




--------------------------------------- Iteration      1(  14)  ---------------------------------------


    POTLOK:  cpu time    0.1829: real time    0.1846
    SETDIJ:  cpu time    0.0185: real time    0.0185
     EDDAV:  cpu time   50.4459: real time   50.7374
       DOS:  cpu time    0.0007: real time    0.0009
    CHARGE:  cpu time    2.4494: real time    2.4567
    MIXING:  cpu time    0.0118: real time    0.0118
    --------------------------------------------
      LOOP:  cpu time   53.1092: real time   53.4098

 eigenvalue-minimisations  : 12376
 total energy-change (2. order) :-0.9203859E-06  (-0.1744440E-06)
 number of electron     112.0000004 magnetization 
 augmentation part      -20.1821602 magnetization 

 Broyden mixing:
  rms(total) = 0.17098E-03    rms(broyden)= 0.17098E-03
  rms(prec ) = 0.19375E-03
  weight for this iteration     100.00

 eigenvalues of (default mixing * dielectric matrix)
  average eigenvalue GAMMA=   1.5953
  2.9107  2.3137  2.3137  1.2382  1.2382  0.9372  1.1875  1.1093  1.1093

 Free energy of the ion-electron system (eV)
  ---------------------------------------------------
  alpha Z        PSCENC =       214.75419344
  Ewald energy   TEWEN  =     -3942.89072556
  -Hartree energ DENC   =      -628.40507017
  -exchange      EXHF   =         0.00000000
  -V(xc)+E(xc)   XCENC  =      -100.52846144
  PAW double counting   =      5794.93385123    -5459.86966132
  entropy T*S    EENTRO =        -0.00000000
  eigenvalues    EBANDS =      -406.62562171
  atomic energy  EATOM  =      4447.02381356
  Solvation  Ediel_sol  =         0.00000000
  ---------------------------------------------------
  free energy    TOTEN  =       -81.60768197 eV

  energy without entropy =      -81.60768197  energy(sigma->0) =      -81.60768197


--------------------------------------------------------------------------------------------------------




--------------------------------------- Iteration      1(  15)  ---------------------------------------


    POTLOK:  cpu time    0.1920: real time    0.1941
    SETDIJ:  cpu time    0.0112: real time    0.0112
     EDDAV:  cpu time   46.1618: real time   46.4078
       DOS:  cpu time    0.0006: real time    0.0006
    CHARGE:  cpu time    2.2601: real time    2.2994
    MIXING:  cpu time    0.0083: real time    0.0083
    --------------------------------------------
      LOOP:  cpu time   48.6339: real time   48.9213

 eigenvalue-minimisations  : 11312
 total energy-change (2. order) :-0.2617217E-06  (-0.1823747E-07)
 number of electron     112.0000004 magnetization 
 augmentation part      -20.1821360 magnetization 

 Broyden mixing:
  rms(total) = 0.69418E-04    rms(broyden)= 0.69418E-04
  rms(prec ) = 0.83709E-04
  weight for this iteration     100.00

 eigenvalues of (default mixing * dielectric matrix)
  average eigenvalue GAMMA=   1.6063
  2.9767  2.4809  2.1881  1.6631  1.2395  1.2395  1.1886  1.1886  0.9492  0.9492

 Free energy of the ion-electron system (eV)
  ---------------------------------------------------
  alpha Z        PSCENC =       214.75419344
  Ewald energy   TEWEN  =     -3942.89072556
  -Hartree energ DENC   =      -628.40787179
  -exchange      EXHF   =         0.00000000
  -V(xc)+E(xc)   XCENC  =      -100.52827194
  PAW double counting   =      5794.96216037    -5459.89786045
  entropy T*S    EENTRO =        -0.00000000
  eigenvalues    EBANDS =      -406.62311986
  atomic energy  EATOM  =      4447.02381356
  Solvation  Ediel_sol  =         0.00000000
  ---------------------------------------------------
  free energy    TOTEN  =       -81.60768223 eV

  energy without entropy =      -81.60768223  energy(sigma->0) =      -81.60768223


--------------------------------------------------------------------------------------------------------




--------------------------------------- Iteration      1(  16)  ---------------------------------------


[...]
     -2.043296  9.087389  7.221334     0.282237   -0.008884   -0.042045  
     -0.055880  3.899029 10.859107     0.282237    0.008884   -0.042045  
     -0.100621  4.154660  4.148573    -0.295001    0.022099   -0.064010  
      2.394685  9.343020  1.878240    -0.295001   -0.022099   -0.064010  
      0.198065  6.222061  7.905054     0.295001   -0.022099    0.064010  
     -2.297241  1.033701 10.175387     0.295001    0.022099    0.064010  
      1.938444  3.046456  1.441247    -0.005985    0.041682    0.104922  
      0.355620  8.234816  4.585567    -0.005985   -0.041682    0.104922  
     -1.841000  7.330265 10.612381     0.005985   -0.041682   -0.104922  
     -0.258176  2.141905  7.468061     0.005985    0.041682   -0.104922  
 
  51 f  =    1.112095 THz     6.987497 2PiTHz   37.095484 cm-1     4.599255 meV
             X         Y         Z           dx          dy          dz
      0.550963  2.048188  3.174590     0.053594   -0.233807    0.059806  
      1.743101  7.236549  2.852224    -0.053594   -0.233807   -0.059806  
     -0.453519  8.328533  8.879038    -0.053594    0.233807   -0.059806  
     -1.645657  3.140172  9.201404     0.053594    0.233807    0.059806  
     -1.641616  3.340270  5.845243    -0.042418   -0.180422    0.031306  
      3.935680  8.528631  0.181571     0.042418   -0.180422   -0.031306  
      1.739060  7.036451  6.208384     0.042418    0.180422   -0.031306  
     -3.838236  1.848090 11.872057    -0.042418    0.180422    0.031306  
      2.140740  1.289332  4.832294     0.059816   -0.235443    0.054506  
      0.153324  6.477692  1.194520    -0.059816   -0.235443   -0.054506  
     -2.043296  9.087389  7.221334    -0.059816    0.235443   -0.054506  
     -0.055880  3.899029 10.859107     0.059816    0.235443    0.054506  
     -0.100621  4.154660  4.148573    -0.011457   -0.255347    0.043308  
      2.394685  9.343020  1.878240     0.011457   -0.255347   -0.043308  
      0.198065  6.222061  7.905054     0.011457    0.255347   -0.043308  
     -2.297241  1.033701 10.175387    -0.011457    0.255347    0.043308  
      1.938444  3.046456  1.441247     0.018611   -0.048706    0.147119  
      0.355620  8.234816  4.585567    -0.018611   -0.048706   -0.147119  
     -1.841000  7.330265 10.612381    -0.018611    0.048706   -0.147119  
     -0.258176  2.141905  7.468061     0.018611    0.048706    0.147119  
 
  52 f  =    1.062010 THz     6.672803 2PiTHz   35.424824 cm-1     4.392120 meV
             X         Y         Z           dx          dy          dz
      0.550963  2.048188  3.174590     0.021492    0.224600    0.013409  
      1.743101  7.236549  2.852224     0.021492   -0.224600    0.013409  
     -0.453519  8.328533  8.879038    -0.021492   -0.224600   -0.013409  
     -1.645657  3.140172  9.201404    -0.021492    0.224600   -0.013409  
     -1.641616  3.340270  5.845243     0.019634    0.218107    0.017058  
      3.935680  8.528631  0.181571     0.019634   -0.218107    0.017058  
      1.739060  7.036451  6.208384    -0.019634   -0.218107   -0.017058  
     -3.838236  1.848090 11.872057    -0.019634    0.218107   -0.017058  
      2.140740  1.289332  4.832294     0.020709    0.225350    0.013392  
      0.153324  6.477692  1.194520     0.020709   -0.225350    0.013392  
     -2.043296  9.087389  7.221334    -0.020709   -0.225350   -0.013392  
     -0.055880  3.899029 10.859107    -0.020709    0.225350   -0.013392  
     -0.100621  4.154660  4.148573     0.028208    0.231628    0.017413  
      2.394685  9.343020  1.878240     0.028208   -0.231628    0.017413  
      0.198065  6.222061  7.905054    -0.028208   -0.231628   -0.017413  
     -2.297241  1.033701 10.175387    -0.028208    0.231628   -0.017413  
      1.938444  3.046456  1.441247     0.002239    0.210697   -0.011243  
      0.355620  8.234816  4.585567     0.002239   -0.210697   -0.011243  
     -1.841000  7.330265 10.612381    -0.002239   -0.210697    0.011243  
     -0.258176  2.141905  7.468061    -0.002239    0.210697    0.011243  
 
  53 f  =    1.045772 THz     6.570780 2PiTHz   34.883200 cm-1     4.324967 meV
             X         Y         Z           dx          dy          dz
      0.550963  2.048188  3.174590    -0.164540    0.015812   -0.040567  
      1.743101  7.236549  2.852224     0.164540    0.015812    0.040567  
     -0.453519  8.328533  8.879038    -0.164540    0.015812   -0.040567  
     -1.645657  3.140172  9.201404     0.164540    0.015812    0.040567  
     -1.641616  3.340270  5.845243    -0.168508   -0.020469    0.012509  
      3.935680  8.528631  0.181571     0.168508   -0.020469   -0.012509  
      1.739060  7.036451  6.208384    -0.168508   -0.020469    0.012509  
     -3.838236  1.848090 11.872057     0.168508   -0.020469   -0.012509  
      2.140740  1.289332  4.832294    -0.281521   -0.013396    0.045588  
      0.153324  6.477692  1.194520     0.281521   -0.013396   -0.045588  
     -2.043296  9.087389  7.221334    -0.281521   -0.013396    0.045588  
     -0.055880  3.899029 10.859107     0.281521   -0.013396   -0.045588  
     -0.100621  4.154660  4.148573    -0.304045    0.002665   -0.081182  
      2.394685  9.343020  1.878240     0.304045    0.002665    0.081182  
      0.198065  6.222061  7.905054    -0.304045    0.002665   -0.081182  
     -2.297241  1.033701 10.175387     0.304045    0.002665    0.081182  
      1.938444  3.046456  1.441247     0.010904    0.015229    0.105626  
      0.355620  8.234816  4.585567    -0.010904    0.015229   -0.105626  
     -1.841000  7.330265 10.612381     0.010904    0.015229    0.105626  
     -0.258176  2.141905  7.468061    -0.010904    0.015229   -0.105626  
 
  54 f  =    0.894759 THz     5.621936 2PiTHz   29.845942 cm-1     3.700427 meV
             X         Y         Z           dx          dy          dz
      0.550963  2.048188  3.174590    -0.018039    0.068150   -0.187292  
      1.743101  7.236549  2.852224     0.018039    0.068150    0.187292  
     -0.453519  8.328533  8.879038     0.018039   -0.068150    0.187292  
     -1.645657  3.140172  9.201404    -0.018039   -0.068150   -0.187292  
     -1.641616  3.340270  5.845243    -0.060292   -0.194818   -0.100501  
      3.935680  8.528631  0.181571     0.060292   -0.194818    0.100501  
      1.739060  7.036451  6.208384     0.060292    0.194818    0.100501  
     -3.838236  1.848090 11.872057    -0.060292    0.194818   -0.100501  
      2.140740  1.289332  4.832294    -0.008965   -0.128062   -0.275152  
      0.153324  6.477692  1.194520     0.008965   -0.128062    0.275152  
     -2.043296  9.087389  7.221334     0.008965    0.128062    0.275152  
     -0.055880  3.899029 10.859107    -0.008965    0.128062   -0.275152  
     -0.100621  4.154660  4.148573    -0.024107   -0.032563    0.014064  
      2.394685  9.343020  1.878240     0.024107   -0.032563   -0.014064  
      0.198065  6.222061  7.905054     0.024107    0.032563   -0.014064  
     -2.297241  1.033701 10.175387    -0.024107    0.032563    0.014064  
      1.938444  3.046456  1.441247    -0.054424    0.211283   -0.128964  
      0.355620  8.234816  4.585567     0.054424    0.211283    0.128964  
     -1.841000  7.330265 10.612381     0.054424   -0.211283    0.128964  
     -0.258176  2.141905  7.468061    -0.054424   -0.211283   -0.128964  
 
  55 f  =    0.515026 THz     3.236003 2PiTHz   17.179411 cm-1     2.129976 meV
             X         Y         Z           dx          dy          dz
      0.550963  2.048188  3.174590    -0.002485    0.170612   -0.061172  
      1.743101  7.236549  2.852224    -0.002485   -0.170612   -0.061172  
     -0.453519  8.328533  8.879038    -0.002485    0.170612   -0.061172  
     -1.645657  3.140172  9.201404    -0.002485   -0.170612   -0.061172  
     -1.641616  3.340270  5.845243    -0.008642   -0.181100    0.064534  
      3.935680  8.528631  0.181571    -0.008642    0.181100    0.064534  
      1.739060  7.036451  6.208384    -0.008642   -0.181100    0.064534  
     -3.838236  1.848090 11.872057    -0.008642    0.181100    0.064534  
      2.140740  1.289332  4.832294     0.023141   -0.061843   -0.193188  
      0.153324  6.477692  1.194520     0.023141    0.061843   -0.193188  
     -2.043296  9.087389  7.221334     0.023141   -0.061843   -0.193188  
     -0.055880  3.899029 10.859107     0.023141    0.061843   -0.193188  
     -0.100621  4.154660  4.148573     0.023862    0.055765    0.198188  
      2.394685  9.343020  1.878240     0.023862   -0.055765    0.198188  
      0.198065  6.222061  7.905054     0.023862    0.055765    0.198188  
     -2.297241  1.033701 10.175387     0.023862   -0.055765    0.198188  
      1.938444  3.046456  1.441247    -0.037117    0.306648   -0.007553  
      0.355620  8.234816  4.585567    -0.037117   -0.306648   -0.007553  
     -1.841000  7.330265 10.612381    -0.037117    0.306648   -0.007553  
     -0.258176  2.141905  7.468061    -0.037117   -0.306648   -0.007553  
 
  56 f  =    0.484010 THz     3.041121 2PiTHz   16.144819 cm-1     2.001703 meV
             X         Y         Z           dx          dy          dz
      0.550963  2.048188  3.174590    -0.082083    0.137533    0.127602  
      1.743101  7.236549  2.852224     0.082083    0.137533   -0.127602  
     -0.453519  8.328533  8.879038     0.082083   -0.137533   -0.127602  
     -1.645657  3.140172  9.201404    -0.082083   -0.137533    0.127602  
     -1.641616  3.340270  5.845243    -0.063833   -0.079962    0.195920  
      3.935680  8.528631  0.181571     0.063833   -0.079962   -0.195920  
      1.739060  7.036451  6.208384     0.063833    0.079962   -0.195920  
     -3.838236  1.848090 11.872057    -0.063833    0.079962    0.195920  
      2.140740  1.289332  4.832294    -0.066920   -0.005631    0.050080  
      0.153324  6.477692  1.194520     0.066920   -0.005631   -0.050080  
     -2.043296  9.087389  7.221334     0.066920    0.005631   -0.050080  
     -0.055880  3.899029 10.859107    -0.066920    0.005631    0.050080  
     -0.100621  4.154660  4.148573    -0.049047    0.075429    0.283936  
      2.394685  9.343020  1.878240     0.049047    0.075429   -0.283936  
      0.198065  6.222061  7.905054     0.049047   -0.075429   -0.283936  
     -2.297241  1.033701 10.175387    -0.049047   -0.075429    0.283936  
      1.938444  3.046456  1.441247    -0.092180    0.178296    0.152289  
      0.355620  8.234816  4.585567     0.092180    0.178296   -0.152289  
     -1.841000  7.330265 10.612381     0.092180   -0.178296   -0.152289  
     -0.258176  2.141905  7.468061    -0.092180   -0.178296    0.152289  
 
  57 f  =    0.277425 THz     1.743113 2PiTHz    9.253903 cm-1     1.147338 meV
             X         Y         Z           dx          dy          dz
      0.550963  2.048188  3.174590     0.205739    0.070699    0.011568  
      1.743101  7.236549  2.852224    -0.205739    0.070699   -0.011568  
     -0.453519  8.328533  8.879038    -0.205739   -0.070699   -0.011568  
     -1.645657  3.140172  9.201404     0.205739   -0.070699    0.011568  
     -1.641616  3.340270  5.845243     0.196060   -0.037705    0.052577  
      3.935680  8.528631  0.181571    -0.196060   -0.037705   -0.052577  
      1.739060  7.036451  6.208384    -0.196060    0.037705   -0.052577  
     -3.838236  1.848090 11.872057     0.196060    0.037705    0.052577  
      2.140740  1.289332  4.832294     0.226894    0.001511   -0.036442  
      0.153324  6.477692  1.194520    -0.226894    0.001511    0.036442  
     -2.043296  9.087389  7.221334    -0.226894   -0.001511    0.036442  
     -0.055880  3.899029 10.859107     0.226894   -0.001511   -0.036442  
     -0.100621  4.154660  4.148573     0.222345    0.036588    0.098827  
      2.394685  9.343020  1.878240    -0.222345    0.036588   -0.098827  
      0.198065  6.222061  7.905054    -0.222345   -0.036588   -0.098827  
     -2.297241  1.033701 10.175387     0.222345   -0.036588    0.098827  
      1.938444  3.046456  1.441247     0.191932    0.097426    0.015176  
      0.355620  8.234816  4.585567    -0.191932    0.097426   -0.015176  
     -1.841000  7.330265 10.612381    -0.191932   -0.097426   -0.015176  
     -0.258176  2.141905  7.468061     0.191932   -0.097426    0.015176  
 
  58 f/i=    0.000490 THz     0.003077 2PiTHz    0.016335 cm-1     0.002025 meV
             X         Y         Z           dx          dy          dz
      0.550963  2.048188  3.174590    -0.000007    0.220101    0.000010  
      1.743101  7.236549  2.852224     0.000007    0.220101   -0.000010  
     -0.453519  8.328533  8.879038    -0.000007    0.220101    0.000010  
     -1.645657  3.140172  9.201404     0.000007    0.220101   -0.000010  
     -1.641616  3.340270  5.845243     0.000026    0.220073    0.000029  
      3.935680  8.528631  0.181571    -0.000026    0.220073   -0.000029  
      1.739060  7.036451  6.208384     0.000026    0.220073    0.000029  
     -3.838236  1.848090 11.872057    -0.000026    0.220073   -0.000029  
      2.140740  1.289332  4.832294    -0.000034    0.225957    0.000038  
      0.153324  6.477692  1.194520     0.000034    0.225957   -0.000038  
     -2.043296  9.087389  7.221334    -0.000034    0.225957    0.000038  
     -0.055880  3.899029 10.859107     0.000034    0.225957   -0.000038  
     -0.100621  4.154660  4.148573    -0.000012    0.225944    0.000015  
      2.394685  9.343020  1.878240     0.000012    0.225944   -0.000015  
      0.198065  6.222061  7.905054    -0.000012    0.225944    0.000015  
     -2.297241  1.033701 10.175387     0.000012    0.225944   -0.000015  
      1.938444  3.046456  1.441247     0.000014    0.225868   -0.000009  
      0.355620  8.234816  4.585567    -0.000014    0.225868    0.000009  
     -1.841000  7.330265 10.612381     0.000014    0.225868   -0.000009  
     -0.258176  2.141905  7.468061    -0.000014    0.225868    0.000009  
 
  59 f/i=    0.000647 THz     0.004065 2PiTHz    0.021581 cm-1     0.002676 meV
             X         Y         Z           dx          dy          dz
      0.550963  2.048188  3.174590     0.219850    0.000151   -0.010112  
      1.743101  7.236549  2.852224     0.219850   -0.000151   -0.010112  
     -0.453519  8.328533  8.879038     0.219850    0.000151   -0.010112  
     -1.645657  3.140172  9.201404     0.219850   -0.000151   -0.010112  
     -1.641616  3.340270  5.845243     0.219868   -0.000138   -0.009964  
      3.935680  8.528631  0.181571     0.219868    0.000138   -0.009964  
      1.739060  7.036451  6.208384     0.219868   -0.000138   -0.009964  
     -3.838236  1.848090 11.872057     0.219868    0.000138   -0.009964  
      2.140740  1.289332  4.832294     0.225677   -0.000030   -0.010451  
      0.153324  6.477692  1.194520     0.225677    0.000030   -0.010451  
     -2.043296  9.087389  7.221334     0.225677   -0.000030   -0.010451  
     -0.055880  3.899029 10.859107     0.225677    0.000030   -0.010451  
     -0.100621  4.154660  4.148573     0.225733    0.000042   -0.010111  
      2.394685  9.343020  1.878240     0.225733   -0.000042   -0.010111  
      0.198065  6.222061  7.905054     0.225733    0.000042   -0.010111  
     -2.297241  1.033701 10.175387     0.225733   -0.000042   -0.010111  
      1.938444  3.046456  1.441247     0.225653    0.000293   -0.010306  
      0.355620  8.234816  4.585567     0.225653   -0.000293   -0.010306  
     -1.841000  7.330265 10.612381     0.225653    0.000293   -0.010306  
     -0.258176  2.141905  7.468061     0.225653   -0.000293   -0.010306  
 
  60 f/i=    0.002026 THz     0.012731 2PiTHz    0.067586 cm-1     0.008380 meV
             X         Y         Z           dx          dy          dz
      0.550963  2.048188  3.174590    -0.009909   -0.000184   -0.219920  
      1.743101  7.236549  2.852224    -0.009909    0.000184   -0.219920  
     -0.453519  8.328533  8.879038    -0.009909   -0.000184   -0.219920  
     -1.645657  3.140172  9.201404    -0.009909    0.000184   -0.219920  
     -1.641616  3.340270  5.845243    -0.010056   -0.000416   -0.219747  
      3.935680  8.528631  0.181571    -0.010056    0.000416   -0.219747  
      1.739060  7.036451  6.208384    -0.010056   -0.000416   -0.219747  
     -3.838236  1.848090 11.872057    -0.010056    0.000416   -0.219747  
      2.140740  1.289332  4.832294    -0.010245   -0.000380   -0.225796  
      0.153324  6.477692  1.194520    -0.010245    0.000380   -0.225796  
     -2.043296  9.087389  7.221334    -0.010245   -0.000380   -0.225796  
     -0.055880  3.899029 10.859107    -0.010245    0.000380   -0.225796  
     -0.100621  4.154660  4.148573    -0.010480   -0.000337   -0.225709  
      2.394685  9.343020  1.878240    -0.010480    0.000337   -0.225709  
      0.198065  6.222061  7.905054    -0.010480   -0.000337   -0.225709  
     -2.297241  1.033701 10.175387    -0.010480    0.000337   -0.225709  
      1.938444  3.046456  1.441247    -0.010252    0.000268   -0.225606  
      0.355620  8.234816  4.585567    -0.010252   -0.000268   -0.225606  
     -1.841000  7.330265 10.612381    -0.010252    0.000268   -0.225606  
     -0.258176  2.141905  7.468061    -0.010252   -0.000268   -0.225606  
 


--------------------------------------------------------------------------------------------------------




 MACROSCOPIC STATIC DIELECTRIC TENSOR IONIC CONTRIBUTION
 ------------------------------------------------------
           3.960357     0.000000    -0.124633
           0.000000     0.299424    -0.000000
          -0.124633    -0.000000     3.019308
 ------------------------------------------------------


 ELASTIC MODULI IONIC CONTR (kBar)
 Direction    XX          YY          ZZ          XY          YZ          ZX
 --------------------------------------------------------------------------------
 XX        -441.4531   -268.0704   -357.7277     -0.0000     -0.0000     -3.7690
 YY        -268.0704   -889.4935   -235.1388     -0.0000     -0.0000     -1.0741
 ZZ        -357.7277   -235.1388   -429.9708      0.0000     -0.0000      3.4485
 XY          -0.0000     -0.0000      0.0000   -311.5111     -9.3387      0.0000
 YZ          -0.0000     -0.0000     -0.0000     -9.3387   -305.8473      0.0000
 ZX          -3.7690     -1.0741      3.4485      0.0000      0.0000   -323.8449
 --------------------------------------------------------------------------------


 PIEZOELECTRIC TENSOR IONIC CONTR  for field in x, y, z        (C/m^2)
          XX          YY          ZZ          XY          YZ          ZX
  --------------------------------------------------------------------------------
  x     0.00001    -0.00012    -0.00000     0.00000    -0.00000    -0.00004
  y    -0.00001    -0.00001    -0.00004    -0.00000     0.00000    -0.00001
  z     0.00004     0.00008    -0.00004    -0.00000    -0.00000    -0.00001


--------------------------------------------------------------------------------------------------------


     LOOP+:  cpu time25947.1950: real time26086.3217
    4ORBIT:  cpu time    0.0000: real time    0.0000

 total amount of memory used by VASP MPI-rank0   427130. kBytes
=======================================================================

   base      :      30000. kBytes
   nonl-proj :     213080. kBytes
   fftplans  :      10520. kBytes
   grid      :      26703. kBytes
   one-center:        162. kBytes
   wavefun   :     146665. kBytes
 
  
  
 General timing and accounting informations for this job:
 ========================================================
  
                  Total CPU time used (sec):    25960.125
                            User time (sec):    25718.543
                          System time (sec):      241.583
                         Elapsed time (sec):    26099.438
  
                   Maximum memory used (kb):     1495144.
                   Average memory used (kb):           0.
  
                          Minor page faults:    102295646
                          Major page faults:           12
                 Voluntary context switches:        15205
