<?xml version="1.0" encoding="ISO-8859-1"?>
<modeling>
 <generator>
  <i name="program" type="string">vasp </i>
  <i name="version" type="string">5.4.4.18Apr17-6-g9f103f2a35  </i>
  <i name="subversion" type="string">(build Aug 24 2017 11:22:49) complex            parallel </i>
  <i name="platform" type="string">LinuxIFC </i>
  <i name="date" type="string">2023 12 25 </i>
  <i name="time" type="string">13:07:14 </i>
 </generator>
 <incar>
  <i type="string" name="PREC">accurate</i>
  <i type="string" name="ALGO"> Normal</i>
  <i type="int" name="NELM">   100</i>
  <i type="int" name="IBRION">     8</i>
  <i name="EDIFF">      0.00000001</i>
  <i name="SYMPREC">      0.00000001</i>
  <i name="ENCUT">    520.00000000</i>
  <i type="logical" name="LREAL"> F  </i>
  <i type="int" name="ISMEAR">     0</i>
  <i name="SIGMA">      0.01000000</i>
  <i type="logical" name="LWAVE"> F  </i>
  <v type="int" name="KPOINT_BSE">    -1     0     0     0</v>
  <i type="int" name="NELM">   100</i>
  <i type="logical" name="LPEAD"> T  </i>
  <i type="logical" name="LEPSILON"> T  </i>
 </incar>
 <structure name="primitive_cell" >
  <crystal>
   <varray name="basis" >
    <v>       4.49068397       0.00000000       0.00000000 </v>
    <v>       0.00000000      10.37672095       0.00000000 </v>
    <v>      -4.39323997       0.00000000      12.05362760 </v>
   </varray>
   <i name="volume">    561.68186284 </i>
   <varray name="rec_basis" >
    <v>       0.22268323       0.00000000       0.08116236 </v>
    <v>       0.00000000       0.09636956       0.00000000 </v>
    <v>       0.00000000       0.00000000       0.08296258 </v>
   </varray>
  </crystal>
  <varray name="positions" >
   <v>       0.38034754       0.19738300       0.26337217 </v>
   <v>       0.31430141       0.40038274       0.34417633 </v>
   <v>      -0.13109283       0.12425234       0.40089952 </v>
   <v>      -0.45136604       0.29358558       0.11956954 </v>
   <v>       0.10885333       0.17809965      -0.01506356 </v>
   <v>       0.10885333       0.32190035       0.48493644 </v>
   <v>      -0.31430141      -0.09961726       0.15582367 </v>
   <v>      -0.45136604       0.20641442      -0.38043046 </v>
   <v>       0.45136604      -0.20641442       0.38043046 </v>
   <v>      -0.13109283       0.37574766      -0.09910048 </v>
   <v>       0.13109283      -0.37574766       0.09910048 </v>
   <v>      -0.10885333      -0.17809965       0.01506356 </v>
   <v>      -0.38034754      -0.30261700       0.23662783 </v>
   <v>       0.31430141       0.09961726      -0.15582367 </v>
   <v>       0.13109283      -0.12425234      -0.40089952 </v>
   <v>      -0.10885333      -0.32190035      -0.48493644 </v>
   <v>      -0.31430141      -0.40038274      -0.34417633 </v>
   <v>       0.38034754       0.30261700      -0.23662783 </v>
   <v>      -0.38034754      -0.19738300      -0.26337217 </v>
   <v>       0.45136604      -0.29358558      -0.11956954 </v>
  </varray>
 </structure>
 <varray name="primitive_index" >
  <v type="int" >        1 </v>
  <v type="int" >       13 </v>
  <v type="int" >        9 </v>
  <v type="int" >       17 </v>
  <v type="int" >        8 </v>
  <v type="int" >        5 </v>
  <v type="int" >       14 </v>
  <v type="int" >       20 </v>
  <v type="int" >       18 </v>
  <v type="int" >       12 </v>
  <v type="int" >       10 </v>
  <v type="int" >        6 </v>
  <v type="int" >        2 </v>
  <v type="int" >       16 </v>
  <v type="int" >       11 </v>
  <v type="int" >        7 </v>
  <v type="int" >       15 </v>
  <v type="int" >        4 </v>
  <v type="int" >        3 </v>
  <v type="int" >       19 </v>
 </varray>
 <kpoints>
  <generation param="Gamma">
   <v type="int" name="divisions">      10        4        4 </v>
   <v name="usershift">      0.00000000       0.00000000       0.00000000 </v>
   <v name="genvec1">      0.10000000       0.00000000      -0.00000000 </v>
   <v name="genvec2">      0.00000000       0.25000000       0.00000000 </v>
   <v name="genvec3">      0.00000000       0.00000000       0.25000000 </v>
   <v name="shift">      0.00000000       0.00000000       0.00000000 </v>
  </generation>
  <varray name="kpointlist" >
   <v>       0.00000000       0.00000000       0.00000000 </v>
   <v>       0.10000000       0.00000000       0.00000000 </v>
   <v>       0.20000000       0.00000000      -0.00000000 </v>
   <v>       0.30000000       0.00000000      -0.00000000 </v>
   <v>       0.40000000       0.00000000      -0.00000000 </v>
   <v>       0.50000000       0.00000000      -0.00000000 </v>
   <v>       0.00000000       0.25000000       0.00000000 </v>
   <v>       0.10000000       0.25000000       0.00000000 </v>
   <v>       0.20000000       0.25000000      -0.00000000 </v>
   <v>       0.30000000       0.25000000      -0.00000000 </v>
   <v>       0.40000000       0.25000000      -0.00000000 </v>
   <v>       0.50000000       0.25000000      -0.00000000 </v>
   <v>       0.00000000       0.50000000       0.00000000 </v>
   <v>       0.10000000       0.50000000       0.00000000 </v>
   <v>       0.20000000       0.50000000      -0.00000000 </v>
   <v>       0.30000000       0.50000000      -0.00000000 </v>
   <v>       0.40000000       0.50000000      -0.00000000 </v>
   <v>       0.50000000       0.50000000      -0.00000000 </v>
   <v>       0.00000000       0.00000000       0.25000000 </v>
   <v>       0.10000000       0.00000000       0.25000000 </v>
   <v>       0.20000000       0.00000000       0.25000000 </v>
   <v>       0.30000000       0.00000000       0.25000000 </v>
   <v>       0.40000000       0.00000000       0.25000000 </v>
   <v>       0.50000000       0.00000000       0.25000000 </v>
   <v>      -0.40000000       0.00000000       0.25000000 </v>
   <v>      -0.30000000       0.00000000       0.25000000 </v>
   <v>      -0.20000000       0.00000000       0.25000000 </v>
   <v>      -0.10000000       0.00000000       0.25000000 </v>
   <v>       0.00000000       0.25000000       0.25000000 </v>
   <v>       0.10000000       0.25000000       0.25000000 </v>
   <v>       0.20000000       0.25000000       0.25000000 </v>
   <v>       0.30000000       0.25000000       0.25000000 </v>
   <v>       0.40000000       0.25000000       0.25000000 </v>
   <v>       0.50000000       0.25000000       0.25000000 </v>
   <v>      -0.40000000       0.25000000       0.25000000 </v>
   <v>      -0.30000000       0.25000000       0.25000000 </v>
   <v>      -0.20000000       0.25000000       0.25000000 </v>
   <v>      -0.10000000       0.25000000       0.25000000 </v>
   <v>       0.00000000       0.50000000       0.25000000 </v>
   <v>       0.10000000       0.50000000       0.25000000 </v>
   <v>       0.20000000       0.50000000       0.25000000 </v>
   <v>       0.30000000       0.50000000       0.25000000 </v>
   <v>       0.40000000       0.50000000       0.25000000 </v>
   <v>       0.50000000       0.50000000       0.25000000 </v>
   <v>      -0.40000000       0.50000000       0.25000000 </v>
   <v>      -0.30000000       0.50000000       0.25000000 </v>
   <v>      -0.20000000       0.50000000       0.25000000 </v>
   <v>      -0.10000000       0.50000000       0.25000000 </v>
   <v>       0.00000000       0.00000000       0.50000000 </v>
   <v>       0.10000000       0.00000000       0.50000000 </v>
   <v>       0.20000000       0.00000000       0.50000000 </v>
   <v>       0.30000000       0.00000000       0.50000000 </v>
   <v>       0.40000000       0.00000000       0.50000000 </v>
   <v>       0.50000000       0.00000000       0.50000000 </v>
   <v>       0.00000000       0.25000000       0.50000000 </v>
   <v>       0.10000000       0.25000000       0.50000000 </v>
   <v>       0.20000000       0.25000000       0.50000000 </v>
   <v>       0.30000000       0.25000000       0.50000000 </v>
   <v>       0.40000000       0.25000000       0.50000000 </v>
   <v>       0.50000000       0.25000000       0.50000000 </v>
   <v>       0.00000000       0.50000000       0.50000000 </v>
   <v>       0.10000000       0.50000000       0.50000000 </v>
   <v>       0.20000000       0.50000000       0.50000000 </v>
   <v>       0.30000000       0.50000000       0.50000000 </v>
   <v>       0.40000000       0.50000000       0.50000000 </v>
   <v>       0.50000000       0.50000000       0.50000000 </v>
  </varray>
  <varray name="weights" >
   <v>       0.00625000 </v>
   <v>       0.01250000 </v>
   <v>       0.01250000 </v>
   <v>       0.01250000 </v>
   <v>       0.01250000 </v>
   <v>       0.00625000 </v>
   <v>       0.01250000 </v>
   <v>       0.02500000 </v>
   <v>       0.02500000 </v>
   <v>       0.02500000 </v>
   <v>       0.02500000 </v>
   <v>       0.01250000 </v>
   <v>       0.00625000 </v>
   <v>       0.01250000 </v>
   <v>       0.01250000 </v>
   <v>       0.01250000 </v>
   <v>       0.01250000 </v>
   <v>       0.00625000 </v>
   <v>       0.01250000 </v>
   <v>       0.01250000 </v>
   <v>       0.01250000 </v>
   <v>       0.01250000 </v>
   <v>       0.01250000 </v>
   <v>       0.01250000 </v>
   <v>       0.01250000 </v>
   <v>       0.01250000 </v>
   <v>       0.01250000 </v>
   <v>       0.01250000 </v>
   <v>       0.02500000 </v>
   <v>       0.02500000 </v>
   <v>       0.02500000 </v>
   <v>       0.02500000 </v>
   <v>       0.02500000 </v>
   <v>       0.02500000 </v>
   <v>       0.02500000 </v>
   <v>       0.02500000 </v>
   <v>       0.02500000 </v>
   <v>       0.02500000 </v>
   <v>       0.01250000 </v>
   <v>       0.01250000 </v>
   <v>       0.01250000 </v>
   <v>       0.01250000 </v>
   <v>       0.01250000 </v>
   <v>       0.01250000 </v>
   <v>       0.01250000 </v>
   <v>       0.01250000 </v>
   <v>       0.01250000 </v>
   <v>       0.01250000 </v>
   <v>       0.00625000 </v>
   <v>       0.01250000 </v>
   <v>       0.01250000 </v>
   <v>       0.01250000 </v>
   <v>       0.01250000 </v>
   <v>       0.00625000 </v>
   <v>       0.01250000 </v>
   <v>       0.02500000 </v>
   <v>       0.02500000 </v>
   <v>       0.02500000 </v>
   <v>       0.02500000 </v>
   <v>       0.01250000 </v>
   <v>       0.00625000 </v>
   <v>       0.01250000 </v>
   <v>       0.01250000 </v>
   <v>       0.01250000 </v>
   <v>       0.01250000 </v>
   <v>       0.00625000 </v>
  </varray>
 </kpoints>
 <parameters>
  <separator name="general" >
   <i type="string" name="SYSTEM">unknown system</i>
   <i type="logical" name="LCOMPAT"> F  </i>
  </separator>
  <separator name="electronic" >
   <i type="string" name="PREC">accura</i>
   <i name="ENMAX">    520.00000000</i>
   <i name="ENAUG">    462.75800000</i>
   <i name="EDIFF">      0.00000001</i>
   <i type="int" name="IALGO">    38</i>
   <i type="int" name="IWAVPR">    11</i>
   <i type="int" name="NBANDS">    72</i>
   <i name="NELECT">    112.00000000</i>
   <i type="int" name="TURBO">     0</i>
   <i type="int" name="IRESTART">     0</i>
   <i type="int" name="NREBOOT">     0</i>
   <i type="int" name="NMIN">     0</i>
   <i name="EREF">      0.00000000</i>
   <separator name="electronic smearing" >
    <i type="int" name="ISMEAR">     0</i>
    <i name="SIGMA">      0.01000000</i>
    <i name="KSPACING">      0.50000000</i>
    <i type="logical" name="KGAMMA"> T  </i>
   </separator>
   <separator name="electronic projectors" >
    <i type="logical" name="LREAL"> F  </i>
    <v name="ROPT">      0.00000000      0.00000000</v>
    <i type="int" name="LMAXPAW">  -100</i>
    <i type="int" name="LMAXMIX">     2</i>
    <i type="logical" name="NLSPLINE"> F  </i>
   </separator>
   <separator name="electronic startup" >
    <i type="int" name="ISTART">     0</i>
    <i type="int" name="ICHARG">     2</i>
    <i type="int" name="INIWAV">     1</i>
   </separator>
   <separator name="electronic spin" >
    <i type="int" name="ISPIN">     1</i>
    <i type="logical" name="LNONCOLLINEAR"> F  </i>
    <v name="MAGMOM">      1.00000000      1.00000000      1.00000000      1.00000000      1.00000000      1.00000000      1.00000000      1.00000000      1.00000000      1.00000000      1.00000000      1.00000000      1.00000000      1.00000000      1.00000000      1.00000000      1.00000000      1.00000000      1.00000000      1.00000000
</v>
    <i name="NUPDOWN">     -1.00000000</i>
    <i type="logical" name="LSORBIT"> F  </i>
    <v name="SAXIS">      0.00000000      0.00000000      1.00000000</v>
    <i type="logical" name="LSPIRAL"> F  </i>
    <v name="QSPIRAL">      0.00000000      0.00000000      0.00000000</v>
    <i type="logical" name="LZEROZ"> F  </i>
   </separator>
   <separator name="electronic exchange-correlation" >
    <i type="logical" name="LASPH"> F  </i>
    <i type="logical" name="LMETAGGA"> F  </i>
   </separator>
   <separator name="electronic convergence" >
    <i type="int" name="NELM">   100</i>
    <i type="int" name="NELMDL">    -5</i>
    <i type="int" name="NELMIN">     2</i>
    <i name="ENINI">    520.00000000</i>
    <separator name="electronic convergence detail" >
     <i type="logical" name="LDIAG"> T  </i>
     <i type="logical" name="LSUBROT"> F  </i>
     <i name="WEIMIN">      0.00100000</i>
     <i name="EBREAK">      0.00000000</i>
     <i name="DEPER">      0.30000000</i>
     <i type="int" name="NRMM">     4</i>
     <i name="TIME">      0.40000000</i>
    </separator>
   </separator>
   <separator name="electronic mixer" >
    <i name="AMIX">      0.40000000</i>
    <i name="BMIX">      1.00000000</i>
    <i name="AMIN">      0.10000000</i>
    <i name="AMIX_MAG">      1.60000000</i>
    <i name="BMIX_MAG">      1.00000000</i>
    <separator name="electronic mixer details" >
     <i type="int" name="IMIX">     4</i>
     <i type="logical" name="MIXFIRST"> F  </i>
     <i type="int" name="MAXMIX">   -45</i>
     <i name="WC">    100.00000000</i>
     <i type="int" name="INIMIX">     1</i>
     <i type="int" name="MIXPRE">     1</i>
     <i type="int" name="MREMOVE">     5</i>
    </separator>
   </separator>
   <separator name="electronic dipolcorrection" >
    <i type="logical" name="LDIPOL"> F  </i>
    <i type="logical" name="LMONO"> F  </i>
    <i type="int" name="IDIPOL">     0</i>
    <i name="EPSILON">      1.00000000</i>
    <v name="DIPOL">   -100.00000000   -100.00000000   -100.00000000</v>
    <i name="EFIELD">      0.00000000</i>
   </separator>
  </separator>
  <separator name="grids" >
   <i type="int" name="NGX">    36</i>
   <i type="int" name="NGY">    80</i>
   <i type="int" name="NGZ">    96</i>
   <i type="int" name="NGXF">    72</i>
   <i type="int" name="NGYF">   160</i>
   <i type="int" name="NGZF">   192</i>
   <i type="logical" name="ADDGRID"> F  </i>
  </separator>
  <separator name="ionic" >
   <i type="int" name="NSW">     1</i>
   <i type="int" name="IBRION">     8</i>
   <i type="int" name="MDALGO">     0</i>
   <i type="int" name="ISIF">     2</i>
   <i name="PSTRESS">      0.00000000</i>
   <i name="EDIFFG">      0.00000010</i>
   <i type="int" name="NFREE">     0</i>
   <i name="POTIM">      0.50000000</i>
   <i name="SMASS">     -3.00000000</i>
   <i name="SCALEE">      1.00000000</i>
  </separator>
  <separator name="ionic md" >
   <i name="TEBEG">      0.00010000</i>
   <i name="TEEND">      0.00010000</i>
   <i type="int" name="NBLOCK">     1</i>
   <i type="int" name="KBLOCK">     1</i>
   <i type="int" name="NPACO">   256</i>
   <i name="APACO">     16.00000000</i>
  </separator>
  <separator name="symmetry" >
   <i type="int" name="ISYM">     2</i>
   <i name="SYMPREC">      0.00000001</i>
  </separator>
  <separator name="dos" >
   <i type="int" name="LORBIT">     0</i>
   <v name="RWIGS">     -1.00000000     -1.00000000</v>
   <i type="int" name="NEDOS">   301</i>
   <i name="EMIN">     10.00000000</i>
   <i name="EMAX">    -10.00000000</i>
   <i name="EFERMI">      0.00000000</i>
  </separator>
  <separator name="writing" >
   <i type="int" name="NWRITE">     2</i>
   <i type="logical" name="LWAVE"> F  </i>
   <i type="logical" name="LDOWNSAMPLE"> F  </i>
   <i type="logical" name="LCHARG"> T  </i>
   <i type="logical" name="LPARD"> F  </i>
   <i type="logical" name="LVTOT"> F  </i>
   <i type="logical" name="LVHAR"> F  </i>
   <i type="logical" name="LELF"> F  </i>
   <i type="logical" name="LOPTICS"> F  </i>
   <v name="STM">      0.00000000      0.00000000      0.00000000      0.00000000      0.00000000      0.00000000      0.00000000</v>
  </separator>
  <separator name="performance" >
   <i type="int" name="NPAR">     8</i>
   <i type="int" name="NSIM">     4</i>
   <i type="int" name="NBLK">    -1</i>
   <i type="logical" name="LPLANE"> T  </i>
   <i type="logical" name="LSCALAPACK"> T  </i>
   <i type="logical" name="LSCAAWARE"> F  </i>
   <i type="logical" name="LSCALU"> F  </i>
   <i type="logical" name="LASYNC"> F  </i>
   <i type="logical" name="LORBITALREAL"> F  </i>
  </separator>
  <separator name="miscellaneous" >
   <i type="int" name="IDIOT">     3</i>
   <i type="int" name="ISPECIAL">     0</i>
   <i type="logical" name="LMUSIC"> F  </i>
   <v name="POMASS">     74.92200000     78.96000000</v>
   <v name="DARWINR">      0.00000000      0.00000000</v>
   <v name="DARWINV">      1.00000000      1.00000000</v>
   <i type="logical" name="LCORR"> T  </i>
  </separator>
  <i type="logical" name="GGA_COMPAT"> T  </i>
  <i type="logical" name="LBERRY"> F  </i>
  <i type="int" name="ICORELEVEL">     0</i>
  <i type="logical" name="LDAU"> F  </i>
  <i type="int" name="I_CONSTRAINED_M">     0</i>
  <separator name="electronic exchange-correlation" >
   <i type="string" name="GGA">--</i>
   <i type="int" name="VOSKOWN">     0</i>
   <i type="logical" name="LHFCALC"> F  </i>
   <i type="string" name="PRECFOCK"></i>
   <i type="logical" name="LSYMGRAD"> F  </i>
   <i type="logical" name="LHFONE"> F  </i>
   <i type="logical" name="LRHFCALC"> F  </i>
   <i type="logical" name="LTHOMAS"> F  </i>
   <i type="logical" name="LMODELHF"> F  </i>
   <i name="ENCUT4O">     -1.00000000</i>
   <i type="int" name="EXXOEP">     0</i>
   <i type="int" name="FOURORBIT">     0</i>
   <i name="AEXX">      0.00000000</i>
   <i name="HFALPHA">      0.00000000</i>
   <i name="MCALPHA">      0.00000000</i>
   <i name="ALDAX">      1.00000000</i>
   <i name="AGGAX">      1.00000000</i>
   <i name="ALDAC">      1.00000000</i>
   <i name="AGGAC">      1.00000000</i>
   <i type="int" name="NKREDX">     1</i>
   <i type="int" name="NKREDY">     1</i>
   <i type="int" name="NKREDZ">     1</i>
   <i type="logical" name="SHIFTRED"> F  </i>
   <i type="logical" name="ODDONLY"> F  </i>
   <i type="logical" name="EVENONLY"> F  </i>
   <i type="int" name="LMAXFOCK">     0</i>
   <i type="int" name="NMAXFOCKAE">     0</i>
   <i type="logical" name="LFOCKAEDFT"> F  </i>
   <i name="HFSCREEN">      0.00000000</i>
   <i name="HFSCREENC">      0.00000000</i>
   <i type="int" name="NBANDSGWLOW">     0</i>
  </separator>
  <separator name="vdW DFT" >
   <i type="logical" name="LUSE_VDW"> F  </i>
   <i name="Zab_VDW">     -0.84910000</i>
   <i name="PARAM1">      0.12340000</i>
   <i name="PARAM2">      1.00000000</i>
   <i name="PARAM3">      0.00000000</i>
  </separator>
  <separator name="model GW" >
   <i type="int" name="MODEL_GW">     0</i>
   <i name="MODEL_EPS0">     16.85045589</i>
   <i name="MODEL_ALPHA">      1.00000000</i>
  </separator>
  <separator name="linear response parameters" >
   <i type="logical" name="LEPSILON"> T  </i>
   <i type="logical" name="LRPA"> F  </i>
   <i type="logical" name="LNABLA"> F  </i>
   <i type="logical" name="LVEL"> F  </i>
   <i type="int" name="KINTER">     0</i>
   <i name="CSHIFT">      0.10000000</i>
   <i name="OMEGAMAX">     -1.00000000</i>
   <i name="DEG_THRESHOLD">      0.00200000</i>
   <i name="RTIME">     -0.10000000</i>
   <i name="WPLASMAI">      0.00000000</i>
   <v name="DFIELD">      0.00000000      0.00000000      0.00000000</v>
   <v name="WPLASMA">      0.00000000      0.00000000      0.00000000      0.00000000      0.00000000      0.00000000      0.00000000      0.00000000      0.00000000</v>
  </separator>
  <separator name="orbital magnetization" >
   <i type="logical" name="NUCIND"> F  </i>
   <v name="MAGPOS">      0.00000000      0.00000000      0.00000000</v>
   <i type="logical" name="LNICSALL"> T  </i>
   <i type="logical" name="ORBITALMAG"> F  </i>
   <i type="logical" name="LMAGBLOCH"> F  </i>
   <i type="logical" name="LCHIMAG"> F  </i>
   <i type="logical" name="LGAUGE"> T  </i>
   <i type="int" name="MAGATOM">     0</i>
   <v name="MAGDIPOL">      0.00000000      0.00000000      0.00000000</v>
   <v name="AVECCONST">      0.00000000      0.00000000      0.00000000</v>
  </separator>
  <separator name="response functions" >
   <i type="logical" name="LADDER"> F  </i>
   <i type="logical" name="LRPAFORCE"> F  </i>
   <i type="logical" name="LFXC"> F  </i>
   <i type="logical" name="LHARTREE"> T  </i>
   <i type="int" name="IBSE">     0</i>
   <v type="int" name="KPOINT">    -1     0     0     0</v>
   <i type="logical" name="LTCTE"> F  </i>
   <i type="logical" name="LTETE"> F  </i>
   <i type="logical" name="LTRIPLET"> F  </i>
   <i type="logical" name="LFXCEPS"> F  </i>
   <i type="logical" name="LFXHEG"> F  </i>
   <i type="int" name="NATURALO">     2</i>
   <i type="logical" name="L2ORDER"> F  </i>
   <i type="logical" name="LMP2LT"> F  </i>
   <i type="logical" name="LUSEW"> F  </i>
   <i name="ENCUTGW">     -2.00000000</i>
   <i name="ENCUTGWSOFT">     -2.00000000</i>
   <i name="ENCUTLF">     -1.00000000</i>
   <i type="int" name="LMAXMP2">    -1</i>
   <i name="SCISSOR">      0.00000000</i>
   <i type="int" name="NOMEGA">     0</i>
   <i type="int" name="NOMEGAR">     0</i>
   <i type="int" name="NBANDSGW">    -1</i>
   <i type="int" name="NBANDSO">    -1</i>
   <i type="int" name="NBANDSV">    -1</i>
   <i type="int" name="NELM">   100</i>
   <i type="int" name="NELMHF">     1</i>
   <i type="int" name="DIM">     3</i>
   <i type="int" name="ANTIRES">     0</i>
   <i name="OMEGAMAX">    -30.00000000</i>
   <i name="OMEGAMIN">    -30.00000000</i>
   <i name="OMEGATL">   -200.00000000</i>
   <i type="int" name="OMEGAGRID">   140</i>
   <i name="CSHIFT">     -0.10000000</i>
   <i type="logical" name="SELFENERGY"> F  </i>
   <i type="logical" name="LSPECTRAL"> F  </i>
   <i type="logical" name="LSPECTRALGW"> F  </i>
   <i type="logical" name="LSINGLES"> F  </i>
   <i type="logical" name="LFERMIGW"> F  </i>
   <i type="logical" name="ODDONLYGW"> F  </i>
   <i type="logical" name="EVENONLYGW"> F  </i>
   <i type="int" name="NKREDLFX">     1</i>
   <i type="int" name="NKREDLFY">     1</i>
   <i type="int" name="NKREDLFZ">     1</i>
   <i type="int" name="MAXMEM">  2800</i>
   <i type="int" name="TELESCOPE">     0</i>
   <i type="int" name="TAUPAR">     1</i>
   <i type="int" name="OMEGAPAR">    -1</i>
   <i name="LAMBDA">      1.00000000</i>
  </separator>
  <separator name="External order field" >
   <i name="OFIELD_KAPPA">      0.00000000</i>
   <v name="OFIELD_K">      0.00000000      0.00000000      0.00000000</v>
   <i name="OFIELD_Q6_NEAR">      0.00000000</i>
   <i name="OFIELD_Q6_FAR">      0.00000000</i>
   <i name="OFIELD_A">      0.00000000</i>
  </separator>
 </parameters>
 <atominfo>
  <atoms>      20 </atoms>
  <types>       2 </types>
  <array name="atoms" >
   <dimension dim="1">ion</dimension>
   <field type="string">element</field>
   <field type="int">atomtype</field>
   <set>
    <rc><c>As</c><c>   1</c></rc>
    <rc><c>As</c><c>   1</c></rc>
    <rc><c>As</c><c>   1</c></rc>
    <rc><c>As</c><c>   1</c></rc>
    <rc><c>As</c><c>   1</c></rc>
    <rc><c>As</c><c>   1</c></rc>
    <rc><c>As</c><c>   1</c></rc>
    <rc><c>As</c><c>   1</c></rc>
    <rc><c>Se</c><c>   2</c></rc>
    <rc><c>Se</c><c>   2</c></rc>
    <rc><c>Se</c><c>   2</c></rc>
    <rc><c>Se</c><c>   2</c></rc>
    <rc><c>Se</c><c>   2</c></rc>
    <rc><c>Se</c><c>   2</c></rc>
    <rc><c>Se</c><c>   2</c></rc>
    <rc><c>Se</c><c>   2</c></rc>
    <rc><c>Se</c><c>   2</c></rc>
    <rc><c>Se</c><c>   2</c></rc>
    <rc><c>Se</c><c>   2</c></rc>
    <rc><c>Se</c><c>   2</c></rc>
   </set>
  </array>
  <array name="atomtypes" >
   <dimension dim="1">type</dimension>
   <field type="int">atomspertype</field>
   <field type="string">element</field>
   <field>mass</field>
   <field>valence</field>
   <field type="string">pseudopotential</field>
   <set>
    <rc><c>   8</c><c>As</c><c>     74.92200000</c><c>      5.00000000</c><c>  PAW_PBE As 22Sep2009                  </c></rc>
    <rc><c>  12</c><c>Se</c><c>     78.96000000</c><c>      6.00000000</c><c>  PAW_PBE Se 06Sep2000                  </c></rc>
   </set>
  </array>
 </atominfo>
 <structure name="initialpos" >
  <crystal>
   <varray name="basis" >
    <v>       4.49068397       0.00000000       0.00000000 </v>
    <v>       0.00000000      10.37672095       0.00000000 </v>
    <v>      -4.39323997       0.00000000      12.05362760 </v>
   </varray>
   <i name="volume">    561.68186284 </i>
   <varray name="rec_basis" >
    <v>       0.22268323       0.00000000       0.08116236 </v>
    <v>       0.00000000       0.09636956       0.00000000 </v>
    <v>       0.00000000       0.00000000       0.08296258 </v>
   </varray>
  </crystal>
  <varray name="positions" >
   <v>       0.38034754       0.19738300       0.26337217 </v>
   <v>       0.61965246       0.69738300       0.23662783 </v>
   <v>       0.61965246       0.80261700       0.73662783 </v>
   <v>       0.38034754       0.30261700       0.76337217 </v>
   <v>       0.10885333       0.32190035       0.48493644 </v>
   <v>       0.89114667       0.82190035       0.01506356 </v>
   <v>       0.89114667       0.67809965       0.51506356 </v>
   <v>       0.10885333       0.17809965       0.98493644 </v>
   <v>       0.86890717       0.12425234       0.40089952 </v>
   <v>       0.13109283       0.62425234       0.09910048 </v>
   <v>       0.13109283       0.87574766       0.59910048 </v>
   <v>       0.86890717       0.37574766       0.90089952 </v>
   <v>       0.31430141       0.40038274       0.34417633 </v>
   <v>       0.68569859       0.90038274       0.15582367 </v>
   <v>       0.68569859       0.59961726       0.65582367 </v>
   <v>       0.31430141       0.09961726       0.84417633 </v>
   <v>       0.54863396       0.29358558       0.11956954 </v>
   <v>       0.45136604       0.79358558       0.38043046 </v>
   <v>       0.45136604       0.70641442       0.88043046 </v>
   <v>       0.54863396       0.20641442       0.61956954 </v>
  </varray>
 </structure>
 <calculation>
  <scstep>
   <time name="dav">   42.49   42.77</time>
   <time name="total">   42.73   43.01</time>
   <energy>
    <i name="alphaZ">    214.75419344 </i>
    <i name="ewald">  -3942.89072556 </i>
    <i name="hartreedc">   -607.68467295 </i>
    <i name="XCdc">   -103.80388105 </i>
    <i name="pawpsdc">   3700.12087125 </i>
    <i name="pawaedc">  -3363.34006483 </i>
    <i name="eentropy">     -0.00048100 </i>
    <i name="bandstr">    278.78155823 </i>
    <i name="atom">   4447.02381356 </i>
    <i name="e_fr_energy">    622.96061111 </i>
    <i name="e_wo_entrp">    622.96109211 </i>
    <i name="e_0_energy">    622.96085161 </i>
   </energy>
  </scstep>
  <scstep>
   <time name="dav">   49.19   49.47</time>
   <time name="total">   49.20   49.47</time>
   <energy>
    <i name="e_fr_energy">    -18.16080977 </i>
    <i name="e_wo_entrp">    -18.16080977 </i>
    <i name="e_0_energy">    -18.16080977 </i>
   </energy>
  </scstep>
  <scstep>
   <time name="dav">   45.27   45.54</time>
   <time name="total">   45.27   45.54</time>
   <energy>
    <i name="e_fr_energy">    -80.89225287 </i>
    <i name="e_wo_entrp">    -80.89225287 </i>
    <i name="e_0_energy">    -80.89225287 </i>
   </energy>
  </scstep>
  <scstep>
   <time name="dav">   51.59   51.92</time>
   <time name="total">   51.59   51.92</time>
   <energy>
    <i name="e_fr_energy">    -82.81336234 </i>
    <i name="e_wo_entrp">    -82.81336234 </i>
    <i name="e_0_energy">    -82.81336234 </i>
   </energy>
  </scstep>
  <scstep>
   <time name="dav">   48.22   48.52</time>
   <time name="total">   50.65   50.96</time>
   <energy>
    <i name="e_fr_energy">    -82.85498605 </i>
    <i name="e_wo_entrp">    -82.85498605 </i>
    <i name="e_0_energy">    -82.85498605 </i>
   </energy>
  </scstep>
  <scstep>
   <time name="dav">   47.91   48.20</time>
   <time name="total">   50.41   50.71</time>
   <energy>
    <i name="e_fr_energy">    -81.71242155 </i>
    <i name="e_wo_entrp">    -81.71242155 </i>
    <i name="e_0_energy">    -81.71242155 </i>
   </energy>
  </scstep>
  <scstep>
   <time name="dav">   45.16   45.40</time>
   <time name="total">   47.62   47.88</time>
   <energy>
    <i name="e_fr_energy">    -81.61317575 </i>
    <i name="e_wo_entrp">    -81.61317575 </i>
    <i name="e_0_energy">    -81.61317575 </i>
   </energy>
  </scstep>
  <scstep>
   <time name="dav">   49.84   50.10</time>
   <time name="total">   52.36   52.64</time>
   <energy>
    <i name="e_fr_energy">    -81.60568862 </i>
    <i name="e_wo_entrp">    -81.60568862 </i>
    <i name="e_0_energy">    -81.60568862 </i>
   </energy>
  </scstep>
  <scstep>
   <time name="dav">   46.70   46.97</time>
   <time name="total">   49.34   49.63</time>
   <energy>
    <i name="e_fr_energy">    -81.60707147 </i>
    <i name="e_wo_entrp">    -81.60707147 </i>
    <i name="e_0_energy">    -81.60707147 </i>
   </energy>
  </scstep>
  <scstep>
   <time name="dav">   49.84   50.16</time>
   <time name="total">   52.50   52.84</time>
   <energy>
    <i name="e_fr_energy">    -81.60744198 </i>
    <i name="e_wo_entrp">    -81.60744198 </i>
    <i name="e_0_energy">    -81.60744198 </i>
   </energy>
  </scstep>
  <scstep>
   <time name="dav">   45.42   45.79</time>
   <time name="total">   47.94   48.31</time>
   <energy>
    <i name="e_fr_energy">    -81.60764577 </i>
    <i name="e_wo_entrp">    -81.60764577 </i>
    <i name="e_0_energy">    -81.60764577 </i>
   </energy>
  </scstep>
  <scstep>
   <time name="dav">   46.86   47.15</time>
   <time name="total">   49.31   49.61</time>
   <energy>
    <i name="e_fr_energy">    -81.60767630 </i>
    <i name="e_wo_entrp">    -81.60767630 </i>
    <i name="e_0_energy">    -81.60767630 </i>
   </energy>
  </scstep>
  <scstep>
   <time name="dav">   46.98   47.22</time>
   <time name="total">   49.52   49.77</time>
   <energy>
    <i name="e_fr_energy">    -81.60768105 </i>
    <i name="e_wo_entrp">    -81.60768105 </i>
    <i name="e_0_energy">    -81.60768105 </i>
   </energy>
  </scstep>
  <scstep>
   <time name="dav">   50.45   50.74</time>
   <time name="total">   53.11   53.41</time>
   <energy>
    <i name="e_fr_energy">    -81.60768197 </i>
    <i name="e_wo_entrp">    -81.60768197 </i>
    <i name="e_0_energy">    -81.60768197 </i>
   </energy>
  </scstep>
  <scstep>
   <time name="dav">   46.16   46.41</time>
   <time name="total">   48.63   48.92</time>
   <energy>
    <i name="e_fr_energy">    -81.60768223 </i>
    <i name="e_wo_entrp">    -81.60768223 </i>
    <i name="e_0_energy">    -81.60768223 </i>
   </energy>
  </scstep>
  <scstep>
   <time name="dav">   44.08   44.37</time>
   <time name="total">   46.59   46.89</time>
   <energy>
    <i name="e_fr_energy">    -81.60768220 </i>
    <i name="e_wo_entrp">    -81.60768220 </i>
    <i name="e_0_energy">    -81.60768220 </i>
   </energy>
  </scstep>
  <scstep>
   <time name="dav">   33.41   33.70</time>
   <time name="total">   35.79   36.09</time>
   <energy>
    <i name="e_fr_energy">    -81.60768222 </i>
    <i name="e_wo_entrp">    -81.60768222 </i>
    <i name="e_0_energy">    -81.60768222 </i>
   </energy>
  </scstep>
  <scstep>
   <time name="dav">   31.58   31.72</time>
   <time name="total">   31.75   31.90</time>
   <energy>
    <i name="alphaZ">    214.75419344 </i>
    <i name="ewald">  -3942.89072556 </i>
    <i name="hartreedc">   -628.40907212 </i>
    <i name="XCdc">   -100.52816759 </i>
    <i name="pawpsdc">   5794.96503666 </i>
    <i name="pawaedc">  -5459.90069187 </i>
    <i name="eentropy">     -0.00000000 </i>
    <i name="bandstr">   -406.62206876 </i>
    <i name="atom">   4447.02381356 </i>
    <i name="e_fr_energy">    -81.60768223 </i>
    <i name="e_wo_entrp">    -81.60768223 </i>
    <i name="e_0_energy">    -81.60768223 </i>
   </energy>
  </scstep>
  <structure>
   <crystal>
    <varray name="basis" >
     <v>       4.49068397       0.00000000       0.00000000 </v>
     <v>       0.00000000      10.37672095       0.00000000 </v>
     <v>      -4.39323997       0.00000000      12.05362760 </v>
    </varray>
    <i name="volume">    561.68186284 </i>
    <varray name="rec_basis" >
     <v>       0.22268323       0.00000000       0.08116236 </v>
     <v>       0.00000000       0.09636956       0.00000000 </v>
     <v>       0.00000000       0.00000000       0.08296258 </v>
    </varray>
   </crystal>
   <varray name="positions" >
    <v>       0.38034754       0.19738300       0.26337217 </v>
    <v>       0.61965246       0.69738300       0.23662783 </v>
    <v>       0.61965246       0.80261700       0.73662783 </v>
    <v>       0.38034754       0.30261700       0.76337217 </v>
    <v>       0.10885333       0.32190035       0.48493644 </v>
    <v>       0.89114667       0.82190035       0.01506356 </v>
    <v>       0.89114667       0.67809965       0.51506356 </v>
    <v>       0.10885333       0.17809965       0.98493644 </v>
    <v>       0.86890717       0.12425234       0.40089952 </v>
    <v>       0.13109283       0.62425234       0.09910048 </v>
    <v>       0.13109283       0.87574766       0.59910048 </v>
    <v>       0.86890717       0.37574766       0.90089952 </v>
    <v>       0.31430141       0.40038274       0.34417633 </v>
    <v>       0.68569859       0.90038274       0.15582367 </v>
    <v>       0.68569859       0.59961726       0.65582367 </v>
    <v>       0.31430141       0.09961726       0.84417633 </v>
    <v>       0.54863396       0.29358558       0.11956954 </v>
    <v>       0.45136604       0.79358558       0.38043046 </v>
    <v>       0.45136604       0.70641442       0.88043046 </v>
    <v>       0.54863396       0.20641442       0.61956954 </v>
   </varray>
  </structure>
  <varray name="forces" >
   <v>      -0.27228196      -0.23825220      -0.10138941 </v>
   <v>       0.27228196      -0.23825220       0.10138941 </v>
   <v>       0.27228196       0.23825220       0.10138941 </v>
   <v>      -0.27228196       0.23825220      -0.10138941 </v>
   <v>      -0.22550222       0.26515208       0.13997006 </v>
   <v>       0.22550222       0.26515208      -0.13997006 </v>
   <v>       0.22550222      -0.26515208      -0.13997006 </v>
   <v>      -0.22550222      -0.26515208       0.13997006 </v>
   <v>       0.11876934      -0.31812576       0.09318096 </v>
   <v>      -0.11876934      -0.31812576      -0.09318096 </v>
   <v>      -0.11876934       0.31812576      -0.09318096 </v>
   <v>       0.11876934       0.31812576       0.09318096 </v>
   <v>       0.10346400       0.28418569      -0.07949015 </v>
   <v>      -0.10346400       0.28418569       0.07949015 </v>
   <v>      -0.10346400      -0.28418569       0.07949015 </v>
   <v>       0.10346400      -0.28418569      -0.07949015 </v>
   <v>       0.27286009       0.21719054      -0.03037969 </v>
   <v>      -0.27286009       0.21719054       0.03037969 </v>
   <v>      -0.27286009      -0.21719054       0.03037969 </v>
   <v>       0.27286009      -0.21719054      -0.03037969 </v>
  </varray>
  <varray name="stress" >
   <v>      14.39716854       0.00000000       0.08351207 </v>
   <v>       0.00000000      19.73432938       0.00000000 </v>
   <v>       0.08351294       0.00000000      17.94327475 </v>
  </varray>
  <energy>
   <i name="e_fr_energy">    -81.60768223 </i>
   <i name="e_wo_entrp">    -81.60768223 </i>
   <i name="e_0_energy">     -0.00000000 </i>
  </energy>
  <scstep>
   <time name="total">   54.29   54.57</time>
   <energy>
    <i name="e_fr_energy">    -13.10592505 </i>
    <i name="e_wo_entrp">    -13.10592505 </i>
    <i name="e_0_energy">    -13.10592505 </i>
   </energy>
  </scstep>
  <scstep>
   <time name="total">   45.99   46.21</time>
   <energy>
    <i name="e_fr_energy">    -13.83450038 </i>
    <i name="e_wo_entrp">    -13.83450038 </i>
    <i name="e_0_energy">    -13.83450038 </i>
   </energy>
  </scstep>
  <scstep>
   <time name="total">   44.25   44.47</time>
   <energy>
    <i name="e_fr_energy">    -13.85226758 </i>
    <i name="e_wo_entrp">    -13.85226758 </i>
    <i name="e_0_energy">    -13.85226758 </i>
   </energy>
  </scstep>
  <scstep>
   <time name="total">   46.23   46.44</time>
   <energy>
    <i name="e_fr_energy">    -13.85322713 </i>
    <i name="e_wo_entrp">    -13.85322713 </i>
    <i name="e_0_energy">    -13.85322713 </i>
   </energy>
  </scstep>
  <scstep>
   <time name="total">   47.34   47.58</time>
   <energy>
    <i name="e_fr_energy">    -13.85329894 </i>
    <i name="e_wo_entrp">    -13.85329894 </i>
    <i name="e_0_energy">    -13.85329894 </i>
   </energy>
  </scstep>
  <scstep>
   <time name="total">   47.20   47.44</time>
   <energy>
    <i name="e_fr_energy">    -13.85330470 </i>
    <i name="e_wo_entrp">    -13.85330470 </i>
    <i name="e_0_energy">    -13.85330470 </i>
   </energy>
  </scstep>
  <scstep>
   <time name="total">   47.30   47.54</time>
   <energy>
    <i name="e_fr_energy">    -13.85330517 </i>
    <i name="e_wo_entrp">    -13.85330517 </i>
    <i name="e_0_energy">    -13.85330517 </i>
   </energy>
  </scstep>
  <scstep>
   <time name="total">   47.70   47.95</time>
   <energy>
    <i name="e_fr_energy">    -13.85330518 </i>
    <i name="e_wo_entrp">    -13.85330518 </i>
    <i name="e_0_energy">    -13.85330518 </i>
   </energy>
  </scstep>
  <scstep>
   <time name="total">   46.95   47.22</time>
   <energy>
    <i name="e_fr_energy">    -13.85330519 </i>
    <i name="e_wo_entrp">    -13.85330519 </i>
    <i name="e_0_energy">    -13.85330519 </i>
   </energy>
  </scstep>
  <scstep>
   <time name="total">   46.84   47.09</time>
   <energy>
    <i name="e_fr_energy">    -13.85330519 </i>
    <i name="e_wo_entrp">    -13.85330519 </i>
    <i name="e_0_energy">    -13.85330519 </i>
   </energy>
  </scstep>
  <scstep>
   <time name="total">   52.87   53.10</time>
   <energy>
    <i name="e_fr_energy">    -11.09586919 </i>
    <i name="e_wo_entrp">    -11.09586919 </i>
    <i name="e_0_energy">    -11.09586919 </i>
   </energy>
  </scstep>
  <scstep>
   <time name="total">   46.80   47.04</time>
   <energy>
    <i name="e_fr_energy">    -11.81523858 </i>
    <i name="e_wo_entrp">    -11.81523858 </i>
    <i name="e_0_energy">    -11.81523858 </i>
   </energy>
  </scstep>
  <scstep>
   <time name="total">   44.09   44.29</time>
   <energy>
    <i name="e_fr_energy">    -11.83378139 </i>
    <i name="e_wo_entrp">    -11.83378139 </i>
    <i name="e_0_energy">    -11.83378139 </i>
   </energy>
  </scstep>
  <scstep>
   <time name="total">   43.23   43.45</time>
   <energy>
    <i name="e_fr_energy">    -11.83490655 </i>
    <i name="e_wo_entrp">    -11.83490655 </i>
    <i name="e_0_energy">    -11.83490655 </i>
   </energy>
  </scstep>
  <scstep>
   <time name="total">   46.24   46.47</time>
   <energy>
    <i name="e_fr_energy">    -11.83498334 </i>
    <i name="e_wo_entrp">    -11.83498334 </i>
    <i name="e_0_energy">    -11.83498334 </i>
   </energy>
  </scstep>
  <scstep>
   <time name="total">   46.98   47.19</time>
   <energy>
    <i name="e_fr_energy">    -11.83499002 </i>
    <i name="e_wo_entrp">    -11.83499002 </i>
    <i name="e_0_energy">    -11.83499002 </i>
   </energy>
  </scstep>
  <scstep>
   <time name="total">   49.67   49.96</time>
   <energy>
    <i name="e_fr_energy">    -11.83499051 </i>
    <i name="e_wo_entrp">    -11.83499051 </i>
    <i name="e_0_energy">    -11.83499051 </i>
   </energy>
  </scstep>
  <scstep>
   <time name="total">   48.03   48.30</time>
   <energy>
    <i name="e_fr_energy">    -11.83499053 </i>
    <i name="e_wo_entrp">    -11.83499053 </i>
    <i name="e_0_energy">    -11.83499053 </i>
   </energy>
  </scstep>
  <scstep>
   <time name="total">   46.79   47.03</time>
   <energy>
    <i name="e_fr_energy">    -11.83499053 </i>
    <i name="e_wo_entrp">    -11.83499053 </i>
    <i name="e_0_energy">    -11.83499053 </i>
   </energy>
  </scstep>
  <scstep>
   <time name="total">   46.61   46.87</time>
   <energy>
    <i name="e_fr_energy">    -11.83499053 </i>
    <i name="e_wo_entrp">    -11.83499053 </i>
    <i name="e_0_energy">    -11.83499053 </i>
   </energy>
  </scstep>
  <scstep>
   <time name="total">   51.26   51.51</time>
   <energy>
    <i name="e_fr_energy">    -16.31056963 </i>
    <i name="e_wo_entrp">    -16.31056963 </i>
    <i name="e_0_energy">    -16.31056963 </i>
   </energy>
  </scstep>
  <scstep>
   <time name="total">   47.23   47.44</time>
   <energy>
    <i name="e_fr_energy">    -17.06364071 </i>
    <i name="e_wo_entrp">    -17.06364071 </i>
    <i name="e_0_energy">    -17.06364071 </i>
   </energy>
  </scstep>
  <scstep>
   <time name="total">   46.64   46.89</time>
   <energy>
    <i name="e_fr_energy">    -17.08593467 </i>
    <i name="e_wo_entrp">    -17.08593467 </i>
    <i name="e_0_energy">    -17.08593467 </i>
   </energy>
  </scstep>
  <scstep>
   <time name="total">   46.74   46.99</time>
   <energy>
    <i name="e_fr_energy">    -17.08683141 </i>
    <i name="e_wo_entrp">    -17.08683141 </i>
    <i name="e_0_energy">    -17.08683141 </i>
   </energy>
  </scstep>
  <scstep>
   <time name="total">   46.80   47.03</time>
   <energy>
    <i name="e_fr_energy">    -17.08690113 </i>
    <i name="e_wo_entrp">    -17.08690113 </i>
    <i name="e_0_energy">    -17.08690113 </i>
   </energy>
  </scstep>
  <scstep>
   <time name="total">   46.30   46.53</time>
   <energy>
    <i name="e_fr_energy">    -17.08690624 </i>
    <i name="e_wo_entrp">    -17.08690624 </i>
    <i name="e_0_energy">    -17.08690624 </i>
   </energy>
  </scstep>
  <scstep>
   <time name="total">   48.14   48.34</time>
   <energy>
    <i name="e_fr_energy">    -17.08690660 </i>
    <i name="e_wo_entrp">    -17.08690660 </i>
    <i name="e_0_energy">    -17.08690660 </i>
   </energy>
  </scstep>
  <scstep>
   <time name="total">   49.25   49.48</time>
   <energy>
    <i name="e_fr_energy">    -17.08690662 </i>
    <i name="e_wo_entrp">    -17.08690662 </i>
    <i name="e_0_energy">    -17.08690662 </i>
   </energy>
  </scstep>
  <scstep>
   <time name="total">   47.86   48.10</time>
   <energy>
    <i name="e_fr_energy">    -17.08690662 </i>
    <i name="e_wo_entrp">    -17.08690662 </i>
    <i name="e_0_energy">    -17.08690662 </i>
   </energy>
  </scstep>
  <scstep>
   <time name="total">   46.71   46.93</time>
   <energy>
    <i name="e_fr_energy">    -17.08690662 </i>
    <i name="e_wo_entrp">    -17.08690662 </i>
    <i name="e_0_energy">    -17.08690662 </i>
   </energy>
  </scstep>
  <varray name="epsilon_rpa" >
   <v>       9.92600643       0.00000000      -0.08701981 </v>
   <v>       0.00000000       8.62560027       0.00000000 </v>
   <v>      -0.08703098       0.00000000      12.00953727 </v>
  </varray>
  <kpoints>
   <generation param="Gamma">
    <v type="int" name="divisions">      10        4        4 </v>
    <v name="usershift">      0.00000000       0.00000000       0.00000000 </v>
    <v name="genvec1">      0.10000000       0.00000000      -0.00000000 </v>
    <v name="genvec2">      0.00000000       0.25000000       0.00000000 </v>
    <v name="genvec3">      0.00000000       0.00000000       0.25000000 </v>
    <v name="shift">      0.00000000       0.00000000       0.00000000 </v>
   </generation>
   <varray name="kpointlist" >
    <v>       0.00000000       0.00000000       0.00000000 </v>
    <v>       0.10000000       0.00000000       0.00000000 </v>
    <v>       0.20000000       0.00000000      -0.00000000 </v>
    <v>       0.30000000       0.00000000      -0.00000000 </v>
    <v>       0.40000000       0.00000000      -0.00000000 </v>
    <v>       0.50000000       0.00000000      -0.00000000 </v>
    <v>       0.00000000       0.25000000       0.00000000 </v>
    <v>       0.10000000       0.25000000       0.00000000 </v>
    <v>       0.20000000       0.25000000      -0.00000000 </v>
    <v>       0.30000000       0.25000000      -0.00000000 </v>
    <v>       0.40000000       0.25000000      -0.00000000 </v>
    <v>       0.50000000       0.25000000      -0.00000000 </v>
    <v>       0.00000000       0.50000000       0.00000000 </v>
    <v>       0.10000000       0.50000000       0.00000000 </v>
    <v>       0.20000000       0.50000000      -0.00000000 </v>
    <v>       0.30000000       0.50000000      -0.00000000 </v>
    <v>       0.40000000       0.50000000      -0.00000000 </v>
    <v>       0.50000000       0.50000000      -0.00000000 </v>
    <v>       0.00000000       0.00000000       0.25000000 </v>
    <v>       0.10000000       0.00000000       0.25000000 </v>
    <v>       0.20000000       0.00000000       0.25000000 </v>
    <v>       0.30000000       0.00000000       0.25000000 </v>
    <v>       0.40000000       0.00000000       0.25000000 </v>
    <v>       0.50000000       0.00000000       0.25000000 </v>
    <v>      -0.40000000       0.00000000       0.25000000 </v>
    <v>      -0.30000000       0.00000000       0.25000000 </v>
    <v>      -0.20000000       0.00000000       0.25000000 </v>
    <v>      -0.10000000       0.00000000       0.25000000 </v>
    <v>       0.00000000       0.25000000       0.25000000 </v>
    <v>       0.10000000       0.25000000       0.25000000 </v>
    <v>       0.20000000       0.25000000       0.25000000 </v>
    <v>       0.30000000       0.25000000       0.25000000 </v>
    <v>       0.40000000       0.25000000       0.25000000 </v>
    <v>       0.50000000       0.25000000       0.25000000 </v>
    <v>      -0.40000000       0.25000000       0.25000000 </v>
    <v>      -0.30000000       0.25000000       0.25000000 </v>
    <v>      -0.20000000       0.25000000       0.25000000 </v>
    <v>      -0.10000000       0.25000000       0.25000000 </v>
    <v>       0.00000000       0.50000000       0.25000000 </v>
    <v>       0.10000000       0.50000000       0.25000000 </v>
    <v>       0.20000000       0.50000000       0.25000000 </v>
    <v>       0.30000000       0.50000000       0.25000000 </v>
    <v>       0.40000000       0.50000000       0.25000000 </v>
    <v>       0.50000000       0.50000000       0.25000000 </v>
    <v>      -0.40000000       0.50000000       0.25000000 </v>
    <v>      -0.30000000       0.50000000       0.25000000 </v>
    <v>      -0.20000000       0.50000000       0.25000000 </v>
    <v>      -0.10000000       0.50000000       0.25000000 </v>
    <v>       0.00000000       0.00000000       0.50000000 </v>
    <v>       0.10000000       0.00000000       0.50000000 </v>
    <v>       0.20000000       0.00000000       0.50000000 </v>
    <v>       0.30000000       0.00000000       0.50000000 </v>
    <v>       0.40000000       0.00000000       0.50000000 </v>
    <v>       0.50000000       0.00000000       0.50000000 </v>
    <v>       0.00000000       0.25000000       0.50000000 </v>
    <v>       0.10000000       0.25000000       0.50000000 </v>
    <v>       0.20000000       0.25000000       0.50000000 </v>
    <v>       0.30000000       0.25000000       0.50000000 </v>
    <v>       0.40000000       0.25000000       0.50000000 </v>
    <v>       0.50000000       0.25000000       0.50000000 </v>
    <v>       0.00000000       0.50000000       0.50000000 </v>
    <v>       0.10000000       0.50000000       0.50000000 </v>
    <v>       0.20000000       0.50000000       0.50000000 </v>
    <v>       0.30000000       0.50000000       0.50000000 </v>
    <v>       0.40000000       0.50000000       0.50000000 </v>
    <v>       0.50000000       0.50000000       0.50000000 </v>
   </varray>
   <varray name="weights" >
    <v>       0.00625000 </v>
    <v>       0.01250000 </v>
    <v>       0.01250000 </v>
    <v>       0.01250000 </v>
    <v>       0.01250000 </v>
    <v>       0.00625000 </v>
    <v>       0.01250000 </v>
    <v>       0.02500000 </v>
    <v>       0.02500000 </v>
    <v>       0.02500000 </v>
    <v>       0.02500000 </v>
    <v>       0.01250000 </v>
    <v>       0.00625000 </v>
    <v>       0.01250000 </v>
    <v>       0.01250000 </v>
    <v>       0.01250000 </v>
    <v>       0.01250000 </v>
    <v>       0.00625000 </v>
    <v>       0.01250000 </v>
    <v>       0.01250000 </v>
    <v>       0.01250000 </v>
    <v>       0.01250000 </v>
    <v>       0.01250000 </v>
    <v>       0.01250000 </v>
    <v>       0.01250000 </v>
    <v>       0.01250000 </v>
    <v>       0.01250000 </v>
    <v>       0.01250000 </v>
    <v>       0.02500000 </v>
    <v>       0.02500000 </v>
    <v>       0.02500000 </v>
    <v>       0.02500000 </v>
    <v>       0.02500000 </v>
    <v>       0.02500000 </v>
    <v>       0.02500000 </v>
    <v>       0.02500000 </v>
    <v>       0.02500000 </v>
    <v>       0.02500000 </v>
    <v>       0.01250000 </v>
    <v>       0.01250000 </v>
    <v>       0.01250000 </v>
    <v>       0.01250000 </v>
    <v>       0.01250000 </v>
    <v>       0.01250000 </v>
    <v>       0.01250000 </v>
    <v>       0.01250000 </v>
    <v>       0.01250000 </v>
    <v>       0.01250000 </v>
    <v>       0.00625000 </v>
    <v>       0.01250000 </v>
    <v>       0.01250000 </v>
    <v>       0.01250000 </v>
    <v>       0.01250000 </v>
    <v>       0.00625000 </v>
    <v>       0.01250000 </v>
    <v>       0.02500000 </v>
    <v>       0.02500000 </v>
    <v>       0.02500000 </v>
    <v>       0.02500000 </v>
    <v>       0.01250000 </v>
    <v>       0.00625000 </v>
    <v>       0.01250000 </v>
    <v>       0.01250000 </v>
    <v>       0.01250000 </v>
    <v>       0.01250000 </v>
    <v>       0.00625000 </v>
   </varray>
  </kpoints>
  <scstep>
   <time name="total">   51.81   52.07</time>
   <energy>
    <i name="e_fr_energy">    -13.10592505 </i>
    <i name="e_wo_entrp">    -13.10592505 </i>
    <i name="e_0_energy">    -13.10592505 </i>
   </energy>
  </scstep>
  <scstep>
   <time name="total">   48.78   49.05</time>
   <energy>
    <i name="e_fr_energy">    -13.83450038 </i>
    <i name="e_wo_entrp">    -13.83450038 </i>
    <i name="e_0_energy">    -13.83450038 </i>
   </energy>
  </scstep>
  <scstep>
   <time name="total">   57.23   57.54</time>
   <energy>
    <i name="e_fr_energy">    -12.26741704 </i>
    <i name="e_wo_entrp">    -12.26741704 </i>
    <i name="e_0_energy">    -12.26741704 </i>
   </energy>
  </scstep>
  <scstep>
   <time name="total">   65.53   65.93</time>
   <energy>
    <i name="e_fr_energy">    -12.43599747 </i>
    <i name="e_wo_entrp">    -12.43599747 </i>
    <i name="e_0_energy">    -12.43599747 </i>
   </energy>
  </scstep>
  <scstep>
   <time name="total">   62.41   62.74</time>
   <energy>
    <i name="e_fr_energy">    -12.73494272 </i>
    <i name="e_wo_entrp">    -12.73494272 </i>
    <i name="e_0_energy">    -12.73494272 </i>
   </energy>
  </scstep>
  <scstep>
   <time name="total">   64.53   64.85</time>
   <energy>
    <i name="e_fr_energy">    -12.82459761 </i>
    <i name="e_wo_entrp">    -12.82459761 </i>
    <i name="e_0_energy">    -12.82459761 </i>
   </energy>
  </scstep>
  <scstep>
   <time name="total">   64.99   65.31</time>
   <energy>
    <i name="e_fr_energy">    -12.85955921 </i>
    <i name="e_wo_entrp">    -12.85955921 </i>
    <i name="e_0_energy">    -12.85955921 </i>
   </energy>
  </scstep>
  <scstep>
   <time name="total">   66.47   66.79</time>
   <energy>
    <i name="e_fr_energy">    -12.86249930 </i>
    <i name="e_wo_entrp">    -12.86249930 </i>
    <i name="e_0_energy">    -12.86249930 </i>
   </energy>
  </scstep>
  <scstep>
   <time name="total">   62.84   63.16</time>
   <energy>
    <i name="e_fr_energy">    -12.86638414 </i>
    <i name="e_wo_entrp">    -12.86638414 </i>
    <i name="e_0_energy">    -12.86638414 </i>
   </energy>
  </scstep>
  <scstep>
   <time name="total">   66.76   67.10</time>
   <energy>
    <i name="e_fr_energy">    -12.86663240 </i>
    <i name="e_wo_entrp">    -12.86663240 </i>
    <i name="e_0_energy">    -12.86663240 </i>
   </energy>
  </scstep>
  <scstep>
   <time name="total">   65.68   66.06</time>
   <energy>
    <i name="e_fr_energy">    -12.86676164 </i>
    <i name="e_wo_entrp">    -12.86676164 </i>
    <i name="e_0_energy">    -12.86676164 </i>
   </energy>
  </scstep>
  <scstep>
   <time name="total">   70.62   71.05</time>
   <energy>
    <i name="e_fr_energy">    -12.86678780 </i>
    <i name="e_wo_entrp">    -12.86678780 </i>
    <i name="e_0_energy">    -12.86678780 </i>
   </energy>
  </scstep>
  <scstep>
   <time name="total">   68.69   69.05</time>
   <energy>
    <i name="e_fr_energy">    -12.86678677 </i>
    <i name="e_wo_entrp">    -12.86678677 </i>
    <i name="e_0_energy">    -12.86678677 </i>
   </energy>
  </scstep>
  <scstep>
   <time name="total">   68.59   68.91</time>
   <energy>
    <i name="e_fr_energy">    -12.86679274 </i>
    <i name="e_wo_entrp">    -12.86679274 </i>
    <i name="e_0_energy">    -12.86679274 </i>
   </energy>
  </scstep>
  <scstep>
   <time name="total">   68.49   68.89</time>
   <energy>
    <i name="e_fr_energy">    -12.86678686 </i>
    <i name="e_wo_entrp">    -12.86678686 </i>
    <i name="e_0_energy">    -12.86678686 </i>
   </energy>
  </scstep>
  <scstep>
   <time name="total">   68.11   68.44</time>
   <energy>
    <i name="e_fr_energy">    -12.86678872 </i>
    <i name="e_wo_entrp">    -12.86678872 </i>
    <i name="e_0_energy">    -12.86678872 </i>
   </energy>
  </scstep>
  <kpoints>
   <generation param="Gamma">
    <v type="int" name="divisions">      10        4        4 </v>
    <v name="usershift">      0.00000000       0.00000000       0.00000000 </v>
    <v name="genvec1">      0.10000000       0.00000000      -0.00000000 </v>
    <v name="genvec2">      0.00000000       0.25000000       0.00000000 </v>
    <v name="genvec3">      0.00000000       0.00000000       0.25000000 </v>
    <v name="shift">      0.00000000       0.00000000       0.00000000 </v>
   </generation>
   <varray name="kpointlist" >
    <v>       0.00000000       0.00000000       0.00000000 </v>
    <v>       0.10000000       0.00000000       0.00000000 </v>
    <v>       0.20000000       0.00000000      -0.00000000 </v>
    <v>       0.30000000       0.00000000      -0.00000000 </v>
    <v>       0.40000000       0.00000000      -0.00000000 </v>
    <v>       0.50000000       0.00000000      -0.00000000 </v>
    <v>       0.00000000       0.25000000       0.00000000 </v>
    <v>       0.10000000       0.25000000       0.00000000 </v>
    <v>       0.20000000       0.25000000      -0.00000000 </v>
    <v>       0.30000000       0.25000000      -0.00000000 </v>
    <v>       0.40000000       0.25000000      -0.00000000 </v>
    <v>       0.50000000       0.25000000      -0.00000000 </v>
    <v>       0.00000000       0.50000000       0.00000000 </v>
    <v>       0.10000000       0.50000000       0.00000000 </v>
    <v>       0.20000000       0.50000000      -0.00000000 </v>
    <v>       0.30000000       0.50000000      -0.00000000 </v>
    <v>       0.40000000       0.50000000      -0.00000000 </v>
    <v>       0.50000000       0.50000000      -0.00000000 </v>
    <v>       0.00000000       0.00000000       0.25000000 </v>
    <v>       0.10000000       0.00000000       0.25000000 </v>
    <v>       0.20000000       0.00000000       0.25000000 </v>
    <v>       0.30000000       0.00000000       0.25000000 </v>
    <v>       0.40000000       0.00000000       0.25000000 </v>
    <v>       0.50000000       0.00000000       0.25000000 </v>
    <v>      -0.40000000       0.00000000       0.25000000 </v>
    <v>      -0.30000000       0.00000000       0.25000000 </v>
    <v>      -0.20000000       0.00000000       0.25000000 </v>
    <v>      -0.10000000       0.00000000       0.25000000 </v>
    <v>       0.00000000       0.25000000       0.25000000 </v>
    <v>       0.10000000       0.25000000       0.25000000 </v>
    <v>       0.20000000       0.25000000       0.25000000 </v>
    <v>       0.30000000       0.25000000       0.25000000 </v>
    <v>       0.40000000       0.25000000       0.25000000 </v>
    <v>       0.50000000       0.25000000       0.25000000 </v>
    <v>      -0.40000000       0.25000000       0.25000000 </v>
    <v>      -0.30000000       0.25000000       0.25000000 </v>
    <v>      -0.20000000       0.25000000       0.25000000 </v>
    <v>      -0.10000000       0.25000000       0.25000000 </v>
    <v>       0.00000000       0.50000000       0.25000000 </v>
    <v>       0.10000000       0.50000000       0.25000000 </v>
    <v>       0.20000000       0.50000000       0.25000000 </v>
    <v>       0.30000000       0.50000000       0.25000000 </v>
    <v>       0.40000000       0.50000000       0.25000000 </v>
    <v>       0.50000000       0.50000000       0.25000000 </v>
    <v>      -0.40000000       0.50000000       0.25000000 </v>
    <v>      -0.30000000       0.50000000       0.25000000 </v>
    <v>      -0.20000000       0.50000000       0.25000000 </v>
    <v>      -0.10000000       0.50000000       0.25000000 </v>
    <v>       0.00000000       0.00000000       0.50000000 </v>
    <v>       0.10000000       0.00000000       0.50000000 </v>
    <v>       0.20000000       0.00000000       0.50000000 </v>
    <v>       0.30000000       0.00000000       0.50000000 </v>
    <v>       0.40000000       0.00000000       0.50000000 </v>
    <v>       0.50000000       0.00000000       0.50000000 </v>
    <v>       0.00000000       0.25000000       0.50000000 </v>
    <v>       0.10000000       0.25000000       0.50000000 </v>
    <v>       0.20000000       0.25000000       0.50000000 </v>
    <v>       0.30000000       0.25000000       0.50000000 </v>
    <v>       0.40000000       0.25000000       0.50000000 </v>
    <v>       0.50000000       0.25000000       0.50000000 </v>
    <v>       0.00000000       0.50000000       0.50000000 </v>
    <v>       0.10000000       0.50000000       0.50000000 </v>
    <v>       0.20000000       0.50000000       0.50000000 </v>
    <v>       0.30000000       0.50000000       0.50000000 </v>
    <v>       0.40000000       0.50000000       0.50000000 </v>
    <v>       0.50000000       0.50000000       0.50000000 </v>
   </varray>
   <varray name="weights" >
    <v>       0.00625000 </v>
    <v>       0.01250000 </v>
    <v>       0.01250000 </v>
    <v>       0.01250000 </v>
    <v>       0.01250000 </v>
    <v>       0.00625000 </v>
    <v>       0.01250000 </v>
    <v>       0.02500000 </v>
    <v>       0.02500000 </v>
    <v>       0.02500000 </v>
    <v>       0.02500000 </v>
    <v>       0.01250000 </v>
    <v>       0.00625000 </v>
    <v>       0.01250000 </v>
    <v>       0.01250000 </v>
    <v>       0.01250000 </v>
    <v>       0.01250000 </v>
    <v>       0.00625000 </v>
    <v>       0.01250000 </v>
    <v>       0.01250000 </v>
    <v>       0.01250000 </v>
    <v>       0.01250000 </v>
    <v>       0.01250000 </v>
    <v>       0.01250000 </v>
    <v>       0.01250000 </v>
    <v>       0.01250000 </v>
    <v>       0.01250000 </v>
    <v>       0.01250000 </v>
    <v>       0.02500000 </v>
    <v>       0.02500000 </v>
    <v>       0.02500000 </v>
    <v>       0.02500000 </v>
    <v>       0.02500000 </v>
    <v>       0.02500000 </v>
    <v>       0.02500000 </v>
    <v>       0.02500000 </v>
    <v>       0.02500000 </v>
    <v>       0.02500000 </v>
    <v>       0.01250000 </v>
    <v>       0.01250000 </v>
    <v>       0.01250000 </v>
    <v>       0.01250000 </v>
    <v>       0.01250000 </v>
    <v>       0.01250000 </v>
    <v>       0.01250000 </v>
    <v>       0.01250000 </v>
    <v>       0.01250000 </v>
    <v>       0.01250000 </v>
    <v>       0.00625000 </v>
    <v>       0.01250000 </v>
    <v>       0.01250000 </v>
    <v>       0.01250000 </v>
    <v>       0.01250000 </v>
    <v>       0.00625000 </v>
    <v>       0.01250000 </v>
    <v>       0.02500000 </v>
    <v>       0.02500000 </v>
    <v>       0.02500000 </v>
    <v>       0.02500000 </v>
    <v>       0.01250000 </v>
    <v>       0.00625000 </v>
    <v>       0.01250000 </v>
    <v>       0.01250000 </v>
    <v>       0.01250000 </v>
    <v>       0.01250000 </v>
    <v>       0.00625000 </v>
   </varray>
  </kpoints>
  <scstep>
   <time name="total">   52.78   53.05</time>
   <energy>
    <i name="e_fr_energy">    -11.09586919 </i>
    <i name="e_wo_entrp">    -11.09586919 </i>
    <i name="e_0_energy">    -11.09586919 </i>
   </energy>
  </scstep>
  <scstep>
   <time name="total">   49.94   50.20</time>
   <energy>
    <i name="e_fr_energy">    -11.81523858 </i>
    <i name="e_wo_entrp">    -11.81523858 </i>
    <i name="e_0_energy">    -11.81523858 </i>
   </energy>
  </scstep>
  <scstep>
   <time name="total">   56.27   56.58</time>
   <energy>
    <i name="e_fr_energy">     -8.41947274 </i>
    <i name="e_wo_entrp">     -8.41947274 </i>
    <i name="e_0_energy">     -8.41947274 </i>
   </energy>
  </scstep>
  <scstep>
   <time name="total">   66.02   66.36</time>
   <energy>
    <i name="e_fr_energy">     -8.60233474 </i>
    <i name="e_wo_entrp">     -8.60233474 </i>
    <i name="e_0_energy">     -8.60233474 </i>
   </energy>
  </scstep>
  <scstep>
   <time name="total">   61.89   62.23</time>
   <energy>
    <i name="e_fr_energy">     -8.76440702 </i>
    <i name="e_wo_entrp">     -8.76440702 </i>
    <i name="e_0_energy">     -8.76440702 </i>
   </energy>
  </scstep>
  <scstep>
   <time name="total">   65.19   65.54</time>
   <energy>
    <i name="e_fr_energy">     -8.85710108 </i>
    <i name="e_wo_entrp">     -8.85710108 </i>
    <i name="e_0_energy">     -8.85710108 </i>
   </energy>
  </scstep>
  <scstep>
   <time name="total">   63.86   64.25</time>
   <energy>
    <i name="e_fr_energy">     -8.90518766 </i>
    <i name="e_wo_entrp">     -8.90518766 </i>
    <i name="e_0_energy">     -8.90518766 </i>
   </energy>
  </scstep>
  <scstep>
   <time name="total">   64.23   64.59</time>
   <energy>
    <i name="e_fr_energy">     -8.90829330 </i>
    <i name="e_wo_entrp">     -8.90829330 </i>
    <i name="e_0_energy">     -8.90829330 </i>
   </energy>
  </scstep>
  <scstep>
   <time name="total">   64.05   64.40</time>
   <energy>
    <i name="e_fr_energy">     -8.91215868 </i>
    <i name="e_wo_entrp">     -8.91215868 </i>
    <i name="e_0_energy">     -8.91215868 </i>
   </energy>
  </scstep>
  <scstep>
   <time name="total">   68.22   68.64</time>
   <energy>
    <i name="e_fr_energy">     -8.91253927 </i>
    <i name="e_wo_entrp">     -8.91253927 </i>
    <i name="e_0_energy">     -8.91253927 </i>
   </energy>
  </scstep>
  <scstep>
   <time name="total">   67.26   67.65</time>
   <energy>
    <i name="e_fr_energy">     -8.91270792 </i>
    <i name="e_wo_entrp">     -8.91270792 </i>
    <i name="e_0_energy">     -8.91270792 </i>
   </energy>
  </scstep>
  <scstep>
   <time name="total">   66.34   66.69</time>
   <energy>
    <i name="e_fr_energy">     -8.91271398 </i>
    <i name="e_wo_entrp">     -8.91271398 </i>
    <i name="e_0_energy">     -8.91271398 </i>
   </energy>
  </scstep>
  <scstep>
   <time name="total">   68.62   69.02</time>
   <energy>
    <i name="e_fr_energy">     -8.91272930 </i>
    <i name="e_wo_entrp">     -8.91272930 </i>
    <i name="e_0_energy">     -8.91272930 </i>
   </energy>
  </scstep>
  <scstep>
   <time name="total">   70.64   71.01</time>
   <energy>
    <i name="e_fr_energy">     -8.91272485 </i>
    <i name="e_wo_entrp">     -8.91272485 </i>
    <i name="e_0_energy">     -8.91272485 </i>
   </energy>
  </scstep>
  <scstep>
   <time name="total">   68.64   69.01</time>
   <energy>
    <i name="e_fr_energy">     -8.91272047 </i>
    <i name="e_wo_entrp">     -8.91272047 </i>
    <i name="e_0_energy">     -8.91272047 </i>
   </energy>
  </scstep>
  <scstep>
   <time name="total">   65.75   66.10</time>
   <energy>
    <i name="e_fr_energy">     -8.91272050 </i>
    <i name="e_wo_entrp">     -8.91272050 </i>
    <i name="e_0_energy">     -8.91272050 </i>
   </energy>
  </scstep>
  <kpoints>
   <generation param="Gamma">
    <v type="int" name="divisions">      10        4        4 </v>
    <v name="usershift">      0.00000000       0.00000000       0.00000000 </v>
    <v name="genvec1">      0.10000000       0.00000000      -0.00000000 </v>
    <v name="genvec2">      0.00000000       0.25000000       0.00000000 </v>
    <v name="genvec3">      0.00000000       0.00000000       0.25000000 </v>
    <v name="shift">      0.00000000       0.00000000       0.00000000 </v>
   </generation>
   <varray name="kpointlist" >
    <v>       0.00000000       0.00000000       0.00000000 </v>
    <v>       0.10000000       0.00000000       0.00000000 </v>
    <v>       0.20000000       0.00000000      -0.00000000 </v>
    <v>       0.30000000       0.00000000      -0.00000000 </v>
    <v>       0.40000000       0.00000000      -0.00000000 </v>
    <v>       0.50000000       0.00000000      -0.00000000 </v>
    <v>       0.00000000       0.25000000       0.00000000 </v>
    <v>       0.10000000       0.25000000       0.00000000 </v>
    <v>       0.20000000       0.25000000      -0.00000000 </v>
    <v>       0.30000000       0.25000000      -0.00000000 </v>
    <v>       0.40000000       0.25000000      -0.00000000 </v>
    <v>       0.50000000       0.25000000      -0.00000000 </v>
    <v>       0.00000000       0.50000000       0.00000000 </v>
    <v>       0.10000000       0.50000000       0.00000000 </v>
    <v>       0.20000000       0.50000000      -0.00000000 </v>
    <v>       0.30000000       0.50000000      -0.00000000 </v>
    <v>       0.40000000       0.50000000      -0.00000000 </v>
    <v>       0.50000000       0.50000000      -0.00000000 </v>
    <v>       0.00000000       0.00000000       0.25000000 </v>
    <v>       0.10000000       0.00000000       0.25000000 </v>
    <v>       0.20000000       0.00000000       0.25000000 </v>
    <v>       0.30000000       0.00000000       0.25000000 </v>
    <v>       0.40000000       0.00000000       0.25000000 </v>
    <v>       0.50000000       0.00000000       0.25000000 </v>
    <v>      -0.40000000       0.00000000       0.25000000 </v>
    <v>      -0.30000000       0.00000000       0.25000000 </v>
    <v>      -0.20000000       0.00000000       0.25000000 </v>
    <v>      -0.10000000       0.00000000       0.25000000 </v>
    <v>       0.00000000       0.25000000       0.25000000 </v>
    <v>       0.10000000       0.25000000       0.25000000 </v>
    <v>       0.20000000       0.25000000       0.25000000 </v>
    <v>       0.30000000       0.25000000       0.25000000 </v>
    <v>       0.40000000       0.25000000       0.25000000 </v>
    <v>       0.50000000       0.25000000       0.25000000 </v>
    <v>      -0.40000000       0.25000000       0.25000000 </v>
    <v>      -0.30000000       0.25000000       0.25000000 </v>
    <v>      -0.20000000       0.25000000       0.25000000 </v>
    <v>      -0.10000000       0.25000000       0.25000000 </v>
    <v>       0.00000000       0.50000000       0.25000000 </v>
    <v>       0.10000000       0.50000000       0.25000000 </v>
    <v>       0.20000000       0.50000000       0.25000000 </v>
    <v>       0.30000000       0.50000000       0.25000000 </v>
    <v>       0.40000000       0.50000000       0.25000000 </v>
    <v>       0.50000000       0.50000000       0.25000000 </v>
    <v>      -0.40000000       0.50000000       0.25000000 </v>
    <v>      -0.30000000       0.50000000       0.25000000 </v>
    <v>      -0.20000000       0.50000000       0.25000000 </v>
    <v>      -0.10000000       0.50000000       0.25000000 </v>
    <v>       0.00000000       0.00000000       0.50000000 </v>
    <v>       0.10000000       0.00000000       0.50000000 </v>
    <v>       0.20000000       0.00000000       0.50000000 </v>
    <v>       0.30000000       0.00000000       0.50000000 </v>
    <v>       0.40000000       0.00000000       0.50000000 </v>
    <v>       0.50000000       0.00000000       0.50000000 </v>
    <v>       0.00000000       0.25000000       0.50000000 </v>
    <v>       0.10000000       0.25000000       0.50000000 </v>
    <v>       0.20000000       0.25000000       0.50000000 </v>
    <v>       0.30000000       0.25000000       0.50000000 </v>
    <v>       0.40000000       0.25000000       0.50000000 </v>
    <v>       0.50000000       0.25000000       0.50000000 </v>
    <v>       0.00000000       0.50000000       0.50000000 </v>
    <v>       0.10000000       0.50000000       0.50000000 </v>
    <v>       0.20000000       0.50000000       0.50000000 </v>
    <v>       0.30000000       0.50000000       0.50000000 </v>
    <v>       0.40000000       0.50000000       0.50000000 </v>
    <v>       0.50000000       0.50000000       0.50000000 </v>
   </varray>
   <varray name="weights" >
    <v>       0.00625000 </v>
    <v>       0.01250000 </v>
    <v>       0.01250000 </v>
    <v>       0.01250000 </v>
    <v>       0.01250000 </v>
    <v>       0.00625000 </v>
    <v>       0.01250000 </v>
    <v>       0.02500000 </v>
    <v>       0.02500000 </v>
    <v>       0.02500000 </v>
    <v>       0.02500000 </v>
    <v>       0.01250000 </v>
    <v>       0.00625000 </v>
    <v>       0.01250000 </v>
    <v>       0.01250000 </v>
    <v>       0.01250000 </v>
    <v>       0.01250000 </v>
    <v>       0.00625000 </v>
    <v>       0.01250000 </v>
    <v>       0.01250000 </v>
    <v>       0.01250000 </v>
    <v>       0.01250000 </v>
    <v>       0.01250000 </v>
    <v>       0.01250000 </v>
    <v>       0.01250000 </v>
    <v>       0.01250000 </v>
    <v>       0.01250000 </v>
    <v>       0.01250000 </v>
    <v>       0.02500000 </v>
    <v>       0.02500000 </v>
    <v>       0.02500000 </v>
    <v>       0.02500000 </v>
    <v>       0.02500000 </v>
    <v>       0.02500000 </v>
    <v>       0.02500000 </v>
    <v>       0.02500000 </v>
    <v>       0.02500000 </v>
    <v>       0.02500000 </v>
    <v>       0.01250000 </v>
    <v>       0.01250000 </v>
    <v>       0.01250000 </v>
    <v>       0.01250000 </v>
    <v>       0.01250000 </v>
    <v>       0.01250000 </v>
    <v>       0.01250000 </v>
    <v>       0.01250000 </v>
    <v>       0.01250000 </v>
    <v>       0.01250000 </v>
    <v>       0.00625000 </v>
    <v>       0.01250000 </v>
    <v>       0.01250000 </v>
    <v>       0.01250000 </v>
    <v>       0.01250000 </v>
    <v>       0.00625000 </v>
    <v>       0.01250000 </v>
    <v>       0.02500000 </v>
    <v>       0.02500000 </v>
    <v>       0.02500000 </v>
    <v>       0.02500000 </v>
    <v>       0.01250000 </v>
    <v>       0.00625000 </v>
    <v>       0.01250000 </v>
    <v>       0.01250000 </v>
    <v>       0.01250000 </v>
    <v>       0.01250000 </v>
    <v>       0.00625000 </v>
   </varray>
  </kpoints>
  <scstep>
   <time name="total">   53.01   53.28</time>
   <energy>
    <i name="e_fr_energy">    -16.31056963 </i>
    <i name="e_wo_entrp">    -16.31056963 </i>
    <i name="e_0_energy">    -16.31056963 </i>
   </energy>
  </scstep>
  <scstep>
   <time name="total">   50.18   50.41</time>
   <energy>
    <i name="e_fr_energy">    -17.06364071 </i>
    <i name="e_wo_entrp">    -17.06364071 </i>
    <i name="e_0_energy">    -17.06364071 </i>
   </energy>
  </scstep>
  <scstep>
   <time name="total">   55.10   55.39</time>
   <energy>
    <i name="e_fr_energy">    -15.94209469 </i>
    <i name="e_wo_entrp">    -15.94209469 </i>
    <i name="e_0_energy">    -15.94209469 </i>
   </energy>
  </scstep>
  <scstep>
   <time name="total">   63.40   63.70</time>
   <energy>
    <i name="e_fr_energy">    -16.28428130 </i>
    <i name="e_wo_entrp">    -16.28428130 </i>
    <i name="e_0_energy">    -16.28428130 </i>
   </energy>
  </scstep>
  <scstep>
   <time name="total">   65.86   66.20</time>
   <energy>
    <i name="e_fr_energy">    -16.52653824 </i>
    <i name="e_wo_entrp">    -16.52653824 </i>
    <i name="e_0_energy">    -16.52653824 </i>
   </energy>
  </scstep>
  <scstep>
   <time name="total">   64.17   64.51</time>
   <energy>
    <i name="e_fr_energy">    -16.58794580 </i>
    <i name="e_wo_entrp">    -16.58794580 </i>
    <i name="e_0_energy">    -16.58794580 </i>
   </energy>
  </scstep>
  <scstep>
   <time name="total">   62.96   63.27</time>
   <energy>
    <i name="e_fr_energy">    -16.61800154 </i>
    <i name="e_wo_entrp">    -16.61800154 </i>
    <i name="e_0_energy">    -16.61800154 </i>
   </energy>
  </scstep>
  <scstep>
   <time name="total">   65.63   66.00</time>
   <energy>
    <i name="e_fr_energy">    -16.62350405 </i>
    <i name="e_wo_entrp">    -16.62350405 </i>
    <i name="e_0_energy">    -16.62350405 </i>
   </energy>
  </scstep>
  <scstep>
   <time name="total">   65.81   66.14</time>
   <energy>
    <i name="e_fr_energy">    -16.62554604 </i>
    <i name="e_wo_entrp">    -16.62554604 </i>
    <i name="e_0_energy">    -16.62554604 </i>
   </energy>
  </scstep>
  <scstep>
   <time name="total">   67.30   67.65</time>
   <energy>
    <i name="e_fr_energy">    -16.62565417 </i>
    <i name="e_wo_entrp">    -16.62565417 </i>
    <i name="e_0_energy">    -16.62565417 </i>
   </energy>
  </scstep>
  <scstep>
   <time name="total">   68.13   68.47</time>
   <energy>
    <i name="e_fr_energy">    -16.62571503 </i>
    <i name="e_wo_entrp">    -16.62571503 </i>
    <i name="e_0_energy">    -16.62571503 </i>
   </energy>
  </scstep>
  <scstep>
   <time name="total">   69.45   69.81</time>
   <energy>
    <i name="e_fr_energy">    -16.62571269 </i>
    <i name="e_wo_entrp">    -16.62571269 </i>
    <i name="e_0_energy">    -16.62571269 </i>
   </energy>
  </scstep>
  <scstep>
   <time name="total">   68.90   69.27</time>
   <energy>
    <i name="e_fr_energy">    -16.62570998 </i>
    <i name="e_wo_entrp">    -16.62570998 </i>
    <i name="e_0_energy">    -16.62570998 </i>
   </energy>
  </scstep>
  <scstep>
   <time name="total">   66.69   67.07</time>
   <energy>
    <i name="e_fr_energy">    -16.62570996 </i>
    <i name="e_wo_entrp">    -16.62570996 </i>
    <i name="e_0_energy">    -16.62570996 </i>
   </energy>
  </scstep>
  <scstep>
   <time name="total">   69.22   69.60</time>
   <energy>
    <i name="e_fr_energy">    -16.62570782 </i>
    <i name="e_wo_entrp">    -16.62570782 </i>
    <i name="e_0_energy">    -16.62570782 </i>
   </energy>
  </scstep>
  <kpoints>
   <generation param="Gamma">
    <v type="int" name="divisions">      10        4        4 </v>
    <v name="usershift">      0.00000000       0.00000000       0.00000000 </v>
    <v name="genvec1">      0.10000000       0.00000000      -0.00000000 </v>
    <v name="genvec2">      0.00000000       0.25000000       0.00000000 </v>
    <v name="genvec3">      0.00000000       0.00000000       0.25000000 </v>
    <v name="shift">      0.00000000       0.00000000       0.00000000 </v>
   </generation>
   <varray name="kpointlist" >
    <v>       0.00000000       0.00000000       0.00000000 </v>
    <v>       0.10000000       0.00000000       0.00000000 </v>
    <v>       0.20000000       0.00000000      -0.00000000 </v>
    <v>       0.30000000       0.00000000      -0.00000000 </v>
    <v>       0.40000000       0.00000000      -0.00000000 </v>
    <v>       0.50000000       0.00000000      -0.00000000 </v>
    <v>       0.00000000       0.25000000       0.00000000 </v>
    <v>       0.10000000       0.25000000       0.00000000 </v>
    <v>       0.20000000       0.25000000      -0.00000000 </v>
    <v>       0.30000000       0.25000000      -0.00000000 </v>
    <v>       0.40000000       0.25000000      -0.00000000 </v>
    <v>       0.50000000       0.25000000      -0.00000000 </v>
    <v>       0.00000000       0.50000000       0.00000000 </v>
    <v>       0.10000000       0.50000000       0.00000000 </v>
    <v>       0.20000000       0.50000000      -0.00000000 </v>
    <v>       0.30000000       0.50000000      -0.00000000 </v>
    <v>       0.40000000       0.50000000      -0.00000000 </v>
    <v>       0.50000000       0.50000000      -0.00000000 </v>
    <v>       0.00000000       0.00000000       0.25000000 </v>
    <v>       0.10000000       0.00000000       0.25000000 </v>
    <v>       0.20000000       0.00000000       0.25000000 </v>
    <v>       0.30000000       0.00000000       0.25000000 </v>
    <v>       0.40000000       0.00000000       0.25000000 </v>
    <v>       0.50000000       0.00000000       0.25000000 </v>
    <v>      -0.40000000       0.00000000       0.25000000 </v>
    <v>      -0.30000000       0.00000000       0.25000000 </v>
    <v>      -0.20000000       0.00000000       0.25000000 </v>
    <v>      -0.10000000       0.00000000       0.25000000 </v>
    <v>       0.00000000       0.25000000       0.25000000 </v>
    <v>       0.10000000       0.25000000       0.25000000 </v>
    <v>       0.20000000       0.25000000       0.25000000 </v>
    <v>       0.30000000       0.25000000       0.25000000 </v>
    <v>       0.40000000       0.25000000       0.25000000 </v>
    <v>       0.50000000       0.25000000       0.25000000 </v>
    <v>      -0.40000000       0.25000000       0.25000000 </v>
    <v>      -0.30000000       0.25000000       0.25000000 </v>
    <v>      -0.20000000       0.25000000       0.25000000 </v>
    <v>      -0.10000000       0.25000000       0.25000000 </v>
    <v>       0.00000000       0.50000000       0.25000000 </v>
    <v>       0.10000000       0.50000000       0.25000000 </v>
    <v>       0.20000000       0.50000000       0.25000000 </v>
    <v>       0.30000000       0.50000000       0.25000000 </v>
    <v>       0.40000000       0.50000000       0.25000000 </v>
    <v>       0.50000000       0.50000000       0.25000000 </v>
    <v>      -0.40000000       0.50000000       0.25000000 </v>
    <v>      -0.30000000       0.50000000       0.25000000 </v>
    <v>      -0.20000000       0.50000000       0.25000000 </v>
    <v>      -0.10000000       0.50000000       0.25000000 </v>
    <v>       0.00000000       0.00000000       0.50000000 </v>
    <v>       0.10000000       0.00000000       0.50000000 </v>
    <v>       0.20000000       0.00000000       0.50000000 </v>
    <v>       0.30000000       0.00000000       0.50000000 </v>
    <v>       0.40000000       0.00000000       0.50000000 </v>
    <v>       0.50000000       0.00000000       0.50000000 </v>
    <v>       0.00000000       0.25000000       0.50000000 </v>
    <v>       0.10000000       0.25000000       0.50000000 </v>
    <v>       0.20000000       0.25000000       0.50000000 </v>
    <v>       0.30000000       0.25000000       0.50000000 </v>
    <v>       0.40000000       0.25000000       0.50000000 </v>
    <v>       0.50000000       0.25000000       0.50000000 </v>
    <v>       0.00000000       0.50000000       0.50000000 </v>
    <v>       0.10000000       0.50000000       0.50000000 </v>
    <v>       0.20000000       0.50000000       0.50000000 </v>
    <v>       0.30000000       0.50000000       0.50000000 </v>
    <v>       0.40000000       0.50000000       0.50000000 </v>
    <v>       0.50000000       0.50000000       0.50000000 </v>
   </varray>
   <varray name="weights" >
    <v>       0.00625000 </v>
    <v>       0.01250000 </v>
    <v>       0.01250000 </v>
    <v>       0.01250000 </v>
    <v>       0.01250000 </v>
    <v>       0.00625000 </v>
    <v>       0.01250000 </v>
    <v>       0.02500000 </v>
    <v>       0.02500000 </v>
    <v>       0.02500000 </v>
[...]
       <r>    5.6410    0.0000 </r>
       <r>    5.6410    0.0000 </r>
       <r>    5.7183    0.0000 </r>
       <r>    5.7185    0.0000 </r>
      </set>
      <set comment="kpoint 66">
       <r>  -11.8667    1.0000 </r>
       <r>  -11.8667    1.0000 </r>
       <r>  -11.7701    1.0000 </r>
       <r>  -11.7701    1.0000 </r>
       <r>  -11.2825    1.0000 </r>
       <r>  -11.2825    1.0000 </r>
       <r>  -11.2648    1.0000 </r>
       <r>  -11.2648    1.0000 </r>
       <r>  -10.3330    1.0000 </r>
       <r>  -10.3330    1.0000 </r>
       <r>  -10.2938    1.0000 </r>
       <r>  -10.2938    1.0000 </r>
       <r>   -7.5500    1.0000 </r>
       <r>   -7.5500    1.0000 </r>
       <r>   -7.5392    1.0000 </r>
       <r>   -7.5392    1.0000 </r>
       <r>   -7.1223    1.0000 </r>
       <r>   -7.1223    1.0000 </r>
       <r>   -7.1035    1.0000 </r>
       <r>   -7.1035    1.0000 </r>
       <r>   -2.6285    1.0000 </r>
       <r>   -2.6285    1.0000 </r>
       <r>   -2.6190    1.0000 </r>
       <r>   -2.6190    1.0000 </r>
       <r>   -2.3203    1.0000 </r>
       <r>   -2.3203    1.0000 </r>
       <r>   -2.3197    1.0000 </r>
       <r>   -2.3197    1.0000 </r>
       <r>   -1.8107    1.0000 </r>
       <r>   -1.8107    1.0000 </r>
       <r>   -1.7221    1.0000 </r>
       <r>   -1.7221    1.0000 </r>
       <r>   -1.3182    1.0000 </r>
       <r>   -1.3182    1.0000 </r>
       <r>   -1.0344    1.0000 </r>
       <r>   -1.0344    1.0000 </r>
       <r>   -0.0612    1.0000 </r>
       <r>   -0.0612    1.0000 </r>
       <r>   -0.0606    1.0000 </r>
       <r>   -0.0606    1.0000 </r>
       <r>    0.2628    1.0000 </r>
       <r>    0.2628    1.0000 </r>
       <r>    0.3777    1.0000 </r>
       <r>    0.3777    1.0000 </r>
       <r>    0.7984    1.0000 </r>
       <r>    0.7984    1.0000 </r>
       <r>    1.0369    1.0000 </r>
       <r>    1.0369    1.0000 </r>
       <r>    1.1693    1.0000 </r>
       <r>    1.1693    1.0000 </r>
       <r>    1.4139    1.0000 </r>
       <r>    1.4139    1.0000 </r>
       <r>    1.5225    1.0000 </r>
       <r>    1.5225    1.0000 </r>
       <r>    1.5236    1.0000 </r>
       <r>    1.5236    1.0000 </r>
       <r>    4.0773    0.0000 </r>
       <r>    4.0773    0.0000 </r>
       <r>    4.4532    0.0000 </r>
       <r>    4.4532    0.0000 </r>
       <r>    4.9873    0.0000 </r>
       <r>    4.9873    0.0000 </r>
       <r>    5.0611    0.0000 </r>
       <r>    5.0611    0.0000 </r>
       <r>    5.2952    0.0000 </r>
       <r>    5.2952    0.0000 </r>
       <r>    5.3081    0.0000 </r>
       <r>    5.3081    0.0000 </r>
       <r>    5.6015    0.0000 </r>
       <r>    5.6015    0.0000 </r>
       <r>    5.7930    0.0000 </r>
       <r>    5.8767    0.0000 </r>
      </set>
     </set>
    </set>
   </array>
  </eigenvalues>
  <separator name="orbital magnetization" >
   <v name="MAGDIPOLOUT">      0.00000000      0.00000000      0.00000000</v>
  </separator>
  <dos>
   <i name="efermi">      2.13202412 </i>
   <total>
    <array>
     <dimension dim="1">gridpoints</dimension>
     <dimension dim="2">spin</dimension>
     <field>energy</field>
     <field>total</field>
     <field>integrated</field>
     <set>
      <set comment="spin 1">
       <r>   -13.6110     0.0000     0.0000 </r>
       <r>   -13.5427     0.0000     0.0000 </r>
       <r>   -13.4743     0.0000     0.0000 </r>
       <r>   -13.4059     0.0000     0.0000 </r>
       <r>   -13.3375     0.0000     0.0000 </r>
       <r>   -13.2692     0.0000     0.0000 </r>
       <r>   -13.2008     0.0000     0.0000 </r>
       <r>   -13.1324     0.0000     0.0000 </r>
       <r>   -13.0641     0.0000     0.0000 </r>
       <r>   -12.9957     0.0000     0.0000 </r>
       <r>   -12.9273     0.0000     0.0000 </r>
       <r>   -12.8589     0.0000     0.0000 </r>
       <r>   -12.7906     0.0000     0.0000 </r>
       <r>   -12.7222     0.0000     0.0000 </r>
       <r>   -12.6538     0.4104     0.0281 </r>
       <r>   -12.5854     3.7672     0.2856 </r>
       <r>   -12.5171     4.2723     0.5796 </r>
       <r>   -12.4487     8.8307     1.1849 </r>
       <r>   -12.3803     6.6541     1.6409 </r>
       <r>   -12.3119     9.3640     2.2822 </r>
       <r>   -12.2436     9.0136     2.9000 </r>
       <r>   -12.1752     9.5292     3.5517 </r>
       <r>   -12.1068     9.8721     4.2295 </r>
       <r>   -12.0384    10.2725     4.9322 </r>
       <r>   -11.9701    10.2555     5.6341 </r>
       <r>   -11.9017     7.2661     6.1312 </r>
       <r>   -11.8333     9.9174     6.8096 </r>
       <r>   -11.7649     9.4364     7.4551 </r>
       <r>   -11.6966     4.7145     7.7786 </r>
       <r>   -11.6282     3.2257     7.9993 </r>
       <r>   -11.5598     0.0000     8.0000 </r>
       <r>   -11.4915     2.7922     8.1909 </r>
       <r>   -11.4231    10.1052     8.8830 </r>
       <r>   -11.3547     7.2613     9.3799 </r>
       <r>   -11.2863    12.3344    10.2245 </r>
       <r>   -11.2180    15.9013    11.3153 </r>
       <r>   -11.1496     3.6698    11.5672 </r>
       <r>   -11.0812     6.5757    12.0175 </r>
       <r>   -11.0128    10.2071    12.7175 </r>
       <r>   -10.9445     8.4817    13.2987 </r>
       <r>   -10.8761     2.3013    13.4574 </r>
       <r>   -10.8077     5.4939    13.8337 </r>
       <r>   -10.7393     6.2982    14.2645 </r>
       <r>   -10.6710     6.3833    14.7010 </r>
       <r>   -10.6026     2.1435    14.8476 </r>
       <r>   -10.5342     3.9702    15.1190 </r>
       <r>   -10.4658     5.3977    15.4883 </r>
       <r>   -10.3975    14.9859    16.5151 </r>
       <r>   -10.3291    29.0442    18.5043 </r>
       <r>   -10.2607    50.0858    21.9359 </r>
       <r>   -10.1924    28.0201    23.8594 </r>
       <r>   -10.1240     1.9856    24.0000 </r>
       <r>   -10.0556     0.0000    24.0000 </r>
       <r>    -9.9872     0.0000    24.0000 </r>
       <r>    -9.9189     0.0000    24.0000 </r>
       <r>    -9.8505     0.0000    24.0000 </r>
       <r>    -9.7821     0.0000    24.0000 </r>
       <r>    -9.7137     0.0000    24.0000 </r>
       <r>    -9.6454     0.0000    24.0000 </r>
       <r>    -9.5770     0.0000    24.0000 </r>
       <r>    -9.5086     0.0000    24.0000 </r>
       <r>    -9.4402     0.0000    24.0000 </r>
       <r>    -9.3719     0.0000    24.0000 </r>
       <r>    -9.3035     0.0000    24.0000 </r>
       <r>    -9.2351     0.0000    24.0000 </r>
       <r>    -9.1667     0.0000    24.0000 </r>
       <r>    -9.0984     0.0000    24.0000 </r>
       <r>    -9.0300     0.0000    24.0000 </r>
       <r>    -8.9616     0.0000    24.0000 </r>
       <r>    -8.8932     0.0000    24.0000 </r>
       <r>    -8.8249     0.0000    24.0000 </r>
       <r>    -8.7565     0.0795    24.0054 </r>
       <r>    -8.6881     0.8637    24.0645 </r>
       <r>    -8.6198     1.6660    24.1784 </r>
       <r>    -8.5514     4.1771    24.4641 </r>
       <r>    -8.4830     3.3862    24.6957 </r>
       <r>    -8.4146     3.0672    24.9061 </r>
       <r>    -8.3463     1.7044    25.0227 </r>
       <r>    -8.2779     3.4917    25.2638 </r>
       <r>    -8.2095     6.8892    25.7349 </r>
       <r>    -8.1411     5.3058    26.0985 </r>
       <r>    -8.0728     2.3368    26.2598 </r>
       <r>    -8.0044     4.6933    26.5825 </r>
       <r>    -7.9360     3.9084    26.8497 </r>
       <r>    -7.8676     8.8238    27.4539 </r>
       <r>    -7.7993     7.2331    27.9505 </r>
       <r>    -7.7309     6.0482    28.3642 </r>
       <r>    -7.6625     5.3266    28.7288 </r>
       <r>    -7.5941    10.6397    29.4563 </r>
       <r>    -7.5258    14.8237    30.4711 </r>
       <r>    -7.4574    10.7947    31.2130 </r>
       <r>    -7.3890     7.2335    31.7092 </r>
       <r>    -7.3207     3.1296    31.9233 </r>
       <r>    -7.2523     1.0897    31.9995 </r>
       <r>    -7.1839     2.4214    32.1656 </r>
       <r>    -7.1155     7.1273    32.6531 </r>
       <r>    -7.0472     5.0321    32.9983 </r>
       <r>    -6.9788     7.1534    33.4883 </r>
       <r>    -6.9104     4.7295    33.8117 </r>
       <r>    -6.8420     5.2420    34.1702 </r>
       <r>    -6.7737     8.6249    34.7609 </r>
       <r>    -6.7053     3.5885    35.0099 </r>
       <r>    -6.6369     3.9491    35.2807 </r>
       <r>    -6.5685     5.8879    35.6856 </r>
       <r>    -6.5002     7.5844    36.2049 </r>
       <r>    -6.4318     7.5836    36.7236 </r>
       <r>    -6.3634     5.3376    37.0900 </r>
       <r>    -6.2950    10.2282    37.7905 </r>
       <r>    -6.2267    10.7981    38.5309 </r>
       <r>    -6.1583     4.0602    38.8088 </r>
       <r>    -6.0899     4.6627    39.1276 </r>
       <r>    -6.0216     8.9069    39.7377 </r>
       <r>    -5.9532     3.6904    39.9926 </r>
       <r>    -5.8848     0.1074    40.0000 </r>
       <r>    -5.8164     0.0000    40.0000 </r>
       <r>    -5.7481     0.0000    40.0000 </r>
       <r>    -5.6797     0.0000    40.0000 </r>
       <r>    -5.6113     0.0000    40.0000 </r>
       <r>    -5.5429     0.0000    40.0000 </r>
       <r>    -5.4746     0.0000    40.0000 </r>
       <r>    -5.4062     0.0000    40.0000 </r>
       <r>    -5.3378     0.0000    40.0000 </r>
       <r>    -5.2694     0.0000    40.0000 </r>
       <r>    -5.2011     0.0000    40.0000 </r>
       <r>    -5.1327     0.0000    40.0000 </r>
       <r>    -5.0643     0.0000    40.0000 </r>
       <r>    -4.9959     0.0000    40.0000 </r>
       <r>    -4.9276     0.0000    40.0000 </r>
       <r>    -4.8592     0.0000    40.0000 </r>
       <r>    -4.7908     0.0000    40.0000 </r>
       <r>    -4.7224     0.0000    40.0000 </r>
       <r>    -4.6541     0.0000    40.0000 </r>
       <r>    -4.5857     0.0000    40.0000 </r>
       <r>    -4.5173     0.0000    40.0000 </r>
       <r>    -4.4490     0.0000    40.0000 </r>
       <r>    -4.3806     0.0000    40.0000 </r>
       <r>    -4.3122     0.0000    40.0000 </r>
       <r>    -4.2438     0.0000    40.0000 </r>
       <r>    -4.1755     0.0000    40.0000 </r>
       <r>    -4.1071     0.0000    40.0000 </r>
       <r>    -4.0387     0.0000    40.0000 </r>
       <r>    -3.9703     0.0000    40.0000 </r>
       <r>    -3.9020     0.0000    40.0000 </r>
       <r>    -3.8336     0.0000    40.0000 </r>
       <r>    -3.7652     0.0000    40.0000 </r>
       <r>    -3.6968     0.0000    40.0000 </r>
       <r>    -3.6285     0.0000    40.0000 </r>
       <r>    -3.5601     0.0000    40.0000 </r>
       <r>    -3.4917     0.0000    40.0000 </r>
       <r>    -3.4233     0.0000    40.0000 </r>
       <r>    -3.3550     0.0000    40.0000 </r>
       <r>    -3.2866     0.0000    40.0000 </r>
       <r>    -3.2182     0.0000    40.0000 </r>
       <r>    -3.1499     0.0000    40.0000 </r>
       <r>    -3.0815     0.0000    40.0000 </r>
       <r>    -3.0131     0.0000    40.0000 </r>
       <r>    -2.9447     0.0083    40.0006 </r>
       <r>    -2.8764     0.5925    40.0411 </r>
       <r>    -2.8080     5.8617    40.4419 </r>
       <r>    -2.7396     8.3725    41.0148 </r>
       <r>    -2.6712    24.6227    42.6988 </r>
       <r>    -2.6029    19.7346    44.0530 </r>
       <r>    -2.5345    12.3769    44.9053 </r>
       <r>    -2.4661    11.3732    45.6844 </r>
       <r>    -2.3977    13.1022    46.5824 </r>
       <r>    -2.3294    16.1563    47.6885 </r>
       <r>    -2.2610    13.9992    48.6477 </r>
       <r>    -2.1926    12.4562    49.5030 </r>
       <r>    -2.1242    16.2831    50.6181 </r>
       <r>    -2.0559    11.3942    51.4037 </r>
       <r>    -1.9875    14.9117    52.4242 </r>
       <r>    -1.9191    16.1133    53.5313 </r>
       <r>    -1.8507    19.6064    54.8769 </r>
       <r>    -1.7824    18.6042    56.1516 </r>
       <r>    -1.7140    18.5869    57.4242 </r>
       <r>    -1.6456    16.8331    58.5768 </r>
       <r>    -1.5773    16.8806    59.7335 </r>
       <r>    -1.5089    14.4119    60.7235 </r>
       <r>    -1.4405    15.5142    61.7844 </r>
       <r>    -1.3721    14.7436    62.7938 </r>
       <r>    -1.3038    17.5565    63.9955 </r>
       <r>    -1.2354    12.0752    64.8238 </r>
       <r>    -1.1670    10.9597    65.5754 </r>
       <r>    -1.0986     9.2762    66.2117 </r>
       <r>    -1.0303    13.6448    67.1450 </r>
       <r>    -0.9619    11.6739    67.9460 </r>
       <r>    -0.8935     8.2309    68.5110 </r>
       <r>    -0.8251    11.1480    69.2744 </r>
       <r>    -0.7568     6.9126    69.7475 </r>
       <r>    -0.6884     4.8582    70.0797 </r>
       <r>    -0.6200     9.0450    70.6992 </r>
       <r>    -0.5516    15.6349    71.7699 </r>
       <r>    -0.4833    11.9276    72.5861 </r>
       <r>    -0.4149     9.7761    73.2547 </r>
       <r>    -0.3465    13.1523    74.1565 </r>
       <r>    -0.2782    11.1594    74.9198 </r>
       <r>    -0.2098    13.5683    75.8501 </r>
       <r>    -0.1414    15.5663    76.9149 </r>
       <r>    -0.0730    11.9416    77.7316 </r>
       <r>    -0.0047    17.0205    78.8971 </r>
       <r>     0.0637    13.6572    79.8335 </r>
       <r>     0.1321    10.6299    80.5613 </r>
       <r>     0.2005    12.3007    81.4029 </r>
       <r>     0.2688    15.0373    82.4320 </r>
       <r>     0.3372    13.8441    83.3809 </r>
       <r>     0.4056    16.0340    84.4780 </r>
       <r>     0.4740    19.9121    85.8418 </r>
       <r>     0.5423    13.0769    86.7365 </r>
       <r>     0.6107    10.8013    87.4757 </r>
       <r>     0.6791     6.0186    87.8879 </r>
       <r>     0.7475     7.2141    88.3825 </r>
       <r>     0.8158    14.7516    89.3923 </r>
       <r>     0.8842    18.6245    90.6674 </r>
       <r>     0.9526     8.9077    91.2809 </r>
       <r>     1.0210    15.0342    92.3088 </r>
       <r>     1.0893    20.3806    93.7041 </r>
       <r>     1.1577    22.2696    95.2273 </r>
       <r>     1.2261    22.6750    96.7812 </r>
       <r>     1.2944    24.1657    98.4352 </r>
       <r>     1.3628    29.1737   100.4322 </r>
       <r>     1.4312    26.0983   102.2222 </r>
       <r>     1.4996    22.3125   103.7522 </r>
       <r>     1.5679    27.5465   105.6367 </r>
       <r>     1.6363    20.2664   107.0250 </r>
       <r>     1.7047    23.8494   108.6582 </r>
       <r>     1.7731    22.9172   110.2289 </r>
       <r>     1.8414    14.0147   111.1901 </r>
       <r>     1.9098     6.8427   111.6615 </r>
       <r>     1.9782     2.9392   111.8625 </r>
       <r>     2.0466     1.5254   111.9670 </r>
       <r>     2.1149     0.4826   112.0000 </r>
       <r>     2.1833     0.0000   112.0000 </r>
       <r>     2.2517     0.0000   112.0000 </r>
       <r>     2.3201     0.0000   112.0000 </r>
       <r>     2.3884     0.0000   112.0000 </r>
       <r>     2.4568     0.0000   112.0000 </r>
       <r>     2.5252     0.0000   112.0000 </r>
       <r>     2.5935     0.0000   112.0000 </r>
       <r>     2.6619     0.0000   112.0000 </r>
       <r>     2.7303     0.0000   112.0000 </r>
       <r>     2.7987     0.0000   112.0000 </r>
       <r>     2.8670     0.0000   112.0000 </r>
       <r>     2.9354     0.0000   112.0000 </r>
       <r>     3.0038     0.0000   112.0000 </r>
       <r>     3.0722     0.0000   112.0000 </r>
       <r>     3.1405     0.0000   112.0000 </r>
       <r>     3.2089     0.0000   112.0000 </r>
       <r>     3.2773     0.0000   112.0000 </r>
       <r>     3.3457     0.0000   112.0000 </r>
       <r>     3.4140     0.0000   112.0000 </r>
       <r>     3.4824     1.2469   112.0853 </r>
       <r>     3.5508     4.9244   112.4237 </r>
       <r>     3.6192     9.2526   113.0569 </r>
       <r>     3.6875     4.9046   113.3934 </r>
       <r>     3.7559     8.4261   113.9695 </r>
       <r>     3.8243     5.9366   114.3761 </r>
       <r>     3.8926     5.2494   114.7365 </r>
       <r>     3.9610    10.3188   115.4439 </r>
       <r>     4.0294     9.8111   116.1154 </r>
       <r>     4.0978    11.6136   116.9108 </r>
       <r>     4.1661    15.5382   117.9740 </r>
       <r>     4.2345    10.6692   118.7061 </r>
       <r>     4.3029    13.4473   119.6286 </r>
       <r>     4.3713    12.7527   120.5007 </r>
       <r>     4.4396    11.9758   121.3209 </r>
       <r>     4.5080    12.8153   122.1997 </r>
       <r>     4.5764    19.6328   123.5437 </r>
       <r>     4.6448    22.2514   125.0686 </r>
       <r>     4.7131    18.6172   126.3432 </r>
       <r>     4.7815    18.2056   127.5936 </r>
       <r>     4.8499    21.3596   129.0550 </r>
       <r>     4.9183    19.3378   130.3796 </r>
       <r>     4.9866    15.4785   131.4456 </r>
       <r>     5.0550    23.2534   133.0361 </r>
       <r>     5.1234    14.9475   134.0602 </r>
       <r>     5.1918    15.7933   135.1403 </r>
       <r>     5.2601    17.8082   136.3633 </r>
       <r>     5.3285    12.2675   137.2031 </r>
       <r>     5.3969    17.7070   138.4151 </r>
       <r>     5.4652    18.1554   139.6599 </r>
       <r>     5.5336    14.9076   140.6814 </r>
       <r>     5.6020    13.6596   141.6158 </r>
       <r>     5.6704     9.1451   142.2436 </r>
       <r>     5.7387     9.7184   142.9083 </r>
       <r>     5.8071     8.8564   143.5162 </r>
       <r>     5.8755     5.0880   143.8652 </r>
       <r>     5.9439     1.7848   143.9875 </r>
       <r>     6.0122     0.1828   144.0000 </r>
       <r>     6.0806     0.0000   144.0000 </r>
       <r>     6.1490     0.0000   144.0000 </r>
       <r>     6.2174     0.0000   144.0000 </r>
       <r>     6.2857     0.0000   144.0000 </r>
       <r>     6.3541     0.0000   144.0000 </r>
       <r>     6.4225     0.0000   144.0000 </r>
       <r>     6.4909     0.0000   144.0000 </r>
       <r>     6.5592     0.0000   144.0000 </r>
       <r>     6.6276     0.0000   144.0000 </r>
       <r>     6.6960     0.0000   144.0000 </r>
       <r>     6.7643     0.0000   144.0000 </r>
       <r>     6.8327     0.0000   144.0000 </r>
       <r>     6.9011     0.0000   144.0000 </r>
      </set>
     </set>
    </array>
   </total>
  </dos>
 </calculation>
 <structure name="finalpos" >
  <crystal>
   <varray name="basis" >
    <v>       4.49068397       0.00000000       0.00000000 </v>
    <v>       0.00000000      10.37672095       0.00000000 </v>
    <v>      -4.39323997       0.00000000      12.05362760 </v>
   </varray>
   <i name="volume">    561.68186284 </i>
   <varray name="rec_basis" >
    <v>       0.22268323       0.00000000       0.08116236 </v>
    <v>       0.00000000       0.09636956       0.00000000 </v>
    <v>       0.00000000       0.00000000       0.08296258 </v>
   </varray>
  </crystal>
  <varray name="positions" >
   <v>       0.38034754       0.19738300       0.26337217 </v>
   <v>       0.61965246       0.69738300       0.23662783 </v>
   <v>       0.61965246       0.80261700       0.73662783 </v>
   <v>       0.38034754       0.30261700       0.76337217 </v>
   <v>       0.10885333       0.32190035       0.48493644 </v>
   <v>       0.89114667       0.82190035       0.01506356 </v>
   <v>       0.89114667       0.67809965       0.51506356 </v>
   <v>       0.10885333       0.17809965       0.98493644 </v>
   <v>       0.86890717       0.12425234       0.40089952 </v>
   <v>       0.13109283       0.62425234       0.09910048 </v>
   <v>       0.13109283       0.87574766       0.59910048 </v>
   <v>       0.86890717       0.37574766       0.90089952 </v>
   <v>       0.31430141       0.40038274       0.34417633 </v>
   <v>       0.68569859       0.90038274       0.15582367 </v>
   <v>       0.68569859       0.59961726       0.65582367 </v>
   <v>       0.31430141       0.09961726       0.84417633 </v>
   <v>       0.54863396       0.29358558       0.11956954 </v>
   <v>       0.45136604       0.79358558       0.38043046 </v>
   <v>       0.45136604       0.70641442       0.88043046 </v>
   <v>       0.54863396       0.20641442       0.61956954 </v>
  </varray>
 </structure>
</modeling>
