
     Program PWSCF v.7.1 starts on 11Apr2024 at  9:51:56 

     This program is part of the open-source Quantum ESPRESSO suite
     for quantum simulation of materials; please cite
         "P. Giannozzi et al., J. Phys.:Condens. Matter 21 395502 (2009);
         "P. Giannozzi et al., J. Phys.:Condens. Matter 29 465901 (2017);
         "P. Giannozzi et al., J. Chem. Phys. 152 154105 (2020);
          URL http://www.quantum-espresso.org", 
     in publications or presentations arising from this work. More details at
     http://www.quantum-espresso.org/quote

     Parallel version (MPI), running on    16 processors

     MPI processes distributed on     1 nodes
     247862 MiB available memory on the printing compute node when the environment starts
 
     Reading input from pw_mp-22898_nscf_k3000_E130.in
Warning: card &IONS ignored
Warning: card / ignored
Warning: card &CELL ignored
Warning: card / ignored

     Current dimensions of program PWSCF are:
     Max number of different atomic species (ntypx) = 10
     Max number of k-points (npk) =  40000
     Max angular momentum in pseudopotentials (lmaxx) =  4

     Atomic positions and unit cell read from directory:
     out/mp-22898.save/
     Atomic positions from file used, from input discarded
 
 
     R & G space division:  proc/nbgrp/npool/nimage =      16
     Subspace diagonalization in iterative solution of the eigenvalue problem:
     a serial algorithm will be used

 
     Parallelization info
     --------------------
     sticks:   dense  smooth     PW     G-vecs:    dense   smooth      PW
     Min         201     201     55                 7515     7515    1091
     Max         202     202     56                 7518     7518    1093
     Sum        3217    3217    889               120261   120261   17477
 
     Using Slab Decomposition
 


     bravais-lattice index     =            2
     lattice parameter (alat)  =      13.3885  a.u.
     unit-cell volume          =     599.9740 (a.u.)^3
     number of atoms/cell      =            2
     number of atomic types    =            2
     number of electrons       =        26.00
     number of Kohn-Sham states=           26
     kinetic-energy cutoff     =     130.0000  Ry
     charge density cutoff     =     520.0000  Ry
     Exchange-correlation= PBE
                           (   1   4   3   4   0   0   0)

     celldm(1)=  13.388465  celldm(2)=   0.000000  celldm(3)=   0.000000
     celldm(4)=   0.000000  celldm(5)=   0.000000  celldm(6)=   0.000000

     crystal axes: (cart. coord. in units of alat)
               a(1) = (  -0.500000   0.000000   0.500000 )  
               a(2) = (   0.000000   0.500000   0.500000 )  
               a(3) = (  -0.500000   0.500000   0.000000 )  

     reciprocal axes: (cart. coord. in units 2 pi/alat)
               b(1) = ( -1.000000 -1.000000  1.000000 )  
               b(2) = (  1.000000  1.000000  1.000000 )  
               b(3) = ( -1.000000  1.000000 -1.000000 )  


     PseudoPot. # 1 for I  read from file:
     /usr/scratch4/magr4826/Promotion/Python/Code/devEb/pseudo/SG15/I.upf
     MD5 check sum: 8277ef51204d8074ead4596f3b37a2aa
     Pseudo is Norm-conserving, Zval = 17.0
     Generated using ONCVPSP code by D. R. Hamann
     Using radial grid of  602 points,  6 beta functions with: 
                l(1) =   0
                l(2) =   0
                l(3) =   1
                l(4) =   1
                l(5) =   2
                l(6) =   2

     PseudoPot. # 2 for K  read from file:
     /usr/scratch4/magr4826/Promotion/Python/Code/devEb/pseudo/SG15/K.upf
     MD5 check sum: 254690d02b26e0029262a4c77e854448
     Pseudo is Norm-conserving, Zval =  9.0
     Generated using ONCVPSP code by D. R. Hamann
     Using radial grid of  602 points,  6 beta functions with: 
                l(1) =   0
                l(2) =   0
                l(3) =   1
                l(4) =   1
                l(5) =   2
                l(6) =   2

     atomic species   valence    mass     pseudopotential
        I             17.00   126.90450     I ( 1.00)
        K              9.00    39.09830     K ( 1.00)

     48 Sym. Ops., with inversion, found



   Cartesian axes

     site n.     atom                  positions (alat units)
         1           K   tau(   1) = (   0.0000000   0.0000000   0.0000000  )
         2           I   tau(   2) = (  -0.5000000   0.5000000   0.5000000  )

     number of k points=    72  Gaussian smearing, width (Ry)=  0.0005
                       cart. coord. in units 2pi/alat
        k(    1) = (   0.0000000   0.0000000   0.0000000), wk =   0.0011574
        k(    2) = (  -0.0833333   0.0833333  -0.0833333), wk =   0.0092593
        k(    3) = (  -0.1666667   0.1666667  -0.1666667), wk =   0.0092593
        k(    4) = (  -0.2500000   0.2500000  -0.2500000), wk =   0.0092593
        k(    5) = (  -0.3333333   0.3333333  -0.3333333), wk =   0.0092593
        k(    6) = (  -0.4166667   0.4166667  -0.4166667), wk =   0.0092593
        k(    7) = (   0.5000000  -0.5000000   0.5000000), wk =   0.0046296
        k(    8) = (   0.0000000   0.1666667   0.0000000), wk =   0.0069444
        k(    9) = (  -0.0833333   0.2500000  -0.0833333), wk =   0.0277778
        k(   10) = (  -0.1666667   0.3333333  -0.1666667), wk =   0.0277778
        k(   11) = (  -0.2500000   0.4166667  -0.2500000), wk =   0.0277778
        k(   12) = (  -0.3333333   0.5000000  -0.3333333), wk =   0.0277778
        k(   13) = (   0.5833333  -0.4166667   0.5833333), wk =   0.0277778
        k(   14) = (   0.5000000  -0.3333333   0.5000000), wk =   0.0277778
        k(   15) = (   0.4166667  -0.2500000   0.4166667), wk =   0.0277778
        k(   16) = (   0.3333333  -0.1666667   0.3333333), wk =   0.0277778
        k(   17) = (   0.2500000  -0.0833333   0.2500000), wk =   0.0277778
        k(   18) = (   0.1666667  -0.0000000   0.1666667), wk =   0.0138889
        k(   19) = (   0.0000000   0.3333333   0.0000000), wk =   0.0069444
        k(   20) = (  -0.0833333   0.4166667  -0.0833333), wk =   0.0277778
        k(   21) = (  -0.1666667   0.5000000  -0.1666667), wk =   0.0277778
        k(   22) = (  -0.2500000   0.5833333  -0.2500000), wk =   0.0277778
        k(   23) = (   0.6666667  -0.3333333   0.6666667), wk =   0.0277778
        k(   24) = (   0.5833333  -0.2500000   0.5833333), wk =   0.0277778
        k(   25) = (   0.5000000  -0.1666667   0.5000000), wk =   0.0277778
        k(   26) = (   0.4166667  -0.0833333   0.4166667), wk =   0.0277778
        k(   27) = (   0.3333333   0.0000000   0.3333333), wk =   0.0138889
        k(   28) = (   0.0000000   0.5000000   0.0000000), wk =   0.0069444
        k(   29) = (  -0.0833333   0.5833333  -0.0833333), wk =   0.0277778
        k(   30) = (  -0.1666667   0.6666667  -0.1666667), wk =   0.0277778
        k(   31) = (   0.7500000  -0.2500000   0.7500000), wk =   0.0277778
        k(   32) = (   0.6666667  -0.1666667   0.6666667), wk =   0.0277778
        k(   33) = (   0.5833333  -0.0833333   0.5833333), wk =   0.0277778
        k(   34) = (   0.5000000   0.0000000   0.5000000), wk =   0.0138889
        k(   35) = (   0.0000000   0.6666667   0.0000000), wk =   0.0069444
        k(   36) = (  -0.0833333   0.7500000  -0.0833333), wk =   0.0277778
        k(   37) = (   0.8333333  -0.1666667   0.8333333), wk =   0.0277778
        k(   38) = (   0.7500000  -0.0833333   0.7500000), wk =   0.0277778
        k(   39) = (   0.6666667  -0.0000000   0.6666667), wk =   0.0138889
        k(   40) = (   0.0000000   0.8333333   0.0000000), wk =   0.0069444
        k(   41) = (   0.9166667  -0.0833333   0.9166667), wk =   0.0277778
        k(   42) = (   0.8333333   0.0000000   0.8333333), wk =   0.0138889
        k(   43) = (   0.0000000  -1.0000000   0.0000000), wk =   0.0034722
        k(   44) = (  -0.1666667   0.3333333   0.0000000), wk =   0.0277778
        k(   45) = (  -0.2500000   0.4166667  -0.0833333), wk =   0.0555556
        k(   46) = (  -0.3333333   0.5000000  -0.1666667), wk =   0.0555556
        k(   47) = (   0.5833333  -0.4166667   0.7500000), wk =   0.0555556
        k(   48) = (   0.5000000  -0.3333333   0.6666667), wk =   0.0277778
        k(   49) = (  -0.1666667   0.5000000   0.0000000), wk =   0.0277778
        k(   50) = (  -0.2500000   0.5833333  -0.0833333), wk =   0.0555556
        k(   51) = (   0.6666667  -0.3333333   0.8333333), wk =   0.0555556
        k(   52) = (   0.5833333  -0.2500000   0.7500000), wk =   0.0555556
        k(   53) = (   0.5000000  -0.1666667   0.6666667), wk =   0.0555556
        k(   54) = (   0.4166667  -0.0833333   0.5833333), wk =   0.0555556
        k(   55) = (   0.3333333   0.0000000   0.5000000), wk =   0.0277778
        k(   56) = (  -0.1666667   0.6666667   0.0000000), wk =   0.0277778
        k(   57) = (   0.7500000  -0.2500000   0.9166667), wk =   0.0555556
        k(   58) = (   0.6666667  -0.1666667   0.8333333), wk =   0.0555556
        k(   59) = (   0.5833333  -0.0833333   0.7500000), wk =   0.0555556
        k(   60) = (   0.5000000   0.0000000   0.6666667), wk =   0.0277778
        k(   61) = (   0.8333333  -0.1666667   1.0000000), wk =   0.0277778
        k(   62) = (   0.7500000  -0.0833333   0.9166667), wk =   0.0555556
        k(   63) = (   0.6666667  -0.0000000   0.8333333), wk =   0.0277778
        k(   64) = (  -0.1666667  -1.0000000  -0.0000000), wk =   0.0138889
        k(   65) = (   0.6666667  -0.3333333   1.0000000), wk =   0.0277778
        k(   66) = (   0.5833333  -0.2500000   0.9166667), wk =   0.0555556
        k(   67) = (   0.5000000  -0.1666667   0.8333333), wk =   0.0277778
        k(   68) = (   0.6666667  -0.1666667   1.0000000), wk =   0.0277778
        k(   69) = (   0.5833333  -0.0833333   0.9166667), wk =   0.0555556
        k(   70) = (   0.5000000   0.0000000   0.8333333), wk =   0.0277778
        k(   71) = (  -0.3333333  -1.0000000   0.0000000), wk =   0.0138889
        k(   72) = (  -0.5000000  -1.0000000   0.0000000), wk =   0.0069444

     Dense  grid:   120261 G-vectors     FFT dimensions: (  72,  72,  72)

     Estimated max dynamical RAM per process >      35.95 MB

     Estimated total dynamical RAM >     575.26 MB

     The potential is recalculated from file :
     out/mp-22898.save/charge-density

     Starting wfcs are random

     Band Structure Calculation
     Davidson diagonalization with overlap

     ethr =  5.00E-06,  avg # of iterations = 23.4

     total cpu time spent up to now is       16.7 secs

     End of band structure calculation

          k = 0.0000 0.0000 0.0000 ( 15065 PWs)   bands (ev):

   -40.0310 -40.0310 -40.0261 -40.0261 -40.0261 -25.7703  -9.2574  -9.2574
    -9.2574  -7.7524   2.7464   2.7464   2.7464   6.6888   9.2536   9.2536
     9.2536   9.9668   9.9668  12.5641  15.4738  15.4738  15.4738  15.6898
    15.6899  15.6899

          k =-0.0833 0.0833-0.0833 ( 15037 PWs)   bands (ev):

   -40.0310 -40.0310 -40.0261 -40.0261 -40.0261 -25.7701  -9.2680  -9.2575
    -9.2575  -7.7335   2.6259   2.7222   2.7222   6.8678   9.2116   9.3298
     9.3298  10.0451  10.0451  12.8044  14.7392  15.0618  15.0618  15.8485
    15.8485  16.2409

          k =-0.1667 0.1667-0.1667 ( 15010 PWs)   bands (ev):

   -40.0310 -40.0310 -40.0261 -40.0261 -40.0261 -25.7698  -9.2960  -9.2579
    -9.2579  -7.6829   2.3349   2.6579   2.6579   7.3076   9.1724   9.5431
     9.5431  10.2791  10.2791  13.4002  13.9071  14.4331  14.4331  15.8216
    15.8216  16.6627

          k =-0.2500 0.2500-0.2500 ( 14995 PWs)   bands (ev):

   -40.0310 -40.0310 -40.0261 -40.0261 -40.0261 -25.7693  -9.3319  -9.2585
    -9.2585  -7.6157   1.9982   2.5737   2.5737   7.7821   9.3173   9.8593
     9.8593  10.6544  10.6544  13.0102  13.7766  13.7766  14.3562  15.5639
    15.5639  16.9201

          k =-0.3333 0.3333-0.3333 ( 15016 PWs)   bands (ev):

   -40.0310 -40.0310 -40.0261 -40.0261 -40.0261 -25.7688  -9.3654  -9.2591
    -9.2591  -7.5500   1.7067   2.4935   2.4935   8.0821   9.7505  10.2433
    10.2433  11.1041  11.1041  12.4006  13.1872  13.1872  15.0961  15.0961
    15.1283  16.7282

          k =-0.4167 0.4167-0.4167 ( 15022 PWs)   bands (ev):

   -40.0310 -40.0310 -40.0261 -40.0261 -40.0261 -25.7685  -9.3887  -9.2595
    -9.2595  -7.5029   1.5135   2.4370   2.4370   8.2192  10.2403  10.6480
    10.6480  11.4236  11.4236  12.0787  12.8323  12.8323  14.5408  14.5408
    15.2251  16.3437

          k = 0.5000-0.5000 0.5000 ( 15004 PWs)   bands (ev):

   -40.0310 -40.0310 -40.0261 -40.0261 -40.0261 -25.7683  -9.3970  -9.2596
    -9.2596  -7.4857   1.4462   2.4168   2.4168   8.2613  10.4350  10.8898
    10.8898  11.4324  11.4324  12.0310  12.8061  12.8061  14.2427  14.2427
    14.9728  16.3529

          k = 0.0000 0.1667 0.0000 ( 15037 PWs)   bands (ev):

   -40.0310 -40.0310 -40.0261 -40.0261 -40.0261 -25.7701  -9.2690  -9.2585
    -9.2585  -7.7283   2.5894   2.7162   2.7162   6.9204   9.0742   9.4206
     9.4206  10.0138  10.1239  12.8761  14.7491  14.8421  14.8421  15.7287
    16.3044  16.3046

          k =-0.0833 0.2500-0.0833 ( 15015 PWs)   bands (ev):

   -40.0310 -40.0310 -40.0261 -40.0261 -40.0261 -25.7698  -9.2889  -9.2597
    -9.2587  -7.6911   2.3740   2.6626   2.6676   7.2613   8.9530   9.6181
     9.6456  10.1454  10.3454  13.3485  13.9324  14.3961  14.5555  15.6277
    16.4013  16.6985

          k =-0.1667 0.3333-0.1667 ( 15008 PWs)   bands (ev):

   -40.0310 -40.0310 -40.0261 -40.0261 -40.0261 -25.7694  -9.3199  -9.2607
    -9.2588  -7.6331   2.0802   2.5766   2.5922   7.7306   8.9844   9.8880
     9.9469  10.4611  10.6812  13.1255  13.8305  13.8926  14.3283  15.3900
    16.1283  16.9667

          k =-0.2500 0.4167-0.2500 ( 15012 PWs)   bands (ev):

   -40.0310 -40.0310 -40.0261 -40.0261 -40.0261 -25.7689  -9.3521  -9.2612
    -9.2595  -7.5707   1.7984   2.4861   2.5121   8.0913   9.3086  10.2127
    10.2847  10.9241  11.0300  12.5913  13.2442  13.4402  14.9941  15.0743
    15.6163  16.9549

          k =-0.3333 0.5000-0.3333 ( 15024 PWs)   bands (ev):

   -40.0310 -40.0310 -40.0261 -40.0261 -40.0261 -25.7685  -9.3773  -9.2612
    -9.2606  -7.5200   1.5890   2.4153   2.4479   8.2696   9.8405  10.5284
    10.6469  11.2067  11.3626  12.4479  12.7896  12.9614  14.5794  14.9621
    15.4498  16.4723

          k = 0.5833-0.4167 0.5833 ( 15034 PWs)   bands (ev):

   -40.0310 -40.0310 -40.0261 -40.0261 -40.0261 -25.7683  -9.3899  -9.2618
    -9.2607  -7.4939   1.4870   2.3800   2.4145   8.3494  10.1968  10.7116
    10.9225  11.3411  11.4770  12.3407  12.7283  12.7357  14.4156  14.4566
    15.1427  16.4201

          k = 0.5000-0.3333 0.5000 ( 15018 PWs)   bands (ev):

   -40.0310 -40.0310 -40.0261 -40.0261 -40.0261 -25.7683  -9.3876  -9.2628
    -9.2596  -7.4986   1.5071   2.3873   2.4192   8.3434  10.1810  10.6266
    10.7477  11.3812  11.5321  12.2922  12.7214  12.8203  14.3686  14.5174
    15.3670  16.4151

          k = 0.4167-0.2500 0.4167 ( 15013 PWs)   bands (ev):

   -40.0310 -40.0310 -40.0261 -40.0261 -40.0261 -25.7686  -9.3708  -9.2631
    -9.2585  -7.5332   1.6468   2.4356   2.4611   8.2461   9.7650  10.3303
    10.4170  11.1967  11.3674  12.3409  13.0293  13.0534  14.7612  14.8818
    15.5761  16.6928

          k = 0.3333-0.1667 0.3333 ( 15011 PWs)   bands (ev):

   -40.0310 -40.0310 -40.0261 -40.0261 -40.0261 -25.7691  -9.3430  -9.2628
    -9.2575  -7.5889   1.8849   2.5146   2.5311   8.0139   9.2752   9.9265
    10.1583  10.8229  10.9517  12.6637  13.5460  13.5710  14.8270  15.1646
    15.5663  17.1735

          k = 0.2500-0.0833 0.2500 ( 14991 PWs)   bands (ev):

   -40.0310 -40.0310 -40.0261 -40.0261 -40.0261 -25.7695  -9.3106  -9.2616
    -9.2569  -7.6519   2.1792   2.6058   2.6126   7.5857   9.0689   9.6026
     9.8722  10.3993  10.5370  13.3183  13.7667  14.2033  14.3114  15.4121
    15.9631  17.0925

          k = 0.1667-0.0000 0.1667 ( 15013 PWs)   bands (ev):

   -40.0310 -40.0310 -40.0261 -40.0261 -40.0261 -25.7699  -9.2827  -9.2597
    -9.2569  -7.7052   2.4589   2.6835   2.6838   7.1292   9.1069   9.3944
     9.5724  10.1272  10.2238  13.1622  14.1328  14.6495  14.8134  15.5418
    16.1059  16.7178

          k = 0.0000 0.3333 0.0000 ( 15008 PWs)   bands (ev):

   -40.0310 -40.0310 -40.0261 -40.0261 -40.0261 -25.7696  -9.2936  -9.2617
    -9.2617  -7.6739   2.2629   2.6388   2.6388   7.4478   8.6862   9.9000
     9.9000  10.1484  10.5270  13.6079  13.6335  14.1644  14.1644  15.8697
    16.9010  16.9010

          k =-0.0833 0.4167-0.0833 ( 14999 PWs)   bands (ev):

   -40.0310 -40.0310 -40.0261 -40.0261 -40.0261 -25.7693  -9.3116  -9.2635
    -9.2626  -7.6366   2.0699   2.5678   2.5811   7.8147   8.5610  10.1731
    10.2089  10.3965  10.7741  13.0540  13.7728  13.8135  14.2645  15.7973
    16.7503  17.0937

          k =-0.1667 0.5000-0.1667 ( 15011 PWs)   bands (ev):

   -40.0310 -40.0310 -40.0261 -40.0261 -40.0261 -25.7688  -9.3351  -9.2645
    -9.2634  -7.5897   1.8661   2.4629   2.5115   8.1805   8.7210  10.4013
    10.4309  10.8958  10.9993  12.7171  13.2769  13.4861  14.8785  15.5545
    16.2193  17.0658

          k =-0.2500 0.5833-0.2500 ( 15033 PWs)   bands (ev):

   -40.0310 -40.0310 -40.0261 -40.0261 -40.0261 -25.7684  -9.3564  -9.2652
    -9.2645  -7.5458   1.6983   2.3605   2.4488   8.3601   9.2606  10.4054
    10.6898  11.1757  11.4084  12.6686  12.8002  13.1934  14.8063  15.4900
    15.6822  16.6934

          k = 0.6667-0.3333 0.6667 ( 15012 PWs)   bands (ev):

   -40.0310 -40.0310 -40.0261 -40.0261 -40.0261 -25.7682  -9.3702  -9.2677
    -9.2635  -7.5163   1.5973   2.2915   2.4083   8.5072   9.7747  10.3067
    10.9844  11.2780  11.6038  12.5828  12.6493  12.9436  14.7905  14.8303
    15.4839  16.6583

          k = 0.5833-0.2500 0.5833 ( 15004 PWs)   bands (ev):

   -40.0310 -40.0310 -40.0261 -40.0261 -40.0261 -25.7681  -9.3737  -9.2700
    -9.2617  -7.5085   1.5797   2.2730   2.3993   8.6081   9.8612  10.3360
    10.9510  11.2884  11.6120  12.5621  12.7569  12.7783  14.4565  14.7532
    15.7590  16.6766

          k = 0.5000-0.1667 0.5000 ( 15000 PWs)   bands (ev):

   -40.0310 -40.0310 -40.0261 -40.0261 -40.0261 -25.7683  -9.3665  -9.2710
    -9.2597  -7.5245   1.6482   2.3098   2.4239   8.5919   9.6898  10.1372
    10.5488  11.3310  11.6426  12.4465  12.8565  13.0542  14.6038  14.6317
    16.2667  16.8578

          k = 0.4167-0.0833 0.4167 ( 15003 PWs)   bands (ev):

   -40.0310 -40.0310 -40.0261 -40.0261 -40.0261 -25.7687  -9.3507  -9.2700
    -9.2579  -7.5603   1.7903   2.3944   2.4770   8.4280   9.2086  10.1375
    10.1639  11.1813  11.3244  12.4003  13.2188  13.4493  14.9406  14.9729
    15.6936  17.5988

          k = 0.3333 0.0000 0.3333 ( 14991 PWs)   bands (ev):

   -40.0310 -40.0310 -40.0261 -40.0261 -40.0261 -25.7691  -9.3303  -9.2666
    -9.2569  -7.6068   1.9801   2.5054   2.5459   8.0276   9.0104   9.8094
    10.0978  10.7870  10.9020  12.7196  13.7352  13.7417  14.8335  15.1775
    15.5820  17.7443

          k = 0.0000 0.5000 0.0000 ( 15024 PWs)   bands (ev):

   -40.0310 -40.0310 -40.0261 -40.0261 -40.0261 -25.7690  -9.3118  -9.2661
    -9.2661  -7.6253   1.9759   2.5441   2.5441   8.0130   8.2863  10.3496
    10.6330  10.6330  10.8428  12.8438  13.5970  13.5970  14.4966  16.2441
    17.1745  17.1745

          k =-0.0833 0.5833-0.0833 ( 15019 PWs)   bands (ev):

   -40.0310 -40.0310 -40.0261 -40.0261 -40.0261 -25.7686  -9.3207  -9.2679
    -9.2679  -7.6023   1.8630   2.4671   2.4923   8.1793   8.3550  10.4903
    10.7007  11.1118  11.1246  12.6900  13.2877  13.3822  14.9029  16.3158
    16.7461  17.0134

          k =-0.1667 0.6667-0.1667 ( 15033 PWs)   bands (ev):

   -40.0310 -40.0310 -40.0261 -40.0261 -40.0261 -25.7682  -9.3326  -9.2709
    -9.2683  -7.5739   1.7760   2.3423   2.4399   8.2340   8.8411  10.4148
    10.7108  11.4533  11.6092  12.5575  12.9139  13.3745  15.0523  15.9534
    15.9865  17.0102

          k = 0.7500-0.2500 0.7500 ( 15027 PWs)   bands (ev):

   -40.0310 -40.0310 -40.0261 -40.0261 -40.0261 -25.7680  -9.3429  -9.2754
    -9.2673  -7.5476   1.7307   2.2128   2.4002   8.4151   9.4343  10.0655
    10.9954  11.4462  11.7939  12.4820  12.7772  13.3480  15.0934  15.1384
    15.7470  17.1628

          k = 0.6667-0.1667 0.6667 ( 15039 PWs)   bands (ev):

   -40.0310 -40.0310 -40.0261 -40.0261 -40.0261 -25.7679  -9.3500  -9.2796
    -9.2651  -7.5303   1.7188   2.1339   2.3829   8.6838   9.7718   9.9406
    11.1382  11.2006  11.5841  12.6275  12.9311  13.0454  14.6107  15.0987
    16.0181  17.2183

          k = 0.5833-0.0833 0.5833 ( 15015 PWs)   bands (ev):

   -40.0310 -40.0310 -40.0261 -40.0261 -40.0261 -25.7680  -9.3537  -9.2805
    -9.2624  -7.5266   1.7193   2.1499   2.3923   8.9277   9.5951   9.8798
    10.8798  11.1906  11.7317  12.5555  12.8414  13.0956  14.5849  14.7279
    16.8496  17.1785

          k = 0.5000 0.0000 0.5000 ( 15009 PWs)   bands (ev):

   -40.0310 -40.0310 -40.0261 -40.0261 -40.0261 -25.7683  -9.3541  -9.2769
    -9.2597  -7.5375   1.7362   2.2538   2.4263   8.8829   9.2747   9.9436
    10.4688  11.3272  11.6770  12.4442  12.8776  13.3156  14.6017  14.7706
    16.5851  17.4395

          k = 0.0000 0.6667 0.0000 ( 14992 PWs)   bands (ev):

   -40.0310 -40.0310 -40.0261 -40.0261 -40.0261 -25.7683  -9.3141  -9.2705
    -9.2705  -7.6050   1.8167   2.4600   2.4600   7.9676   8.4233  10.5764
    10.7696  11.5079  11.5079  12.5858  13.2321  13.2321  15.0622  16.7593
    16.7593  17.1424

          k =-0.0833 0.7500-0.0833 ( 15026 PWs)   bands (ev):

   -40.0310 -40.0310 -40.0261 -40.0261 -40.0261 -25.7680  -9.3141  -9.2738
    -9.2717  -7.5969   1.7832   2.3837   2.4235   7.9399   8.6172  10.6580
    10.7204  11.8413  11.9132  12.4080  13.1132  13.2974  15.1871  16.0876
    16.1551  17.1268

          k = 0.8333-0.1667 0.8333 ( 15036 PWs)   bands (ev):

   -40.0310 -40.0310 -40.0261 -40.0261 -40.0261 -25.7678  -9.3162  -9.2815
    -9.2712  -7.5799   1.7939   2.2346   2.3924   8.0920   8.9536  10.4634
    10.9361  11.6102  12.0172  12.4957  13.1520  13.4566  15.2078  15.2500
    15.7940  17.3973

          k = 0.7500-0.0833 0.7500 ( 15018 PWs)   bands (ev):

   -40.0310 -40.0310 -40.0261 -40.0261 -40.0261 -25.7678  -9.3219  -9.2894
    -9.2690  -7.5586   1.8551   2.0538   2.3744   8.3744   9.3896  10.2451
    11.1191  11.2130  11.7181  12.7595  13.2039  13.3255  14.6356  15.3285
    15.9318  17.6825

          k = 0.6667-0.0000 0.6667 ( 15023 PWs)   bands (ev):

   -40.0310 -40.0310 -40.0261 -40.0261 -40.0261 -25.7678  -9.3363  -9.2884
    -9.2658  -7.5391   1.8457   2.0040   2.3743   8.7326   9.7244   9.9193
    10.9346  11.2856  11.5234  12.7922  13.0094  13.1410  14.5122  15.0804
    16.5856  17.5490

          k = 0.0000 0.8333 0.0000 ( 15052 PWs)   bands (ev):

   -40.0310 -40.0310 -40.0261 -40.0261 -40.0261 -25.7678  -9.3060  -9.2738
    -9.2738  -7.6082   1.7672   2.4042   2.4042   7.7670   8.5276  10.7639
    10.9114  12.1367  12.1731  12.1731  13.3613  13.3613  15.2855  15.7801
    15.7802  16.8305

          k = 0.9167-0.0833 0.9167 ( 15029 PWs)   bands (ev):

   -40.0310 -40.0310 -40.0261 -40.0261 -40.0261 -25.7677  -9.3024  -9.2795
    -9.2740  -7.6042   1.7771   2.3346   2.3868   7.8086   8.6140  10.8668
    11.0147  11.6361  12.2145  12.4368  13.6376  13.6415  15.1204  15.2201
    15.4680  17.0024

          k = 0.8333 0.0000 0.8333 ( 15012 PWs)   bands (ev):

   -40.0310 -40.0310 -40.0261 -40.0261 -40.0261 -25.7677  -9.2975  -9.2961
    -9.2722  -7.5859   1.8261   2.1824   2.3759   8.0356   8.9102  10.8209
    11.0295  11.2031  12.0164  12.6940  13.4781  13.7187  14.6331  15.4321
    15.4768  17.6498

          k = 0.0000-1.0000 0.0000 ( 15060 PWs)   bands (ev):

   -40.0310 -40.0310 -40.0261 -40.0261 -40.0261 -25.7677  -9.3010  -9.2750
    -9.2750  -7.6132   1.7624   2.3848   2.3848   7.6988   8.4974  10.8384
    11.4192  11.5135  12.2971  12.2971  13.9084  13.9084  15.0089  15.0089
    15.3430  16.6886

          k =-0.1667 0.3333 0.0000 ( 14990 PWs)   bands (ev):

   -40.0310 -40.0310 -40.0261 -40.0261 -40.0261 -25.7695  -9.3070  -9.2630
    -9.2586  -7.6531   2.1757   2.6012   2.6090   7.6176   8.8166   9.8103
     9.9603  10.3370  10.6125  13.2979  13.7714  14.1021  14.2597  15.5532
    16.2538  17.2776

          k =-0.2500 0.4167-0.0833 ( 15005 PWs)   bands (ev):

   -40.0310 -40.0310 -40.0261 -40.0261 -40.0261 -25.7691  -9.3318  -9.2656
    -9.2588  -7.6022   1.9432   2.5031   2.5352   8.0614   8.8653  10.0916
    10.1794  10.7607  10.9409  12.7346  13.5584  13.6739  14.7631  15.3430
    15.8572  17.4349

          k =-0.3333 0.5000-0.1667 ( 15009 PWs)   bands (ev):

   -40.0310 -40.0310 -40.0261 -40.0261 -40.0261 -25.7686  -9.3560  -9.2669
    -9.2599  -7.5523   1.7356   2.4048   2.4651   8.3465   9.2593  10.2922
    10.4549  11.1755  11.2321  12.5484  13.0433  13.2731  14.8371  15.1511
    15.7764  17.0328

          k = 0.5833-0.4167 0.7500 ( 15020 PWs)   bands (ev):

   -40.0310 -40.0310 -40.0261 -40.0261 -40.0261 -25.7683  -9.3731  -9.2670
    -9.2613  -7.5163   1.5945   2.3352   2.4155   8.4783   9.7807  10.3275
    10.8164  11.3186  11.5099  12.5914  12.7635  12.8574  14.5942  14.7192
    15.8202  16.5795

          k = 0.5000-0.3333 0.6667 ( 15008 PWs)   bands (ev):

   -40.0310 -40.0310 -40.0261 -40.0261 -40.0261 -25.7682  -9.3792  -9.2667
    -9.2621  -7.5032   1.5447   2.3103   2.3977   8.5283   9.9340  10.4661
    10.9707  11.4030  11.5108  12.5781  12.6020  12.7892  14.4228  14.8224
    15.3806  16.5869

          k =-0.1667 0.5000 0.0000 ( 15005 PWs)   bands (ev):

   -40.0310 -40.0310 -40.0261 -40.0261 -40.0261 -25.7689  -9.3234  -9.2675
    -9.2629  -7.6071   1.9278   2.5000   2.5160   8.1673   8.4475  10.3198
    10.5436  10.7214  10.9924  12.7607  13.4480  13.5531  14.7256  15.9188
    16.3021  17.4001

          k =-0.2500 0.5833-0.0833 ( 15025 PWs)   bands (ev):

   -40.0310 -40.0310 -40.0261 -40.0261 -40.0261 -25.7685  -9.3378  -9.2705
    -9.2639  -7.5727   1.7995   2.3890   2.4506   8.4036   8.7350  10.3083
    10.7751  11.0351  11.3495  12.6781  13.0628  13.3306  14.9870  15.5548
    16.1802  17.1279

          k = 0.6667-0.3333 0.8333 ( 15021 PWs)   bands (ev):

   -40.0310 -40.0310 -40.0261 -40.0261 -40.0261 -25.7682  -9.3503  -9.2722
    -9.2656  -7.5426   1.7097   2.2770   2.3998   8.5291   9.3307  10.0692
    10.9975  11.3207  11.5969  12.5966  12.7781  13.2341  14.8773  15.0371
    16.1498  16.9063

          k = 0.5833-0.2500 0.7500 ( 15017 PWs)   bands (ev):

   -40.0310 -40.0310 -40.0261 -40.0261 -40.0261 -25.7680  -9.3577  -9.2741
    -9.2658  -7.5245   1.6674   2.2074   2.3735   8.7065   9.6585  10.0244
    11.0679  11.3571  11.6839  12.5010  12.7382  13.0725  14.6190  15.1392
    15.7391  16.9864

          k = 0.5000-0.1667 0.6667 ( 15004 PWs)   bands (ev):

   -40.0310 -40.0310 -40.0261 -40.0261 -40.0261 -25.7680  -9.3586  -9.2757
    -9.2639  -7.5231   1.6727   2.2061   2.3776   8.8133   9.5861  10.0025
    11.0233  11.3281  11.6153  12.6097  12.7256  13.0295  14.5675  14.8674
    16.2397  16.9693

          k = 0.4167-0.0833 0.5833 ( 15010 PWs)   bands (ev):

   -40.0310 -40.0310 -40.0261 -40.0261 -40.0261 -25.7683  -9.3534  -9.2751
    -9.2615  -7.5389   1.7233   2.2746   2.4115   8.7657   9.2513   9.9836
    10.7477  11.3382  11.4870  12.6443  12.8340  13.2133  14.7161  14.8000
    16.5451  17.1552

          k = 0.3333 0.0000 0.5000 ( 15020 PWs)   bands (ev):

   -40.0310 -40.0310 -40.0261 -40.0261 -40.0261 -25.7687  -9.3438  -9.2715
    -9.2595  -7.5677   1.8164   2.3886   2.4682   8.5218   8.8684  10.1669
    10.3807  11.1606  11.2275  12.5514  13.1665  13.4639  14.9650  15.1733
    15.8442  17.4436

          k =-0.1667 0.6667 0.0000 ( 15019 PWs)   bands (ev):

   -40.0310 -40.0310 -40.0261 -40.0261 -40.0261 -25.7683  -9.3227  -9.2721
    -9.2689  -7.5891   1.8035   2.4102   2.4253   8.1458   8.6016  10.4719
    10.7517  11.4322  11.5812  12.5715  13.1990  13.2130  15.0858  15.9723
    16.5739  17.3030

          k = 0.7500-0.2500 0.9167 ( 15026 PWs)   bands (ev):

   -40.0310 -40.0310 -40.0261 -40.0261 -40.0261 -25.7680  -9.3264  -9.2761
    -9.2711  -7.5709   1.7814   2.2828   2.3766   8.2671   8.9866  10.2150
    10.9497  11.6014  11.8280  12.5069  12.9981  13.3523  15.0736  15.3076
    16.2494  17.4406

          k = 0.6667-0.1667 0.8333 ( 15027 PWs)   bands (ev):

   -40.0310 -40.0310 -40.0261 -40.0261 -40.0261 -25.7678  -9.3307  -9.2819
    -9.2707  -7.5526   1.8010   2.1360   2.3498   8.5083   9.4519   9.9221
    11.1964  11.2474  11.9208  12.5798  12.9924  13.2650  14.8066  15.2551
    15.8796  17.6457

          k = 0.5833-0.0833 0.7500 ( 15026 PWs)   bands (ev):

   -40.0310 -40.0310 -40.0261 -40.0261 -40.0261 -25.7678  -9.3371  -9.2852
    -9.2680  -7.5391   1.8155   2.0604   2.3470   8.8324   9.6209   9.7736
    10.9648  11.4613  11.6235  12.7072  12.8921  13.1548  14.5776  15.1425
    16.2686  17.5318

          k = 0.5000 0.0000 0.6667 ( 15030 PWs)   bands (ev):

   -40.0310 -40.0310 -40.0261 -40.0261 -40.0261 -25.7680  -9.3459  -9.2824
    -9.2645  -7.5340   1.7637   2.1351   2.3691   9.1039   9.3253   9.7226
    11.1273  11.1962  11.6205  12.6693  12.8428  13.1193  14.6665  14.7898
    16.9289  17.3559

          k = 0.8333-0.1667 1.0000 ( 15011 PWs)   bands (ev):

   -40.0310 -40.0310 -40.0261 -40.0261 -40.0261 -25.7678  -9.3096  -9.2765
    -9.2755  -7.5937   1.7848   2.3505   2.3543   7.9544   8.7256  10.6258
    10.8839  11.7420  12.1486  12.4462  13.2870  13.3899  15.1818  15.4034
    15.8862  17.2153

          k = 0.7500-0.0833 0.9167 ( 15020 PWs)   bands (ev):

   -40.0310 -40.0310 -40.0261 -40.0261 -40.0261 -25.7677  -9.3061  -9.2876
    -9.2752  -7.5801   1.8301   2.2013   2.3331   8.1566   8.9790  10.4781
    11.0719  11.2888  12.1651  12.6479  13.3932  13.4377  14.8600  15.2378
    15.6160  17.6658

          k = 0.6667-0.0000 0.8333 ( 15019 PWs)   bands (ev):

   -40.0310 -40.0310 -40.0261 -40.0261 -40.0261 -25.7677  -9.3146  -9.2928
    -9.2723  -7.5600   1.9175   2.0142   2.3310   8.4788   9.3604  10.1223
    10.9776  11.3187  11.8921  12.8670  13.0386  13.3853  14.5748  15.3707
    15.8114  17.7422

          k =-0.1667-1.0000-0.0000 ( 15042 PWs)   bands (ev):

   -40.0310 -40.0310 -40.0261 -40.0261 -40.0261 -25.7677  -9.2992  -9.2827
    -9.2767  -7.5991   1.7946   2.3253   2.3298   7.8891   8.6920  10.9361
    11.0410  11.3136  12.3042  12.4873  13.7162  13.7439  14.9761  14.9765
    15.4260  17.2679

          k = 0.6667-0.3333 1.0000 ( 15031 PWs)   bands (ev):

   -40.0310 -40.0310 -40.0261 -40.0261 -40.0261 -25.7682  -9.3387  -9.2764
    -9.2662  -7.5558   1.7702   2.2850   2.3763   8.6395   8.9922   9.9925
    11.1322  11.2596  11.5008  12.6385  13.0619  13.1769  14.9408  15.0069
    16.7062  17.2813

          k = 0.5833-0.2500 0.9167 ( 15022 PWs)   bands (ev):

   -40.0310 -40.0310 -40.0261 -40.0261 -40.0261 -25.7679  -9.3383  -9.2800
    -9.2697  -7.5435   1.7793   2.1717   2.3269   8.8482   9.4047   9.6554
    11.2125  11.3748  11.6832  12.6953  12.8348  13.1497  14.7647  14.9917
    16.3751  17.4146

          k = 0.5000-0.1667 0.8333 ( 14996 PWs)   bands (ev):

   -40.0310 -40.0310 -40.0261 -40.0261 -40.0261 -25.7678  -9.3380  -9.2809
    -9.2716  -7.5391   1.7942   2.1175   2.3100   9.0083   9.3518   9.7544
    10.9723  11.5136  11.9138  12.6020  12.6829  13.2049  14.6287  15.2760
    15.9304  17.5950

          k = 0.6667-0.1667 1.0000 ( 15015 PWs)   bands (ev):

   -40.0310 -40.0310 -40.0261 -40.0261 -40.0261 -25.7678  -9.3192  -9.2801
    -9.2779  -7.5644   1.8297   2.2163   2.2735   8.4793   9.1795   9.9528
    11.2043  11.2984  12.0714  12.6976  13.1400  13.1536  14.9470  15.0517
    16.0303  17.6416

          k = 0.5833-0.0833 0.9167 ( 15024 PWs)   bands (ev):

   -40.0310 -40.0310 -40.0261 -40.0261 -40.0261 -25.7677  -9.3156  -9.2869
    -9.2792  -7.5562   1.9141   2.0776   2.2444   8.7974   9.3955   9.6406
    10.9748  11.4535  12.1781  12.7853  12.8833  13.1979  14.7536  15.2864
    15.6486  17.7922

          k = 0.5000 0.0000 0.8333 ( 15020 PWs)   bands (ev):

   -40.0310 -40.0310 -40.0261 -40.0261 -40.0261 -25.7678  -9.3239  -9.2864
    -9.2753  -7.5485   1.8964   2.0566   2.2677   9.1625   9.2493   9.5259
    10.9627  11.5570  11.9603  12.6852  13.0032  13.0364  14.7087  15.1685
    15.9971  17.6312

          k =-0.3333-1.0000 0.0000 ( 15012 PWs)   bands (ev):

   -40.0310 -40.0310 -40.0261 -40.0261 -40.0261 -25.7677  -9.2979  -9.2944
    -9.2814  -7.5713   1.8876   2.1924   2.2116   8.4233   9.1205  10.1455
    11.0357  11.2781  12.3186  12.7578  13.1478  13.4049  14.9130  15.0766
    15.4682  17.8776

          k =-0.5000-1.0000 0.0000 ( 15048 PWs)   bands (ev):

   -40.0310 -40.0310 -40.0261 -40.0261 -40.0261 -25.7677  -9.3053  -9.2879
    -9.2879  -7.5575   2.0293   2.0293   2.1570   9.2140   9.2140   9.3675
    10.9031  11.5602  12.3259  12.6900  13.0588  13.0588  14.8820  15.3055
    15.3055  17.8842

     the Fermi energy is     3.4366 ev
     (compare with:     3.4366 eV, computed in scf)

     Writing all to output data dir out/mp-22898.save/
 
     init_run     :      0.16s CPU      0.32s WALL (       1 calls)
     electrons    :     11.19s CPU     15.33s WALL (       1 calls)

     Called by init_run:
     wfcinit      :      0.00s CPU      0.02s WALL (       1 calls)
     potinit      :      0.03s CPU      0.10s WALL (       1 calls)
     hinit0       :      0.02s CPU      0.08s WALL (       1 calls)

     Called by electrons:
     c_bands      :     11.19s CPU     15.32s WALL (       1 calls)
     v_of_rho     :      0.01s CPU      0.02s WALL (       1 calls)

     Called by c_bands:
     init_us_2    :      0.01s CPU      0.01s WALL (      72 calls)
     init_us_2:cp :      0.01s CPU      0.01s WALL (      72 calls)
     cegterg      :     10.39s CPU     10.61s WALL (     119 calls)

     Called by *egterg:
     cdiaghg      :      1.18s CPU      1.20s WALL (    1757 calls)
     h_psi        :      8.61s CPU      8.81s WALL (    1876 calls)
     g_psi        :      0.06s CPU      0.06s WALL (    1685 calls)

     Called by h_psi:
     h_psi:calbec :      0.26s CPU      0.26s WALL (    1876 calls)
     vloc_psi     :      8.15s CPU      8.34s WALL (    1876 calls)
     add_vuspsi   :      0.16s CPU      0.16s WALL (    1876 calls)

     General routines
     calbec       :      0.25s CPU      0.26s WALL (    1876 calls)
     fft          :      0.01s CPU      0.06s WALL (      10 calls)
     fftw         :      7.34s CPU      7.51s WALL (   58206 calls)
 
     Parallel routines
 
     PWSCF        :     12.14s CPU     22.32s WALL

 
   This run was terminated on:   9:52:18  11Apr2024            

=------------------------------------------------------------------------------=
   JOB DONE.
=------------------------------------------------------------------------------=
