 
             +---------------------------------------------------+
             |                                                   |
             |                   WANNIER90                       |
             |                                                   |
             +---------------------------------------------------+
             |                                                   |
             |        Welcome to the Maximally-Localized         |
             |        Generalized Wannier Functions code         |
             |            http://www.wannier.org                 |
             |                                                   |
             |                                                   |
             |  Wannier90 Developer Group:                       |
             |    Giovanni Pizzi    (EPFL)                       |
             |    Valerio Vitale    (Cambridge)                  |
             |    David Vanderbilt  (Rutgers University)         |
             |    Nicola Marzari    (EPFL)                       |
             |    Ivo Souza         (Universidad del Pais Vasco) |
             |    Arash A. Mostofi  (Imperial College London)    |
             |    Jonathan R. Yates (University of Oxford)       |
             |                                                   |
             |  For the full list of Wannier90 3.x authors,      |
             |  please check the code documentation and the      |
             |  README on the GitHub page of the code            |
             |                                                   |
             |                                                   |
             |  Please cite                                      |
             |                                                   |
             |  [ref] "Wannier90 as a community code:            |
             |        new features and applications",            |
             |        G. Pizzi et al., J. Phys. Cond. Matt. 32,  |
             |        165902 (2020).                             |
             |        http://doi.org/10.1088/1361-648X/ab51ff    |
             |                                                   |
             |  in any publications arising from the use of      |
             |  this code. For the method please cite            |
             |                                                   |
             |  [ref] "Maximally Localized Generalised Wannier   |
             |         Functions for Composite Energy Bands"     |
             |         N. Marzari and D. Vanderbilt              |
             |         Phys. Rev. B 56 12847 (1997)              |
             |                                                   |
             |  [ref] "Maximally Localized Wannier Functions     |
             |         for Entangled Energy Bands"               |
             |         I. Souza, N. Marzari and D. Vanderbilt    |
             |         Phys. Rev. B 65 035109 (2001)             |
             |                                                   |
             |                                                   |
             | Copyright (c) 1996-2020                           |
             |        The Wannier90 Developer Group and          |
             |        individual contributors                    |
             |                                                   |
             |      Release: 3.1.0        5th March    2020      |
             |                                                   |
             | This program is free software; you can            |
             | redistribute it and/or modify it under the terms  |
             | of the GNU General Public License as published by |
             | the Free Software Foundation; either version 2 of |
             | the License, or (at your option) any later version|
             |                                                   |
             | This program is distributed in the hope that it   |
             | will be useful, but WITHOUT ANY WARRANTY; without |
             | even the implied warranty of MERCHANTABILITY or   |
             | FITNESS FOR A PARTICULAR PURPOSE. See the GNU     |
             | General Public License for more details.          |
             |                                                   |
             | You should have received a copy of the GNU General|
             | Public License along with this program; if not,   |
             | write to the Free Software Foundation, Inc.,      |
             | 675 Mass Ave, Cambridge, MA 02139, USA.           |
             |                                                   |
             +---------------------------------------------------+
             |    Execution started on  3Jan2024 at 14:31:15     |
             +---------------------------------------------------+
 
 ******************************************************************************
 * -> Using CODATA 2006 constant values                                       *
 *    (http://physics.nist.gov/cuu/Constants/index.html)                      *
 * -> Using Bohr value from CODATA                                            *
 ******************************************************************************
 

 Running in parallel on   8 CPUs

 
                                    ------
                                    SYSTEM
                                    ------
 
                              Lattice Vectors (Ang)
                    a_1    -2.725812   0.000000   2.725812
                    a_2     0.000000   2.725812   2.725812
                    a_3    -2.725812   2.725812   0.000000
 
                   Unit Cell Volume:      40.50584  (Ang^3)
 
                        Reciprocal-Space Vectors (Ang^-1)
                    b_1    -1.152535  -1.152535   1.152535
                    b_2     1.152535   1.152535   1.152535
                    b_3    -1.152535   1.152535  -1.152535
  
 *----------------------------------------------------------------------------*
 |   Site       Fractional Coordinate          Cartesian Coordinate (Ang)     |
 +----------------------------------------------------------------------------+
 | Ga   1   0.00000   0.00000   0.00000   |    0.00000   0.00000   0.00000    |
 | P    1   0.25000   0.25000   0.25000   |   -1.36291   1.36291   1.36291    |
 *----------------------------------------------------------------------------*
                                ------------
                                K-POINT GRID
                                ------------
  
             Grid size = 12 x 12 x 12      Total points = 1728
  
  
 *---------------------------------- MAIN ------------------------------------*
 |  Number of Wannier Functions               :                 3             |
 |  Number of Objective Wannier Functions     :                 3             |
 |  Number of input Bloch states              :                 3             |
 |  Output verbosity (1=low, 5=high)          :                 1             |
 |  Timing Level (1=low, 5=high)              :                 1             |
 |  Optimisation (0=memory, 3=speed)          :                 3             |
 |  Length Unit                               :               Ang             |
 |  Post-processing setup (write *.nnkp)      :                 F             |
 |  Using Gamma-only branch of algorithms     :                 F             |
 *----------------------------------------------------------------------------*
 *------------------------------- WANNIERISE ---------------------------------*
 |  Total number of iterations                :               500             |
 |  Number of CG steps before reset           :                 5             |
 |  Trial step length for line search         :             2.000             |
 |  Convergence tolerence                     :         0.100E-09             |
 |  Convergence window                        :                -1             |
 |  Iterations between writing output         :                 1             |
 |  Iterations between backing up to disk     :               100             |
 |  Write r^2_nm to file                      :                 F             |
 |  Write xyz WF centres to file              :                 F             |
 |  Write on-site energies <0n|H|0n> to file  :                 F             |
 |  Use guiding centre to control phases      :                 F             |
 |  Use phases for initial projections        :                 F             |
 *----------------------------------------------------------------------------*
 Time to read parameters        0.108 (sec)

 *---------------------------------- K-MESH ----------------------------------*
 +----------------------------------------------------------------------------+
 |                    Distance to Nearest-Neighbour Shells                    |
 |                    ------------------------------------                    |
 |          Shell             Distance (Ang^-1)          Multiplicity         |
 |          -----             -----------------          ------------         |
 |             1                   0.166354                      8            |
 |             2                   0.192089                      6            |
 |             3                   0.271655                     12            |
 |             4                   0.318544                     24            |
 |             5                   0.332708                      8            |
 |             6                   0.384178                      6            |
 |             7                   0.418648                     24            |
 |             8                   0.429524                     24            |
 |             9                   0.470520                     24            |
 |            10                   0.499062                     32            |
 |            11                   0.543310                     12            |
 |            12                   0.568207                     48            |
 |            13                   0.576267                     30            |
 |            14                   0.607439                     24            |
 |            15                   0.629806                     24            |
 |            16                   0.637087                     24            |
 |            17                   0.665416                      8            |
 |            18                   0.685895                     48            |
 |            19                   0.692587                     24            |
 |            20                   0.718732                     48            |
 |            21                   0.737732                     72            |
 |            22                   0.768356                      6            |
 |            23                   0.786159                     24            |
 |            24                   0.792004                     48            |
 |            25                   0.814965                     36            |
 |            26                   0.831770                     56            |
 |            27                   0.837297                     24            |
 |            28                   0.859049                     24            |
 |            29                   0.875007                     72            |
 |            30                   0.880263                     48            |
 |            31                   0.900978                     24            |
 |            32                   0.916207                     48            |
 |            33                   0.941041                     24            |
 |            34                   0.955631                     72            |
 |            35                   0.960446                     30            |
 |            36                   0.979466                     72            |
 +----------------------------------------------------------------------------+
 | The b-vectors are chosen automatically                                     |
 | The following shells are used:   1                                         |
 +----------------------------------------------------------------------------+
 |                        Shell   # Nearest-Neighbours                        |
 |                        -----   --------------------                        |
 |                          1               8                                 |
 +----------------------------------------------------------------------------+
 | Completeness relation is fully satisfied [Eq. (B1), PRB 56, 12847 (1997)]  |
 +----------------------------------------------------------------------------+
 |                  b_k Vectors (Ang^-1) and Weights (Ang^2)                  |
 |                  ----------------------------------------                  |
 |            No.         b_k(x)      b_k(y)      b_k(z)        w_b           |
 |            ---        --------------------------------     --------        |
 |             1        -0.096045    0.096045   -0.096045    13.550789        |
 |             2         0.096045    0.096045    0.096045    13.550789        |
 |             3        -0.096045   -0.096045    0.096045    13.550789        |
 |             4        -0.096045    0.096045    0.096045    13.550789        |
 |             5         0.096045   -0.096045    0.096045    13.550789        |
 |             6        -0.096045   -0.096045   -0.096045    13.550789        |
 |             7         0.096045    0.096045   -0.096045    13.550789        |
 |             8         0.096045   -0.096045   -0.096045    13.550789        |
 +----------------------------------------------------------------------------+
 |                           b_k Directions (Ang^-1)                          |
 |                           -----------------------                          |
 |            No.           x           y           z                         |
 |            ---        --------------------------------                     |
 |             1        -0.096045    0.096045   -0.096045                     |
 |             2         0.096045    0.096045    0.096045                     |
 |             3        -0.096045   -0.096045    0.096045                     |
 |             4        -0.096045    0.096045    0.096045                     |
 +----------------------------------------------------------------------------+
  
 Time to get kmesh              1.121 (sec)
 *============================================================================*
 |                              MEMORY ESTIMATE                               |
 |         Maximum RAM allocated during each phase of the calculation         |
 *============================================================================*
 |                            Wannierise:            7.00 Mb                  |
 |                          plot_wannier:            7.00 Mb                  |
 *----------------------------------------------------------------------------*
  
 Starting a new Wannier90 calculation ...


 Reading overlaps from mp-2490.mmn    :  Created on  3Jan2024 at 14:31:10

 Reading projections from mp-2490.amn :  Created on  3Jan2024 at 14:31: 9  with SCDM

 Time to read overlaps          0.138 (sec)

 Writing checkpoint file mp-2490.chk... done

 
 *------------------------------- WANNIERISE ---------------------------------*
 +--------------------------------------------------------------------+<-- CONV
 | Iter  Delta Spread     RMS Gradient      Spread (Ang^2)      Time  |<-- CONV
 +--------------------------------------------------------------------+<-- CONV
 
 ------------------------------------------------------------------------------
 Initial State
  WF centre and spread    1  ( -1.124769,  1.704844,  1.610281 )     4.67462537
  WF centre and spread    2  ( -1.188985,  1.128200,  1.010974 )     4.70430241
  WF centre and spread    3  ( -1.768029,  1.253142,  1.471294 )     4.83283448
  Sum of centres and spreads ( -4.081783,  4.086187,  4.092548 )    14.21176225
 
      0     0.142E+02     0.0000000000       14.2117636415       0.00  <-- CONV
        O_D=      1.6390161 O_OD=      2.8772809 O_TOT=     14.2117636 <-- SPRD
 ------------------------------------------------------------------------------
 Cycle:      1
  WF centre and spread    1  ( -1.128116,  1.693701,  1.607844 )     4.07393200
  WF centre and spread    2  ( -1.194793,  1.131892,  1.021528 )     4.10099898
  WF centre and spread    3  ( -1.762051,  1.262849,  1.460762 )     4.17788374
  Sum of centres and spreads ( -4.084960,  4.088442,  4.090134 )    12.35281471
 
      1    -0.186E+01     0.4367243110       12.3528160967       0.01  <-- CONV
        O_D=      0.9105452 O_OD=      1.7468043 O_TOT=     12.3528161 <-- SPRD
 Delta: O_D= -0.7284710E+00 O_OD= -0.1130477E+01 O_TOT= -0.1858948E+01 <-- DLTA
 ------------------------------------------------------------------------------
 Cycle:      2
  WF centre and spread    1  ( -1.133090,  1.678136,  1.602924 )     3.72470060
  WF centre and spread    2  ( -1.201692,  1.137319,  1.036186 )     3.74886553
  WF centre and spread    3  ( -1.750971,  1.273455,  1.450522 )     3.78351058
  Sum of centres and spreads ( -4.085754,  4.088910,  4.089631 )    11.25707670
 
      2    -0.110E+01     0.4629973931       11.2570780860       0.01  <-- CONV
        O_D=      0.4223771 O_OD=      1.1392343 O_TOT=     11.2570781 <-- SPRD
 Delta: O_D= -0.4881680E+00 O_OD= -0.6075700E+00 O_TOT= -0.1095738E+01 <-- DLTA
 ------------------------------------------------------------------------------
 Cycle:      3
  WF centre and spread    1  ( -1.137023,  1.668543,  1.598779 )     3.56015526
  WF centre and spread    2  ( -1.205888,  1.141392,  1.045355 )     3.57816133
  WF centre and spread    3  ( -1.742857,  1.279046,  1.445470 )     3.58663947
  Sum of centres and spreads ( -4.085768,  4.088981,  4.089604 )    10.72495605
 
      3    -0.532E+00     0.3896080322       10.7249574323       0.02  <-- CONV
        O_D=      0.1959990 O_OD=      0.8334918 O_TOT=     10.7249574 <-- SPRD
 Delta: O_D= -0.2263781E+00 O_OD= -0.3057425E+00 O_TOT= -0.5321207E+00 <-- DLTA
 ------------------------------------------------------------------------------
 Cycle:      4
  WF centre and spread    1  ( -1.139287,  1.663935,  1.596354 )     3.48654979
  WF centre and spread    2  ( -1.207766,  1.143662,  1.049820 )     3.50138191
  WF centre and spread    3  ( -1.738400,  1.281214,  1.443652 )     3.50115156
  Sum of centres and spreads ( -4.085453,  4.088811,  4.089827 )    10.48908326
 
      4    -0.236E+00     0.2939401543       10.4890846402       0.03  <-- CONV
        O_D=      0.1036452 O_OD=      0.6899728 O_TOT=     10.4890846 <-- SPRD
 Delta: O_D= -0.9235378E-01 O_OD= -0.1435190E+00 O_TOT= -0.2358728E+00 <-- DLTA
 ------------------------------------------------------------------------------
 Cycle:      5
  WF centre and spread    1  ( -1.140559,  1.661701,  1.595029 )     3.45108899
  WF centre and spread    2  ( -1.208491,  1.144865,  1.052011 )     3.46577638
  WF centre and spread    3  ( -1.735961,  1.281951,  1.443126 )     3.46283224
  Sum of centres and spreads ( -4.085011,  4.088517,  4.090165 )    10.37969761
 
      5    -0.109E+00     0.1896033023       10.3796989914       0.03  <-- CONV
        O_D=      0.0659995 O_OD=      0.6182329 O_TOT=     10.3796990 <-- SPRD
 Delta: O_D= -0.3764575E-01 O_OD= -0.7173990E-01 O_TOT= -0.1093856E+00 <-- DLTA
 ------------------------------------------------------------------------------
 Cycle:      6
  WF centre and spread    1  ( -1.141286,  1.660453,  1.594325 )     3.43109036
  WF centre and spread    2  ( -1.208723,  1.145504,  1.053211 )     3.44683646
  WF centre and spread    3  ( -1.734589,  1.282260,  1.442957 )     3.44603156
  Sum of centres and spreads ( -4.084598,  4.088218,  4.090492 )    10.32395837
 
      6    -0.557E-01     0.1376480379       10.3239597438       0.04  <-- CONV
        O_D=      0.0491991 O_OD=      0.5792940 O_TOT=     10.3239597 <-- SPRD
 Delta: O_D= -0.1680033E-01 O_OD= -0.3893892E-01 O_TOT= -0.5573925E-01 <-- DLTA
 ------------------------------------------------------------------------------
 Cycle:      7
  WF centre and spread    1  ( -1.141374,  1.660366,  1.594276 )     3.42478796
  WF centre and spread    2  ( -1.208674,  1.145553,  1.053282 )     3.44063632
  WF centre and spread    3  ( -1.734499,  1.282251,  1.442980 )     3.44006996
  Sum of centres and spreads ( -4.084546,  4.088170,  4.090538 )    10.30549425
 
      7    -0.185E-01     0.0966408145       10.3054956241       0.05  <-- CONV
        O_D=      0.0421501 O_OD=      0.5678789 O_TOT=     10.3054956 <-- SPRD
 Delta: O_D= -0.7049007E-02 O_OD= -0.1141511E-01 O_TOT= -0.1846412E-01 <-- DLTA
 ------------------------------------------------------------------------------
 Cycle:      8
  WF centre and spread    1  ( -1.141579,  1.660152,  1.594173 )     3.41872881
  WF centre and spread    2  ( -1.208578,  1.145656,  1.053460 )     3.43565903
  WF centre and spread    3  ( -1.734276,  1.282254,  1.443008 )     3.43737573
  Sum of centres and spreads ( -4.084433,  4.088062,  4.090641 )    10.29176357
 
      8    -0.137E-01     0.0648764718       10.2917649469       0.05  <-- CONV
        O_D=      0.0391886 O_OD=      0.5571097 O_TOT=     10.2917649 <-- SPRD
 Delta: O_D= -0.2961487E-02 O_OD= -0.1076919E-01 O_TOT= -0.1373068E-01 <-- DLTA
 ------------------------------------------------------------------------------
 Cycle:      9
  WF centre and spread    1  ( -1.141851,  1.659850,  1.594042 )     3.41429203
  WF centre and spread    2  ( -1.208479,  1.145793,  1.053709 )     3.43247361
  WF centre and spread    3  ( -1.733994,  1.282311,  1.442988 )     3.43667694
  Sum of centres and spreads ( -4.084324,  4.087954,  4.090740 )    10.28344258
 
      9    -0.832E-02     0.0493151636       10.2834439614       0.06  <-- CONV
        O_D=      0.0378033 O_OD=      0.5501740 O_TOT=     10.2834440 <-- SPRD
 Delta: O_D= -0.1385332E-02 O_OD= -0.6935653E-02 O_TOT= -0.8320986E-02 <-- DLTA
 ------------------------------------------------------------------------------
 Cycle:     10
  WF centre and spread    1  ( -1.142199,  1.659459,  1.593878 )     3.41068517
  WF centre and spread    2  ( -1.208391,  1.145968,  1.054035 )     3.43004365
  WF centre and spread    3  ( -1.733649,  1.282440,  1.442903 )     3.43676994
  Sum of centres and spreads ( -4.084238,  4.087868,  4.090816 )    10.27749877
 
     10    -0.594E-02     0.0417204681       10.2775001456       0.07  <-- CONV
        O_D=      0.0369572 O_OD=      0.5450763 O_TOT=     10.2775001 <-- SPRD
 Delta: O_D= -0.8461519E-03 O_OD= -0.5097664E-02 O_TOT= -0.5943816E-02 <-- DLTA
 ------------------------------------------------------------------------------
 Cycle:     11
  WF centre and spread    1  ( -1.142649,  1.658976,  1.593672 )     3.40772867
  WF centre and spread    2  ( -1.208305,  1.146191,  1.054441 )     3.42808780
  WF centre and spread    3  ( -1.733228,  1.282645,  1.442748 )     3.43705689
  Sum of centres and spreads ( -4.084183,  4.087811,  4.090861 )    10.27287336
 
     11    -0.463E-02     0.0337908722       10.2728747363       0.08  <-- CONV
        O_D=      0.0359548 O_OD=      0.5414533 O_TOT=     10.2728747 <-- SPRD
 Delta: O_D= -0.1002389E-02 O_OD= -0.3623021E-02 O_TOT= -0.4625409E-02 <-- DLTA
 ------------------------------------------------------------------------------
 Cycle:     12
  WF centre and spread    1  ( -1.142955,  1.658686,  1.593544 )     3.40641277
  WF centre and spread    2  ( -1.208242,  1.146328,  1.054686 )     3.42719410
  WF centre and spread    3  ( -1.732967,  1.282777,  1.442643 )     3.43724879
  Sum of centres and spreads ( -4.084164,  4.087790,  4.090873 )    10.27085566
 
     12    -0.202E-02     0.0273808213       10.2708570356       0.08  <-- CONV
        O_D=      0.0354159 O_OD=      0.5399745 O_TOT=     10.2708570 <-- SPRD
 Delta: O_D= -0.5388696E-03 O_OD= -0.1478831E-02 O_TOT= -0.2017701E-02 <-- DLTA
 ------------------------------------------------------------------------------
 Cycle:     13
  WF centre and spread    1  ( -1.143030,  1.658649,  1.593521 )     3.40618528
  WF centre and spread    2  ( -1.208217,  1.146350,  1.054718 )     3.42692591
  WF centre and spread    3  ( -1.732919,  1.282790,  1.442632 )     3.43697133
  Sum of centres and spreads ( -4.084166,  4.087790,  4.090871 )    10.27008252
 
     13    -0.773E-03     0.0201476379       10.2700838953       0.09  <-- CONV
        O_D=      0.0351199 O_OD=      0.5394974 O_TOT=     10.2700839 <-- SPRD
 Delta: O_D= -0.2960198E-03 O_OD= -0.4771206E-03 O_TOT= -0.7731403E-03 <-- DLTA
 ------------------------------------------------------------------------------
 Cycle:     14
  WF centre and spread    1  ( -1.143270,  1.658539,  1.593452 )     3.40593479
  WF centre and spread    2  ( -1.208129,  1.146418,  1.054814 )     3.42659848
  WF centre and spread    3  ( -1.732773,  1.282832,  1.442599 )     3.43674033
  Sum of centres and spreads ( -4.084172,  4.087789,  4.090865 )    10.26927359
 
     14    -0.809E-03     0.0138164680       10.2692749700       0.10  <-- CONV
        O_D=      0.0350158 O_OD=      0.5387925 O_TOT=     10.2692750 <-- SPRD
 Delta: O_D= -0.1040729E-03 O_OD= -0.7048524E-03 O_TOT= -0.8089253E-03 <-- DLTA
 ------------------------------------------------------------------------------
 Cycle:     15
  WF centre and spread    1  ( -1.143581,  1.658416,  1.593377 )     3.40573688
  WF centre and spread    2  ( -1.207996,  1.146495,  1.054918 )     3.42629411
  WF centre and spread    3  ( -1.732602,  1.282875,  1.442562 )     3.43661285
  Sum of centres and spreads ( -4.084179,  4.087786,  4.090857 )    10.26864383
 
     15    -0.630E-03     0.0131779454       10.2686452114       0.10  <-- CONV
        O_D=      0.0348877 O_OD=      0.5382909 O_TOT=     10.2686452 <-- SPRD
 Delta: O_D= -0.1281363E-03 O_OD= -0.5016223E-03 O_TOT= -0.6297586E-03 <-- DLTA
 ------------------------------------------------------------------------------
 Cycle:     16
  WF centre and spread    1  ( -1.143840,  1.658346,  1.593332 )     3.40561052
  WF centre and spread    2  ( -1.207856,  1.146546,  1.054973 )     3.42607983
  WF centre and spread    3  ( -1.732484,  1.282888,  1.442550 )     3.43662084
  Sum of centres and spreads ( -4.084180,  4.087780,  4.090855 )    10.26831120
 
     16    -0.333E-03     0.0103338328       10.2683125748       0.11  <-- CONV
        O_D=      0.0348111 O_OD=      0.5380348 O_TOT=     10.2683126 <-- SPRD
 Delta: O_D= -0.7658785E-04 O_OD= -0.2560487E-03 O_TOT= -0.3326366E-03 <-- DLTA
 ------------------------------------------------------------------------------
 Cycle:     17
  WF centre and spread    1  ( -1.144158,  1.658305,  1.593297 )     3.40546918
  WF centre and spread    2  ( -1.207646,  1.146591,  1.054997 )     3.42583761
  WF centre and spread    3  ( -1.732369,  1.282869,  1.442565 )     3.43674064
  Sum of centres and spreads ( -4.084173,  4.087765,  4.090859 )    10.26804742
 
     17    -0.264E-03     0.0081599864       10.2680488011       0.12  <-- CONV
        O_D=      0.0347533 O_OD=      0.5378289 O_TOT=     10.2680488 <-- SPRD
 Delta: O_D= -0.5779889E-04 O_OD= -0.2059749E-03 O_TOT= -0.2637738E-03 <-- DLTA
 ------------------------------------------------------------------------------
 Cycle:     18
  WF centre and spread    1  ( -1.144520,  1.658304,  1.593277 )     3.40531651
  WF centre and spread    2  ( -1.207369,  1.146625,  1.054985 )     3.42556790
  WF centre and spread    3  ( -1.732265,  1.282811,  1.442611 )     3.43694090
  Sum of centres and spreads ( -4.084154,  4.087740,  4.090873 )    10.26782531
 
     18    -0.222E-03     0.0078432390       10.2678266840       0.12  <-- CONV
        O_D=      0.0347132 O_OD=      0.5376468 O_TOT=     10.2678267 <-- SPRD
 Delta: O_D= -0.4005839E-04 O_OD= -0.1820587E-03 O_TOT= -0.2221171E-03 <-- DLTA
 ------------------------------------------------------------------------------
 Cycle:     19
  WF centre and spread    1  ( -1.144568,  1.658328,  1.593282 )     3.40526585
  WF centre and spread    2  ( -1.207316,  1.146622,  1.054962 )     3.42549235
  WF centre and spread    3  ( -1.732264,  1.282784,  1.442633 )     3.43692510
  Sum of centres and spreads ( -4.084147,  4.087733,  4.090878 )    10.26768329
 
     19    -0.142E-03     0.0087109271       10.2676846663       0.13  <-- CONV
        O_D=      0.0346483 O_OD=      0.5375698 O_TOT=     10.2676847 <-- SPRD
 Delta: O_D= -0.6495752E-04 O_OD= -0.7706017E-04 O_TOT= -0.1420177E-03 <-- DLTA
 ------------------------------------------------------------------------------
 Cycle:     20
  WF centre and spread    1  ( -1.144700,  1.658390,  1.593294 )     3.40521318
  WF centre and spread    2  ( -1.207174,  1.146615,  1.054904 )     3.42538009
  WF centre and spread    3  ( -1.732258,  1.282714,  1.442690 )     3.43698010
  Sum of centres and spreads ( -4.084132,  4.087719,  4.090889 )    10.26757336
 
     20    -0.110E-03     0.0055450603       10.2675747419       0.14  <-- CONV
        O_D=      0.0346260 O_OD=      0.5374821 O_TOT=     10.2675747 <-- SPRD
 Delta: O_D= -0.2222764E-04 O_OD= -0.8769673E-04 O_TOT= -0.1099244E-03 <-- DLTA
 ------------------------------------------------------------------------------
 Cycle:     21
  WF centre and spread    1  ( -1.144956,  1.658501,  1.593310 )     3.40516280
  WF centre and spread    2  ( -1.206916,  1.146608,  1.054800 )     3.42520713
  WF centre and spread    3  ( -1.732242,  1.282590,  1.442791 )     3.43709009
  Sum of centres and spreads ( -4.084114,  4.087699,  4.090901 )    10.26746002
 
     21    -0.113E-03     0.0051297446       10.2674613953       0.14  <-- CONV
        O_D=      0.0346149 O_OD=      0.5373799 O_TOT=     10.2674614 <-- SPRD
 Delta: O_D= -0.1114673E-04 O_OD= -0.1021999E-03 O_TOT= -0.1133466E-03 <-- DLTA
 ------------------------------------------------------------------------------
 Cycle:     22
  WF centre and spread    1  ( -1.145430,  1.658691,  1.593325 )     3.40513047
  WF centre and spread    2  ( -1.206462,  1.146606,  1.054623 )     3.42492673
  WF centre and spread    3  ( -1.732203,  1.282376,  1.442962 )     3.43725315
  Sum of centres and spreads ( -4.084094,  4.087673,  4.090911 )    10.26731035
 
     22    -0.150E-03     0.0056415621       10.2673117236       0.15  <-- CONV
        O_D=      0.0346065 O_OD=      0.5372386 O_TOT=     10.2673117 <-- SPRD
 Delta: O_D= -0.8386755E-05 O_OD= -0.1412849E-03 O_TOT= -0.1496717E-03 <-- DLTA
 ------------------------------------------------------------------------------
 Cycle:     23
  WF centre and spread    1  ( -1.146138,  1.658957,  1.593328 )     3.40515598
  WF centre and spread    2  ( -1.205811,  1.146617,  1.054383 )     3.42455170
  WF centre and spread    3  ( -1.732131,  1.282073,  1.443203 )     3.43742149
  Sum of centres and spreads ( -4.084081,  4.087647,  4.090914 )    10.26712916
 
     23    -0.181E-03     0.0063816440       10.2671305380       0.16  <-- CONV
        O_D=      0.0345977 O_OD=      0.5370662 O_TOT=     10.2671305 <-- SPRD
 Delta: O_D= -0.8799453E-05 O_OD= -0.1723862E-03 O_TOT= -0.1811856E-03 <-- DLTA
 ------------------------------------------------------------------------------
 Cycle:     24
  WF centre and spread    1  ( -1.147098,  1.659299,  1.593307 )     3.40526769
  WF centre and spread    2  ( -1.204956,  1.146648,  1.054083 )     3.42408709
  WF centre and spread    3  ( -1.732020,  1.281672,  1.443520 )     3.43756111
  Sum of centres and spreads ( -4.084075,  4.087619,  4.090909 )    10.26691589
 
     24    -0.213E-03     0.0072053057       10.2669172695       0.16  <-- CONV
        O_D=      0.0346254 O_OD=      0.5368252 O_TOT=     10.2669173 <-- SPRD
 Delta: O_D=  0.2771858E-04 O_OD= -0.2409870E-03 O_TOT= -0.2132684E-03 <-- DLTA
 ------------------------------------------------------------------------------
 Cycle:     25
  WF centre and spread    1  ( -1.147158,  1.659319,  1.593297 )     3.40526042
  WF centre and spread    2  ( -1.204911,  1.146654,  1.054068 )     3.42402431
  WF centre and spread    3  ( -1.732009,  1.281647,  1.443542 )     3.43745390
  Sum of centres and spreads ( -4.084078,  4.087619,  4.090907 )    10.26673862
 
     25    -0.177E-03     0.0093453420       10.2667399973       0.17  <-- CONV
        O_D=      0.0345574 O_OD=      0.5367160 O_TOT=     10.2667400 <-- SPRD
 Delta: O_D= -0.6804804E-04 O_OD= -0.1092242E-03 O_TOT= -0.1772722E-03 <-- DLTA
 ------------------------------------------------------------------------------
 Cycle:     26
  WF centre and spread    1  ( -1.147306,  1.659371,  1.593275 )     3.40532225
  WF centre and spread    2  ( -1.204797,  1.146668,  1.054030 )     3.42395672
  WF centre and spread    3  ( -1.731983,  1.281582,  1.443595 )     3.43731533
  Sum of centres and spreads ( -4.084086,  4.087621,  4.090900 )    10.26659430
 
     26    -0.144E-03     0.0064908305       10.2665956737       0.18  <-- CONV
        O_D=      0.0345436 O_OD=      0.5365854 O_TOT=     10.2665957 <-- SPRD
 Delta: O_D= -0.1376375E-04 O_OD= -0.1305598E-03 O_TOT= -0.1443236E-03 <-- DLTA
 ------------------------------------------------------------------------------
 Cycle:     27
  WF centre and spread    1  ( -1.147540,  1.659458,  1.593243 )     3.40543837
  WF centre and spread    2  ( -1.204612,  1.146689,  1.053964 )     3.42387412
  WF centre and spread    3  ( -1.731946,  1.281477,  1.443681 )     3.43715279
  Sum of centres and spreads ( -4.084098,  4.087624,  4.090888 )    10.26646527
 
     27    -0.129E-03     0.0059373114       10.2664666477       0.18  <-- CONV
        O_D=      0.0345359 O_OD=      0.5364642 O_TOT=     10.2664666 <-- SPRD
 Delta: O_D= -0.7769626E-05 O_OD= -0.1212564E-03 O_TOT= -0.1290260E-03 <-- DLTA
 ------------------------------------------------------------------------------
 Cycle:     28
  WF centre and spread    1  ( -1.147794,  1.659562,  1.593214 )     3.40555523
  WF centre and spread    2  ( -1.204402,  1.146707,  1.053884 )     3.42378894
  WF centre and spread    3  ( -1.731914,  1.281356,  1.443779 )     3.43703094
  Sum of centres and spreads ( -4.084110,  4.087626,  4.090877 )    10.26637511
 
     28    -0.902E-04     0.0051731622       10.2663764906       0.19  <-- CONV
        O_D=      0.0345350 O_OD=      0.5363748 O_TOT=     10.2663765 <-- SPRD
 Delta: O_D= -0.8143692E-06 O_OD= -0.8934276E-04 O_TOT= -0.9015713E-04 <-- DLTA
 ------------------------------------------------------------------------------
 Cycle:     29
  WF centre and spread    1  ( -1.148154,  1.659724,  1.593180 )     3.40569386
  WF centre and spread    2  ( -1.204087,  1.146728,  1.053757 )     3.42366249
  WF centre and spread    3  ( -1.731878,  1.281174,  1.443929 )     3.43692958
  Sum of centres and spreads ( -4.084119,  4.087625,  4.090866 )    10.26628593
 
     29    -0.892E-04     0.0045307952       10.2662873058       0.20  <-- CONV
        O_D=      0.0345460 O_OD=      0.5362747 O_TOT=     10.2662873 <-- SPRD
 Delta: O_D=  0.1097038E-04 O_OD= -0.1001552E-03 O_TOT= -0.8918484E-04 <-- DLTA
 ------------------------------------------------------------------------------
 Cycle:     30
  WF centre and spread    1  ( -1.148755,  1.660007,  1.593131 )     3.40588673
  WF centre and spread    2  ( -1.203540,  1.146755,  1.053533 )     3.42343886
  WF centre and spread    3  ( -1.731828,  1.280852,  1.444193 )     3.43683990
  Sum of centres and spreads ( -4.084124,  4.087614,  4.090857 )    10.26616548
 
     30    -0.120E-03     0.0050213461       10.2661668598       0.21  <-- CONV
        O_D=      0.0345879 O_OD=      0.5361123 O_TOT=     10.2661669 <-- SPRD
 Delta: O_D=  0.4191430E-04 O_OD= -0.1623602E-03 O_TOT= -0.1204459E-03 <-- DLTA
 ------------------------------------------------------------------------------
 Cycle:     31
  WF centre and spread    1  ( -1.148799,  1.660033,  1.593131 )     3.40585230
  WF centre and spread    2  ( -1.203492,  1.146754,  1.053512 )     3.42338060
  WF centre and spread    3  ( -1.731828,  1.280823,  1.444218 )     3.43682453
  Sum of centres and spreads ( -4.084119,  4.087610,  4.090860 )    10.26605743
 
     31    -0.108E-03     0.0075033957       10.2660588037       0.21  <-- CONV
        O_D=      0.0345386 O_OD=      0.5360535 O_TOT=     10.2660588 <-- SPRD
 Delta: O_D= -0.4928494E-04 O_OD= -0.5877120E-04 O_TOT= -0.1080561E-03 <-- DLTA
 ------------------------------------------------------------------------------
 Cycle:     32
  WF centre and spread    1  ( -1.148913,  1.660097,  1.593129 )     3.40582538
  WF centre and spread    2  ( -1.203370,  1.146753,  1.053459 )     3.42329727
  WF centre and spread    3  ( -1.731825,  1.280749,  1.444280 )     3.43685624
  Sum of centres and spreads ( -4.084108,  4.087599,  4.090868 )    10.26597889
 
     32    -0.785E-04     0.0047158565       10.2659802643       0.22  <-- CONV
        O_D=      0.0345245 O_OD=      0.5359891 O_TOT=     10.2659803 <-- SPRD
 Delta: O_D= -0.1413344E-04 O_OD= -0.6440594E-04 O_TOT= -0.7853938E-04 <-- DLTA
 ------------------------------------------------------------------------------
 Cycle:     33
  WF centre and spread    1  ( -1.149136,  1.660214,  1.593118 )     3.40581023
  WF centre and spread    2  ( -1.203145,  1.146756,  1.053365 )     3.42316714
  WF centre and spread    3  ( -1.731815,  1.280614,  1.444392 )     3.43692033
  Sum of centres and spreads ( -4.084096,  4.087585,  4.090875 )    10.26589770
 
     33    -0.812E-04     0.0043398101       10.2658990750       0.23  <-- CONV
        O_D=      0.0345193 O_OD=      0.5359131 O_TOT=     10.2658991 <-- SPRD
 Delta: O_D= -0.5204999E-05 O_OD= -0.7598434E-04 O_TOT= -0.8118934E-04 <-- DLTA
 ------------------------------------------------------------------------------
 Cycle:     34
  WF centre and spread    1  ( -1.149542,  1.660414,  1.593090 )     3.40582595
  WF centre and spread    2  ( -1.202755,  1.146769,  1.053208 )     3.42295920
  WF centre and spread    3  ( -1.731788,  1.280385,  1.444582 )     3.43700676
  Sum of centres and spreads ( -4.084085,  4.087568,  4.090880 )    10.26579191
 
     34    -0.106E-03     0.0048222743       10.2657932846       0.23  <-- CONV
        O_D=      0.0345172 O_OD=      0.5358095 O_TOT=     10.2657933 <-- SPRD
 Delta: O_D= -0.2148722E-05 O_OD= -0.1036416E-03 O_TOT= -0.1057904E-03 <-- DLTA
 ------------------------------------------------------------------------------
 Cycle:     35
  WF centre and spread    1  ( -1.150104,  1.660671,  1.593035 )     3.40589821
  WF centre and spread    2  ( -1.202239,  1.146797,  1.053011 )     3.42270299
  WF centre and spread    3  ( -1.731739,  1.280084,  1.444832 )     3.43707297
  Sum of centres and spreads ( -4.084081,  4.087551,  4.090878 )    10.26567417
 
     35    -0.118E-03     0.0053189529       10.2656755484       0.24  <-- CONV
        O_D=      0.0345186 O_OD=      0.5356903 O_TOT=     10.2656755 <-- SPRD
 Delta: O_D=  0.1497426E-05 O_OD= -0.1192336E-03 O_TOT= -0.1177362E-03 <-- DLTA
 ------------------------------------------------------------------------------
 Cycle:     36
  WF centre and spread    1  ( -1.150893,  1.661010,  1.592942 )     3.40605455
  WF centre and spread    2  ( -1.201535,  1.146849,  1.052757 )     3.42237663
  WF centre and spread    3  ( -1.731655,  1.279675,  1.445171 )     3.43710082
  Sum of centres and spreads ( -4.084082,  4.087534,  4.090870 )    10.26553200
 
     36    -0.142E-03     0.0058185543       10.2655333773       0.25  <-- CONV
        O_D=      0.0345543 O_OD=      0.5355124 O_TOT=     10.2655334 <-- SPRD
 Delta: O_D=  0.3567081E-04 O_OD= -0.1778419E-03 O_TOT= -0.1421711E-03 <-- DLTA
 ------------------------------------------------------------------------------
 Cycle:     37
  WF centre and spread    1  ( -1.150944,  1.661025,  1.592930 )     3.40605190
  WF centre and spread    2  ( -1.201497,  1.146855,  1.052748 )     3.42232965
  WF centre and spread    3  ( -1.731643,  1.279652,  1.445191 )     3.43702186
  Sum of centres and spreads ( -4.084084,  4.087533,  4.090869 )    10.26540341
 
     37    -0.129E-03     0.0079744425       10.2654047889       0.25  <-- CONV
        O_D=      0.0345032 O_OD=      0.5354350 O_TOT=     10.2654048 <-- SPRD
 Delta: O_D= -0.5112631E-04 O_OD= -0.7746210E-04 O_TOT= -0.1285884E-03 <-- DLTA
 ------------------------------------------------------------------------------
 Cycle:     38
  WF centre and spread    1  ( -1.151072,  1.661066,  1.592900 )     3.40610329
  WF centre and spread    2  ( -1.201400,  1.146872,  1.052723 )     3.42227689
  WF centre and spread    3  ( -1.731616,  1.279595,  1.445241 )     3.43691893
  Sum of centres and spreads ( -4.084088,  4.087532,  4.090865 )    10.26529910
 
     38    -0.104E-03     0.0054968120       10.2653004805       0.26  <-- CONV
        O_D=      0.0344916 O_OD=      0.5353422 O_TOT=     10.2653005 <-- SPRD
 Delta: O_D= -0.1157853E-04 O_OD= -0.9272986E-04 O_TOT= -0.1043084E-03 <-- DLTA
 ------------------------------------------------------------------------------
 Cycle:     39
  WF centre and spread    1  ( -1.151281,  1.661137,  1.592854 )     3.40619827
  WF centre and spread    2  ( -1.201239,  1.146897,  1.052678 )     3.42220714
  WF centre and spread    3  ( -1.731577,  1.279498,  1.445325 )     3.43679714
  Sum of centres and spreads ( -4.084097,  4.087532,  4.090857 )    10.26520255
 
     39    -0.966E-04     0.0050866470       10.2652039301       0.27  <-- CONV
        O_D=      0.0344827 O_OD=      0.5352546 O_TOT=     10.2652039 <-- SPRD
 Delta: O_D= -0.8949645E-05 O_OD= -0.8760076E-04 O_TOT= -0.9655040E-04 <-- DLTA
 ------------------------------------------------------------------------------
 Cycle:     40
  WF centre and spread    1  ( -1.151508,  1.661222,  1.592808 )     3.40629157
  WF centre and spread    2  ( -1.201057,  1.146922,  1.052622 )     3.42213215
  WF centre and spread    3  ( -1.731540,  1.279388,  1.445420 )     3.43671005
  Sum of centres and spreads ( -4.084105,  4.087531,  4.090850 )    10.26513378
 
     40    -0.688E-04     0.0045239527       10.2651351523       0.27  <-- CONV
        O_D=      0.0344786 O_OD=      0.5351900 O_TOT=     10.2651352 <-- SPRD
 Delta: O_D= -0.4100874E-05 O_OD= -0.6467700E-04 O_TOT= -0.6877788E-04 <-- DLTA
 ------------------------------------------------------------------------------
 Cycle:     41
  WF centre and spread    1  ( -1.151811,  1.661348,  1.592751 )     3.40639272
  WF centre and spread    2  ( -1.200801,  1.146950,  1.052535 )     3.42202561
  WF centre and spread    3  ( -1.731500,  1.279230,  1.445557 )     3.43665128
  Sum of centres and spreads ( -4.084112,  4.087528,  4.090843 )    10.26506960
 
     41    -0.642E-04     0.0039249048       10.2650709770       0.28  <-- CONV
        O_D=      0.0344832 O_OD=      0.5351212 O_TOT=     10.2650710 <-- SPRD
 Delta: O_D=  0.4611200E-05 O_OD= -0.6878647E-04 O_TOT= -0.6417527E-04 <-- DLTA
 ------------------------------------------------------------------------------
 Cycle:     42
  WF centre and spread    1  ( -1.152312,  1.661571,  1.592664 )     3.40652995
  WF centre and spread    2  ( -1.200360,  1.146992,  1.052379 )     3.42183877
  WF centre and spread    3  ( -1.731442,  1.278953,  1.445795 )     3.43661594
  Sum of centres and spreads ( -4.084114,  4.087516,  4.090838 )    10.26498466
 
     42    -0.849E-04     0.0042252146       10.2649860349       0.29  <-- CONV
        O_D=      0.0345103 O_OD=      0.5350091 O_TOT=     10.2649860 <-- SPRD
 Delta: O_D=  0.2714262E-04 O_OD= -0.1120847E-03 O_TOT= -0.8494205E-04 <-- DLTA
 ------------------------------------------------------------------------------
 Cycle:     43
  WF centre and spread    1  ( -1.152350,  1.661594,  1.592659 )     3.40650595
  WF centre and spread    2  ( -1.200319,  1.146992,  1.052362 )     3.42179384
  WF centre and spread    3  ( -1.731440,  1.278926,  1.445819 )     3.43660593
  Sum of centres and spreads ( -4.084110,  4.087512,  4.090841 )    10.26490572
 
     43    -0.789E-04     0.0064158359       10.2649070947       0.29  <-- CONV
        O_D=      0.0344744 O_OD=      0.5349661 O_TOT=     10.2649071 <-- SPRD
 Delta: O_D= -0.3592788E-04 O_OD= -0.4301240E-04 O_TOT= -0.7894027E-04 <-- DLTA
 ------------------------------------------------------------------------------
 Cycle:     44
  WF centre and spread    1  ( -1.152452,  1.661653,  1.592647 )     3.40648952
  WF centre and spread    2  ( -1.200215,  1.146996,  1.052319 )     3.42172598
  WF centre and spread    3  ( -1.731435,  1.278855,  1.445880 )     3.43663168
  Sum of centres and spreads ( -4.084102,  4.087504,  4.090846 )    10.26484717
 
     44    -0.585E-04     0.0040455839       10.2648485484       0.30  <-- CONV
        O_D=      0.0344643 O_OD=      0.5349176 O_TOT=     10.2648485 <-- SPRD
 Delta: O_D= -0.1004431E-04 O_OD= -0.4850198E-04 O_TOT= -0.5854629E-04 <-- DLTA
 ------------------------------------------------------------------------------
 Cycle:     45
  WF centre and spread    1  ( -1.152657,  1.661763,  1.592617 )     3.40648571
  WF centre and spread    2  ( -1.200015,  1.147006,  1.052240 )     3.42161495
  WF centre and spread    3  ( -1.731422,  1.278722,  1.445995 )     3.43668315
  Sum of centres and spreads ( -4.084093,  4.087492,  4.090852 )    10.26478380
 
     45    -0.634E-04     0.0037847286       10.2647851798       0.31  <-- CONV
        O_D=      0.0344606 O_OD=      0.5348580 O_TOT=     10.2647852 <-- SPRD
 Delta: O_D= -0.3756442E-05 O_OD= -0.5961212E-04 O_TOT= -0.6336856E-04 <-- DLTA
 ------------------------------------------------------------------------------
 Cycle:     46
  WF centre and spread    1  ( -1.153027,  1.661953,  1.592555 )     3.40651368
  WF centre and spread    2  ( -1.199667,  1.147032,  1.052107 )     3.42143688
  WF centre and spread    3  ( -1.731390,  1.278492,  1.446193 )     3.43674966
  Sum of centres and spreads ( -4.084085,  4.087477,  4.090855 )    10.26470021
 
     46    -0.836E-04     0.0042825581       10.2647015890       0.31  <-- CONV
        O_D=      0.0344597 O_OD=      0.5347753 O_TOT=     10.2647016 <-- SPRD
 Delta: O_D= -0.9003769E-06 O_OD= -0.8269046E-04 O_TOT= -0.8359083E-04 <-- DLTA
 ------------------------------------------------------------------------------
 Cycle:     47
  WF centre and spread    1  ( -1.153510,  1.662183,  1.592463 )     3.40659080
  WF centre and spread    2  ( -1.199234,  1.147073,  1.051951 )     3.42123088
  WF centre and spread    3  ( -1.731340,  1.278207,  1.446440 )     3.43679067
  Sum of centres and spreads ( -4.084083,  4.087463,  4.090853 )    10.26461235
 
     47    -0.879E-04     0.0046721732       10.2646137229       0.32  <-- CONV
        O_D=      0.0344629 O_OD=      0.5346842 O_TOT=     10.2646137 <-- SPRD
 Delta: O_D=  0.3193413E-05 O_OD= -0.9105954E-04 O_TOT= -0.8786613E-04 <-- DLTA
 ------------------------------------------------------------------------------
 Cycle:     48
  WF centre and spread    1  ( -1.154167,  1.662481,  1.592324 )     3.40674102
  WF centre and spread    2  ( -1.198659,  1.147138,  1.051755 )     3.42097821
  WF centre and spread    3  ( -1.731260,  1.277829,  1.446768 )     3.43679055
  Sum of centres and spreads ( -4.084087,  4.087448,  4.090847 )    10.26450978
 
     48    -0.103E-03     0.0049784564       10.2645111539       0.33  <-- CONV
        O_D=      0.0344925 O_OD=      0.5345520 O_TOT=     10.2645112 <-- SPRD
 Delta: O_D=  0.2960491E-04 O_OD= -0.1321739E-03 O_TOT= -0.1025690E-03 <-- DLTA
 ------------------------------------------------------------------------------
 Cycle:     49
  WF centre and spread    1  ( -1.154211,  1.662496,  1.592310 )     3.40674321
  WF centre and spread    2  ( -1.198626,  1.147145,  1.051747 )     3.42094338
  WF centre and spread    3  ( -1.731250,  1.277806,  1.446788 )     3.43672812
  Sum of centres and spreads ( -4.084088,  4.087447,  4.090846 )    10.26441470
 
     49    -0.951E-04     0.0068882316       10.2644160813       0.34  <-- CONV
        O_D=      0.0344537 O_OD=      0.5344957 O_TOT=     10.2644161 <-- SPRD
 Delta: O_D= -0.3875926E-04 O_OD= -0.5631337E-04 O_TOT= -0.9507263E-04 <-- DLTA
 ------------------------------------------------------------------------------
 Cycle:     50
  WF centre and spread    1  ( -1.154324,  1.662535,  1.592275 )     3.40679215
  WF centre and spread    2  ( -1.198541,  1.147163,  1.051727 )     3.42090305
  WF centre and spread    3  ( -1.731226,  1.277748,  1.446842 )     3.43664063
  Sum of centres and spreads ( -4.084091,  4.087445,  4.090843 )    10.26433584
 
     50    -0.789E-04     0.0047515411       10.2643372165       0.34  <-- CONV
        O_D=      0.0344437 O_OD=      0.5344268 O_TOT=     10.2643372 <-- SPRD
 Delta: O_D= -0.9984425E-05 O_OD= -0.6888031E-04 O_TOT= -0.7886473E-04 <-- DLTA
 ------------------------------------------------------------------------------
 Cycle:     51
  WF centre and spread    1  ( -1.154512,  1.662604,  1.592218 )     3.40688009
  WF centre and spread    2  ( -1.198397,  1.147191,  1.051689 )     3.42084704
  WF centre and spread    3  ( -1.731188,  1.277649,  1.446932 )     3.43653359
  Sum of centres and spreads ( -4.084097,  4.087444,  4.090838 )    10.26426071
 
     51    -0.751E-04     0.0044430224       10.2642620898       0.35  <-- CONV
        O_D=      0.0344353 O_OD=      0.5343601 O_TOT=     10.2642621 <-- SPRD
 Delta: O_D= -0.8416141E-05 O_OD= -0.6671055E-04 O_TOT= -0.7512669E-04 <-- DLTA
 ------------------------------------------------------------------------------
 Cycle:     52
  WF centre and spread    1  ( -1.154716,  1.662686,  1.592158 )     3.40696467
  WF centre and spread    2  ( -1.198236,  1.147220,  1.051642 )     3.42078491
  WF centre and spread    3  ( -1.731152,  1.277537,  1.447032 )     3.43645706
  Sum of centres and spreads ( -4.084104,  4.087442,  4.090832 )    10.26420664
 
     52    -0.541E-04     0.0040001310       10.2642080198       0.36  <-- CONV
        O_D=      0.0344317 O_OD=      0.5343097 O_TOT=     10.2642080 <-- SPRD
 Delta: O_D= -0.3628510E-05 O_OD= -0.5044155E-04 O_TOT= -0.5407006E-04 <-- DLTA
 ------------------------------------------------------------------------------
 Cycle:     53
  WF centre and spread    1  ( -1.154978,  1.662801,  1.592085 )     3.40705192
  WF centre and spread    2  ( -1.198018,  1.147253,  1.051572 )     3.42069808
  WF centre and spread    3  ( -1.731113,  1.277384,  1.447169 )     3.43640788
  Sum of centres and spreads ( -4.084110,  4.087438,  4.090827 )    10.26415789
 
     53    -0.488E-04     0.0034574183       10.2641592641       0.36  <-- CONV
        O_D=      0.0344351 O_OD=      0.5342575 O_TOT=     10.2641593 <-- SPRD
 Delta: O_D=  0.3427031E-05 O_OD= -0.5218266E-04 O_TOT= -0.4875563E-04 <-- DLTA
 ------------------------------------------------------------------------------
 Cycle:     54
  WF centre and spread    1  ( -1.155401,  1.662999,  1.591972 )     3.40716698
  WF centre and spread    2  ( -1.197654,  1.147303,  1.051451 )     3.42054828
  WF centre and spread    3  ( -1.731057,  1.277125,  1.447401 )     3.43638003
  Sum of centres and spreads ( -4.084112,  4.087427,  4.090824 )    10.26409529
 
     54    -0.626E-04     0.0036540950       10.2640966647       0.37  <-- CONV
        O_D=      0.0344553 O_OD=      0.5341747 O_TOT=     10.2640967 <-- SPRD
 Delta: O_D=  0.2017665E-04 O_OD= -0.8277610E-04 O_TOT= -0.6259945E-04 <-- DLTA
 ------------------------------------------------------------------------------
 Cycle:     55
  WF centre and spread    1  ( -1.155435,  1.663019,  1.591965 )     3.40714966
  WF centre and spread    2  ( -1.197620,  1.147306,  1.051437 )     3.42051308
  WF centre and spread    3  ( -1.731055,  1.277099,  1.447424 )     3.43637355
  Sum of centres and spreads ( -4.084109,  4.087424,  4.090826 )    10.26403630
 
     55    -0.590E-04     0.0055605952       10.2640376739       0.38  <-- CONV
        O_D=      0.0344284 O_OD=      0.5341426 O_TOT=     10.2640377 <-- SPRD
 Delta: O_D= -0.2689761E-04 O_OD= -0.3209317E-04 O_TOT= -0.5899078E-04 <-- DLTA
 ------------------------------------------------------------------------------
 Cycle:     56
  WF centre and spread    1  ( -1.155526,  1.663073,  1.591945 )     3.40713925
  WF centre and spread    2  ( -1.197530,  1.147313,  1.051402 )     3.42045719
  WF centre and spread    3  ( -1.731048,  1.277032,  1.447484 )     3.43639500
  Sum of centres and spreads ( -4.084103,  4.087417,  4.090830 )    10.26399144
 
     56    -0.449E-04     0.0035217254       10.2639928198       0.38  <-- CONV
        O_D=      0.0344206 O_OD=      0.5341056 O_TOT=     10.2639928 <-- SPRD
 Delta: O_D= -0.7843143E-05 O_OD= -0.3701102E-04 O_TOT= -0.4485416E-04 <-- DLTA
 ------------------------------------------------------------------------------
 Cycle:     57
  WF centre and spread    1  ( -1.155710,  1.663176,  1.591899 )     3.40714131
  WF centre and spread    2  ( -1.197355,  1.147330,  1.051336 )     3.42036341
  WF centre and spread    3  ( -1.731031,  1.276901,  1.447600 )     3.43643701
  Sum of centres and spreads ( -4.084096,  4.087407,  4.090835 )    10.26394172
 
     57    -0.497E-04     0.0033294791       10.2639431005       0.39  <-- CONV
        O_D=      0.0344173 O_OD=      0.5340591 O_TOT=     10.2639431 <-- SPRD
 Delta: O_D= -0.3232451E-05 O_OD= -0.4648678E-04 O_TOT= -0.4971923E-04 <-- DLTA
 ------------------------------------------------------------------------------
 Cycle:     58
  WF centre and spread    1  ( -1.156044,  1.663353,  1.591811 )     3.40717364
  WF centre and spread    2  ( -1.197052,  1.147366,  1.051225 )     3.42021272
  WF centre and spread    3  ( -1.730995,  1.276675,  1.447802 )     3.43648943
  Sum of centres and spreads ( -4.084091,  4.087394,  4.090837 )    10.26387579
 
     58    -0.659E-04     0.0037941521       10.2638771675       0.40  <-- CONV
        O_D=      0.0344175 O_OD=      0.5339930 O_TOT=     10.2638772 <-- SPRD
 Delta: O_D=  0.1803148E-06 O_OD= -0.6611333E-04 O_TOT= -0.6593301E-04 <-- DLTA
 ------------------------------------------------------------------------------
 Cycle:     59
  WF centre and spread    1  ( -1.156464,  1.663563,  1.591691 )     3.40724834
  WF centre and spread    2  ( -1.196684,  1.147418,  1.051098 )     3.42004417
  WF centre and spread    3  ( -1.730943,  1.276401,  1.448047 )     3.43651599
  Sum of centres and spreads ( -4.084091,  4.087382,  4.090836 )    10.26380850
 
     59    -0.673E-04     0.0041185878       10.2638098721       0.40  <-- CONV
        O_D=      0.0344215 O_OD=      0.5339217 O_TOT=     10.2638099 <-- SPRD
 Delta: O_D=  0.4039750E-05 O_OD= -0.7133512E-04 O_TOT= -0.6729537E-04 <-- DLTA
 ------------------------------------------------------------------------------
 Cycle:     60
  WF centre and spread    1  ( -1.157023,  1.663831,  1.591521 )     3.40738571
  WF centre and spread    2  ( -1.196207,  1.147493,  1.050942 )     3.41984372
  WF centre and spread    3  ( -1.730865,  1.276045,  1.448368 )     3.43650259
  Sum of centres and spreads ( -4.084095,  4.087369,  4.090831 )    10.26373202
 
     60    -0.765E-04     0.0043257900       10.2637333998       0.41  <-- CONV
        O_D=      0.0344454 O_OD=      0.5338214 O_TOT=     10.2637334 <-- SPRD
 Delta: O_D=  0.2383060E-04 O_OD= -0.1003029E-03 O_TOT= -0.7647231E-04 <-- DLTA
 ------------------------------------------------------------------------------
 Cycle:     61
  WF centre and spread    1  ( -1.157061,  1.663846,  1.591506 )     3.40739083
  WF centre and spread    2  ( -1.196178,  1.147500,  1.050935 )     3.41981741
  WF centre and spread    3  ( -1.730856,  1.276022,  1.448390 )     3.43645190
  Sum of centres and spreads ( -4.084095,  4.087368,  4.090830 )    10.26366013
 
     61    -0.719E-04     0.0060060074       10.2636615082       0.42  <-- CONV
        O_D=      0.0344153 O_OD=      0.5337796 O_TOT=     10.2636615 <-- SPRD
 Delta: O_D= -0.3006210E-04 O_OD= -0.4182954E-04 O_TOT= -0.7189164E-04 <-- DLTA
 ------------------------------------------------------------------------------
 Cycle:     62
  WF centre and spread    1  ( -1.157161,  1.663884,  1.591466 )     3.40743717
  WF centre and spread    2  ( -1.196103,  1.147518,  1.050917 )     3.41978605
  WF centre and spread    3  ( -1.730833,  1.275963,  1.448446 )     3.43637584
  Sum of centres and spreads ( -4.084097,  4.087366,  4.090829 )    10.26359906
 
     62    -0.611E-04     0.0041568416       10.2636004342       0.42  <-- CONV
        O_D=      0.0344062 O_OD=      0.5337276 O_TOT=     10.2636004 <-- SPRD
 Delta: O_D= -0.9081101E-05 O_OD= -0.5199290E-04 O_TOT= -0.6107400E-04 <-- DLTA
 ------------------------------------------------------------------------------
 Cycle:     63
  WF centre and spread    1  ( -1.157329,  1.663952,  1.591401 )     3.40751816
  WF centre and spread    2  ( -1.195976,  1.147549,  1.050884 )     3.41974094
  WF centre and spread    3  ( -1.730797,  1.275862,  1.448540 )     3.43628085
  Sum of centres and spreads ( -4.084103,  4.087363,  4.090825 )    10.26353995
 
     63    -0.591E-04     0.0039195540       10.2635413305       0.43  <-- CONV
        O_D=      0.0343983 O_OD=      0.5336764 O_TOT=     10.2635413 <-- SPRD
 Delta: O_D= -0.7916252E-05 O_OD= -0.5118740E-04 O_TOT= -0.5910365E-04 <-- DLTA
 ------------------------------------------------------------------------------
 Cycle:     64
  WF centre and spread    1  ( -1.157510,  1.664031,  1.591332 )     3.40759475
  WF centre and spread    2  ( -1.195835,  1.147581,  1.050844 )     3.41968967
  WF centre and spread    3  ( -1.730763,  1.275749,  1.448645 )     3.43621283
  Sum of centres and spreads ( -4.084109,  4.087361,  4.090821 )    10.26349725
 
     64    -0.427E-04     0.0035470772       10.2634986234       0.44  <-- CONV
        O_D=      0.0343956 O_OD=      0.5336364 O_TOT=     10.2634986 <-- SPRD
 Delta: O_D= -0.2742424E-05 O_OD= -0.3996473E-04 O_TOT= -0.4270716E-04 <-- DLTA
 ------------------------------------------------------------------------------
 Cycle:     65
  WF centre and spread    1  ( -1.157739,  1.664139,  1.591247 )     3.40767190
  WF centre and spread    2  ( -1.195649,  1.147618,  1.050786 )     3.41961826
  WF centre and spread    3  ( -1.730725,  1.275600,  1.448784 )     3.43616925
  Sum of centres and spreads ( -4.084114,  4.087357,  4.090817 )    10.26345940
 
     65    -0.378E-04     0.0030626809       10.2634607782       0.44  <-- CONV
        O_D=      0.0343985 O_OD=      0.5335956 O_TOT=     10.2634608 <-- SPRD
 Delta: O_D=  0.2946782E-05 O_OD= -0.4079195E-04 O_TOT= -0.3784517E-04 <-- DLTA
 ------------------------------------------------------------------------------
 Cycle:     66
  WF centre and spread    1  ( -1.158101,  1.664319,  1.591117 )     3.40777181
  WF centre and spread    2  ( -1.195345,  1.147675,  1.050686 )     3.41949685
  WF centre and spread    3  ( -1.730670,  1.275353,  1.449011 )     3.43614331
  Sum of centres and spreads ( -4.084116,  4.087347,  4.090815 )    10.26341197
 
     66    -0.474E-04     0.0032025465       10.2634133437       0.45  <-- CONV
        O_D=      0.0344141 O_OD=      0.5335326 O_TOT=     10.2634133 <-- SPRD
 Delta: O_D=  0.1557782E-04 O_OD= -0.6301231E-04 O_TOT= -0.4743449E-04 <-- DLTA
 ------------------------------------------------------------------------------
 Cycle:     67
  WF centre and spread    1  ( -1.158131,  1.664338,  1.591108 )     3.40775913
  WF centre and spread    2  ( -1.195316,  1.147678,  1.050675 )     3.41946889
  WF centre and spread    3  ( -1.730667,  1.275328,  1.449034 )     3.43613881
  Sum of centres and spreads ( -4.084114,  4.087344,  4.090816 )    10.26336683
 
     67    -0.451E-04     0.0048703870       10.2633682043       0.46  <-- CONV
        O_D=      0.0343935 O_OD=      0.5335081 O_TOT=     10.2633682 <-- SPRD
 Delta: O_D= -0.2064422E-04 O_OD= -0.2449516E-04 O_TOT= -0.4513938E-04 <-- DLTA
 ------------------------------------------------------------------------------
 Cycle:     68
  WF centre and spread    1  ( -1.158212,  1.664387,  1.591081 )     3.40775291
  WF centre and spread    2  ( -1.195238,  1.147688,  1.050646 )     3.41942269
  WF centre and spread    3  ( -1.730659,  1.275263,  1.449093 )     3.43615610
  Sum of centres and spreads ( -4.084109,  4.087338,  4.090820 )    10.26333170
 
     68    -0.351E-04     0.0031011929       10.2633330817       0.47  <-- CONV
        O_D=      0.0343870 O_OD=      0.5334794 O_TOT=     10.2633331 <-- SPRD
 Delta: O_D= -0.6410713E-05 O_OD= -0.2871191E-04 O_TOT= -0.3512262E-04 <-- DLTA
 ------------------------------------------------------------------------------
 Cycle:     69
  WF centre and spread    1  ( -1.158377,  1.664484,  1.591023 )     3.40775889
  WF centre and spread    2  ( -1.195087,  1.147710,  1.050590 )     3.41934418
  WF centre and spread    3  ( -1.730639,  1.275135,  1.449211 )     3.43618925
  Sum of centres and spreads ( -4.084104,  4.087330,  4.090824 )    10.26329232
 
     69    -0.394E-04     0.0029538831       10.2632936986       0.47  <-- CONV
        O_D=      0.0343842 O_OD=      0.5334428 O_TOT=     10.2632937 <-- SPRD
 Delta: O_D= -0.2798666E-05 O_OD= -0.3658444E-04 O_TOT= -0.3938311E-04 <-- DLTA
 ------------------------------------------------------------------------------
 Cycle:     70
  WF centre and spread    1  ( -1.158676,  1.664650,  1.590915 )     3.40779321
  WF centre and spread    2  ( -1.194825,  1.147755,  1.050496 )     3.41921780
  WF centre and spread    3  ( -1.730600,  1.274913,  1.449415 )     3.43622893
  Sum of centres and spreads ( -4.084100,  4.087318,  4.090825 )    10.26323994
 
     70    -0.524E-04     0.0033750757       10.2632413212       0.48  <-- CONV
        O_D=      0.0343855 O_OD=      0.5333892 O_TOT=     10.2632413 <-- SPRD
 Delta: O_D=  0.1241259E-05 O_OD= -0.5361864E-04 O_TOT= -0.5237738E-04 <-- DLTA
 ------------------------------------------------------------------------------
 Cycle:     71
  WF centre and spread    1  ( -1.159045,  1.664846,  1.590774 )     3.40786424
  WF centre and spread    2  ( -1.194511,  1.147815,  1.050389 )     3.41907887
  WF centre and spread    3  ( -1.730546,  1.274647,  1.449661 )     3.43624413
  Sum of centres and spreads ( -4.084101,  4.087308,  4.090824 )    10.26318724
 
     71    -0.527E-04     0.0036593560       10.2631886173       0.49  <-- CONV
        O_D=      0.0343900 O_OD=      0.5333320 O_TOT=     10.2631886 <-- SPRD
 Delta: O_D=  0.4511777E-05 O_OD= -0.5721572E-04 O_TOT= -0.5270395E-04 <-- DLTA
 ------------------------------------------------------------------------------
 Cycle:     72
  WF centre and spread    1  ( -1.159526,  1.665092,  1.590583 )     3.40798909
  WF centre and spread    2  ( -1.194111,  1.147899,  1.050260 )     3.41891766
  WF centre and spread    3  ( -1.730468,  1.274305,  1.449978 )     3.43622185
  Sum of centres and spreads ( -4.084106,  4.087296,  4.090820 )    10.26312860
 
     72    -0.586E-04     0.0038084591       10.2631299752       0.49  <-- CONV
        O_D=      0.0344093 O_OD=      0.5332541 O_TOT=     10.2631300 <-- SPRD
 Delta: O_D=  0.1926765E-04 O_OD= -0.7790972E-04 O_TOT= -0.5864208E-04 <-- DLTA
 ------------------------------------------------------------------------------
 Cycle:     73
  WF centre and spread    1  ( -1.159559,  1.665106,  1.590567 )     3.40799571
  WF centre and spread    2  ( -1.194086,  1.147906,  1.050254 )     3.41889735
  WF centre and spread    3  ( -1.730460,  1.274283,  1.450000 )     3.43617990
  Sum of centres and spreads ( -4.084106,  4.087294,  4.090820 )    10.26307295
 
     73    -0.556E-04     0.0052914045       10.2630743295       0.50  <-- CONV
        O_D=      0.0343854 O_OD=      0.5332223 O_TOT=     10.2630743 <-- SPRD
 Delta: O_D= -0.2388683E-04 O_OD= -0.3175885E-04 O_TOT= -0.5564567E-04 <-- DLTA
 ------------------------------------------------------------------------------
 Cycle:     74
  WF centre and spread    1  ( -1.159647,  1.665144,  1.590524 )     3.40803887
  WF centre and spread    2  ( -1.194021,  1.147925,  1.050238 )     3.41887254
  WF centre and spread    3  ( -1.730439,  1.274223,  1.450058 )     3.43611323
  Sum of centres and spreads ( -4.084108,  4.087292,  4.090820 )    10.26302464
 
     74    -0.483E-04     0.0036769011       10.2630260124       0.51  <-- CONV
        O_D=      0.0343769 O_OD=      0.5331824 O_TOT=     10.2630260 <-- SPRD
 Delta: O_D= -0.8443536E-05 O_OD= -0.3987362E-04 O_TOT= -0.4831715E-04 <-- DLTA
 ------------------------------------------------------------------------------
 Cycle:     75
  WF centre and spread    1  ( -1.159796,  1.665211,  1.590453 )     3.40811255
  WF centre and spread    2  ( -1.193910,  1.147957,  1.050208 )     3.41883594
  WF centre and spread    3  ( -1.730406,  1.274121,  1.450156 )     3.43602900
  Sum of centres and spreads ( -4.084112,  4.087289,  4.090817 )    10.26297749
 
     75    -0.471E-04     0.0034916194       10.2629788633       0.51  <-- CONV
        O_D=      0.0343695 O_OD=      0.5331427 O_TOT=     10.2629789 <-- SPRD
 Delta: O_D= -0.7428593E-05 O_OD= -0.3972053E-04 O_TOT= -0.4714912E-04 <-- DLTA
 ------------------------------------------------------------------------------
 Cycle:     76
  WF centre and spread    1  ( -1.159957,  1.665287,  1.590377 )     3.40818134
  WF centre and spread    2  ( -1.193787,  1.147991,  1.050173 )     3.41879352
  WF centre and spread    3  ( -1.730372,  1.274008,  1.450265 )     3.43596850
  Sum of centres and spreads ( -4.084117,  4.087286,  4.090814 )    10.26294336
 
     76    -0.341E-04     0.0031654664       10.2629447409       0.52  <-- CONV
        O_D=      0.0343675 O_OD=      0.5331106 O_TOT=     10.2629447 <-- SPRD
 Delta: O_D= -0.1979780E-05 O_OD= -0.3214262E-04 O_TOT= -0.3412240E-04 <-- DLTA
 ------------------------------------------------------------------------------
 Cycle:     77
  WF centre and spread    1  ( -1.160159,  1.665389,  1.590284 )     3.40824997
  WF centre and spread    2  ( -1.193628,  1.148032,  1.050122 )     3.41873435
  WF centre and spread    3  ( -1.730335,  1.273860,  1.450405 )     3.43592904
  Sum of centres and spreads ( -4.084122,  4.087282,  4.090811 )    10.26291336
 
     77    -0.300E-04     0.0027347135       10.2629147334       0.53  <-- CONV
        O_D=      0.0343701 O_OD=      0.5330780 O_TOT=     10.2629147 <-- SPRD
 Delta: O_D=  0.2608247E-05 O_OD= -0.3261567E-04 O_TOT= -0.3000742E-04 <-- DLTA
 ------------------------------------------------------------------------------
 Cycle:     78
  WF centre and spread    1  ( -1.160472,  1.665557,  1.590142 )     3.40833786
  WF centre and spread    2  ( -1.193372,  1.148094,  1.050038 )     3.41863510
  WF centre and spread    3  ( -1.730280,  1.273623,  1.450630 )     3.43590347
  Sum of centres and spreads ( -4.084125,  4.087273,  4.090810 )    10.26287643
 
     78    -0.369E-04     0.0028408424       10.2628778086       0.53  <-- CONV
        O_D=      0.0343825 O_OD=      0.5330287 O_TOT=     10.2628778 <-- SPRD
 Delta: O_D=  0.1231522E-04 O_OD= -0.4924007E-04 O_TOT= -0.3692485E-04 <-- DLTA
 ------------------------------------------------------------------------------
 Cycle:     79
  WF centre and spread    1  ( -1.160498,  1.665574,  1.590131 )     3.40832846
  WF centre and spread    2  ( -1.193348,  1.148098,  1.050029 )     3.41861262
  WF centre and spread    3  ( -1.730277,  1.273599,  1.450652 )     3.43589997
  Sum of centres and spreads ( -4.084123,  4.087271,  4.090811 )    10.26284105
 
     79    -0.354E-04     0.0043137653       10.2628424281       0.54  <-- CONV
        O_D=      0.0343662 O_OD=      0.5330096 O_TOT=     10.2628424 <-- SPRD
 Delta: O_D= -0.1625034E-04 O_OD= -0.1913011E-04 O_TOT= -0.3538045E-04 <-- DLTA
 ------------------------------------------------------------------------------
 Cycle:     80
  WF centre and spread    1  ( -1.160570,  1.665620,  1.590099 )     3.40832521
  WF centre and spread    2  ( -1.193281,  1.148110,  1.050003 )     3.41857438
  WF centre and spread    3  ( -1.730267,  1.273535,  1.450712 )     3.43591338
  Sum of centres and spreads ( -4.084119,  4.087266,  4.090814 )    10.26281297
 
     80    -0.281E-04     0.0027609285       10.2628143463       0.55  <-- CONV
        O_D=      0.0343608 O_OD=      0.5329869 O_TOT=     10.2628143 <-- SPRD
 Delta: O_D= -0.5390359E-05 O_OD= -0.2269151E-04 O_TOT= -0.2808186E-04 <-- DLTA
 ------------------------------------------------------------------------------
 Cycle:     81
  WF centre and spread    1  ( -1.160718,  1.665711,  1.590033 )     3.40833371
  WF centre and spread    2  ( -1.193151,  1.148137,  1.049955 )     3.41850902
  WF centre and spread    3  ( -1.730246,  1.273410,  1.450829 )     3.43593858
  Sum of centres and spreads ( -4.084115,  4.087258,  4.090817 )    10.26278132
 
     81    -0.317E-04     0.0026440967       10.2627826953       0.55  <-- CONV
        O_D=      0.0343584 O_OD=      0.5329576 O_TOT=     10.2627827 <-- SPRD
 Delta: O_D= -0.2396507E-05 O_OD= -0.2925444E-04 O_TOT= -0.3165095E-04 <-- DLTA
 ------------------------------------------------------------------------------
 Cycle:     82
  WF centre and spread    1  ( -1.160984,  1.665868,  1.589910 )     3.40836844
  WF centre and spread    2  ( -1.192925,  1.148189,  1.049874 )     3.41840364
  WF centre and spread    3  ( -1.730204,  1.273192,  1.451035 )     3.43596706
  Sum of centres and spreads ( -4.084113,  4.087249,  4.090819 )    10.26273914
 
     82    -0.422E-04     0.0030227350       10.2627405195       0.56  <-- CONV
        O_D=      0.0343605 O_OD=      0.5329134 O_TOT=     10.2627405 <-- SPRD
 Delta: O_D=  0.2045880E-05 O_OD= -0.4422175E-04 O_TOT= -0.4217587E-04 <-- DLTA
 ------------------------------------------------------------------------------
 Cycle:     83
  WF centre and spread    1  ( -1.161310,  1.666052,  1.589754 )     3.40843524
  WF centre and spread    2  ( -1.192657,  1.148256,  1.049781 )     3.41828867
  WF centre and spread    3  ( -1.730148,  1.272930,  1.451283 )     3.43597305
  Sum of centres and spreads ( -4.084115,  4.087239,  4.090818 )    10.26269696
 
     83    -0.422E-04     0.0032789835       10.2626983323       0.57  <-- CONV
        O_D=      0.0343652 O_OD=      0.5328665 O_TOT=     10.2626983 <-- SPRD
 Delta: O_D=  0.4728178E-05 O_OD= -0.4691532E-04 O_TOT= -0.4218714E-04 <-- DLTA
 ------------------------------------------------------------------------------
 Cycle:     84
  WF centre and spread    1  ( -1.161728,  1.666282,  1.589547 )     3.40854850
  WF centre and spread    2  ( -1.192320,  1.148346,  1.049670 )     3.41815770
  WF centre and spread    3  ( -1.730071,  1.272599,  1.451598 )     3.43594457
  Sum of centres and spreads ( -4.084119,  4.087228,  4.090815 )    10.26265076
 
     84    -0.462E-04     0.0033936677       10.2626521409       0.57  <-- CONV
        O_D=      0.0343810 O_OD=      0.5328045 O_TOT=     10.2626521 <-- SPRD
 Delta: O_D=  0.1585804E-04 O_OD= -0.6204951E-04 O_TOT= -0.4619147E-04 <-- DLTA
 ------------------------------------------------------------------------------
 Cycle:     85
  WF centre and spread    1  ( -1.161757,  1.666296,  1.589531 )     3.40855571
  WF centre and spread    2  ( -1.192299,  1.148353,  1.049664 )     3.41814168
  WF centre and spread    3  ( -1.730063,  1.272577,  1.451620 )     3.43590924
  Sum of centres and spreads ( -4.084119,  4.087226,  4.090816 )    10.26260663
 
     85    -0.441E-04     0.0047160503       10.2626080026       0.58  <-- CONV
        O_D=      0.0343616 O_OD=      0.5327798 O_TOT=     10.2626080 <-- SPRD
 Delta: O_D= -0.1946411E-04 O_OD= -0.2467417E-04 O_TOT= -0.4413828E-04 <-- DLTA
 ------------------------------------------------------------------------------
 Cycle:     86
  WF centre and spread    1  ( -1.161835,  1.666334,  1.589486 )     3.40859539
  WF centre and spread    2  ( -1.192242,  1.148373,  1.049649 )     3.41812177
  WF centre and spread    3  ( -1.730043,  1.272517,  1.451680 )     3.43585043
  Sum of centres and spreads ( -4.084120,  4.087224,  4.090816 )    10.26256760
 
     86    -0.390E-04     0.0032889296       10.2625689739       0.59  <-- CONV
        O_D=      0.0343537 O_OD=      0.5327487 O_TOT=     10.2625690 <-- SPRD
 Delta: O_D= -0.7911417E-05 O_OD= -0.3111722E-04 O_TOT= -0.3902864E-04 <-- DLTA
 ------------------------------------------------------------------------------
 Cycle:     87
  WF centre and spread    1  ( -1.161968,  1.666399,  1.589411 )     3.40866189
  WF centre and spread    2  ( -1.192145,  1.148407,  1.049622 )     3.41809188
  WF centre and spread    3  ( -1.730011,  1.272414,  1.451781 )     3.43577559
  Sum of centres and spreads ( -4.084124,  4.087220,  4.090814 )    10.26252935
 
     87    -0.382E-04     0.0031410748       10.2625307243       0.60  <-- CONV
        O_D=      0.0343467 O_OD=      0.5327174 O_TOT=     10.2625307 <-- SPRD
 Delta: O_D= -0.6939051E-05 O_OD= -0.3131053E-04 O_TOT= -0.3824959E-04 <-- DLTA
 ------------------------------------------------------------------------------
 Cycle:     88
  WF centre and spread    1  ( -1.162111,  1.666473,  1.589330 )     3.40872349
  WF centre and spread    2  ( -1.192039,  1.148443,  1.049590 )     3.41805667
  WF centre and spread    3  ( -1.729979,  1.272301,  1.451892 )     3.43572145
  Sum of centres and spreads ( -4.084129,  4.087217,  4.090812 )    10.26250161
 
     88    -0.277E-04     0.0028497925       10.2625029904       0.60  <-- CONV
        O_D=      0.0343453 O_OD=      0.5326910 O_TOT=     10.2625030 <-- SPRD
 Delta: O_D= -0.1426357E-05 O_OD= -0.2630762E-04 O_TOT= -0.2773398E-04 <-- DLTA
 ------------------------------------------------------------------------------
 Cycle:     89
  WF centre and spread    1  ( -1.162289,  1.666571,  1.589231 )     3.40878482
  WF centre and spread    2  ( -1.191903,  1.148487,  1.049546 )     3.41800745
  WF centre and spread    3  ( -1.729941,  1.272155,  1.452033 )     3.43568501
  Sum of centres and spreads ( -4.084133,  4.087213,  4.090810 )    10.26247728
 
     89    -0.243E-04     0.0024658765       10.2624786607       0.61  <-- CONV
        O_D=      0.0343476 O_OD=      0.5326644 O_TOT=     10.2624787 <-- SPRD
 Delta: O_D=  0.2323573E-05 O_OD= -0.2665327E-04 O_TOT= -0.2432970E-04 <-- DLTA
 ------------------------------------------------------------------------------
 Cycle:     90
  WF centre and spread    1  ( -1.162562,  1.666728,  1.589080 )     3.40886282
  WF centre and spread    2  ( -1.191687,  1.148553,  1.049472 )     3.41792592
  WF centre and spread    3  ( -1.729887,  1.271924,  1.452257 )     3.43565904
  Sum of centres and spreads ( -4.084136,  4.087205,  4.090809 )    10.26244778
 
     90    -0.295E-04     0.0025494117       10.2624491599       0.62  <-- CONV
        O_D=      0.0343576 O_OD=      0.5326249 O_TOT=     10.2624492 <-- SPRD
 Delta: O_D=  0.9980377E-05 O_OD= -0.3948114E-04 O_TOT= -0.2950076E-04 <-- DLTA
 ------------------------------------------------------------------------------
 Cycle:     91
  WF centre and spread    1  ( -1.162585,  1.666744,  1.589068 )     3.40885576
  WF centre and spread    2  ( -1.191666,  1.148558,  1.049464 )     3.41790763
  WF centre and spread    3  ( -1.729883,  1.271901,  1.452279 )     3.43565597
  Sum of centres and spreads ( -4.084134,  4.087203,  4.090810 )    10.26241936
 
     91    -0.284E-04     0.0038665475       10.2624207375       0.62  <-- CONV
        O_D=      0.0343445 O_OD=      0.5326096 O_TOT=     10.2624207 <-- SPRD
 Delta: O_D= -0.1312437E-04 O_OD= -0.1529803E-04 O_TOT= -0.2842240E-04 <-- DLTA
 ------------------------------------------------------------------------------
 Cycle:     92
  WF centre and spread    1  ( -1.162650,  1.666788,  1.589033 )     3.40885459
  WF centre and spread    2  ( -1.191609,  1.148572,  1.049441 )     3.41787591
  WF centre and spread    3  ( -1.729873,  1.271838,  1.452339 )     3.43566592
  Sum of centres and spreads ( -4.084131,  4.087199,  4.090813 )    10.26239642
 
     92    -0.229E-04     0.0024857992       10.2623977957       0.63  <-- CONV
        O_D=      0.0343399 O_OD=      0.5325913 O_TOT=     10.2623978 <-- SPRD
 Delta: O_D= -0.4618597E-05 O_OD= -0.1832326E-04 O_TOT= -0.2294186E-04 <-- DLTA
 ------------------------------------------------------------------------------
 Cycle:     93
  WF centre and spread    1  ( -1.162781,  1.666874,  1.588960 )     3.40886460
  WF centre and spread    2  ( -1.191498,  1.148603,  1.049398 )     3.41782166
  WF centre and spread    3  ( -1.729850,  1.271716,  1.452457 )     3.43568426
  Sum of centres and spreads ( -4.084128,  4.087192,  4.090815 )    10.26237051
 
     93    -0.259E-04     0.0023922715       10.2623718892       0.64  <-- CONV
        O_D=      0.0343378 O_OD=      0.5325674 O_TOT=     10.2623719 <-- SPRD
 Delta: O_D= -0.2028220E-05 O_OD= -0.2387821E-04 O_TOT= -0.2590643E-04 <-- DLTA
 ------------------------------------------------------------------------------
 Cycle:     94
  WF centre and spread    1  ( -1.163018,  1.667022,  1.588826 )     3.40889875
  WF centre and spread    2  ( -1.191304,  1.148661,  1.049326 )     3.41773401
  WF centre and spread    3  ( -1.729805,  1.271500,  1.452665 )     3.43570319
  Sum of centres and spreads ( -4.084128,  4.087183,  4.090817 )    10.26233594
 
     94    -0.346E-04     0.0027335112       10.2623373179       0.65  <-- CONV
        O_D=      0.0343404 O_OD=      0.5325302 O_TOT=     10.2623373 <-- SPRD
 Delta: O_D=  0.2598339E-05 O_OD= -0.3716969E-04 O_TOT= -0.3457135E-04 <-- DLTA
 ------------------------------------------------------------------------------
 Cycle:     95
  WF centre and spread    1  ( -1.163308,  1.667198,  1.588659 )     3.40896109
  WF centre and spread    2  ( -1.191074,  1.148734,  1.049243 )     3.41763866
  WF centre and spread    3  ( -1.729748,  1.271242,  1.452915 )     3.43570166
  Sum of centres and spreads ( -4.084130,  4.087175,  4.090816 )    10.26230141
 
     95    -0.345E-04     0.0029698078       10.2623027870       0.65  <-- CONV
        O_D=      0.0343452 O_OD=      0.5324909 O_TOT=     10.2623028 <-- SPRD
 Delta: O_D=  0.4780464E-05 O_OD= -0.3931135E-04 O_TOT= -0.3453088E-04 <-- DLTA
 ------------------------------------------------------------------------------
 Cycle:     96
  WF centre and spread    1  ( -1.163674,  1.667415,  1.588442 )     3.40906375
  WF centre and spread    2  ( -1.190789,  1.148830,  1.049144 )     3.41753168
  WF centre and spread    3  ( -1.729671,  1.270919,  1.453229 )     3.43566863
  Sum of centres and spreads ( -4.084134,  4.087164,  4.090815 )    10.26226405
 
     96    -0.374E-04     0.0030608993       10.2622654316       0.66  <-- CONV
        O_D=      0.0343585 O_OD=      0.5324402 O_TOT=     10.2622654 <-- SPRD
 Delta: O_D=  0.1332936E-04 O_OD= -0.5068472E-04 O_TOT= -0.3735536E-04 <-- DLTA
 ------------------------------------------------------------------------------
 Cycle:     97
  WF centre and spread    1  ( -1.163700,  1.667429,  1.588425 )     3.40907100
  WF centre and spread    2  ( -1.190771,  1.148838,  1.049139 )     3.41751877
  WF centre and spread    3  ( -1.729663,  1.270897,  1.453251 )     3.43563839
  Sum of centres and spreads ( -4.084135,  4.087163,  4.090815 )    10.26222816
 
[...]
  Sum of centres and spreads ( -4.084866,  4.086099,  4.091374 )    10.25806521
 
    473    -0.460E-05     0.0010711409       10.2580665878       3.29  <-- CONV
        O_D=      0.0341328 O_OD=      0.5284672 O_TOT=     10.2580666 <-- SPRD
 Delta: O_D=  0.2237451E-06 O_OD= -0.4818869E-05 O_TOT= -0.4595124E-05 <-- DLTA
 ------------------------------------------------------------------------------
 Cycle:    474
  WF centre and spread    1  ( -1.184125,  1.689281,  1.555492 )     3.41543924
  WF centre and spread    2  ( -1.185700,  1.171515,  1.035716 )     3.41585251
  WF centre and spread    3  ( -1.715045,  1.225300,  1.500168 )     3.42676856
  Sum of centres and spreads ( -4.084869,  4.086097,  4.091376 )    10.25806031
 
    474    -0.490E-05     0.0010688938       10.2580616895       3.29  <-- CONV
        O_D=      0.0341346 O_OD=      0.5284604 O_TOT=     10.2580617 <-- SPRD
 Delta: O_D=  0.1895835E-05 O_OD= -0.6794076E-05 O_TOT= -0.4898241E-05 <-- DLTA
 ------------------------------------------------------------------------------
 Cycle:    475
  WF centre and spread    1  ( -1.184129,  1.689287,  1.555482 )     3.41543905
  WF centre and spread    2  ( -1.185702,  1.171524,  1.035711 )     3.41585215
  WF centre and spread    3  ( -1.715039,  1.225286,  1.500183 )     3.42676426
  Sum of centres and spreads ( -4.084869,  4.086096,  4.091377 )    10.25805545
 
    475    -0.486E-05     0.0015904316       10.2580568281       3.30  <-- CONV
        O_D=      0.0341322 O_OD=      0.5284580 O_TOT=     10.2580568 <-- SPRD
 Delta: O_D= -0.2459337E-05 O_OD= -0.2402103E-05 O_TOT= -0.4861440E-05 <-- DLTA
 ------------------------------------------------------------------------------
 Cycle:    476
  WF centre and spread    1  ( -1.184139,  1.689303,  1.555453 )     3.41544188
  WF centre and spread    2  ( -1.185709,  1.171550,  1.035697 )     3.41585448
  WF centre and spread    3  ( -1.715022,  1.225242,  1.500228 )     3.42675454
  Sum of centres and spreads ( -4.084870,  4.086095,  4.091378 )    10.25805090
 
    476    -0.455E-05     0.0010645747       10.2580522819       3.31  <-- CONV
        O_D=      0.0341315 O_OD=      0.5284542 O_TOT=     10.2580523 <-- SPRD
 Delta: O_D= -0.7365689E-06 O_OD= -0.3809628E-05 O_TOT= -0.4546196E-05 <-- DLTA
 ------------------------------------------------------------------------------
 Cycle:    477
  WF centre and spread    1  ( -1.184160,  1.689334,  1.555397 )     3.41544854
  WF centre and spread    2  ( -1.185722,  1.171600,  1.035670 )     3.41586011
  WF centre and spread    3  ( -1.714989,  1.225160,  1.500311 )     3.42673724
  Sum of centres and spreads ( -4.084871,  4.086094,  4.091379 )    10.25804589
 
    477    -0.501E-05     0.0010652693       10.2580472714       3.31  <-- CONV
        O_D=      0.0341322 O_OD=      0.5284484 O_TOT=     10.2580473 <-- SPRD
 Delta: O_D=  0.7455523E-06 O_OD= -0.5756048E-05 O_TOT= -0.5010496E-05 <-- DLTA
 ------------------------------------------------------------------------------
 Cycle:    478
  WF centre and spread    1  ( -1.184197,  1.689387,  1.555299 )     3.41546146
  WF centre and spread    2  ( -1.185745,  1.171689,  1.035624 )     3.41587074
  WF centre and spread    3  ( -1.714931,  1.225016,  1.500458 )     3.42670701
  Sum of centres and spreads ( -4.084874,  4.086092,  4.091381 )    10.25803921
 
    478    -0.668E-05     0.0011985354       10.2580405867       3.32  <-- CONV
        O_D=      0.0341354 O_OD=      0.5284385 O_TOT=     10.2580406 <-- SPRD
 Delta: O_D=  0.3212281E-05 O_OD= -0.9896957E-05 O_TOT= -0.6684675E-05 <-- DLTA
 ------------------------------------------------------------------------------
 Cycle:    479
  WF centre and spread    1  ( -1.184243,  1.689452,  1.555177 )     3.41547879
  WF centre and spread    2  ( -1.185775,  1.171798,  1.035568 )     3.41588423
  WF centre and spread    3  ( -1.714860,  1.224838,  1.500639 )     3.42666931
  Sum of centres and spreads ( -4.084878,  4.086089,  4.091383 )    10.25803234
 
    479    -0.687E-05     0.0013237228       10.2580337169       3.33  <-- CONV
        O_D=      0.0341390 O_OD=      0.5284281 O_TOT=     10.2580337 <-- SPRD
 Delta: O_D=  0.3579583E-05 O_OD= -0.1044936E-04 O_TOT= -0.6869779E-05 <-- DLTA
 ------------------------------------------------------------------------------
 Cycle:    480
  WF centre and spread    1  ( -1.184295,  1.689525,  1.555040 )     3.41549951
  WF centre and spread    2  ( -1.185808,  1.171922,  1.035505 )     3.41589970
  WF centre and spread    3  ( -1.714779,  1.224639,  1.500842 )     3.42662651
  Sum of centres and spreads ( -4.084882,  4.086086,  4.091386 )    10.25802571
 
    480    -0.663E-05     0.0013184616       10.2580270904       3.34  <-- CONV
        O_D=      0.0341427 O_OD=      0.5284177 O_TOT=     10.2580271 <-- SPRD
 Delta: O_D=  0.3757354E-05 O_OD= -0.1038391E-04 O_TOT= -0.6626560E-05 <-- DLTA
 ------------------------------------------------------------------------------
 Cycle:    481
  WF centre and spread    1  ( -1.184299,  1.689530,  1.555029 )     3.41549945
  WF centre and spread    2  ( -1.185810,  1.171931,  1.035500 )     3.41589881
  WF centre and spread    3  ( -1.714773,  1.224624,  1.500857 )     3.42662089
  Sum of centres and spreads ( -4.084882,  4.086085,  4.091387 )    10.25801915
 
    481    -0.656E-05     0.0018165608       10.2580205271       3.34  <-- CONV
        O_D=      0.0341384 O_OD=      0.5284155 O_TOT=     10.2580205 <-- SPRD
 Delta: O_D= -0.4379378E-05 O_OD= -0.2183892E-05 O_TOT= -0.6563270E-05 <-- DLTA
 ------------------------------------------------------------------------------
 Cycle:    482
  WF centre and spread    1  ( -1.184311,  1.689546,  1.554998 )     3.41550340
  WF centre and spread    2  ( -1.185818,  1.171959,  1.035487 )     3.41590044
  WF centre and spread    3  ( -1.714754,  1.224579,  1.500903 )     3.42660854
  Sum of centres and spreads ( -4.084883,  4.086084,  4.091388 )    10.25801239
 
    482    -0.676E-05     0.0013112623       10.2580137644       3.35  <-- CONV
        O_D=      0.0341341 O_OD=      0.5284130 O_TOT=     10.2580138 <-- SPRD
 Delta: O_D= -0.4239243E-05 O_OD= -0.2523463E-05 O_TOT= -0.6762706E-05 <-- DLTA
 ------------------------------------------------------------------------------
 Cycle:    483
  WF centre and spread    1  ( -1.184330,  1.689571,  1.554948 )     3.41551097
  WF centre and spread    2  ( -1.185830,  1.172004,  1.035465 )     3.41590454
  WF centre and spread    3  ( -1.714725,  1.224508,  1.500976 )     3.42659033
  Sum of centres and spreads ( -4.084884,  4.086083,  4.091389 )    10.25800584
 
    483    -0.655E-05     0.0013118319       10.2580072168       3.36  <-- CONV
        O_D=      0.0341304 O_OD=      0.5284102 O_TOT=     10.2580072 <-- SPRD
 Delta: O_D= -0.3699419E-05 O_OD= -0.2848168E-05 O_TOT= -0.6547587E-05 <-- DLTA
 ------------------------------------------------------------------------------
 Cycle:    484
  WF centre and spread    1  ( -1.184351,  1.689599,  1.554893 )     3.41551935
  WF centre and spread    2  ( -1.185843,  1.172053,  1.035441 )     3.41590987
  WF centre and spread    3  ( -1.714692,  1.224429,  1.501056 )     3.42657175
  Sum of centres and spreads ( -4.084886,  4.086081,  4.091390 )    10.25800097
 
    484    -0.487E-05     0.0011862348       10.2580023504       3.36  <-- CONV
        O_D=      0.0341293 O_OD=      0.5284064 O_TOT=     10.2580024 <-- SPRD
 Delta: O_D= -0.1155535E-05 O_OD= -0.3710858E-05 O_TOT= -0.4866393E-05 <-- DLTA
 ------------------------------------------------------------------------------
 Cycle:    485
  WF centre and spread    1  ( -1.184378,  1.689635,  1.554822 )     3.41552988
  WF centre and spread    2  ( -1.185861,  1.172116,  1.035410 )     3.41591741
  WF centre and spread    3  ( -1.714650,  1.224328,  1.501159 )     3.42654928
  Sum of centres and spreads ( -4.084889,  4.086080,  4.091391 )    10.25799657
 
    485    -0.440E-05     0.0010483769       10.2579979456       3.37  <-- CONV
        O_D=      0.0341295 O_OD=      0.5284018 O_TOT=     10.2579979 <-- SPRD
 Delta: O_D=  0.1962492E-06 O_OD= -0.4601035E-05 O_TOT= -0.4404785E-05 <-- DLTA
 ------------------------------------------------------------------------------
 Cycle:    486
  WF centre and spread    1  ( -1.184414,  1.689686,  1.554726 )     3.41554412
  WF centre and spread    2  ( -1.185884,  1.172203,  1.035367 )     3.41592823
  WF centre and spread    3  ( -1.714594,  1.224189,  1.501300 )     3.42651954
  Sum of centres and spreads ( -4.084892,  4.086078,  4.091393 )    10.25799188
 
    486    -0.469E-05     0.0010470086       10.2579932599       3.38  <-- CONV
        O_D=      0.0341313 O_OD=      0.5283953 O_TOT=     10.2579933 <-- SPRD
 Delta: O_D=  0.1817070E-05 O_OD= -0.6502780E-05 O_TOT= -0.4685710E-05 <-- DLTA
 ------------------------------------------------------------------------------
 Cycle:    487
  WF centre and spread    1  ( -1.184417,  1.689691,  1.554717 )     3.41554397
  WF centre and spread    2  ( -1.185887,  1.172212,  1.035362 )     3.41592792
  WF centre and spread    3  ( -1.714588,  1.224175,  1.501315 )     3.42651533
  Sum of centres and spreads ( -4.084892,  4.086077,  4.091393 )    10.25798722
 
    487    -0.466E-05     0.0015561647       10.2579886018       3.38  <-- CONV
        O_D=      0.0341289 O_OD=      0.5283930 O_TOT=     10.2579886 <-- SPRD
 Delta: O_D= -0.2356065E-05 O_OD= -0.2302095E-05 O_TOT= -0.4658160E-05 <-- DLTA
 ------------------------------------------------------------------------------
 Cycle:    488
  WF centre and spread    1  ( -1.184428,  1.689707,  1.554688 )     3.41554681
  WF centre and spread    2  ( -1.185893,  1.172238,  1.035348 )     3.41593030
  WF centre and spread    3  ( -1.714571,  1.224132,  1.501359 )     3.42650576
  Sum of centres and spreads ( -4.084892,  4.086076,  4.091394 )    10.25798287
 
    488    -0.436E-05     0.0010424767       10.2579842434       3.39  <-- CONV
        O_D=      0.0341282 O_OD=      0.5283894 O_TOT=     10.2579842 <-- SPRD
 Delta: O_D= -0.6894468E-06 O_OD= -0.3668972E-05 O_TOT= -0.4358419E-05 <-- DLTA
 ------------------------------------------------------------------------------
 Cycle:    489
  WF centre and spread    1  ( -1.184448,  1.689736,  1.554634 )     3.41555342
  WF centre and spread    2  ( -1.185907,  1.172287,  1.035322 )     3.41593595
  WF centre and spread    3  ( -1.714539,  1.224052,  1.501440 )     3.42648871
  Sum of centres and spreads ( -4.084893,  4.086075,  4.091396 )    10.25797807
 
    489    -0.479E-05     0.0010425381       10.2579794499       3.40  <-- CONV
        O_D=      0.0341290 O_OD=      0.5283838 O_TOT=     10.2579794 <-- SPRD
 Delta: O_D=  0.7588538E-06 O_OD= -0.5552299E-05 O_TOT= -0.4793445E-05 <-- DLTA
 ------------------------------------------------------------------------------
 Cycle:    490
  WF centre and spread    1  ( -1.184484,  1.689788,  1.554538 )     3.41556613
  WF centre and spread    2  ( -1.185930,  1.172373,  1.035277 )     3.41594658
  WF centre and spread    3  ( -1.714482,  1.223911,  1.501583 )     3.42645898
  Sum of centres and spreads ( -4.084896,  4.086073,  4.091398 )    10.25797168
 
    490    -0.639E-05     0.0011738071       10.2579730579       3.40  <-- CONV
        O_D=      0.0341321 O_OD=      0.5283743 O_TOT=     10.2579731 <-- SPRD
 Delta: O_D=  0.3117289E-05 O_OD= -0.9509335E-05 O_TOT= -0.6392046E-05 <-- DLTA
 ------------------------------------------------------------------------------
 Cycle:    491
  WF centre and spread    1  ( -1.184529,  1.689851,  1.554419 )     3.41558312
  WF centre and spread    2  ( -1.185960,  1.172481,  1.035222 )     3.41596006
  WF centre and spread    3  ( -1.714412,  1.223739,  1.501758 )     3.42642195
  Sum of centres and spreads ( -4.084900,  4.086070,  4.091400 )    10.25796512
 
    491    -0.656E-05     0.0012924932       10.2579664951       3.41  <-- CONV
        O_D=      0.0341356 O_OD=      0.5283643 O_TOT=     10.2579665 <-- SPRD
 Delta: O_D=  0.3471209E-05 O_OD= -0.1003392E-04 O_TOT= -0.6562710E-05 <-- DLTA
 ------------------------------------------------------------------------------
 Cycle:    492
  WF centre and spread    1  ( -1.184579,  1.689921,  1.554286 )     3.41560334
  WF centre and spread    2  ( -1.185993,  1.172601,  1.035161 )     3.41597547
  WF centre and spread    3  ( -1.714332,  1.223545,  1.501956 )     3.42637999
  Sum of centres and spreads ( -4.084904,  4.086067,  4.091403 )    10.25795880
 
    492    -0.632E-05     0.0012893869       10.2579601786       3.42  <-- CONV
        O_D=      0.0341392 O_OD=      0.5283543 O_TOT=     10.2579602 <-- SPRD
 Delta: O_D=  0.3613452E-05 O_OD= -0.9930020E-05 O_TOT= -0.6316568E-05 <-- DLTA
 ------------------------------------------------------------------------------
 Cycle:    493
  WF centre and spread    1  ( -1.184583,  1.689926,  1.554276 )     3.41560330
  WF centre and spread    2  ( -1.185995,  1.172610,  1.035157 )     3.41597467
  WF centre and spread    3  ( -1.714326,  1.223530,  1.501971 )     3.42637457
  Sum of centres and spreads ( -4.084904,  4.086067,  4.091403 )    10.25795254
 
    493    -0.626E-05     0.0017734377       10.2579539139       3.42  <-- CONV
        O_D=      0.0341350 O_OD=      0.5283523 O_TOT=     10.2579539 <-- SPRD
 Delta: O_D= -0.4206755E-05 O_OD= -0.2057932E-05 O_TOT= -0.6264687E-05 <-- DLTA
 ------------------------------------------------------------------------------
 Cycle:    494
  WF centre and spread    1  ( -1.184595,  1.689941,  1.554245 )     3.41560713
  WF centre and spread    2  ( -1.186003,  1.172638,  1.035144 )     3.41597636
  WF centre and spread    3  ( -1.714308,  1.223486,  1.502015 )     3.42636259
  Sum of centres and spreads ( -4.084905,  4.086065,  4.091404 )    10.25794608
 
    494    -0.646E-05     0.0012820391       10.2579474577       3.43  <-- CONV
        O_D=      0.0341309 O_OD=      0.5283499 O_TOT=     10.2579475 <-- SPRD
 Delta: O_D= -0.4102094E-05 O_OD= -0.2354127E-05 O_TOT= -0.6456221E-05 <-- DLTA
 ------------------------------------------------------------------------------
 Cycle:    495
  WF centre and spread    1  ( -1.184613,  1.689966,  1.554196 )     3.41561448
  WF centre and spread    2  ( -1.186015,  1.172682,  1.035123 )     3.41598051
  WF centre and spread    3  ( -1.714278,  1.223417,  1.502086 )     3.42634485
  Sum of centres and spreads ( -4.084906,  4.086064,  4.091405 )    10.25793983
 
    495    -0.625E-05     0.0012805853       10.2579412089       3.44  <-- CONV
        O_D=      0.0341273 O_OD=      0.5283473 O_TOT=     10.2579412 <-- SPRD
 Delta: O_D= -0.3583262E-05 O_OD= -0.2665506E-05 O_TOT= -0.6248768E-05 <-- DLTA
 ------------------------------------------------------------------------------
 Cycle:    496
  WF centre and spread    1  ( -1.184634,  1.689993,  1.554142 )     3.41562266
  WF centre and spread    2  ( -1.186028,  1.172730,  1.035099 )     3.41598589
  WF centre and spread    3  ( -1.714246,  1.223340,  1.502165 )     3.42632662
  Sum of centres and spreads ( -4.084908,  4.086063,  4.091406 )    10.25793517
 
    496    -0.466E-05     0.0011597715       10.2579365496       3.44  <-- CONV
        O_D=      0.0341262 O_OD=      0.5283437 O_TOT=     10.2579365 <-- SPRD
 Delta: O_D= -0.1143671E-05 O_OD= -0.3515619E-05 O_TOT= -0.4659289E-05 <-- DLTA
 ------------------------------------------------------------------------------
 Cycle:    497
  WF centre and spread    1  ( -1.184660,  1.690028,  1.554073 )     3.41563297
  WF centre and spread    2  ( -1.186046,  1.172793,  1.035069 )     3.41599345
  WF centre and spread    3  ( -1.714205,  1.223241,  1.502265 )     3.42630453
  Sum of centres and spreads ( -4.084911,  4.086061,  4.091407 )    10.25793095
 
    497    -0.422E-05     0.0010274108       10.2579323316       3.45  <-- CONV
        O_D=      0.0341263 O_OD=      0.5283394 O_TOT=     10.2579323 <-- SPRD
 Delta: O_D=  0.1655150E-06 O_OD= -0.4383578E-05 O_TOT= -0.4218063E-05 <-- DLTA
 ------------------------------------------------------------------------------
 Cycle:    498
  WF centre and spread    1  ( -1.184695,  1.690076,  1.553980 )     3.41564690
  WF centre and spread    2  ( -1.186070,  1.172878,  1.035027 )     3.41600425
  WF centre and spread    3  ( -1.714149,  1.223105,  1.502403 )     3.42627533
  Sum of centres and spreads ( -4.084914,  4.086059,  4.091409 )    10.25792648
 
    498    -0.448E-05     0.0010235929       10.2579278556       3.46  <-- CONV
        O_D=      0.0341281 O_OD=      0.5283332 O_TOT=     10.2579279 <-- SPRD
 Delta: O_D=  0.1732568E-05 O_OD= -0.6208498E-05 O_TOT= -0.4475929E-05 <-- DLTA
 ------------------------------------------------------------------------------
 Cycle:    499
  WF centre and spread    1  ( -1.184699,  1.690081,  1.553970 )     3.41564680
  WF centre and spread    2  ( -1.186072,  1.172886,  1.035022 )     3.41600400
  WF centre and spread    3  ( -1.714143,  1.223091,  1.502417 )     3.42627122
  Sum of centres and spreads ( -4.084914,  4.086059,  4.091410 )    10.25792203
 
    499    -0.445E-05     0.0015208434       10.2579234054       3.46  <-- CONV
        O_D=      0.0341258 O_OD=      0.5283310 O_TOT=     10.2579234 <-- SPRD
 Delta: O_D= -0.2249643E-05 O_OD= -0.2200577E-05 O_TOT= -0.4450220E-05 <-- DLTA
 ------------------------------------------------------------------------------
 Cycle:    500
  WF centre and spread    1  ( -1.184709,  1.690097,  1.553942 )     3.41564965
  WF centre and spread    2  ( -1.186079,  1.172912,  1.035008 )     3.41600642
  WF centre and spread    3  ( -1.714126,  1.223049,  1.502460 )     3.42626179
  Sum of centres and spreads ( -4.084914,  4.086058,  4.091411 )    10.25791785
 
    500    -0.418E-05     0.0010191051       10.2579192292       3.47  <-- CONV
        O_D=      0.0341252 O_OD=      0.5283274 O_TOT=     10.2579192 <-- SPRD
 Delta: O_D= -0.6377907E-06 O_OD= -0.3538454E-05 O_TOT= -0.4176245E-05 <-- DLTA
 ------------------------------------------------------------------------------

 Writing checkpoint file mp-2490.chk... done

 Final State
  WF centre and spread    1  ( -1.184709,  1.690097,  1.553942 )     3.41564965
  WF centre and spread    2  ( -1.186079,  1.172912,  1.035008 )     3.41600642
  WF centre and spread    3  ( -1.714126,  1.223049,  1.502460 )     3.42626179
  Sum of centres and spreads ( -4.084914,  4.086058,  4.091411 )    10.25791785
 
         Spreads (Ang^2)       Omega I      =     9.695466636
        ================       Omega D      =     0.034125177
                               Omega OD     =     0.528327416
    Final Spread (Ang^2)       Omega Total  =    10.257919229
 ------------------------------------------------------------------------------
 Time for wannierise            3.464 (sec)

 Writing checkpoint file mp-2490.chk... done

 Time for plotting              0.000 (sec)
 Total Execution Time           4.833 (sec)

 *===========================================================================*
 |                             TIMING INFORMATION                            |
 *===========================================================================*
 |    Tag                                                Ncalls      Time (s)|
 |---------------------------------------------------------------------------|
 |kmesh: get                                        :         1         1.121|
 |overlap: allocate                                 :         1         0.002|
 |overlap: read                                     :         1         0.135|
 |wann: main                                        :         1         3.464|
 |plot: main                                        :         1         0.000|
 *---------------------------------------------------------------------------*
 
 All done: wannier90 exiting
