
     Program PWSCF v.7.1 starts on 11Apr2024 at 15: 5:51 

     This program is part of the open-source Quantum ESPRESSO suite
     for quantum simulation of materials; please cite
         "P. Giannozzi et al., J. Phys.:Condens. Matter 21 395502 (2009);
         "P. Giannozzi et al., J. Phys.:Condens. Matter 29 465901 (2017);
         "P. Giannozzi et al., J. Chem. Phys. 152 154105 (2020);
          URL http://www.quantum-espresso.org", 
     in publications or presentations arising from this work. More details at
     http://www.quantum-espresso.org/quote

     Parallel version (MPI), running on    16 processors

     MPI processes distributed on     1 nodes
     222911 MiB available memory on the printing compute node when the environment starts
 
     Reading input from pw_KRrBr2_nscf_k3000_E130.in
Warning: card &IONS ignored
Warning: card / ignored
Warning: card &CELL ignored
Warning: card / ignored

     Current dimensions of program PWSCF are:
     Max number of different atomic species (ntypx) = 10
     Max number of k-points (npk) =  40000
     Max angular momentum in pseudopotentials (lmaxx) =  4

     Atomic positions and unit cell read from directory:
     out/KRrBr2.save/
     Atomic positions from file used, from input discarded
 
 
     R & G space division:  proc/nbgrp/npool/nimage =      16
     Subspace diagonalization in iterative solution of the eigenvalue problem:
     a serial algorithm will be used

 
     Parallelization info
     --------------------
     sticks:   dense  smooth     PW     G-vecs:    dense   smooth      PW
     Min         269     269     74                11786    11786    1683
     Max         270     270     75                11791    11791    1684
     Sum        4315    4315   1189               188621   188621   26933
 
     Using Slab Decomposition
 


     bravais-lattice index     =            2
     lattice parameter (alat)  =      15.5642  a.u.
     unit-cell volume          =     942.5781 (a.u.)^3
     number of atoms/cell      =            4
     number of atomic types    =            3
     number of electrons       =        32.00
     number of Kohn-Sham states=           32
     kinetic-energy cutoff     =     130.0000  Ry
     charge density cutoff     =     520.0000  Ry
     Exchange-correlation= PBE
                           (   1   4   3   4   0   0   0)

     celldm(1)=  15.564163  celldm(2)=   0.000000  celldm(3)=   0.000000
     celldm(4)=   0.000000  celldm(5)=   0.000000  celldm(6)=   0.000000

     crystal axes: (cart. coord. in units of alat)
               a(1) = (  -0.500000   0.000000   0.500000 )  
               a(2) = (   0.000000   0.500000   0.500000 )  
               a(3) = (  -0.500000   0.500000   0.000000 )  

     reciprocal axes: (cart. coord. in units 2 pi/alat)
               b(1) = ( -1.000000 -1.000000  1.000000 )  
               b(2) = (  1.000000  1.000000  1.000000 )  
               b(3) = ( -1.000000  1.000000 -1.000000 )  


     PseudoPot. # 1 for Br read from file:
     /usr/scratch4/magr4826/Promotion/Python/Code/devEb/pseudo/SG15/Br.upf
     MD5 check sum: 5b50323dbf1c0ae0ed9e7f1e72c3f86c
     Pseudo is Norm-conserving, Zval =  7.0
     Generated using ONCVPSP code by D. R. Hamann
     Using radial grid of  602 points,  6 beta functions with: 
                l(1) =   0
                l(2) =   0
                l(3) =   1
                l(4) =   1
                l(5) =   2
                l(6) =   2

     PseudoPot. # 2 for K  read from file:
     /usr/scratch4/magr4826/Promotion/Python/Code/devEb/pseudo/SG15/K.upf
     MD5 check sum: 254690d02b26e0029262a4c77e854448
     Pseudo is Norm-conserving, Zval =  9.0
     Generated using ONCVPSP code by D. R. Hamann
     Using radial grid of  602 points,  6 beta functions with: 
                l(1) =   0
                l(2) =   0
                l(3) =   1
                l(4) =   1
                l(5) =   2
                l(6) =   2

     PseudoPot. # 3 for Rb read from file:
     /usr/scratch4/magr4826/Promotion/Python/Code/devEb/pseudo/SG15/Rb.upf
     MD5 check sum: bb775b689f47c500e9d7b0b27148fdc3
     Pseudo is Norm-conserving, Zval =  9.0
     Generated using ONCVPSP code by D. R. Hamann
     Using radial grid of  602 points,  6 beta functions with: 
                l(1) =   0
                l(2) =   0
                l(3) =   1
                l(4) =   1
                l(5) =   2
                l(6) =   2

     atomic species   valence    mass     pseudopotential
        Br             7.00    79.90400     Br( 1.00)
        K              9.00    39.09830     K ( 1.00)
        Rb             9.00    85.46780     Rb( 1.00)

     48 Sym. Ops., with inversion, found



   Cartesian axes

     site n.     atom                  positions (alat units)
         1           K   tau(   1) = (   0.0000000   0.0000000   0.0000000  )
         2           Rb  tau(   2) = (  -0.5000000   0.5000000   0.5000000  )
         3           Br  tau(   3) = (  -0.7500000   0.7500001   0.7500001  )
         4           Br  tau(   4) = (  -0.2500000   0.2500000   0.2500001  )

     number of k points=    47  Gaussian smearing, width (Ry)=  0.0005
                       cart. coord. in units 2pi/alat
        k(    1) = (   0.0000000   0.0000000   0.0000000), wk =   0.0020000
        k(    2) = (  -0.1000000   0.1000000  -0.1000000), wk =   0.0160000
        k(    3) = (  -0.2000000   0.2000000  -0.2000000), wk =   0.0160000
        k(    4) = (  -0.3000000   0.3000000  -0.3000000), wk =   0.0160000
        k(    5) = (  -0.4000000   0.4000000  -0.4000000), wk =   0.0160000
        k(    6) = (   0.5000000  -0.5000000   0.5000000), wk =   0.0080000
        k(    7) = (   0.0000000   0.2000000   0.0000000), wk =   0.0120000
        k(    8) = (  -0.1000000   0.3000000  -0.1000000), wk =   0.0480000
        k(    9) = (  -0.2000000   0.4000000  -0.2000000), wk =   0.0480000
        k(   10) = (  -0.3000000   0.5000000  -0.3000000), wk =   0.0480000
        k(   11) = (   0.6000000  -0.4000000   0.6000000), wk =   0.0480000
        k(   12) = (   0.5000000  -0.3000000   0.5000000), wk =   0.0480000
        k(   13) = (   0.4000000  -0.2000000   0.4000000), wk =   0.0480000
        k(   14) = (   0.3000000  -0.1000000   0.3000000), wk =   0.0480000
        k(   15) = (   0.2000000   0.0000000   0.2000000), wk =   0.0240000
        k(   16) = (   0.0000000   0.4000000   0.0000000), wk =   0.0120000
        k(   17) = (  -0.1000000   0.5000000  -0.1000000), wk =   0.0480000
        k(   18) = (  -0.2000000   0.6000000  -0.2000000), wk =   0.0480000
        k(   19) = (   0.7000000  -0.3000000   0.7000000), wk =   0.0480000
        k(   20) = (   0.6000000  -0.2000000   0.6000000), wk =   0.0480000
        k(   21) = (   0.5000000  -0.1000000   0.5000000), wk =   0.0480000
        k(   22) = (   0.4000000   0.0000000   0.4000000), wk =   0.0240000
        k(   23) = (   0.0000000   0.6000000   0.0000000), wk =   0.0120000
        k(   24) = (  -0.1000000   0.7000000  -0.1000000), wk =   0.0480000
        k(   25) = (   0.8000000  -0.2000000   0.8000000), wk =   0.0480000
        k(   26) = (   0.7000000  -0.1000000   0.7000000), wk =   0.0480000
        k(   27) = (   0.6000000  -0.0000000   0.6000000), wk =   0.0240000
        k(   28) = (   0.0000000   0.8000000   0.0000000), wk =   0.0120000
        k(   29) = (   0.9000000  -0.1000000   0.9000000), wk =   0.0480000
        k(   30) = (   0.8000000   0.0000000   0.8000000), wk =   0.0240000
        k(   31) = (   0.0000000  -1.0000000   0.0000000), wk =   0.0060000
        k(   32) = (  -0.2000000   0.4000000   0.0000000), wk =   0.0480000
        k(   33) = (  -0.3000000   0.5000000  -0.1000000), wk =   0.0960000
        k(   34) = (   0.6000000  -0.4000000   0.8000000), wk =   0.0960000
        k(   35) = (   0.5000000  -0.3000000   0.7000000), wk =   0.0480000
        k(   36) = (  -0.2000000   0.6000000   0.0000000), wk =   0.0480000
        k(   37) = (   0.7000000  -0.3000000   0.9000000), wk =   0.0960000
        k(   38) = (   0.6000000  -0.2000000   0.8000000), wk =   0.0960000
        k(   39) = (   0.5000000  -0.1000000   0.7000000), wk =   0.0960000
        k(   40) = (   0.4000000   0.0000000   0.6000000), wk =   0.0480000
        k(   41) = (   0.8000000  -0.2000000   1.0000000), wk =   0.0480000
        k(   42) = (   0.7000000  -0.1000000   0.9000000), wk =   0.0960000
        k(   43) = (   0.6000000  -0.0000000   0.8000000), wk =   0.0480000
        k(   44) = (  -0.2000000  -1.0000000   0.0000000), wk =   0.0240000
        k(   45) = (   0.6000000  -0.2000000   1.0000000), wk =   0.0480000
        k(   46) = (   0.5000000  -0.1000000   0.9000000), wk =   0.0480000
        k(   47) = (  -0.4000000  -1.0000000   0.0000000), wk =   0.0240000

     Dense  grid:   188621 G-vectors     FFT dimensions: (  80,  80,  80)

     Estimated max dynamical RAM per process >      49.27 MB

     Estimated total dynamical RAM >     788.37 MB

     The potential is recalculated from file :
     out/KRrBr2.save/charge-density

     Starting wfcs are random

     Band Structure Calculation
     Davidson diagonalization with overlap

     ethr =  5.00E-06,  avg # of iterations = 44.8

     total cpu time spent up to now is       21.2 secs

     End of band structure calculation

          k = 0.0000 0.0000 0.0000 ( 23505 PWs)   bands (ev):

   -26.4453 -22.7418 -10.3334 -10.0280  -9.9318  -9.9318  -9.9318  -6.8591
    -6.8591  -6.8591   1.0023   1.0023   1.0023   2.1189   2.1189   2.1189
     6.1936   8.0637   8.0637  10.0451  10.0451  10.0451  11.5056  11.5056
    11.5056  12.0989  12.0989  12.0990  13.4963  13.4963  14.2593  14.9316

          k =-0.1000 0.1000-0.1000 ( 23565 PWs)   bands (ev):

   -26.4453 -22.7417 -10.3427 -10.0375  -9.9319  -9.9319  -9.9161  -6.8603
    -6.8603  -6.8545   1.0282   1.0282   1.0478   2.0255   2.0854   2.0854
     6.3849   8.1683   8.1683   9.8255  10.0145  10.0145  11.4381  11.5023
    11.5023  12.0298  12.0298  12.1821  13.5309  13.5309  14.5533  14.8054

          k =-0.2000 0.2000-0.2000 ( 23589 PWs)   bands (ev):

   -26.4452 -22.7415 -10.3599 -10.0724  -9.9323  -9.9323  -9.8722  -6.8634
    -6.8634  -6.8421   1.1029   1.1029   1.1601   1.8159   1.9927   1.9927
     6.8797   8.4621   8.4621   9.4487   9.9512   9.9512  11.1162  11.4509
    11.4509  11.8252  11.8252  12.3723  13.6489  13.6490  14.4836  14.6176

          k =-0.3000 0.3000-0.3000 ( 23526 PWs)   bands (ev):

   -26.4451 -22.7412 -10.3669 -10.1288  -9.9326  -9.9326  -9.8187  -6.8673
    -6.8673  -6.8262   1.2178   1.2178   1.2823   1.6102   1.8588   1.8588
     7.5332   8.8843   8.8844   9.2546   9.9062   9.9062  10.5702  11.2822
    11.2822  11.5472  11.5472  12.1101  13.8663  13.8664  13.9439  14.5620

          k =-0.4000 0.4000-0.4000 ( 23579 PWs)   bands (ev):

   -26.4450 -22.7409 -10.3564 -10.1892  -9.9329  -9.9329  -9.7765  -6.8704
    -6.8704  -6.8130   1.3593   1.3593   1.3643   1.4769   1.7043   1.7043
     8.2348   9.2954   9.3168   9.3168   9.9021   9.9021  10.0454  11.0559
    11.0559  11.1524  11.2737  11.2737  14.1632  14.1635  14.4677  14.6449

          k = 0.5000-0.5000 0.5000 ( 23570 PWs)   bands (ev):

   -26.4450 -22.7409 -10.3442 -10.2201  -9.9331  -9.9331  -9.7606  -6.8716
    -6.8716  -6.8079   1.3946   1.4290   1.4770   1.4770   1.5821   1.5821
     8.8302   9.0101   9.5273   9.5273   9.9103   9.9103  10.2522  10.3261
    10.9581  10.9581  11.1235  11.1235  14.3842  14.3845  14.7958  14.7977

          k = 0.0000 0.2000 0.0000 ( 23565 PWs)   bands (ev):

   -26.4453 -22.7417 -10.3466 -10.0383  -9.9324  -9.9324  -9.9115  -6.8610
    -6.8610  -6.8523   1.0165   1.0165   1.1046   1.9137   2.1181   2.1181
     6.4416   8.1385   8.2654   9.6714  10.0470  10.0470  11.2618  11.5855
    11.5855  12.0826  12.0826  12.1039  13.4464  13.5590  14.4882  14.6587

          k =-0.1000 0.3000-0.1000 ( 23581 PWs)   bands (ev):

   -26.4452 -22.7415 -10.3625 -10.0632  -9.9330  -9.9274  -9.8821  -6.8637
    -6.8627  -6.8428   1.0543   1.0571   1.2351   1.6981   2.0686   2.0839
     6.8183   8.3109   8.5421   9.3161   9.9917  10.0371  10.9983  11.5568
    11.6042  11.9076  11.9975  12.2917  13.4349  13.6207  14.1819  14.8430

          k =-0.2000 0.4000-0.2000 ( 23577 PWs)   bands (ev):

   -26.4451 -22.7412 -10.3729 -10.1159  -9.9335  -9.9195  -9.8363  -6.8674
    -6.8641  -6.8296   1.1304   1.1351   1.4017   1.4798   1.9580   1.9902
     7.3940   8.6437   8.8706   9.1292   9.9060  10.0338  10.6229  11.3786
    11.4478  11.6487  11.7706  12.3278  13.5540  13.7413  13.9303  14.1311

          k =-0.3000 0.5000-0.3000 ( 23579 PWs)   bands (ev):

   -26.4450 -22.7410 -10.3656 -10.1809  -9.9337  -9.9151  -9.7920  -6.8707
    -6.8653  -6.8174   1.2050   1.2491   1.3159   1.5683   1.8299   1.8535
     8.0447   8.9174   9.0470   9.4707   9.9060  10.0719  10.1094  11.1580
    11.1762  11.4061  11.4599  11.5840  13.7825  13.8993  14.1206  14.3367

          k = 0.6000-0.4000 0.6000 ( 23608 PWs)   bands (ev):

   -26.4450 -22.7408 -10.3454 -10.2322  -9.9336  -9.9131  -9.7679  -6.8722
    -6.8657  -6.8110   1.2208   1.2621   1.3847   1.6830   1.6932   1.7419
     8.6357   8.9199   9.3794   9.5342   9.8263  10.1049  10.1837  10.6689
    10.9857  11.0865  11.1631  11.2978  14.0238  14.1102  14.4114  14.4374

          k = 0.5000-0.3000 0.5000 ( 23579 PWs)   bands (ev):

   -26.4450 -22.7409 -10.3490 -10.2231  -9.9331  -9.9124  -9.7736  -6.8716
    -6.8652  -6.8132   1.1627   1.3230   1.4830   1.5751   1.5785   1.8683
     8.4283   9.0543   9.2810   9.5063   9.8755   9.9301  10.2813  10.8791
    10.9598  11.1719  11.1740  11.3609  13.9759  14.1205  14.1858  14.4769

          k = 0.4000-0.2000 0.4000 ( 23572 PWs)   bands (ev):

   -26.4451 -22.7410 -10.3666 -10.1653  -9.9325  -9.9128  -9.8074  -6.8689
    -6.8640  -6.8229   1.1081   1.3418   1.4326   1.4520   1.7086   1.9927
     7.8126   8.8575   9.1386   9.2600   9.7764   9.9727  10.5260  11.1428
    11.2955  11.3740  11.5711  11.8959  13.7070  13.8316  13.9761  14.3149

          k = 0.3000-0.1000 0.3000 ( 23554 PWs)   bands (ev):

   -26.4452 -22.7413 -10.3680 -10.1028  -9.9320  -9.9160  -9.8559  -6.8652
    -6.8627  -6.8364   1.0558   1.1991   1.2927   1.6258   1.8605   2.0845
     7.1866   8.5340   8.7933   9.2176   9.8270  10.0102  10.9919  11.3212
    11.4993  11.6329  11.8178  12.4099  13.5353  13.7927  13.9823  14.3186

          k = 0.2000 0.0000 0.2000 ( 23564 PWs)   bands (ev):

   -26.4452 -22.7416 -10.3549 -10.0566  -9.9318  -9.9252  -9.8969  -6.8619
    -6.8616  -6.8480   1.0241   1.0908   1.1419   1.8545   1.9933   2.1192
     6.6676   8.2697   8.3994   9.5328   9.9275  10.0396  11.3003  11.4226
    11.5663  11.8743  12.0107  12.2707  13.4758  13.6470  14.4257  14.8723

          k = 0.0000 0.4000 0.0000 ( 23584 PWs)   bands (ev):

   -26.4452 -22.7413 -10.3781 -10.0652  -9.9340  -9.9340  -9.8615  -6.8659
    -6.8659  -6.8332   1.0537   1.0537   1.3897   1.4590   2.1151   2.1151
     7.0410   8.3588   8.7053   9.0297  10.0763  10.0763  10.5636  11.7161
    11.7161  12.1363  12.1363  12.1938  13.1159  13.5427  13.8209  15.0044

          k =-0.1000 0.5000-0.1000 ( 23572 PWs)   bands (ev):

   -26.4451 -22.7411 -10.3920 -10.1017  -9.9348  -9.9212  -9.8311  -6.8691
    -6.8668  -6.8213   1.0895   1.0968   1.2297   1.5828   2.0762   2.0797
     7.4846   8.5414   8.5850   9.2352   9.9641  10.1088  10.2834  11.6138
    11.6322  12.0201  12.0691  12.3754  12.9405  13.5622  13.7909  14.0643

          k =-0.2000 0.6000-0.2000 ( 23576 PWs)   bands (ev):

   -26.4450 -22.7409 -10.3890 -10.1668  -9.9351  -9.8968  -9.8015  -6.8721
    -6.8635  -6.8133   1.0634   1.1291   1.1757   1.7763   1.9845   1.9944
     8.0316   8.4193   8.9186   9.5851   9.6619  10.1813  10.2594  11.3311
    11.3797  11.7605  11.7712  12.0351  13.0628  13.5561  13.8698  14.0701

          k = 0.7000-0.3000 0.7000 ( 23598 PWs)   bands (ev):

   -26.4450 -22.7407 -10.3632 -10.2364  -9.9348  -9.8787  -9.7816  -6.8738
    -6.8574  -6.8122   0.9803   1.1543   1.2824   1.8445   1.8920   1.9436
     8.3930   8.6344   9.2356   9.3476   9.7688  10.3089  10.3826  11.0827
    11.1170  11.3384  11.3849  11.6090  13.3633  13.5359  14.0454  14.0800

          k = 0.6000-0.2000 0.6000 ( 23602 PWs)   bands (ev):

   -26.4450 -22.7407 -10.3347 -10.2750  -9.9341  -9.8684  -9.7833  -6.8736
    -6.8515  -6.8180   0.9660   1.1813   1.4098   1.6780   1.7890   2.0549
     8.3837   8.9633   9.1004   9.4214   9.6731  10.3510  10.7050  10.8824
    10.9390  11.1265  11.3688  11.5561  13.2749  13.8366  13.8636  14.0056

          k = 0.5000-0.1000 0.5000 ( 23600 PWs)   bands (ev):

   -26.4450 -22.7408 -10.3564 -10.2273  -9.9331  -9.8654  -9.8090  -6.8714
    -6.8501  -6.8264   0.9865   1.2542   1.4954   1.5611   1.6530   2.1230
     8.0883   8.8074   9.0675   9.4779   9.7631   9.9541  10.8110  10.9786
    11.2389  11.2885  11.5586  11.8672  13.0382  13.6193  13.9595  14.2480

          k = 0.4000 0.0000 0.4000 ( 23592 PWs)   bands (ev):

   -26.4451 -22.7411 -10.3709 -10.1598  -9.9323  -9.8799  -9.8403  -6.8682
    -6.8562  -6.8317   1.0167   1.3357   1.4070   1.4787   1.7093   2.1366
     7.6311   8.6790   9.0311   9.2375   9.7347   9.9298  10.9349  11.1814
    11.4195  11.4405  11.7046  12.4116  13.2343  13.5085  13.8926  14.1890

          k = 0.0000 0.6000 0.0000 ( 23580 PWs)   bands (ev):

   -26.4451 -22.7409 -10.4130 -10.0978  -9.9360  -9.9360  -9.8037  -6.8717
    -6.8717  -6.8066   0.9976   1.1003   1.1003   1.7867   2.1095   2.1095
     7.7946   8.1862   8.7061   9.4994   9.6773  10.1563  10.1563  11.7746
    11.7746  12.2864  12.3448  12.3448  12.3528  13.4509  13.6155  14.1496

          k =-0.1000 0.7000-0.1000 ( 23587 PWs)   bands (ev):

   -26.4450 -22.7407 -10.4196 -10.1377  -9.9366  -9.9176  -9.7815  -6.8743
    -6.8710  -6.7969   0.8341   1.1214   1.1400   1.9823   2.0733   2.0824
     7.9881   8.2351   8.9543   9.2814   9.7402  10.2245  10.2619  11.5041
    11.6666  12.0948  12.2103  12.3654  12.3926  13.3531  13.7388  13.7697

          k = 0.8000-0.2000 0.8000 ( 23588 PWs)   bands (ev):

   -26.4449 -22.7406 -10.4021 -10.2053  -9.9364  -9.8806  -9.7733  -6.8758
    -6.8634  -6.7976   0.7654   1.1254   1.2095   1.9775   2.0258   2.1280
     7.9953   8.6975   9.0204   9.2157   9.7731  10.3479  10.4884  11.1682
    11.4723  11.7350  11.7638  11.9673  12.6278  13.3696  13.6884  13.8574

          k = 0.7000-0.1000 0.7000 ( 23612 PWs)   bands (ev):

   -26.4449 -22.7406 -10.3592 -10.2731  -9.9356  -9.8472  -9.7841  -6.8757
    -6.8509  -6.8096   0.7875   1.1216   1.3042   1.8367   1.9466   2.1985
     8.1310   8.8875   9.0896   9.3706   9.5206  10.5318  10.8711  11.0621
    11.1746  11.3061  11.4850  11.6421  13.0757  13.1893  13.6690  13.7147

          k = 0.6000-0.0000 0.6000 ( 23626 PWs)   bands (ev):

   -26.4450 -22.7407 -10.3263 -10.2965  -9.9343  -9.8246  -9.8150  -6.8741
    -6.8378  -6.8286   0.8726   1.1505   1.4210   1.6703   1.8267   2.1943
     8.2103   8.8323   9.1233   9.4353   9.5110  10.5182  10.7648  11.0395
    11.1418  11.2872  11.5530  11.6065  12.8217  13.5405  13.7225  13.8446

          k = 0.0000 0.8000 0.0000 ( 23580 PWs)   bands (ev):

   -26.4450 -22.7406 -10.4393 -10.1238  -9.9376  -9.9376  -9.7589  -6.8763
    -6.8763  -6.7828   0.6745   1.1385   1.1385   2.1031   2.1031   2.1594
     7.7259   8.5576   8.9396   9.1161   9.8607  10.2564  10.2564  11.4896
    11.8699  11.8699  12.4729  12.4729  12.5065  13.3110  13.5546  13.5978

          k = 0.9000-0.1000 0.9000 ( 23598 PWs)   bands (ev):

   -26.4449 -22.7405 -10.4361 -10.1590  -9.9377  -9.9161  -9.7513  -6.8774
    -6.8737  -6.7802   0.6145   1.1409   1.1671   2.0681   2.0851   2.2665
     7.6813   8.7513   8.8885   9.2929   9.8188  10.3201  10.3724  11.1682
    11.8149  12.0717  12.1129  12.2492  12.4265  13.2133  13.4210  13.8052

          k = 0.8000 0.0000 0.8000 ( 23606 PWs)   bands (ev):

   -26.4449 -22.7405 -10.4071 -10.2195  -9.9370  -9.8752  -9.7622  -6.8772
    -6.8636  -6.7909   0.6589   1.1236   1.2227   1.9742   2.0385   2.2771
     7.8473   8.7522   9.1206   9.3639   9.5897  10.4254  10.6372  11.0685
    11.6433  11.6821  11.7059  11.9647  12.4855  13.2697  13.4753  13.8040

          k = 0.0000-1.0000 0.0000 ( 23612 PWs)   bands (ev):

   -26.4449 -22.7405 -10.4491 -10.1336  -9.9382  -9.9382  -9.7421  -6.8780
    -6.8780  -6.7732   0.5598   1.1533   1.1533   2.1002   2.1002   2.3189
     7.5639   8.6478   8.9846   9.3502   9.8461  10.3038  10.3038  11.1191
    11.9614  11.9614  12.4371  12.4371  12.5717  13.2239  13.4392  13.4395

          k =-0.2000 0.4000 0.0000 ( 23567 PWs)   bands (ev):

   -26.4452 -22.7413 -10.3757 -10.0973  -9.9329  -9.9131  -9.8566  -6.8663
    -6.8631  -6.8333   1.0437   1.1400   1.4018   1.4664   1.9679   2.1212
     7.2162   8.4888   8.7996   9.0745   9.9467  10.0207  10.7233  11.5082
    11.5859  11.8285  11.9213  12.4020  13.3278  13.6390  13.9554  14.2313

          k =-0.3000 0.5000-0.1000 ( 23593 PWs)   bands (ev):

   -26.4451 -22.7410 -10.3778 -10.1575  -9.9334  -9.8935  -9.8227  -6.8700
    -6.8600  -6.8242   1.0531   1.2573   1.2683   1.5902   1.8288   2.0952
     7.7462   8.6810   8.8249   9.3874   9.8673   9.9296  10.5443  11.2817
    11.4211  11.6326  11.7220  12.2494  13.2870  13.5351  13.8274  14.0629

          k = 0.6000-0.4000 0.8000 ( 23601 PWs)   bands (ev):

   -26.4450 -22.7408 -10.3598 -10.2246  -9.9338  -9.8841  -9.7898  -6.8731
    -6.8565  -6.8176   1.0670   1.1437   1.3905   1.6819   1.7627   2.0176
     8.2774   8.7294   9.0672   9.6366   9.7726   9.9842  10.4811  11.0357
    11.1666  11.3832  11.4313  11.5912  13.4101  13.6724  13.9477  14.2856

          k = 0.5000-0.3000 0.7000 ( 23616 PWs)   bands (ev):

   -26.4450 -22.7407 -10.3382 -10.2645  -9.9340  -9.8816  -9.7764  -6.8743
    -6.8550  -6.8152   1.0778   1.0981   1.5036   1.5655   1.8878   1.9205
     8.5487   8.8127   9.2908   9.3022   9.9433  10.1121  10.5796  10.7732
    10.9743  11.1534  11.2896  11.4591  13.5645  13.6996  14.1065  14.1528

          k =-0.2000 0.6000 0.0000 ( 23568 PWs)   bands (ev):

   -26.4450 -22.7409 -10.4006 -10.1410  -9.9350  -9.9043  -9.8071  -6.8727
    -6.8651  -6.8113   1.0305   1.0674   1.1823   1.7845   1.9789   2.1219
     7.9045   8.3018   8.8014   9.5570   9.6489  10.1076  10.3208  11.4904
    11.5275  11.9050  12.1046  12.4005  12.7422  13.3654  13.6592  13.9313

          k = 0.7000-0.3000 0.9000 ( 23592 PWs)   bands (ev):

   -26.4450 -22.7407 -10.3887 -10.2058  -9.9353  -9.8738  -9.7910  -6.8762
    -6.8570  -6.8086   0.9112   1.0474   1.2897   1.8529   1.9636   2.1062
     8.2153   8.3942   9.0236   9.3280   9.8507  10.1932  10.4742  11.2260
    11.3385  11.6079  11.8386  12.0084  12.8119  13.2723  13.6460  14.1970

          k = 0.6000-0.2000 0.8000 ( 23612 PWs)   bands (ev):

   -26.4449 -22.7406 -10.3533 -10.2726  -9.9351  -9.8499  -9.7870  -6.8777
    -6.8462  -6.8144   0.8793   1.0307   1.4070   1.7140   2.0422   2.0895
     8.3042   8.7409   9.0940   9.1606   9.9490  10.3527  10.6980  11.0504
    11.1561  11.3374  11.4386  11.6493  13.0916  13.2892  13.6513  14.2345

          k = 0.5000-0.1000 0.7000 ( 23612 PWs)   bands (ev):

   -26.4450 -22.7406 -10.3376 -10.2859  -9.9345  -9.8392  -9.7999  -6.8767
    -6.8390  -6.8241   0.9136   1.0399   1.5319   1.5677   1.9369   2.1515
     8.3205   8.7470   8.9592   9.3690   9.8413  10.3615  10.8148  10.8862
    11.1988  11.3877  11.4554  11.6129  12.9055  13.4543  13.8569  13.9933

          k = 0.4000 0.0000 0.6000 ( 23586 PWs)   bands (ev):

   -26.4450 -22.7408 -10.3676 -10.2210  -9.9338  -9.8543  -9.8154  -6.8737
    -6.8483  -6.8240   0.9801   1.1120   1.4070   1.6781   1.7822   2.1543
     8.1097   8.6233   8.9140   9.6261   9.7417   9.9776  10.6810  11.0698
    11.3416  11.5718  11.5829  12.0973  12.7663  13.4358  13.8229  14.0902

          k = 0.8000-0.2000 1.0000 ( 23616 PWs)   bands (ev):

   -26.4450 -22.7406 -10.4203 -10.1736  -9.9367  -9.8996  -9.7675  -6.8782
    -6.8667  -6.7909   0.7217   1.0857   1.2162   1.9878   2.1205   2.1437
     7.8711   8.6107   8.9849   9.1326   9.8630  10.3112  10.3792  11.3061
    11.5710  11.8669  12.1264  12.3248  12.4209  13.0711  13.5469  14.0074

          k = 0.7000-0.1000 0.9000 ( 23601 PWs)   bands (ev):

   -26.4449 -22.7405 -10.3960 -10.2338  -9.9364  -9.8637  -9.7704  -6.8804
    -6.8554  -6.7971   0.7092   1.0418   1.3092   1.8691   2.1131   2.2289
     7.9627   8.8505   8.9145   9.1547   9.8948  10.4694  10.6203  11.1810
    11.4079  11.4459  11.6558  12.1127  12.6058  13.0702  13.5842  14.0723

          k = 0.6000-0.0000 0.8000 ( 23629 PWs)   bands (ev):

   -26.4449 -22.7405 -10.3489 -10.2927  -9.9356  -9.8315  -9.7913  -6.8797
    -6.8414  -6.8134   0.7835   1.0146   1.4140   1.7258   2.0554   2.2271
     8.1711   8.8525   8.9190   9.1929   9.8575  10.6503  10.8923  10.9946
    11.1468  11.3770  11.4445  11.6695  13.0049  13.1257  13.4527  14.0436

          k =-0.2000-1.0000 0.0000 ( 23582 PWs)   bands (ev):

   -26.4449 -22.7405 -10.4278 -10.1855  -9.9374  -9.8981  -9.7525  -6.8803
    -6.8673  -6.7826   0.6117   1.0926   1.2292   1.9908   2.1198   2.2968
     7.7199   8.7074   9.0307   9.2715   9.8222  10.4126  10.4275  11.1213
    11.7531  11.8481  11.8631  12.2492  12.5226  13.0000  13.5387  13.9744

          k = 0.6000-0.2000 1.0000 ( 23610 PWs)   bands (ev):

   -26.4449 -22.7406 -10.3672 -10.2643  -9.9354  -9.8392  -9.7927  -6.8808
    -6.8423  -6.8130   0.8435   0.9551   1.4314   1.7122   2.1031   2.1674
     8.2476   8.5994   8.9916   9.1010  10.1804  10.3012  10.7062  11.0636
    11.2631  11.4077  11.5895  11.9342  12.6938  13.2021  13.6247  14.0295

          k = 0.5000-0.1000 0.9000 ( 23620 PWs)   bands (ev):

   -26.4449 -22.7405 -10.3280 -10.3183  -9.9355  -9.8164  -9.8021  -6.8827
    -6.8283  -6.8230   0.8408   0.9032   1.5677   1.5773   2.1681   2.1717
     8.3353   8.6126   8.9937   8.9947  10.3716  10.3997  10.8753  10.9822
    11.1014  11.2366  11.6292  11.6419  12.9195  13.2490  13.5097  13.7298

          k =-0.4000-1.0000 0.0000 ( 23614 PWs)   bands (ev):

   -26.4449 -22.7405 -10.3676 -10.2799  -9.9360  -9.8343  -9.7835  -6.8841
    -6.8401  -6.8078   0.7481   0.9420   1.4395   1.7278   2.1721   2.2404
     8.1357   8.7892   8.8601   9.0131  10.2077  10.7221  10.7663  10.9413
    11.2158  11.2899  11.4318  12.0298  12.9052  12.9470  13.5453  13.8325

     the Fermi energy is     4.6732 ev
     (compare with:     4.6731 eV, computed in scf)

     Writing all to output data dir out/KRrBr2.save/
 
     init_run     :      0.21s CPU      0.25s WALL (       1 calls)
     electrons    :     19.29s CPU     20.61s WALL (       1 calls)

     Called by init_run:
     wfcinit      :      0.00s CPU      0.00s WALL (       1 calls)
     potinit      :      0.02s CPU      0.05s WALL (       1 calls)
     hinit0       :      0.02s CPU      0.03s WALL (       1 calls)

     Called by electrons:
     c_bands      :     19.29s CPU     20.61s WALL (       1 calls)
     v_of_rho     :      0.01s CPU      0.01s WALL (       1 calls)

     Called by c_bands:
     init_us_2    :      0.01s CPU      0.02s WALL (      47 calls)
     init_us_2:cp :      0.01s CPU      0.02s WALL (      47 calls)
     cegterg      :     18.40s CPU     18.81s WALL (     127 calls)

     Called by *egterg:
     cdiaghg      :      1.94s CPU      2.01s WALL (    2153 calls)
     h_psi        :     14.10s CPU     14.41s WALL (    2280 calls)
     g_psi        :      0.12s CPU      0.12s WALL (    2106 calls)

     Called by h_psi:
     h_psi:calbec :      0.75s CPU      0.77s WALL (    2280 calls)
     vloc_psi     :     12.61s CPU     12.88s WALL (    2280 calls)
     add_vuspsi   :      0.63s CPU      0.64s WALL (    2280 calls)

     General routines
     calbec       :      0.75s CPU      0.76s WALL (    2280 calls)
     fft          :      0.00s CPU      0.01s WALL (      10 calls)
     fftw         :     11.33s CPU     11.57s WALL (   76792 calls)
 
     Parallel routines
 
     PWSCF        :     20.22s CPU     27.28s WALL

 
   This run was terminated on:  15: 6:19  11Apr2024            

=------------------------------------------------------------------------------=
   JOB DONE.
=------------------------------------------------------------------------------=
