
     Program PWSCF v.7.1 starts on 11Apr2024 at  9:51:58 

     This program is part of the open-source Quantum ESPRESSO suite
     for quantum simulation of materials; please cite
         "P. Giannozzi et al., J. Phys.:Condens. Matter 21 395502 (2009);
         "P. Giannozzi et al., J. Phys.:Condens. Matter 29 465901 (2017);
         "P. Giannozzi et al., J. Chem. Phys. 152 154105 (2020);
          URL http://www.quantum-espresso.org", 
     in publications or presentations arising from this work. More details at
     http://www.quantum-espresso.org/quote

     Parallel version (MPI), running on    16 processors

     MPI processes distributed on     1 nodes
     247876 MiB available memory on the printing compute node when the environment starts
 
     Reading input from pw_mp-20351_nscf_k3000_E130.in
Warning: card &IONS ignored
Warning: card / ignored
Warning: card &CELL ignored
Warning: card / ignored

     Current dimensions of program PWSCF are:
     Max number of different atomic species (ntypx) = 10
     Max number of k-points (npk) =  40000
     Max angular momentum in pseudopotentials (lmaxx) =  4

     Atomic positions and unit cell read from directory:
     out/mp-20351.save/
     Atomic positions from file used, from input discarded
 
 
     R & G space division:  proc/nbgrp/npool/nimage =      16
     Subspace diagonalization in iterative solution of the eigenvalue problem:
     a serial algorithm will be used

 
     Parallelization info
     --------------------
     sticks:   dense  smooth     PW     G-vecs:    dense   smooth      PW
     Min         139     139     39                 4341     4341     654
     Max         140     140     40                 4343     4343     656
     Sum        2233    2233    637                69473    69473   10489
 
     Using Slab Decomposition
 


     bravais-lattice index     =            2
     lattice parameter (alat)  =      11.1569  a.u.
     unit-cell volume          =     347.1883 (a.u.)^3
     number of atoms/cell      =            2
     number of atomic types    =            2
     number of electrons       =        18.00
     number of Kohn-Sham states=           18
     kinetic-energy cutoff     =     130.0000  Ry
     charge density cutoff     =     520.0000  Ry
     Exchange-correlation= PBE
                           (   1   4   3   4   0   0   0)

     celldm(1)=  11.156853  celldm(2)=   0.000000  celldm(3)=   0.000000
     celldm(4)=   0.000000  celldm(5)=   0.000000  celldm(6)=   0.000000

     crystal axes: (cart. coord. in units of alat)
               a(1) = (  -0.500000   0.000000   0.500000 )  
               a(2) = (   0.000000   0.500000   0.500000 )  
               a(3) = (  -0.500000   0.500000   0.000000 )  

     reciprocal axes: (cart. coord. in units 2 pi/alat)
               b(1) = ( -1.000000 -1.000000  1.000000 )  
               b(2) = (  1.000000  1.000000  1.000000 )  
               b(3) = ( -1.000000  1.000000 -1.000000 )  


     PseudoPot. # 1 for In read from file:
     /usr/scratch4/magr4826/Promotion/Python/Code/devEb/pseudo/SG15/In.upf
     MD5 check sum: 2123f823f6143602c63cd302e3a0bdd6
     Pseudo is Norm-conserving, Zval = 13.0
     Generated using ONCVPSP code by D. R. Hamann
     Using radial grid of  602 points,  6 beta functions with: 
                l(1) =   0
                l(2) =   0
                l(3) =   1
                l(4) =   1
                l(5) =   2
                l(6) =   2

     PseudoPot. # 2 for P  read from file:
     /usr/scratch4/magr4826/Promotion/Python/Code/devEb/pseudo/SG15/P.upf
     MD5 check sum: 0688a67b2b263c6b42d3d97c42745426
     Pseudo is Norm-conserving, Zval =  5.0
     Generated using ONCVPSP code by D. R. Hamann
     Using radial grid of  602 points,  4 beta functions with: 
                l(1) =   0
                l(2) =   0
                l(3) =   1
                l(4) =   1

     atomic species   valence    mass     pseudopotential
        In            13.00   114.81800     In( 1.00)
        P              5.00    30.97380     P ( 1.00)

     24 Sym. Ops. (no inversion) found



   Cartesian axes

     site n.     atom                  positions (alat units)
         1           In  tau(   1) = (   0.0000000   0.0000000   0.0000000  )
         2           P   tau(   2) = (  -0.2500000   0.2500000   0.2500001  )

     number of k points=    72  Gaussian smearing, width (Ry)=  0.0005
                       cart. coord. in units 2pi/alat
        k(    1) = (   0.0000000   0.0000000   0.0000000), wk =   0.0011574
        k(    2) = (  -0.0833333   0.0833333  -0.0833333), wk =   0.0092593
        k(    3) = (  -0.1666667   0.1666667  -0.1666667), wk =   0.0092593
        k(    4) = (  -0.2500000   0.2500000  -0.2500000), wk =   0.0092593
        k(    5) = (  -0.3333333   0.3333333  -0.3333333), wk =   0.0092593
        k(    6) = (  -0.4166667   0.4166667  -0.4166667), wk =   0.0092593
        k(    7) = (   0.5000000  -0.5000000   0.5000000), wk =   0.0046296
        k(    8) = (   0.0000000   0.1666667   0.0000000), wk =   0.0069444
        k(    9) = (  -0.0833333   0.2500000  -0.0833333), wk =   0.0277778
        k(   10) = (  -0.1666667   0.3333333  -0.1666667), wk =   0.0277778
        k(   11) = (  -0.2500000   0.4166667  -0.2500000), wk =   0.0277778
        k(   12) = (  -0.3333333   0.5000000  -0.3333333), wk =   0.0277778
        k(   13) = (   0.5833333  -0.4166667   0.5833333), wk =   0.0277778
        k(   14) = (   0.5000000  -0.3333333   0.5000000), wk =   0.0277778
        k(   15) = (   0.4166667  -0.2500000   0.4166667), wk =   0.0277778
        k(   16) = (   0.3333333  -0.1666667   0.3333333), wk =   0.0277778
        k(   17) = (   0.2500000  -0.0833333   0.2500000), wk =   0.0277778
        k(   18) = (   0.1666667  -0.0000000   0.1666667), wk =   0.0138889
        k(   19) = (   0.0000000   0.3333333   0.0000000), wk =   0.0069444
        k(   20) = (  -0.0833333   0.4166667  -0.0833333), wk =   0.0277778
        k(   21) = (  -0.1666667   0.5000000  -0.1666667), wk =   0.0277778
        k(   22) = (  -0.2500000   0.5833333  -0.2500000), wk =   0.0277778
        k(   23) = (   0.6666667  -0.3333333   0.6666667), wk =   0.0277778
        k(   24) = (   0.5833333  -0.2500000   0.5833333), wk =   0.0277778
        k(   25) = (   0.5000000  -0.1666667   0.5000000), wk =   0.0277778
        k(   26) = (   0.4166667  -0.0833333   0.4166667), wk =   0.0277778
        k(   27) = (   0.3333333   0.0000000   0.3333333), wk =   0.0138889
        k(   28) = (   0.0000000   0.5000000   0.0000000), wk =   0.0069444
        k(   29) = (  -0.0833333   0.5833333  -0.0833333), wk =   0.0277778
        k(   30) = (  -0.1666667   0.6666667  -0.1666667), wk =   0.0277778
        k(   31) = (   0.7500000  -0.2500000   0.7500000), wk =   0.0277778
        k(   32) = (   0.6666667  -0.1666667   0.6666667), wk =   0.0277778
        k(   33) = (   0.5833333  -0.0833333   0.5833333), wk =   0.0277778
        k(   34) = (   0.5000000   0.0000000   0.5000000), wk =   0.0138889
        k(   35) = (   0.0000000   0.6666667   0.0000000), wk =   0.0069444
        k(   36) = (  -0.0833333   0.7500000  -0.0833333), wk =   0.0277778
        k(   37) = (   0.8333333  -0.1666667   0.8333333), wk =   0.0277778
        k(   38) = (   0.7500000  -0.0833333   0.7500000), wk =   0.0277778
        k(   39) = (   0.6666667  -0.0000000   0.6666667), wk =   0.0138889
        k(   40) = (   0.0000000   0.8333333   0.0000000), wk =   0.0069444
        k(   41) = (   0.9166667  -0.0833333   0.9166667), wk =   0.0277778
        k(   42) = (   0.8333333   0.0000000   0.8333333), wk =   0.0138889
        k(   43) = (   0.0000000  -1.0000000   0.0000000), wk =   0.0034722
        k(   44) = (  -0.1666667   0.3333333   0.0000000), wk =   0.0277778
        k(   45) = (  -0.2500000   0.4166667  -0.0833333), wk =   0.0555556
        k(   46) = (  -0.3333333   0.5000000  -0.1666667), wk =   0.0555556
        k(   47) = (   0.5833333  -0.4166667   0.7500000), wk =   0.0555556
        k(   48) = (   0.5000000  -0.3333333   0.6666667), wk =   0.0277778
        k(   49) = (  -0.1666667   0.5000000   0.0000000), wk =   0.0277778
        k(   50) = (  -0.2500000   0.5833333  -0.0833333), wk =   0.0555556
        k(   51) = (   0.6666667  -0.3333333   0.8333333), wk =   0.0555556
        k(   52) = (   0.5833333  -0.2500000   0.7500000), wk =   0.0555556
        k(   53) = (   0.5000000  -0.1666667   0.6666667), wk =   0.0555556
        k(   54) = (   0.4166667  -0.0833333   0.5833333), wk =   0.0555556
        k(   55) = (   0.3333333   0.0000000   0.5000000), wk =   0.0277778
        k(   56) = (  -0.1666667   0.6666667   0.0000000), wk =   0.0277778
        k(   57) = (   0.7500000  -0.2500000   0.9166667), wk =   0.0555556
        k(   58) = (   0.6666667  -0.1666667   0.8333333), wk =   0.0555556
        k(   59) = (   0.5833333  -0.0833333   0.7500000), wk =   0.0555556
        k(   60) = (   0.5000000   0.0000000   0.6666667), wk =   0.0277778
        k(   61) = (   0.8333333  -0.1666667   1.0000000), wk =   0.0277778
        k(   62) = (   0.7500000  -0.0833333   0.9166667), wk =   0.0555556
        k(   63) = (   0.6666667  -0.0000000   0.8333333), wk =   0.0277778
        k(   64) = (  -0.1666667  -1.0000000  -0.0000000), wk =   0.0138889
        k(   65) = (   0.6666667  -0.3333333   1.0000000), wk =   0.0277778
        k(   66) = (   0.5833333  -0.2500000   0.9166667), wk =   0.0555556
        k(   67) = (   0.5000000  -0.1666667   0.8333333), wk =   0.0277778
        k(   68) = (   0.6666667  -0.1666667   1.0000000), wk =   0.0277778
        k(   69) = (   0.5833333  -0.0833333   0.9166667), wk =   0.0555556
        k(   70) = (   0.5000000   0.0000000   0.8333333), wk =   0.0277778
        k(   71) = (  -0.3333333  -1.0000000   0.0000000), wk =   0.0138889
        k(   72) = (  -0.5000000  -1.0000000   0.0000000), wk =   0.0069444

     Dense  grid:    69473 G-vectors     FFT dimensions: (  60,  60,  60)

     Estimated max dynamical RAM per process >      17.12 MB

     Estimated total dynamical RAM >     273.85 MB

     The potential is recalculated from file :
     out/mp-20351.save/charge-density

     Starting wfcs are random

     Band Structure Calculation
     Davidson diagonalization with overlap

     ethr =  5.00E-06,  avg # of iterations = 22.6

     total cpu time spent up to now is       10.1 secs

     End of band structure calculation

          k = 0.0000 0.0000 0.0000 (  8657 PWs)   bands (ev):

    -6.8779  -6.8779  -6.8779  -6.7358  -6.7358  -4.0437   7.3244   7.3244
     7.3244   7.9178  11.4269  11.4269  11.4269  15.8073  16.7231  16.7231
    18.5214  18.5214

          k =-0.0833 0.0833-0.0833 (  8705 PWs)   bands (ev):

    -6.8856  -6.8748  -6.8748  -6.7358  -6.7358  -3.9668   6.3973   7.2399
     7.2399   8.6046  11.4531  11.5566  11.5566  16.2178  16.3628  16.3628
    18.1773  19.1370

          k =-0.1667 0.1667-0.1667 (  8702 PWs)   bands (ev):

    -6.9061  -6.8665  -6.8665  -6.7353  -6.7353  -3.7427   5.1520   7.0322
     7.0323   9.0524  11.7989  11.8543  11.8543  15.9278  15.9278  16.7567
    18.1759  20.3764

          k =-0.2500 0.2500-0.2500 (  8714 PWs)   bands (ev):

    -6.9330  -6.8565  -6.8565  -6.7334  -6.7334  -3.3934   3.9254   6.7886
     6.7886   9.0612  12.1118  12.1118  12.6003  15.8990  15.8990  16.4464
    19.5745  21.8344

          k =-0.3333 0.3333-0.3333 (  8712 PWs)   bands (ev):

    -6.9589  -6.8482  -6.8482  -6.7295  -6.7295  -2.9680   2.8353   6.5769
     6.5769   8.9275  12.1927  12.1927  13.5441  16.1960  16.4033  16.4033
    20.9964  22.2628

          k =-0.4167 0.4167-0.4167 (  8715 PWs)   bands (ev):

    -6.9774  -6.8434  -6.8434  -6.7254  -6.7254  -2.5725   2.0273   6.4369
     6.4369   8.8149  12.1632  12.1632  14.2167  16.3910  17.2874  17.2874
    20.2250  20.7757

          k = 0.5000-0.5000 0.5000 (  8694 PWs)   bands (ev):

    -6.9840  -6.8419  -6.8419  -6.7236  -6.7236  -2.3975   1.7126   6.3882
     6.3882   8.7738  12.1391  12.1391  14.4053  16.7278  17.9444  17.9445
    19.5289  19.9045

          k = 0.0000 0.1667 0.0000 (  8693 PWs)   bands (ev):

    -6.8916  -6.8718  -6.8718  -6.7381  -6.7336  -3.9413   6.3563   7.0815
     7.0815   8.8689  11.1061  11.7655  11.7655  15.7780  16.3803  16.7900
    18.7509  18.7510

          k =-0.0833 0.2500-0.0833 (  8684 PWs)   bands (ev):

    -6.9089  -6.8650  -6.8635  -6.7403  -6.7315  -3.7664   5.4248   6.8291
     6.9039   9.3798  11.0158  12.1342  12.1396  15.2384  16.5979  17.0727
    18.4248  19.5155

          k =-0.1667 0.3333-0.1667 (  8707 PWs)   bands (ev):

    -6.9322  -6.8567  -6.8532  -6.7408  -6.7288  -3.4582   4.2736   6.5736
     6.6544   9.5221  11.3731  12.4577  12.5585  15.1684  16.4811  17.1163
    19.1975  20.8268

          k =-0.2500 0.4167-0.2500 (  8692 PWs)   bands (ev):

    -6.9565  -6.8487  -6.8444  -6.7383  -6.7255  -3.0543   3.1710   6.3698
     6.3770   9.4219  11.7706  12.5666  13.0931  15.6715  16.8094  16.8375
    20.6058  21.9738

          k =-0.3333 0.5000-0.3333 (  8692 PWs)   bands (ev):

    -6.9757  -6.8432  -6.8391  -6.7332  -6.7228  -2.6366   2.2745   6.1236
     6.2720   9.3005  11.8759  12.4943  13.8798  16.2433  17.0433  17.5809
    20.0937  20.6900

          k = 0.5833-0.4167 0.5833 (  8707 PWs)   bands (ev):

    -6.9853  -6.8406  -6.8374  -6.7280  -6.7229  -2.3685   1.7830   5.9583
     6.2720   9.2344  11.9092  12.3782  14.4499  16.6154  17.7868  17.9547
    19.1258  19.9902

          k = 0.5000-0.3333 0.5000 (  8691 PWs)   bands (ev):

    -6.9829  -6.8405  -6.8390  -6.7266  -6.7254  -2.4284   1.8888   5.8968
     6.3748   9.2441  11.9987  12.2962  14.3696  16.6806  17.0748  18.1751
    19.0480  20.9699

          k = 0.4167-0.2500 0.4167 (  8688 PWs)   bands (ev):

    -6.9689  -6.8438  -6.8429  -6.7324  -6.7261  -2.7700   2.5420   5.9508
     6.5649   9.3248  12.1329  12.2393  13.6732  16.0819  16.5669  17.5805
    20.0129  21.9753

          k = 0.3333-0.1667 0.3333 (  8702 PWs)   bands (ev):

    -6.9466  -6.8522  -6.8486  -6.7371  -6.7287  -3.1965   3.5229   6.1238
     6.8108   9.4374  12.1195  12.1213  12.8562  15.4524  16.4766  17.0839
    19.9947  21.7202

          k = 0.2500-0.0833 0.2500 (  8713 PWs)   bands (ev):

    -6.9212  -6.8626  -6.8572  -6.7387  -6.7314  -3.5745   4.6424   6.4142
     7.0588   9.4475  11.6385  11.8691  12.4674  15.3555  16.1682  17.2851
    18.6855  20.2219

          k = 0.1667-0.0000 0.1667 (  8685 PWs)   bands (ev):

    -6.8988  -6.8712  -6.8669  -6.7378  -6.7337  -3.8408   5.7041   6.8232
     7.2287   9.1024  11.3629  11.6135  12.0494  15.7311  16.2739  16.7975
    18.4149  19.0430

          k = 0.0000 0.3333 0.0000 (  8700 PWs)   bands (ev):

    -6.9266  -6.8548  -6.8548  -6.7455  -6.7277  -3.6434   5.1659   6.5418
     6.5418   9.8881  10.4766  12.5949  12.5949  14.5944  16.9859  17.7132
    19.4334  19.4335

          k =-0.0833 0.4167-0.0833 (  8704 PWs)   bands (ev):

    -6.9481  -6.8452  -6.8436  -6.7492  -6.7242  -3.3844   4.3709   6.2412
     6.2654  10.0972  10.4983  12.9112  13.0380  14.5717  17.0161  18.2831
    19.4393  20.2961

          k =-0.1667 0.5000-0.1667 (  8691 PWs)   bands (ev):

    -6.9682  -6.8384  -6.8337  -6.7497  -6.7208  -3.0180   3.4172   5.8721
     6.0620  10.0157  11.0492  12.8628  13.2527  15.3651  17.2675  18.0462
    20.4464  21.5652

          k =-0.2500 0.5833-0.2500 (  8680 PWs)   bands (ev):

    -6.9837  -6.8350  -6.8275  -6.7459  -6.7190  -2.6071   2.5432   5.5068
     5.9644   9.9188  11.5506  13.1173  13.2018  16.2720  17.8680  17.9321
    20.0232  20.7350

          k = 0.6667-0.3333 0.6667 (  8687 PWs)   bands (ev):

    -6.9918  -6.8343  -6.8254  -6.7395  -6.7205  -2.2824   1.9551   5.2216
     5.9850   9.8739  11.7145  13.0304  13.9009  16.5832  17.9932  18.2536
    19.1318  20.1923

          k = 0.5833-0.2500 0.5833 (  8696 PWs)   bands (ev):

    -6.9907  -6.8352  -6.8271  -6.7331  -6.7259  -2.2294   1.8690   5.0587
     6.1198   9.9003  11.8086  12.8527  14.3434  16.6662  16.9919  18.0591
    19.6141  21.2112

          k = 0.5000-0.1667 0.5000 (  8698 PWs)   bands (ev):

    -6.9806  -6.8373  -6.8325  -6.7331  -6.7291  -2.4874   2.3224   5.0497
     6.3484   9.9840  11.9723  12.6856  13.6610  15.9422  17.3218  18.4375
    19.1327  22.0033

          k = 0.4167-0.0833 0.4167 (  8705 PWs)   bands (ev):

    -6.9634  -6.8418  -6.8412  -6.7387  -6.7279  -2.8884   3.1039   5.2355
     6.6304  10.0602  12.1340  12.4609  12.7433  15.2506  17.5575  18.1986
    19.4125  20.9027

          k = 0.3333 0.0000 0.3333 (  8724 PWs)   bands (ev):

    -6.9423  -6.8531  -6.8477  -6.7404  -6.7289  -3.2774   3.9476   5.6865
     6.8984   9.9386  11.7764  12.1375  12.5934  15.0757  16.7353  18.1941
    18.8099  21.0482

          k = 0.0000 0.5000 0.0000 (  8652 PWs)   bands (ev):

    -6.9700  -6.8311  -6.8311  -6.7567  -6.7197  -3.1782   4.0024   5.9659
     5.9659   9.8347  10.4048  13.6649  13.6649  14.2303  17.2920  19.3009
    20.5367  20.5367

          k =-0.0833 0.5833-0.0833 (  8688 PWs)   bands (ev):

    -6.9893  -6.8215  -6.8198  -6.7607  -6.7160  -2.8612   3.3383   5.6115
     5.7422   9.7985  10.4702  13.5944  14.0900  15.1363  17.5302  19.5282
    20.8334  21.4335

          k =-0.1667 0.6667-0.1667 (  8698 PWs)   bands (ev):

    -7.0019  -6.8186  -6.8124  -6.7596  -6.7144  -2.4828   2.6359   5.1342
     5.6306   9.8547  10.9473  13.3910  14.1508  16.2878  18.0309  19.2369
    20.2742  20.7908

          k = 0.7500-0.2500 0.7500 (  8677 PWs)   bands (ev):

    -7.0063  -6.8208  -6.8097  -6.7539  -6.7164  -2.1457   2.0896   4.6949
     5.6459   9.8799  11.6687  13.4839  13.9659  16.6816  18.0685  19.1996
    19.5486  20.3243

          k = 0.6667-0.1667 0.6667 (  8684 PWs)   bands (ev):

    -7.0029  -6.8255  -6.8115  -6.7457  -6.7227  -2.0120   1.8979   4.4044
     5.7857   9.9798  12.1034  13.6963  14.0147  15.9792  17.0685  19.2536
    20.1879  21.3161

          k = 0.5833-0.0833 0.5833 (  8684 PWs)   bands (ev):

    -6.9933  -6.8306  -6.8180  -6.7375  -6.7307  -2.1717   2.1389   4.3381
     6.0297  10.1523  12.2740  13.3765  13.7676  16.0523  16.2780  19.3822
    20.3986  21.6227

          k = 0.5000 0.0000 0.5000 (  8702 PWs)   bands (ev):

    -6.9795  -6.8356  -6.8289  -6.7367  -6.7311  -2.5155   2.6244   4.5919
     6.3355  10.2827  12.3723  12.8668  12.9516  15.4153  17.6176  19.1051
    19.4697  20.5301

          k = 0.0000 0.6667 0.0000 (  8668 PWs)   bands (ev):

    -7.0096  -6.8070  -6.8070  -6.7688  -6.7117  -2.6010   2.9183   5.4927
     5.4927   9.4119  10.1611  14.8506  14.8506  14.8994  17.6623  20.5732
    21.3779  21.3782

          k =-0.0833 0.7500-0.0833 (  8685 PWs)   bands (ev):

    -7.0223  -6.8008  -6.7983  -6.7712  -6.7094  -2.2792   2.4078   5.1477
     5.3554   9.4667  10.1482  14.6226  15.1957  16.1798  18.0143  19.9696
    20.5370  21.2052

          k = 0.8333-0.1667 0.8333 (  8689 PWs)   bands (ev):

    -7.0250  -6.8036  -6.7951  -6.7672  -6.7110  -1.9796   2.0042   4.6323
     5.3493   9.5912  10.7483  14.4451  15.0586  16.7597  18.1645  19.2414
    20.0888  21.1178

          k = 0.7500-0.0833 0.7500 (  8682 PWs)   bands (ev):

    -7.0187  -6.8117  -6.7974  -6.7592  -6.7169  -1.8293   1.8431   4.1980
     5.4749   9.7236  11.6844  14.4459  14.6658  15.8432  17.3339  19.8860
    20.9748  21.1454

          k = 0.6667-0.0000 0.6667 (  8676 PWs)   bands (ev):

    -7.0068  -6.8216  -6.8052  -6.7485  -6.7246  -1.9124   1.9430   4.0477
     5.7149   9.9415  12.3668  14.0941  14.3685  15.2105  16.5079  20.4403
    21.2633  21.4676

          k = 0.0000 0.8333 0.0000 (  8688 PWs)   bands (ev):

    -7.0367  -6.7889  -6.7889  -6.7782  -6.7058  -2.0370   2.0428   5.1879
     5.1879   9.1883   9.7666  15.9024  16.0512  16.0512  17.9983  19.9364
    19.9364  20.9300

          k = 0.9167-0.0833 0.9167 (  8700 PWs)   bands (ev):

    -7.0404  -6.7893  -6.7855  -6.7767  -6.7058  -1.8315   1.7802   4.9055
     5.1519   9.3106   9.8801  15.7092  16.1539  16.8042  18.2131  19.1751
    19.4745  21.2165

          k = 0.8333 0.0000 0.8333 (  8688 PWs)   bands (ev):

    -7.0332  -6.7981  -6.7883  -6.7700  -6.7102  -1.7518   1.7352   4.4570
     5.2520   9.4899  10.6575  15.3159  15.5679  16.2584  17.8086  19.4816
    20.1311  21.8262

          k = 0.0000-1.0000 0.0000 (  8680 PWs)   bands (ev):

    -7.0463  -6.7822  -6.7822  -6.7817  -6.7037  -1.7696   1.6698   5.0832
     5.0832   9.1320   9.5933  16.4227  16.7759  16.7759  18.1422  19.0856
    19.0856  20.6240

          k =-0.1667 0.3333 0.0000 (  8717 PWs)   bands (ev):

    -6.9286  -6.8570  -6.8532  -6.7433  -6.7284  -3.5492   4.7220   6.2641
     6.8148   9.8348  10.8971  12.4133  12.5954  14.9031  16.6146  17.8039
    18.7541  19.9167

          k =-0.2500 0.4167-0.0833 (  8701 PWs)   bands (ev):

    -6.9507  -6.8482  -6.8435  -6.7441  -6.7255  -3.2110   3.7828   5.8102
     6.6109   9.9992  11.2545  12.6298  12.8189  15.0958  16.9058  17.9027
    19.4954  21.2641

          k =-0.3333 0.5000-0.1667 (  8691 PWs)   bands (ev):

    -6.9708  -6.8416  -6.8356  -6.7413  -6.7234  -2.8000   2.8347   5.5304
     6.3623   9.9273  11.6663  12.6966  13.2045  15.6959  17.3795  17.8913
    19.8452  21.6271

          k = 0.5833-0.4167 0.7500 (  8679 PWs)   bands (ev):

    -6.9848  -6.8384  -6.8306  -6.7358  -6.7230  -2.4202   2.0987   5.3845
     6.1695   9.8421  11.7064  12.7547  13.9470  16.3615  17.4650  18.3146
    19.0345  20.9249

          k = 0.5000-0.3333 0.6667 (  8696 PWs)   bands (ev):

    -6.9898  -6.8376  -6.8289  -6.7323  -6.7239  -2.2533   1.8083   5.3405
     6.0971   9.8092  11.6809  12.7511  14.4533  16.5297  17.5354  18.2195
    18.9601  20.7710

          k =-0.1667 0.5000 0.0000 (  8699 PWs)   bands (ev):

    -6.9685  -6.8355  -6.8321  -6.7532  -6.7205  -3.0956   3.7328   5.6863
     6.1483  10.2523  10.5244  12.9239  13.5785  14.8987  17.2951  18.9868
    19.6081  21.2670

          k =-0.2500 0.5833-0.0833 (  8688 PWs)   bands (ev):

    -6.9850  -6.8305  -6.8222  -6.7533  -6.7184  -2.7200   2.9782   5.2400
     5.9319  10.2855  11.0124  12.7015  13.9329  15.6073  17.9413  18.8426
    19.9041  21.2658

          k = 0.6667-0.3333 0.8333 (  8675 PWs)   bands (ev):

    -6.9954  -6.8298  -6.8161  -6.7491  -6.7189  -2.3381   2.2949   4.9170
     5.7664  10.2544  11.5564  12.7991  14.0196  16.2715  18.4595  18.5182
    19.2782  20.9351

          k = 0.5833-0.2500 0.7500 (  8689 PWs)   bands (ev):

    -6.9986  -6.8312  -6.8144  -6.7431  -6.7223  -2.1004   1.9105   4.7044
     5.7464  10.2808  11.6827  13.1931  14.2786  15.9752  17.9926  18.6990
    19.2803  21.1641

          k = 0.5000-0.1667 0.6667 (  8692 PWs)   bands (ev):

    -6.9946  -6.8332  -6.8168  -6.7398  -6.7257  -2.1585   2.0063   4.6261
     5.8783  10.3674  11.7177  13.0908  14.2807  15.8744  17.2821  18.7520
    19.8622  21.5389

          k = 0.4167-0.0833 0.5833 (  8687 PWs)   bands (ev):

    -6.9843  -6.8358  -6.8234  -6.7425  -6.7251  -2.4693   2.5158   4.7374
     6.1218  10.4652  11.7782  12.5419  13.7795  15.6325  17.8199  18.8821
    19.3252  21.2198

          k = 0.3333 0.0000 0.5000 (  8699 PWs)   bands (ev):

    -6.9690  -6.8402  -6.8334  -6.7450  -6.7243  -2.8610   3.1810   5.1199
     6.4041  10.4248  11.4617  12.4006  13.3098  15.2002  17.8508  18.7886
    19.1632  20.7058

          k =-0.1667 0.6667 0.0000 (  8686 PWs)   bands (ev):

    -7.0053  -6.8143  -6.8085  -6.7641  -6.7133  -2.5376   2.7971   5.2304
     5.5387   9.8723  10.4279  13.5808  14.8381  15.6567  17.9889  19.8119
    20.5542  21.2573

          k = 0.7500-0.2500 0.9167 (  8681 PWs)   bands (ev):

    -7.0131  -6.8144  -6.8015  -6.7621  -6.7137  -2.1892   2.2784   4.7915
     5.3726  10.0529  10.8773  13.3697  15.0558  16.2792  18.5935  18.9474
    20.2804  20.8236

          k = 0.6667-0.1667 0.8333 (  8688 PWs)   bands (ev):

    -7.0128  -6.8190  -6.7996  -6.7560  -6.7178  -1.9346   1.9415   4.3897
     5.3732  10.1433  11.6845  13.3116  14.8459  16.0113  18.1943  19.0610
    20.3208  21.0167

          k = 0.5833-0.0833 0.7500 (  8682 PWs)   bands (ev):

    -7.0063  -6.8253  -6.8028  -6.7485  -6.7240  -1.9119   1.9239   4.1703
     5.5318  10.3053  12.1701  13.3092  14.7311  15.3124  17.1792  19.8929
    20.5689  21.6531

          k = 0.5000 0.0000 0.6667 (  8677 PWs)   bands (ev):

    -6.9963  -6.8310  -6.8111  -6.7433  -6.7274  -2.1327   2.1826   4.2576
     5.8049  10.5011  12.2411  12.6442  14.5071  15.5207  16.8129  19.9842
    20.4383  21.0986

          k = 0.8333-0.1667 1.0000 (  8701 PWs)   bands (ev):

    -7.0305  -6.7980  -6.7914  -6.7718  -6.7086  -2.0014   2.0308   4.9625
     5.1122   9.6329  10.1206  14.6301  15.9814  16.3853  18.4537  19.1639
    19.9628  21.5278

          k = 0.7500-0.0833 0.9167 (  8688 PWs)   bands (ev):

    -7.0286  -6.8039  -6.7898  -6.7668  -6.7119  -1.7987   1.8147   4.5340
     5.0802   9.8724  10.7238  14.4223  15.3909  16.6358  18.3375  19.0871
    19.9170  21.9319

          k = 0.6667-0.0000 0.8333 (  8674 PWs)   bands (ev):

    -7.0190  -6.8144  -6.7932  -6.7587  -6.7181  -1.7661   1.8146   4.1725
     5.2445  10.0621  11.6946  14.0997  14.5294  16.1146  17.5522  19.8580
    20.5925  21.7235

          k =-0.1667-1.0000-0.0000 (  8700 PWs)   bands (ev):

    -7.0394  -6.7915  -6.7866  -6.7735  -6.7071  -1.7523   1.7034   4.9147
     4.9208   9.5611   9.9813  15.6193  15.7542  17.0908  18.3644  19.0820
    19.2002  21.5335

          k = 0.6667-0.3333 1.0000 (  8695 PWs)   bands (ev):

    -6.9970  -6.8278  -6.8109  -6.7533  -6.7191  -2.3648   2.5039   4.7092
     5.6707  10.8316  11.0972  12.4062  14.7566  15.6317  18.3320  19.0015
    19.9903  20.9953

          k = 0.5833-0.2500 0.9167 (  8683 PWs)   bands (ev):

    -7.0037  -6.8279  -6.8035  -6.7504  -6.7217  -2.0468   2.0837   4.4138
     5.4209  10.9138  11.5673  12.5271  15.0085  15.6018  17.7740  19.4614
    20.2072  21.1639

          k = 0.5000-0.1667 0.8333 (  8690 PWs)   bands (ev):

    -7.0058  -6.8283  -6.8010  -6.7484  -6.7234  -1.9115   1.9055   4.3256
     5.3214  10.9242  11.6138  12.9919  14.7439  15.4383  18.3601  18.8110
    20.1515  21.7049

          k = 0.6667-0.1667 1.0000 (  8687 PWs)   bands (ev):

    -7.0168  -6.8166  -6.7940  -6.7600  -6.7163  -1.9138   1.9866   4.5276
     5.0228  10.7095  10.9669  13.1204  15.3017  16.2503  18.3016  19.3963
    19.9945  21.4069

          k = 0.5833-0.0833 0.9167 (  8692 PWs)   bands (ev):

    -7.0148  -6.8215  -6.7917  -6.7555  -6.7205  -1.7652   1.8495   4.3001
     4.9059  10.9288  11.6943  13.0152  14.2558  16.5967  18.5275  18.9468
    20.2026  21.5979

          k = 0.5000 0.0000 0.8333 (  8680 PWs)   bands (ev):

    -7.0099  -6.8257  -6.7947  -6.7518  -6.7232  -1.8213   1.9079   4.2063
     5.0831  11.0761  11.9509  12.6450  14.3254  16.2001  17.7782  19.8801
    20.2404  21.4562

          k =-0.3333-1.0000 0.0000 (  8690 PWs)   bands (ev):

    -7.0239  -6.8117  -6.7886  -6.7619  -6.7157  -1.7172   1.7763   4.6090
     4.6417  10.6230  10.9085  14.0701  14.3683  17.2809  18.4982  19.2225
    19.2954  22.1039

          k =-0.5000-1.0000 0.0000 (  8728 PWs)   bands (ev):

    -7.0150  -6.8230  -6.7891  -6.7548  -6.7218  -1.6993   1.8162   4.4664
     4.5183  11.6224  11.6248  12.8536  13.5448  17.3452  18.5324  19.2972
    19.3296  21.7964

     the Fermi energy is     7.6082 ev
     (compare with:     7.6100 eV, computed in scf)

     Writing all to output data dir out/mp-20351.save/
 
     init_run     :      0.11s CPU      0.22s WALL (       1 calls)
     electrons    :      5.62s CPU      8.56s WALL (       1 calls)

     Called by init_run:
     wfcinit      :      0.00s CPU      0.01s WALL (       1 calls)
     potinit      :      0.01s CPU      0.04s WALL (       1 calls)
     hinit0       :      0.04s CPU      0.10s WALL (       1 calls)

     Called by electrons:
     c_bands      :      5.62s CPU      8.56s WALL (       1 calls)
     v_of_rho     :      0.01s CPU      0.03s WALL (       1 calls)

     Called by c_bands:
     init_us_2    :      0.01s CPU      0.01s WALL (      72 calls)
     init_us_2:cp :      0.01s CPU      0.01s WALL (      72 calls)
     cegterg      :      5.25s CPU      5.37s WALL (     121 calls)

     Called by *egterg:
     cdiaghg      :      0.55s CPU      0.57s WALL (    1696 calls)
     h_psi        :      4.50s CPU      4.60s WALL (    1817 calls)
     g_psi        :      0.03s CPU      0.03s WALL (    1624 calls)

     Called by h_psi:
     h_psi:calbec :      0.10s CPU      0.10s WALL (    1817 calls)
     vloc_psi     :      4.33s CPU      4.42s WALL (    1817 calls)
     add_vuspsi   :      0.05s CPU      0.05s WALL (    1817 calls)

     General routines
     calbec       :      0.10s CPU      0.10s WALL (    1817 calls)
     fft          :      0.01s CPU      0.08s WALL (      10 calls)
     fftw         :      3.99s CPU      4.08s WALL (   42994 calls)
 
     Parallel routines
 
     PWSCF        :      6.30s CPU     16.60s WALL

 
   This run was terminated on:   9:52:15  11Apr2024            

=------------------------------------------------------------------------------=
   JOB DONE.
=------------------------------------------------------------------------------=
