
     Program PWSCF v.7.1 starts on  3Jan2024 at 14:38:29 

     This program is part of the open-source Quantum ESPRESSO suite
     for quantum simulation of materials; please cite
         "P. Giannozzi et al., J. Phys.:Condens. Matter 21 395502 (2009);
         "P. Giannozzi et al., J. Phys.:Condens. Matter 29 465901 (2017);
         "P. Giannozzi et al., J. Chem. Phys. 152 154105 (2020);
          URL http://www.quantum-espresso.org", 
     in publications or presentations arising from this work. More details at
     http://www.quantum-espresso.org/quote

     Parallel version (MPI), running on     8 processors

     MPI processes distributed on     1 nodes
     119420 MiB available memory on the printing compute node when the environment starts
 
     Reading input from pw_mp-23268_nscf_k3000_E130.in
Warning: card &IONS ignored
Warning: card / ignored
Warning: card &CELL ignored
Warning: card / ignored

     Current dimensions of program PWSCF are:
     Max number of different atomic species (ntypx) = 10
     Max number of k-points (npk) =  40000
     Max angular momentum in pseudopotentials (lmaxx) =  4

     Atomic positions and unit cell read from directory:
     out/mp-23268.save/
     Atomic positions from file used, from input discarded
 
 
     R & G space division:  proc/nbgrp/npool/nimage =       8
     Subspace diagonalization in iterative solution of the eigenvalue problem:
     a serial algorithm will be used

 
     Parallelization info
     --------------------
     sticks:   dense  smooth     PW     G-vecs:    dense   smooth      PW
     Min         331     331     93                11264    11264    1671
     Max         332     332     94                11267    11267    1673
     Sum        2653    2653    745                90129    90129   13371
 
     Using Slab Decomposition
 


     bravais-lattice index     =            2
     lattice parameter (alat)  =      12.1648  a.u.
     unit-cell volume          =     450.0393 (a.u.)^3
     number of atoms/cell      =            2
     number of atomic types    =            2
     number of electrons       =        26.00
     number of Kohn-Sham states=           26
     kinetic-energy cutoff     =     130.0000  Ry
     charge density cutoff     =     520.0000  Ry
     Exchange-correlation= PBE
                           (   1   4   3   4   0   0   0)

     celldm(1)=  12.164758  celldm(2)=   0.000000  celldm(3)=   0.000000
     celldm(4)=   0.000000  celldm(5)=   0.000000  celldm(6)=   0.000000

     crystal axes: (cart. coord. in units of alat)
               a(1) = (  -0.500000   0.000000   0.500000 )  
               a(2) = (   0.000000   0.500000   0.500000 )  
               a(3) = (  -0.500000   0.500000   0.000000 )  

     reciprocal axes: (cart. coord. in units 2 pi/alat)
               b(1) = ( -1.000000 -1.000000  1.000000 )  
               b(2) = (  1.000000  1.000000  1.000000 )  
               b(3) = ( -1.000000  1.000000 -1.000000 )  


     PseudoPot. # 1 for I  read from file:
     /usr/scratch4/magr4985/MG/devEb/pseudo/SG15/I.upf
     MD5 check sum: 2bc24df9af9f874725967c58cc477d99
     Pseudo is Norm-conserving, Zval = 17.0
     Generated using ONCVPSP code by D. R. Hamann
     Using radial grid of  602 points,  6 beta functions with: 
                l(1) =   0
                l(2) =   0
                l(3) =   1
                l(4) =   1
                l(5) =   2
                l(6) =   2

     PseudoPot. # 2 for Na read from file:
     /usr/scratch4/magr4985/MG/devEb/pseudo/SG15/Na.upf
     MD5 check sum: b5675fcfec0094e74c3198b687cdd8c0
     Pseudo is Norm-conserving, Zval =  9.0
     Generated using ONCVPSP code by D. R. Hamann
     Using radial grid of  602 points,  4 beta functions with: 
                l(1) =   0
                l(2) =   0
                l(3) =   1
                l(4) =   1

     atomic species   valence    mass     pseudopotential
        I             17.00   126.90450     I ( 1.00)
        Na             9.00    22.98980     Na( 1.00)

     48 Sym. Ops., with inversion, found



   Cartesian axes

     site n.     atom                  positions (alat units)
         1           Na  tau(   1) = (   0.0000000   0.0000000   0.0000000  )
         2           I   tau(   2) = (  -0.5000000   0.5000000   0.5000000  )

     number of k points=    72  Gaussian smearing, width (Ry)=  0.0005
                       cart. coord. in units 2pi/alat
        k(    1) = (   0.0000000   0.0000000   0.0000000), wk =   0.0011574
        k(    2) = (  -0.0833333   0.0833333  -0.0833333), wk =   0.0092593
        k(    3) = (  -0.1666667   0.1666667  -0.1666667), wk =   0.0092593
        k(    4) = (  -0.2500000   0.2500000  -0.2500000), wk =   0.0092593
        k(    5) = (  -0.3333333   0.3333333  -0.3333333), wk =   0.0092593
        k(    6) = (  -0.4166667   0.4166667  -0.4166667), wk =   0.0092593
        k(    7) = (   0.5000000  -0.5000000   0.5000000), wk =   0.0046296
        k(    8) = (   0.0000000   0.1666667   0.0000000), wk =   0.0069444
        k(    9) = (  -0.0833333   0.2500000  -0.0833333), wk =   0.0277778
        k(   10) = (  -0.1666667   0.3333333  -0.1666667), wk =   0.0277778
        k(   11) = (  -0.2500000   0.4166667  -0.2500000), wk =   0.0277778
        k(   12) = (  -0.3333333   0.5000000  -0.3333333), wk =   0.0277778
        k(   13) = (   0.5833333  -0.4166667   0.5833333), wk =   0.0277778
        k(   14) = (   0.5000000  -0.3333333   0.5000000), wk =   0.0277778
        k(   15) = (   0.4166667  -0.2500000   0.4166667), wk =   0.0277778
        k(   16) = (   0.3333333  -0.1666667   0.3333333), wk =   0.0277778
        k(   17) = (   0.2500000  -0.0833333   0.2500000), wk =   0.0277778
        k(   18) = (   0.1666667  -0.0000000   0.1666667), wk =   0.0138889
        k(   19) = (   0.0000000   0.3333333   0.0000000), wk =   0.0069444
        k(   20) = (  -0.0833333   0.4166667  -0.0833333), wk =   0.0277778
        k(   21) = (  -0.1666667   0.5000000  -0.1666667), wk =   0.0277778
        k(   22) = (  -0.2500000   0.5833333  -0.2500000), wk =   0.0277778
        k(   23) = (   0.6666667  -0.3333333   0.6666667), wk =   0.0277778
        k(   24) = (   0.5833333  -0.2500000   0.5833333), wk =   0.0277778
        k(   25) = (   0.5000000  -0.1666667   0.5000000), wk =   0.0277778
        k(   26) = (   0.4166667  -0.0833333   0.4166667), wk =   0.0277778
        k(   27) = (   0.3333333   0.0000000   0.3333333), wk =   0.0138889
        k(   28) = (   0.0000000   0.5000000   0.0000000), wk =   0.0069444
        k(   29) = (  -0.0833333   0.5833333  -0.0833333), wk =   0.0277778
        k(   30) = (  -0.1666667   0.6666667  -0.1666667), wk =   0.0277778
        k(   31) = (   0.7500000  -0.2500000   0.7500000), wk =   0.0277778
        k(   32) = (   0.6666667  -0.1666667   0.6666667), wk =   0.0277778
        k(   33) = (   0.5833333  -0.0833333   0.5833333), wk =   0.0277778
        k(   34) = (   0.5000000   0.0000000   0.5000000), wk =   0.0138889
        k(   35) = (   0.0000000   0.6666667   0.0000000), wk =   0.0069444
        k(   36) = (  -0.0833333   0.7500000  -0.0833333), wk =   0.0277778
        k(   37) = (   0.8333333  -0.1666667   0.8333333), wk =   0.0277778
        k(   38) = (   0.7500000  -0.0833333   0.7500000), wk =   0.0277778
        k(   39) = (   0.6666667  -0.0000000   0.6666667), wk =   0.0138889
        k(   40) = (   0.0000000   0.8333333   0.0000000), wk =   0.0069444
        k(   41) = (   0.9166667  -0.0833333   0.9166667), wk =   0.0277778
        k(   42) = (   0.8333333   0.0000000   0.8333333), wk =   0.0138889
        k(   43) = (   0.0000000  -1.0000000   0.0000000), wk =   0.0034722
        k(   44) = (  -0.1666667   0.3333333   0.0000000), wk =   0.0277778
        k(   45) = (  -0.2500000   0.4166667  -0.0833333), wk =   0.0555556
        k(   46) = (  -0.3333333   0.5000000  -0.1666667), wk =   0.0555556
        k(   47) = (   0.5833333  -0.4166667   0.7500000), wk =   0.0555556
        k(   48) = (   0.5000000  -0.3333333   0.6666667), wk =   0.0277778
        k(   49) = (  -0.1666667   0.5000000   0.0000000), wk =   0.0277778
        k(   50) = (  -0.2500000   0.5833333  -0.0833333), wk =   0.0555556
        k(   51) = (   0.6666667  -0.3333333   0.8333333), wk =   0.0555556
        k(   52) = (   0.5833333  -0.2500000   0.7500000), wk =   0.0555556
        k(   53) = (   0.5000000  -0.1666667   0.6666667), wk =   0.0555556
        k(   54) = (   0.4166667  -0.0833333   0.5833333), wk =   0.0555556
        k(   55) = (   0.3333333   0.0000000   0.5000000), wk =   0.0277778
        k(   56) = (  -0.1666667   0.6666667  -0.0000000), wk =   0.0277778
        k(   57) = (   0.7500000  -0.2500000   0.9166667), wk =   0.0555556
        k(   58) = (   0.6666667  -0.1666667   0.8333333), wk =   0.0555556
        k(   59) = (   0.5833333  -0.0833333   0.7500000), wk =   0.0555556
        k(   60) = (   0.5000000   0.0000000   0.6666667), wk =   0.0277778
        k(   61) = (   0.8333333  -0.1666667   1.0000000), wk =   0.0277778
        k(   62) = (   0.7500000  -0.0833333   0.9166667), wk =   0.0555556
        k(   63) = (   0.6666667   0.0000000   0.8333333), wk =   0.0277778
        k(   64) = (  -0.1666667  -1.0000000  -0.0000000), wk =   0.0138889
        k(   65) = (   0.6666667  -0.3333333   1.0000000), wk =   0.0277778
        k(   66) = (   0.5833333  -0.2500000   0.9166667), wk =   0.0555556
        k(   67) = (   0.5000000  -0.1666667   0.8333333), wk =   0.0277778
        k(   68) = (   0.6666667  -0.1666667   1.0000000), wk =   0.0277778
        k(   69) = (   0.5833333  -0.0833333   0.9166667), wk =   0.0555556
        k(   70) = (   0.5000000   0.0000000   0.8333333), wk =   0.0277778
        k(   71) = (  -0.3333333  -1.0000000   0.0000000), wk =   0.0138889
        k(   72) = (  -0.5000000  -1.0000000   0.0000000), wk =   0.0069444

     Dense  grid:    90129 G-vectors     FFT dimensions: (  64,  64,  64)

     Estimated max dynamical RAM per process >      51.47 MB

     Estimated total dynamical RAM >     411.76 MB

     The potential is recalculated from file :
     out/mp-23268.save/charge-density

     Starting wfcs are random

     Band Structure Calculation
     Davidson diagonalization with overlap

     ethr =  5.00E-06,  avg # of iterations = 18.9

     total cpu time spent up to now is       24.2 secs

     End of band structure calculation

          k = 0.0000 0.0000 0.0000 ( 11191 PWs)   bands (ev):

   -46.5494 -39.1363 -39.1363 -39.1300 -39.1300 -39.1300 -18.4706 -18.4706
   -18.4706  -7.0841   3.9843   3.9843   3.9843   7.6662  11.9513  11.9513
    11.9513  13.8434  13.8434  14.5106  15.6650  15.6650  15.6650  20.3379
    26.6052  26.6054

          k =-0.0833 0.0833-0.0833 ( 11245 PWs)   bands (ev):

   -46.5494 -39.1363 -39.1363 -39.1300 -39.1300 -39.1300 -18.4709 -18.4706
   -18.4706  -7.0637   3.7535   3.9631   3.9631   7.9259  11.7442  12.0330
    12.0330  13.5806  13.5806  14.9031  15.5739  16.1352  16.1352  20.6457
    25.1477  25.1477

          k =-0.1667 0.1667-0.1667 ( 11272 PWs)   bands (ev):

   -46.5494 -39.1362 -39.1362 -39.1300 -39.1300 -39.1300 -18.4720 -18.4706
   -18.4706  -7.0070   3.2316   3.9068   3.9068   8.4867  11.4665  12.1490
    12.1490  13.3144  13.3144  14.9296  16.2775  17.1430  17.1430  21.3572
    23.2424  23.2424

          k =-0.2500 0.2500-0.2500 ( 11290 PWs)   bands (ev):

   -46.5494 -39.1362 -39.1362 -39.1300 -39.1300 -39.1300 -18.4734 -18.4707
   -18.4707  -6.9269   2.6598   3.8329   3.8329   8.9518  11.5421  11.9956
    11.9956  13.6188  13.6188  14.5365  17.7404  18.3885  18.3885  21.1554
    21.4031  21.4031

          k =-0.3333 0.3333-0.3333 ( 11261 PWs)   bands (ev):

   -46.5494 -39.1362 -39.1362 -39.1300 -39.1299 -39.1299 -18.4749 -18.4708
   -18.4708  -6.8434   2.1765   3.7623   3.7623   9.1081  11.7247  11.7247
    12.0712  14.2523  14.3860  14.3860  19.3904  19.5808  19.5808  19.8043
    19.8922  19.8922

          k =-0.4167 0.4167-0.4167 ( 11261 PWs)   bands (ev):

   -46.5494 -39.1362 -39.1362 -39.1300 -39.1299 -39.1299 -18.4759 -18.4708
   -18.4708  -6.7799   1.8579   3.7125   3.7125   9.1003  11.5302  11.5302
    12.6509  14.2525  15.4149  15.4149  18.1011  18.1011  18.3772  21.2651
    21.2651  21.4683

          k = 0.5000-0.5000 0.5000 ( 11276 PWs)   bands (ev):

   -46.5494 -39.1362 -39.1362 -39.1300 -39.1299 -39.1299 -18.4763 -18.4709
   -18.4709  -6.7561   1.7469   3.6946   3.6946   9.0835  11.4622  11.4622
    12.8520  14.4041  16.4652  16.4652  16.8761  16.8761  17.7932  22.2304
    22.2305  23.4267

          k = 0.0000 0.1667 0.0000 ( 11230 PWs)   bands (ev):

   -46.5494 -39.1363 -39.1362 -39.1300 -39.1300 -39.1300 -18.4709 -18.4707
   -18.4707  -7.0570   3.7449   3.9233   3.9233   8.0134  11.5863  12.1192
    12.1192  13.1291  13.9256  15.0696  15.8272  15.8272  16.3220  20.7626
    24.7903  24.7903

          k =-0.0833 0.2500-0.0833 ( 11266 PWs)   bands (ev):

   -46.5494 -39.1363 -39.1362 -39.1300 -39.1300 -39.1300 -18.4717 -18.4708
   -18.4707  -7.0127   3.3544   3.8521   3.8807   8.4803  11.2905  12.1983
    12.2958  12.7579  13.8505  15.4264  16.1188  16.4137  17.2023  21.3680
    23.1869  23.3487

          k =-0.1667 0.3333-0.1667 ( 11293 PWs)   bands (ev):

   -46.5494 -39.1363 -39.1362 -39.1300 -39.1300 -39.1300 -18.4729 -18.4709
   -18.4707  -6.9407   2.8250   3.7711   3.8131   9.0057  11.2164  11.8378
    12.2779  13.1257  14.0179  15.0888  17.3573  17.4873  18.4430  21.1645
    21.3520  22.6972

          k =-0.2500 0.4167-0.2500 ( 11290 PWs)   bands (ev):

   -46.5494 -39.1363 -39.1362 -39.1300 -39.1299 -39.1299 -18.4743 -18.4710
   -18.4708  -6.8585   2.3343   3.7022   3.7234   9.2706  11.4456  11.6359
    12.0289  13.8325  14.6879  14.7812  18.7736  18.9035  19.5715  19.6277
    19.9345  21.6192

          k =-0.3333 0.5000-0.3333 ( 11290 PWs)   bands (ev):

   -46.5494 -39.1362 -39.1362 -39.1300 -39.1299 -39.1299 -18.4755 -18.4710
   -18.4710  -6.7882   1.9753   3.6367   3.6617   9.3021  11.2156  11.7744
    12.3455  14.3541  15.0012  15.6688  18.0084  18.1127  20.0377  20.2354
    20.7349  21.4285

          k = 0.5833-0.4167 0.5833 ( 11267 PWs)   bands (ev):

   -46.5494 -39.1362 -39.1362 -39.1300 -39.1299 -39.1299 -18.4761 -18.4711
   -18.4710  -6.7510   1.8018   3.5749   3.6584   9.2881  11.1260  11.6168
    12.8829  14.5176  15.7832  16.4357  17.0102  17.2100  18.7441  21.6654
    22.0289  22.9062

          k = 0.5000-0.3333 0.5000 ( 11261 PWs)   bands (ev):

   -46.5494 -39.1362 -39.1362 -39.1300 -39.1299 -39.1299 -18.4760 -18.4712
   -18.4709  -6.7588   1.8379   3.5524   3.6928   9.3013  11.1910  11.5885
    12.7868  14.5766  15.2568  16.4223  16.7467  18.3076  18.6813  20.9594
    22.1829  22.3526

          k = 0.4167-0.2500 0.4167 ( 11275 PWs)   bands (ev):

   -46.5494 -39.1362 -39.1362 -39.1300 -39.1299 -39.1299 -18.4752 -18.4712
   -18.4707  -6.8090   2.0780   3.5750   3.7573   9.3251  11.4015  11.6994
    12.1545  14.1862  14.6271  15.5333  17.8602  19.4443  19.8408  19.9073
    20.4287  20.9714

          k = 0.3333-0.1667 0.3333 ( 11297 PWs)   bands (ev):

   -46.5494 -39.1363 -39.1362 -39.1300 -39.1300 -39.1299 -18.4739 -18.4711
   -18.4706  -6.8859   2.4864   3.6404   3.8371   9.2373  11.5045  11.7256
    11.9428  13.3336  14.5802  14.8917  17.9218  18.6802  19.4891  19.5211
    21.4324  21.5507

          k = 0.2500-0.0833 0.2500 ( 11278 PWs)   bands (ev):

   -46.5494 -39.1363 -39.1362 -39.1300 -39.1300 -39.1300 -18.4725 -18.4710
   -18.4706  -6.9670   2.9936   3.7388   3.9114   8.8484  11.2875  12.0620
    12.2289  12.8102  13.8910  15.2740  16.6304  17.2116  18.1931  21.1154
    22.1736  23.3489

          k = 0.1667-0.0000 0.1667 ( 11265 PWs)   bands (ev):

   -46.5494 -39.1363 -39.1362 -39.1300 -39.1300 -39.1300 -18.4714 -18.4708
   -18.4705  -7.0313   3.4767   3.8579   3.9586   8.2888  11.4837  12.1394
    12.1704  13.0349  13.6536  15.3623  15.8549  16.1449  17.0304  21.0981
    23.2735  24.7781

          k = 0.0000 0.3333 0.0000 ( 11294 PWs)   bands (ev):

   -46.5494 -39.1363 -39.1362 -39.1301 -39.1300 -39.1300 -18.4718 -18.4710
   -18.4710  -6.9828   3.2385   3.7655   3.7655   8.7789  10.9322  12.0862
    12.5875  12.5875  14.1680  16.3049  16.3204  16.3204  17.3346  21.8527
    22.8610  22.8611

          k =-0.0833 0.4167-0.0833 ( 11286 PWs)   bands (ev):

   -46.5494 -39.1363 -39.1362 -39.1301 -39.1299 -39.1299 -18.4726 -18.4712
   -18.4711  -6.9241   2.8794   3.6728   3.6772   9.2068  10.7073  11.6304
    12.7607  13.0587  14.3683  16.1475  16.9923  17.3974  18.2838  21.2462
    21.3707  22.8049

          k =-0.1667 0.5000-0.1667 ( 11283 PWs)   bands (ev):

   -46.5494 -39.1363 -39.1362 -39.1300 -39.1299 -39.1299 -18.4738 -18.4713
   -18.4712  -6.8506   2.4733   3.5595   3.5982   9.5191  10.8094  11.2993
    12.5935  13.7666  14.9777  15.8673  18.0836  18.7291  19.4623  19.6541
    19.8432  23.3714

          k =-0.2500 0.5833-0.2500 ( 11273 PWs)   bands (ev):

   -46.5494 -39.1363 -39.1362 -39.1300 -39.1299 -39.1299 -18.4749 -18.4714
   -18.4713  -6.7815   2.1422   3.4198   3.5589   9.6106  10.8491  11.5983
    12.3035  14.4756  15.7969  15.9327  18.0529  18.0850  19.3879  20.3055
    21.2676  21.9947

          k = 0.6667-0.3333 0.6667 ( 11251 PWs)   bands (ev):

   -46.5494 -39.1362 -39.1362 -39.1300 -39.1299 -39.1299 -18.4755 -18.4716
   -18.4712  -6.7368   1.9502   3.2957   3.5632   9.6600  10.7204  12.0631
    12.3389  14.7766  15.9192  16.4442  17.2816  17.3962  20.4481  20.7814
    21.5978  22.4345

          k = 0.5833-0.2500 0.5833 ( 11263 PWs)   bands (ev):

   -46.5494 -39.1362 -39.1362 -39.1300 -39.1299 -39.1299 -18.4756 -18.4718
   -18.4711  -6.7303   1.9285   3.2208   3.6099   9.7493  10.7097  11.9303
    12.6363  15.0478  15.2383  15.7068  17.7676  18.5793  19.4665  20.5650
    22.0497  23.2906

          k = 0.5000-0.1667 0.5000 ( 11274 PWs)   bands (ev):

   -46.5494 -39.1362 -39.1362 -39.1300 -39.1299 -39.1299 -18.4751 -18.4719
   -18.4709  -6.7641   2.0752   3.2195   3.6891   9.8467  10.8654  11.9260
    12.0710  14.1558  15.5742  16.1280  17.1360  19.0441  20.1046  20.2035
    21.5477  22.0988

          k = 0.4167-0.0833 0.4167 ( 11278 PWs)   bands (ev):

   -46.5494 -39.1362 -39.1362 -39.1300 -39.1299 -39.1299 -18.4742 -18.4718
   -18.4707  -6.8276   2.3522   3.3087   3.7823   9.8122  11.1942  11.3737
    12.0562  13.2899  15.7717  15.8880  17.4384  17.8959  19.7916  20.7996
    21.6520  21.7746

          k = 0.3333 0.0000 0.3333 ( 11297 PWs)   bands (ev):

   -46.5494 -39.1363 -39.1362 -39.1300 -39.1300 -39.1299 -18.4733 -18.4715
   -18.4706  -6.9018   2.6854   3.4952   3.8647   9.4118  11.1337  11.6500
    12.2914  12.7018  14.7424  16.1138  16.4313  18.3016  19.4057  19.4357
    22.9017  22.9729

          k = 0.0000 0.5000 0.0000 ( 11266 PWs)   bands (ev):

   -46.5494 -39.1363 -39.1362 -39.1301 -39.1299 -39.1299 -18.4729 -18.4715
   -18.4715  -6.8809   2.7316   3.5675   3.5675   9.3190  10.3372  11.6263
    13.2741  13.2741  14.5551  17.1513  17.1513  17.8661  18.3738  21.1219
    21.1219  21.7849

          k =-0.0833 0.5833-0.0833 ( 11274 PWs)   bands (ev):

   -46.5494 -39.1363 -39.1362 -39.1301 -39.1299 -39.1299 -18.4736 -18.4716
   -18.4716  -6.8215   2.4766   3.4436   3.4827   9.3685  10.2098  11.6784
    13.3602  13.8397  15.0634  17.1814  17.8870  18.9646  19.3466  19.7428
    19.7752  21.7149

          k =-0.1667 0.6667-0.1667 ( 11264 PWs)   bands (ev):

   -46.5494 -39.1363 -39.1362 -39.1300 -39.1299 -39.1299 -18.4744 -18.4719
   -18.4717  -6.7612   2.2509   3.2516   3.4375   9.4076  10.3995  11.7066
    13.0754  14.5735  16.0344  17.0870  18.1560  18.1991  18.9614  20.2011
    20.9038  22.0242

          k = 0.7500-0.2500 0.7500 ( 11257 PWs)   bands (ev):

   -46.5493 -39.1363 -39.1362 -39.1300 -39.1299 -39.1298 -18.4749 -18.4723
   -18.4716  -6.7169   2.1225   3.0325   3.4409   9.4841  10.7251  11.8978
    12.7550  14.8358  16.5556  17.0107  17.4775  17.6091  20.1257  20.9021
    21.8007  22.4972

          k = 0.6667-0.1667 0.6667 ( 11235 PWs)   bands (ev):

   -46.5493 -39.1362 -39.1362 -39.1300 -39.1299 -39.1299 -18.4750 -18.4727
   -18.4714  -6.7017   2.1103   2.8613   3.4924   9.6649  10.8911  12.2495
    12.4988  14.4590  15.3952  16.8115  18.4434  18.7751  20.0453  20.7547
    21.2330  23.0737

          k = 0.5833-0.0833 0.5833 ( 11257 PWs)   bands (ev):

   -46.5493 -39.1362 -39.1362 -39.1299 -39.1299 -39.1299 -18.4747 -18.4728
   -18.4711  -6.7203   2.1801   2.8229   3.5813   9.9603  10.9401  11.9698
    12.3225  14.3665  14.8155  16.9056  18.5127  18.7058  20.3108  20.3865
    21.9168  22.6848

          k = 0.5000 0.0000 0.5000 ( 11274 PWs)   bands (ev):

   -46.5494 -39.1362 -39.1362 -39.1299 -39.1299 -39.1299 -18.4745 -18.4725
   -18.4709  -6.7668   2.2614   2.9886   3.6873  10.2259  10.9079  11.4060
    12.1956  13.6302  15.9450  16.9823  17.2983  17.4905  20.9586  21.7421
    21.8712  22.0399

          k = 0.0000 0.6667 0.0000 ( 11250 PWs)   bands (ev):

   -46.5494 -39.1363 -39.1362 -39.1301 -39.1299 -39.1299 -18.4739 -18.4719
   -18.4719  -6.7784   2.3420   3.3862   3.3862   9.0675   9.8901  12.2994
    14.0925  14.0925  15.0458  18.2343  18.2343  19.4498  19.6596  19.6903
    19.6903  20.1729

          k =-0.0833 0.7500-0.0833 ( 11267 PWs)   bands (ev):

   -46.5494 -39.1363 -39.1362 -39.1301 -39.1298 -39.1298 -18.4744 -18.4722
   -18.4720  -6.7325   2.2061   3.2475   3.3304   8.9587   9.8606  12.6074
    14.0313  14.6745  15.8164  18.0764  18.2511  18.7403  19.2669  19.7763
    20.6208  21.0854

          k = 0.8333-0.1667 0.8333 ( 11254 PWs)   bands (ev):

   -46.5493 -39.1363 -39.1362 -39.1301 -39.1298 -39.1298 -18.4746 -18.4726
   -18.4720  -6.6965   2.1630   2.9903   3.3264   9.0400  10.1617  12.6445
    13.6289  14.9209  16.7273  17.3469  17.5694  18.6279  19.8139  19.9704
    21.7222  21.7783

          k = 0.7500-0.0833 0.7500 ( 11238 PWs)   bands (ev):

   -46.5493 -39.1363 -39.1362 -39.1300 -39.1298 -39.1298 -18.4744 -18.4733
   -18.4718  -6.6806   2.2501   2.6814   3.3751   9.2476  10.7040  12.5767
    13.2042  14.2862  15.7734  17.9361  18.5157  19.0542  19.4497  20.6388
    20.9971  22.6279

          k = 0.6667-0.0000 0.6667 ( 11250 PWs)   bands (ev):

   -46.5493 -39.1362 -39.1362 -39.1300 -39.1299 -39.1298 -18.4742 -18.4736
   -18.4715  -6.6895   2.3758   2.4959   3.4668   9.5719  11.1584  12.2178
    12.7715  14.0614  14.9001  18.0727  18.5635  19.8119  19.8302  19.9953
    21.0584  22.5595

          k = 0.0000 0.8333 0.0000 ( 11238 PWs)   bands (ev):

   -46.5493 -39.1363 -39.1361 -39.1301 -39.1298 -39.1298 -18.4746 -18.4722
   -18.4722  -6.7031   2.1065   3.2623   3.2623   8.6560   9.6163  13.3745
    14.9392  14.9392  15.5310  18.0746  18.0746  18.5329  19.9684  20.1084
    20.1084  20.7741

          k = 0.9167-0.0833 0.9167 ( 11252 PWs)   bands (ev):

   -46.5493 -39.1363 -39.1361 -39.1301 -39.1298 -39.1298 -18.4747 -18.4725
   -18.4723  -6.6812   2.0756   3.1359   3.2469   8.6542   9.6832  13.5778
    14.6013  15.1437  16.4461  17.3259  17.5973  18.4496  19.8737  20.2630
    21.2025  21.7706

          k = 0.8333 0.0000 0.8333 ( 11246 PWs)   bands (ev):

   -46.5493 -39.1363 -39.1362 -39.1301 -39.1298 -39.1298 -18.4745 -18.4730
   -18.4721  -6.6730   2.1512   2.8814   3.2870   8.8885  10.0827  13.3068
    13.9356  14.5885  16.4176  17.6235  18.1519  18.6190  20.0526  20.2528
    20.9547  22.4012

          k = 0.0000-1.0000 0.0000 ( 11278 PWs)   bands (ev):

   -46.5493 -39.1363 -39.1361 -39.1301 -39.1298 -39.1298 -18.4749 -18.4724
   -18.4724  -6.6755   2.0288   3.2186   3.2186   8.4930   9.5243  13.9658
    15.4304  15.4304  15.7603  17.4931  17.4931  17.8098  19.5528  21.5742
    21.6812  21.6813

          k =-0.1667 0.3333 0.0000 ( 11263 PWs)   bands (ev):

   -46.5494 -39.1363 -39.1362 -39.1300 -39.1300 -39.1300 -18.4724 -18.4711
   -18.4707  -6.9610   3.0318   3.6893   3.8483   8.9512  11.0326  11.9025
    12.5575  12.6738  14.1065  15.9716  16.2228  17.1199  18.1199  21.1609
    22.3312  22.9296

          k =-0.2500 0.4167-0.0833 ( 11281 PWs)   bands (ev):

   -46.5494 -39.1363 -39.1362 -39.1300 -39.1299 -39.1299 -18.4735 -18.4714
   -18.4708  -6.8882   2.6159   3.5348   3.7852   9.4347  11.0294  11.4437
    12.4173  13.1289  14.7690  15.7179  17.2039  18.4333  19.3404  19.5228
    21.4515  23.2030

          k =-0.3333 0.5000-0.1667 ( 11284 PWs)   bands (ev):

   -46.5494 -39.1363 -39.1362 -39.1300 -39.1299 -39.1299 -18.4746 -18.4715
   -18.4709  -6.8127   2.2320   3.4260   3.7014   9.6370  11.0519  11.5357
    12.1445  13.8801  15.4271  15.7287  17.7945  18.5992  19.8131  20.0232
    20.8653  21.8195

          k = 0.5833-0.4167 0.7500 ( 11273 PWs)   bands (ev):

   -46.5494 -39.1362 -39.1362 -39.1300 -39.1299 -39.1299 -18.4755 -18.4716
   -18.4710  -6.7556   1.9683   3.3645   3.6307   9.6496  10.8125  11.9204
    12.3289  14.6302  15.3817  16.3983  16.9130  18.4413  20.0259  20.2897
    21.7289  22.1824

          k = 0.5000-0.3333 0.6667 ( 11254 PWs)   bands (ev):

   -46.5494 -39.1362 -39.1362 -39.1300 -39.1299 -39.1299 -18.4758 -18.4716
   -18.4711  -6.7342   1.8749   3.3454   3.6030   9.6411  10.7282  11.8629
    12.7534  15.0173  15.2092  16.3595  16.9541  18.2098  19.3056  21.3249
    21.6859  23.4928

          k =-0.1667 0.5000 0.0000 ( 11279 PWs)   bands (ev):

   -46.5494 -39.1363 -39.1362 -39.1301 -39.1299 -39.1299 -18.4733 -18.4716
   -18.4712  -6.8649   2.6153   3.4792   3.6351   9.5136  10.5257  11.3760
    13.0641  13.2685  14.9178  16.8280  16.9274  18.5491  19.1535  19.5905
    21.1944  22.0937

          k =-0.2500 0.5833-0.0833 ( 11267 PWs)   bands (ev):

   -46.5494 -39.1363 -39.1362 -39.1300 -39.1299 -39.1299 -18.4742 -18.4719
   -18.4713  -6.7982   2.3420   3.3026   3.5569   9.7215  10.6385  11.2031
    12.8753  13.9226  15.8629  16.6290  17.8417  18.0591  19.7890  19.9842
    20.5926  22.0190

          k = 0.6667-0.3333 0.8333 ( 11278 PWs)   bands (ev):

   -46.5494 -39.1363 -39.1362 -39.1300 -39.1299 -39.1299 -18.4749 -18.4721
   -18.4714  -6.7419   2.1342   3.1526   3.4913   9.7986  10.6882  11.5291
    12.6279  14.6087  16.3670  16.5885  17.1099  18.4897  19.3121  21.3752
    21.4898  22.3598

          k = 0.5833-0.2500 0.7500 ( 11256 PWs)   bands (ev):

   -46.5493 -39.1362 -39.1362 -39.1300 -39.1299 -39.1299 -18.4752 -18.4722
   -18.4714  -6.7127   2.0389   3.0410   3.4813   9.9116  10.5562  12.1493
    12.4402  14.6412  15.7469  16.8198  17.1528  18.7544  20.3572  20.7874
    21.2689  22.8975

          k = 0.5000-0.1667 0.6667 ( 11257 PWs)   bands (ev):

   -46.5493 -39.1362 -39.1362 -39.1299 -39.1299 -39.1299 -18.4751 -18.4724
   -18.4712  -6.7195   2.0713   2.9998   3.5310  10.1104  10.4780  12.1106
    12.3634  14.6192  15.2779  16.4388  17.9776  19.1462  19.6511  20.4860
    21.8731  22.7738

          k = 0.4167-0.0833 0.5833 ( 11262 PWs)   bands (ev):

   -46.5494 -39.1362 -39.1362 -39.1300 -39.1299 -39.1299 -18.4746 -18.4723
   -18.4710  -6.7601   2.2096   3.0654   3.6204  10.2443  10.5966  11.4189
    12.4191  13.9700  16.0605  16.5452  17.2687  18.2196  20.0826  21.2715
    21.7483  22.1191

          k = 0.3333 0.0000 0.5000 ( 11283 PWs)   bands (ev):

   -46.5494 -39.1363 -39.1362 -39.1300 -39.1299 -39.1299 -18.4740 -18.4720
   -18.4708  -6.8223   2.4044   3.2568   3.7175   9.9833  10.9844  10.9858
    12.4966  13.3112  15.8640  16.6914  16.9228  17.8245  19.7515  20.6740
    21.4063  22.2232

          k =-0.1667 0.6667-0.0000 ( 11268 PWs)   bands (ev):

   -46.5494 -39.1363 -39.1362 -39.1301 -39.1299 -39.1299 -18.4741 -18.4721
   -18.4717  -6.7689   2.3120   3.2877   3.4069   9.3077  10.1227  11.8777
    13.6605  14.1214  15.8038  17.9450  17.9518  18.1174  19.6417  20.2093
    20.3530  20.5848

          k = 0.7500-0.2500 0.9167 ( 11261 PWs)   bands (ev):

   -46.5493 -39.1363 -39.1362 -39.1300 -39.1299 -39.1298 -18.4745 -18.4724
   -18.4718  -6.7212   2.2076   3.0787   3.3393   9.3687  10.3442  11.8826
    13.4480  14.7247  16.6839  16.9353  17.9401  18.5033  19.1190  20.3815
    21.2634  22.0430

          k = 0.6667-0.1667 0.8333 ( 11256 PWs)   bands (ev):

   -46.5493 -39.1363 -39.1362 -39.1300 -39.1299 -39.1298 -18.4746 -18.4729
   -18.4718  -6.6918   2.2022   2.8312   3.3382   9.5087  10.7522  11.9375
    13.0535  14.6503  16.2020  17.1821  18.0402  18.7278  19.8314  20.6210
    21.6249  22.4974

          k = 0.5833-0.0833 0.7500 ( 11251 PWs)   bands (ev):

   -46.5493 -39.1362 -39.1362 -39.1300 -39.1299 -39.1298 -18.4744 -18.4732
   -18.4716  -6.6895   2.2717   2.6548   3.4012   9.7521  10.9830  12.0439
    12.6248  14.3772  15.2698  17.5626  18.6546  19.1463  19.9600  20.2885
    21.4180  22.5938

          k = 0.5000 0.0000 0.6667 ( 11246 PWs)   bands (ev):

   -46.5493 -39.1362 -39.1362 -39.1299 -39.1299 -39.1299 -18.4745 -18.4731
   -18.4713  -6.7148   2.2591   2.7510   3.5064  10.1070  10.8852  11.5450
    12.6240  14.4078  14.9294  17.6668  18.0170  18.6438  20.0571  20.6144
    22.1085  22.6762

          k = 0.8333-0.1667 1.0000 ( 11250 PWs)   bands (ev):

   -46.5493 -39.1363 -39.1362 -39.1301 -39.1298 -39.1298 -18.4746 -18.4724
   -18.4722  -6.6988   2.1424   3.1572   3.2332   8.9027   9.8704  12.8593
    14.1616  14.9981  16.4697  17.1711  18.0905  19.0689  19.3782  19.7890
    20.7303  21.9785

          k = 0.7500-0.0833 0.9167 ( 11253 PWs)   bands (ev):

   -46.5493 -39.1363 -39.1362 -39.1300 -39.1298 -39.1298 -18.4745 -18.4729
   -18.4722  -6.6773   2.1805   2.9158   3.2184   9.0768  10.1963  12.7879
    13.5702  15.1042  16.6292  17.0618  17.9899  19.1282  19.6461  20.4709
    21.2518  21.8086

          k = 0.6667 0.0000 0.8333 ( 11250 PWs)   bands (ev):

   -46.5493 -39.1363 -39.1362 -39.1300 -39.1299 -39.1298 -18.4741 -18.4736
   -18.4720  -6.6739   2.3266   2.6144   3.2860   9.3690  10.7555  12.5444
    12.8204  14.6595  15.8039  18.0625  18.2563  19.3765  19.6221  20.5926
    21.0490  22.4057

          k =-0.1667-1.0000-0.0000 ( 11264 PWs)   bands (ev):

   -46.5493 -39.1363 -39.1361 -39.1301 -39.1298 -39.1298 -18.4747 -18.4725
   -18.4724  -6.6733   2.0903   3.1113   3.1677   8.7426   9.7849  13.5726
    14.0949  15.5089  16.5580  17.1655  17.5175  18.4512  20.0849  20.8416
    21.3723  21.7752

          k = 0.6667-0.3333 1.0000 ( 11274 PWs)   bands (ev):

   -46.5494 -39.1363 -39.1362 -39.1300 -39.1299 -39.1299 -18.4744 -18.4725
   -18.4714  -6.7445   2.2583   3.0425   3.4608   9.9494  10.7428  11.0269
    13.0901  14.2097  16.3144  17.1394  17.6363  17.9028  19.8161  20.6441
    21.5514  21.6577

          k = 0.5833-0.2500 0.9167 ( 11254 PWs)   bands (ev):

   -46.5493 -39.1362 -39.1362 -39.1300 -39.1299 -39.1298 -18.4746 -18.4728
   -18.4716  -6.7043   2.2247   2.8509   3.3607  10.0276  10.7425  11.3920
    12.9067  14.6936  15.5616  17.3696  18.2248  18.7817  19.3826  20.4655
    22.2011  22.6038

          k = 0.5000-0.1667 0.8333 ( 11254 PWs)   bands (ev):

   -46.5493 -39.1362 -39.1362 -39.1299 -39.1299 -39.1298 -18.4746 -18.4729
   -18.4718  -6.6895   2.2194   2.7785   3.3191  10.0446  10.6618  11.9159
    12.5607  14.5397  15.9018  17.1623  17.9053  19.3950  20.0360  20.8970
    20.9686  22.3521

          k = 0.6667-0.1667 1.0000 ( 11256 PWs)   bands (ev):

   -46.5493 -39.1363 -39.1362 -39.1300 -39.1299 -39.1298 -18.4744 -18.4728
   -18.4721  -6.6889   2.2429   2.8978   3.1959   9.5314  10.5619  11.7894
    13.3071  15.1669  15.9571  17.5280  18.1112  19.2490  19.4491  19.6515
    21.7415  23.0036

          k = 0.5833-0.0833 0.9167 ( 11252 PWs)   bands (ev):

   -46.5493 -39.1363 -39.1362 -39.1300 -39.1299 -39.1298 -18.4741 -18.4733
   -18.4722  -6.6734   2.3614   2.6694   3.1459   9.7343  10.9756  11.7794
    12.5474  15.2547  16.1442  17.1956  18.1993  19.2183  20.1525  20.7232
    21.2216  22.3426

          k = 0.5000 0.0000 0.8333 ( 11247 PWs)   bands (ev):

   -46.5493 -39.1362 -39.1362 -39.1299 -39.1299 -39.1298 -18.4740 -18.4735
   -18.4720  -6.6791   2.3987   2.5922   3.2204   9.9327  11.1077  11.5271
    12.4982  15.1670  15.4287  17.9334  18.1397  19.4214  19.4312  20.4530
    22.1983  22.2079

          k =-0.3333-1.0000 0.0000 ( 11266 PWs)   bands (ev):

   -46.5493 -39.1363 -39.1362 -39.1300 -39.1299 -39.1298 -18.4742 -18.4730
   -18.4725  -6.6688   2.2678   2.8471   3.0712   9.3737  10.4971  12.6231
    12.6928  15.7417  16.6150  16.8393  17.5693  19.6371  20.4605  20.9465
    21.1384  21.4315

          k =-0.5000-1.0000 0.0000 ( 11320 PWs)   bands (ev):

   -46.5493 -39.1362 -39.1362 -39.1299 -39.1299 -39.1298 -18.4736 -18.4736
   -18.4725  -6.6666   2.5368   2.5368   3.0254   9.8534  11.5066  11.5066
    11.9596  16.1187  16.1187  16.9104  17.5968  20.0057  20.6688  20.6688
    20.7768  22.1801

     the Fermi energy is     6.0579 ev
     (compare with:     6.0599 eV, computed in scf)

     Writing all to output data dir out/mp-23268.save/
 
     init_run     :      0.16s CPU      0.22s WALL (       1 calls)
     electrons    :     23.31s CPU     23.72s WALL (       1 calls)

     Called by init_run:
     wfcinit      :      0.00s CPU      0.00s WALL (       1 calls)
     potinit      :      0.01s CPU      0.03s WALL (       1 calls)
     hinit0       :      0.02s CPU      0.05s WALL (       1 calls)

     Called by electrons:
     c_bands      :     23.31s CPU     23.70s WALL (       1 calls)
     v_of_rho     :      0.01s CPU      0.02s WALL (       1 calls)

     Called by c_bands:
     init_us_2    :      0.03s CPU      0.03s WALL (      72 calls)
     init_us_2:cp :      0.03s CPU      0.03s WALL (      72 calls)
     cegterg      :     21.55s CPU     21.89s WALL (      93 calls)

     Called by *egterg:
     cdiaghg      :      1.40s CPU      1.42s WALL (    1431 calls)
     h_psi        :     18.00s CPU     18.32s WALL (    1524 calls)
     g_psi        :      0.18s CPU      0.19s WALL (    1359 calls)

     Called by h_psi:
     h_psi:calbec :      0.48s CPU      0.49s WALL (    1524 calls)
     vloc_psi     :     17.01s CPU     17.30s WALL (    1524 calls)
     add_vuspsi   :      0.41s CPU      0.42s WALL (    1524 calls)

     General routines
     calbec       :      0.47s CPU      0.49s WALL (    1524 calls)
     fft          :      0.00s CPU      0.04s WALL (      10 calls)
     fftw         :     14.94s CPU     15.19s WALL (   50584 calls)
 
     Parallel routines
 
     PWSCF        :     24.00s CPU     25.22s WALL

 
   This run was terminated on:  14:38:54   3Jan2024            

=------------------------------------------------------------------------------=
   JOB DONE.
=------------------------------------------------------------------------------=
