<?xml version="1.0" encoding="ISO-8859-1"?>
<modeling>
 <generator>
  <i name="program" type="string">vasp </i>
  <i name="version" type="string">5.4.4.18Apr17-6-g9f103f2a35  </i>
  <i name="subversion" type="string">(build Aug 24 2017 11:22:49) complex            parallel </i>
  <i name="platform" type="string">LinuxIFC </i>
  <i name="date" type="string">2023 12 25 </i>
  <i name="time" type="string">13:07:42 </i>
 </generator>
 <incar>
  <i type="string" name="PREC">accurate</i>
  <i type="string" name="ALGO"> Normal</i>
  <i type="int" name="NELM">   100</i>
  <i type="int" name="IBRION">     8</i>
  <i name="EDIFF">      0.00000001</i>
  <i name="SYMPREC">      0.00000001</i>
  <i name="ENCUT">    520.00000000</i>
  <i type="logical" name="LREAL"> F  </i>
  <i type="int" name="ISMEAR">     0</i>
  <i name="SIGMA">      0.01000000</i>
  <i type="logical" name="LWAVE"> F  </i>
  <v type="int" name="KPOINT_BSE">    -1     0     0     0</v>
  <i type="int" name="NELM">   100</i>
  <i type="logical" name="LPEAD"> T  </i>
  <i type="logical" name="LEPSILON"> T  </i>
 </incar>
 <structure name="primitive_cell" >
  <crystal>
   <varray name="basis" >
    <v>      -2.96154203       0.00000000       2.96154203 </v>
    <v>       0.00000000       2.96154203       2.96154203 </v>
    <v>      -2.96154203       2.96154203       0.00000000 </v>
   </varray>
   <i name="volume">     51.94977795 </i>
   <varray name="rec_basis" >
    <v>      -0.16883097      -0.16883097       0.16883097 </v>
    <v>       0.16883097       0.16883097       0.16883097 </v>
    <v>      -0.16883097       0.16883097      -0.16883097 </v>
   </varray>
  </crystal>
  <varray name="positions" >
   <v>       0.00000000       0.00000000       0.00000000 </v>
   <v>       0.49999996      -0.49999996       0.49999996 </v>
  </varray>
 </structure>
 <varray name="primitive_index" >
  <v type="int" >        1 </v>
  <v type="int" >        2 </v>
 </varray>
 <kpoints>
  <generation param="Gamma">
   <v type="int" name="divisions">      12       12       12 </v>
   <v name="usershift">      0.00000000       0.00000000       0.00000000 </v>
   <v name="genvec1">      0.08333333       0.00000000       0.00000000 </v>
   <v name="genvec2">      0.00000000       0.08333333      -0.00000000 </v>
   <v name="genvec3">     -0.00000000      -0.00000000       0.08333333 </v>
   <v name="shift">      0.00000000       0.00000000       0.00000000 </v>
  </generation>
  <varray name="kpointlist" >
   <v>       0.00000000       0.00000000       0.00000000 </v>
   <v>       0.08333333      -0.00000000      -0.00000000 </v>
   <v>       0.16666667      -0.00000000      -0.00000000 </v>
   <v>       0.25000000       0.00000000       0.00000000 </v>
   <v>       0.33333333      -0.00000000      -0.00000000 </v>
   <v>       0.41666667      -0.00000000      -0.00000000 </v>
   <v>       0.50000000       0.00000000       0.00000000 </v>
   <v>       0.08333333       0.08333333      -0.00000000 </v>
   <v>       0.16666667       0.08333333       0.00000000 </v>
   <v>       0.25000000       0.08333333      -0.00000000 </v>
   <v>       0.33333333       0.08333333      -0.00000000 </v>
   <v>       0.41666667       0.08333333      -0.00000000 </v>
   <v>       0.50000000       0.08333333      -0.00000000 </v>
   <v>      -0.41666667       0.08333333      -0.00000000 </v>
   <v>      -0.33333333       0.08333333      -0.00000000 </v>
   <v>      -0.25000000       0.08333333       0.00000000 </v>
   <v>      -0.16666667       0.08333333      -0.00000000 </v>
   <v>      -0.08333333       0.08333333       0.00000000 </v>
   <v>       0.16666667       0.16666667      -0.00000000 </v>
   <v>       0.25000000       0.16666667      -0.00000000 </v>
   <v>       0.33333333       0.16666667      -0.00000000 </v>
   <v>       0.41666667       0.16666667       0.00000000 </v>
   <v>       0.50000000       0.16666667      -0.00000000 </v>
   <v>      -0.41666667       0.16666667       0.00000000 </v>
   <v>      -0.33333333       0.16666667      -0.00000000 </v>
   <v>      -0.25000000       0.16666667       0.00000000 </v>
   <v>      -0.16666667       0.16666667       0.00000000 </v>
   <v>       0.25000000       0.25000000      -0.00000000 </v>
   <v>       0.33333333       0.25000000      -0.00000000 </v>
   <v>       0.41666667       0.25000000      -0.00000000 </v>
   <v>       0.50000000       0.25000000       0.00000000 </v>
   <v>      -0.41666667       0.25000000      -0.00000000 </v>
   <v>      -0.33333333       0.25000000       0.00000000 </v>
   <v>      -0.25000000       0.25000000      -0.00000000 </v>
   <v>       0.33333333       0.33333333      -0.00000000 </v>
   <v>       0.41666667       0.33333333      -0.00000000 </v>
   <v>       0.50000000       0.33333333      -0.00000000 </v>
   <v>      -0.41666667       0.33333333      -0.00000000 </v>
   <v>      -0.33333333       0.33333333       0.00000000 </v>
   <v>       0.41666667       0.41666667      -0.00000000 </v>
   <v>       0.50000000       0.41666667      -0.00000000 </v>
   <v>      -0.41666667       0.41666667       0.00000000 </v>
   <v>       0.50000000       0.50000000      -0.00000000 </v>
   <v>       0.08333333      -0.00000000       0.08333333 </v>
   <v>       0.16666667      -0.00000000       0.08333333 </v>
   <v>       0.25000000      -0.00000000       0.08333333 </v>
   <v>       0.33333333       0.00000000       0.08333333 </v>
   <v>       0.41666667      -0.00000000       0.08333333 </v>
   <v>       0.50000000       0.00000000       0.08333333 </v>
   <v>      -0.41666667      -0.00000000       0.08333333 </v>
   <v>      -0.33333333       0.00000000       0.08333333 </v>
   <v>      -0.25000000      -0.00000000       0.08333333 </v>
   <v>      -0.16666667      -0.00000000       0.08333333 </v>
   <v>      -0.08333333       0.00000000       0.08333333 </v>
   <v>       0.25000000       0.16666667       0.08333333 </v>
   <v>       0.33333333       0.16666667       0.08333333 </v>
   <v>       0.41666667       0.16666667       0.08333333 </v>
   <v>       0.50000000       0.16666667       0.08333333 </v>
   <v>      -0.41666667       0.16666667       0.08333333 </v>
   <v>       0.16666667       0.25000000       0.08333333 </v>
   <v>       0.33333333       0.25000000       0.08333333 </v>
   <v>       0.41666667       0.25000000       0.08333333 </v>
   <v>       0.50000000       0.25000000       0.08333333 </v>
   <v>      -0.41666667       0.25000000       0.08333333 </v>
   <v>      -0.33333333       0.25000000       0.08333333 </v>
   <v>      -0.25000000       0.25000000       0.08333333 </v>
   <v>      -0.16666667       0.25000000       0.08333333 </v>
   <v>       0.16666667       0.33333333       0.08333333 </v>
   <v>       0.25000000       0.33333333       0.08333333 </v>
   <v>       0.41666667       0.33333333       0.08333333 </v>
   <v>       0.50000000       0.33333333       0.08333333 </v>
   <v>      -0.41666667       0.33333333       0.08333333 </v>
   <v>      -0.33333333       0.33333333       0.08333333 </v>
   <v>      -0.25000000       0.33333333       0.08333333 </v>
   <v>       0.16666667       0.41666667       0.08333333 </v>
   <v>       0.25000000       0.41666667       0.08333333 </v>
   <v>       0.33333333       0.41666667       0.08333333 </v>
   <v>       0.50000000       0.41666667       0.08333333 </v>
   <v>      -0.41666667       0.41666667       0.08333333 </v>
   <v>      -0.33333333       0.41666667       0.08333333 </v>
   <v>       0.16666667       0.50000000       0.08333333 </v>
   <v>       0.25000000       0.50000000       0.08333333 </v>
   <v>       0.33333333       0.50000000       0.08333333 </v>
   <v>       0.41666667       0.50000000       0.08333333 </v>
   <v>      -0.41666667       0.50000000       0.08333333 </v>
   <v>       0.16666667      -0.41666667       0.08333333 </v>
   <v>       0.25000000      -0.41666667       0.08333333 </v>
   <v>       0.33333333      -0.41666667       0.08333333 </v>
   <v>       0.41666667      -0.41666667       0.08333333 </v>
   <v>       0.50000000      -0.41666667       0.08333333 </v>
   <v>       0.16666667      -0.33333333       0.08333333 </v>
   <v>       0.25000000      -0.33333333       0.08333333 </v>
   <v>       0.33333333      -0.33333333       0.08333333 </v>
   <v>       0.41666667      -0.33333333       0.08333333 </v>
   <v>       0.16666667      -0.25000000       0.08333333 </v>
   <v>       0.25000000      -0.25000000       0.08333333 </v>
   <v>       0.33333333      -0.25000000       0.08333333 </v>
   <v>       0.16666667      -0.16666667       0.08333333 </v>
   <v>       0.25000000      -0.16666667       0.08333333 </v>
   <v>       0.16666667      -0.08333333       0.08333333 </v>
   <v>       0.16666667      -0.00000000       0.16666667 </v>
   <v>       0.25000000      -0.00000000       0.16666667 </v>
   <v>       0.33333333       0.00000000       0.16666667 </v>
   <v>       0.41666667       0.00000000       0.16666667 </v>
   <v>       0.50000000       0.00000000       0.16666667 </v>
   <v>      -0.41666667       0.00000000       0.16666667 </v>
   <v>      -0.33333333      -0.00000000       0.16666667 </v>
   <v>      -0.25000000       0.00000000       0.16666667 </v>
   <v>      -0.16666667       0.00000000       0.16666667 </v>
   <v>       0.50000000       0.33333333       0.16666667 </v>
   <v>      -0.41666667       0.33333333       0.16666667 </v>
   <v>      -0.33333333       0.33333333       0.16666667 </v>
   <v>       0.25000000       0.41666667       0.16666667 </v>
   <v>      -0.41666667       0.41666667       0.16666667 </v>
   <v>      -0.33333333       0.41666667       0.16666667 </v>
   <v>      -0.25000000       0.41666667       0.16666667 </v>
   <v>       0.25000000       0.50000000       0.16666667 </v>
   <v>       0.33333333       0.50000000       0.16666667 </v>
   <v>      -0.33333333       0.50000000       0.16666667 </v>
   <v>       0.25000000      -0.41666667       0.16666667 </v>
   <v>       0.33333333      -0.41666667       0.16666667 </v>
   <v>       0.41666667      -0.41666667       0.16666667 </v>
   <v>       0.25000000      -0.33333333       0.16666667 </v>
   <v>       0.33333333      -0.33333333       0.16666667 </v>
   <v>       0.41666667      -0.33333333       0.16666667 </v>
   <v>       0.50000000      -0.33333333       0.16666667 </v>
   <v>       0.25000000      -0.25000000       0.16666667 </v>
   <v>       0.33333333      -0.25000000       0.16666667 </v>
   <v>       0.41666667      -0.25000000       0.16666667 </v>
   <v>       0.25000000      -0.16666667       0.16666667 </v>
   <v>       0.33333333      -0.16666667       0.16666667 </v>
   <v>       0.25000000      -0.08333333       0.16666667 </v>
   <v>       0.25000000      -0.00000000       0.25000000 </v>
   <v>       0.33333333      -0.00000000       0.25000000 </v>
   <v>       0.41666667       0.00000000       0.25000000 </v>
   <v>       0.50000000       0.00000000       0.25000000 </v>
   <v>      -0.41666667       0.00000000       0.25000000 </v>
   <v>      -0.33333333       0.00000000       0.25000000 </v>
   <v>      -0.25000000      -0.00000000       0.25000000 </v>
   <v>      -0.25000000       0.50000000       0.25000000 </v>
   <v>       0.33333333      -0.41666667       0.25000000 </v>
   <v>       0.33333333      -0.33333333       0.25000000 </v>
   <v>       0.41666667      -0.33333333       0.25000000 </v>
   <v>       0.33333333      -0.25000000       0.25000000 </v>
   <v>       0.41666667      -0.25000000       0.25000000 </v>
   <v>       0.50000000      -0.25000000       0.25000000 </v>
   <v>       0.33333333      -0.16666667       0.25000000 </v>
   <v>       0.41666667      -0.16666667       0.25000000 </v>
   <v>       0.33333333      -0.08333333       0.25000000 </v>
   <v>       0.33333333      -0.00000000       0.33333333 </v>
   <v>       0.41666667      -0.00000000       0.33333333 </v>
   <v>       0.50000000      -0.00000000       0.33333333 </v>
   <v>      -0.41666667       0.00000000       0.33333333 </v>
   <v>      -0.33333333       0.00000000       0.33333333 </v>
   <v>       0.41666667      -0.25000000       0.33333333 </v>
   <v>       0.41666667      -0.16666667       0.33333333 </v>
   <v>       0.50000000      -0.16666667       0.33333333 </v>
   <v>       0.41666667      -0.08333333       0.33333333 </v>
   <v>       0.41666667      -0.00000000       0.41666667 </v>
   <v>       0.50000000      -0.00000000       0.41666667 </v>
   <v>      -0.41666667       0.00000000       0.41666667 </v>
   <v>       0.50000000      -0.08333333       0.41666667 </v>
   <v>       0.50000000      -0.00000000       0.50000000 </v>
  </varray>
  <varray name="weights" >
   <v>       0.00057870 </v>
   <v>       0.00462963 </v>
   <v>       0.00462963 </v>
   <v>       0.00462963 </v>
   <v>       0.00462963 </v>
   <v>       0.00462963 </v>
   <v>       0.00231481 </v>
   <v>       0.00231481 </v>
   <v>       0.00925926 </v>
   <v>       0.00925926 </v>
   <v>       0.00925926 </v>
   <v>       0.00925926 </v>
   <v>       0.00925926 </v>
   <v>       0.00925926 </v>
   <v>       0.00925926 </v>
   <v>       0.00925926 </v>
   <v>       0.00925926 </v>
   <v>       0.00462963 </v>
   <v>       0.00231481 </v>
   <v>       0.00925926 </v>
   <v>       0.00925926 </v>
   <v>       0.00925926 </v>
   <v>       0.00925926 </v>
   <v>       0.00925926 </v>
   <v>       0.00925926 </v>
   <v>       0.00925926 </v>
   <v>       0.00462963 </v>
   <v>       0.00231481 </v>
   <v>       0.00925926 </v>
   <v>       0.00925926 </v>
   <v>       0.00925926 </v>
   <v>       0.00925926 </v>
   <v>       0.00925926 </v>
   <v>       0.00462963 </v>
   <v>       0.00231481 </v>
   <v>       0.00925926 </v>
   <v>       0.00925926 </v>
   <v>       0.00925926 </v>
   <v>       0.00462963 </v>
   <v>       0.00231481 </v>
   <v>       0.00925926 </v>
   <v>       0.00462963 </v>
   <v>       0.00115741 </v>
   <v>       0.00115741 </v>
   <v>       0.00462963 </v>
   <v>       0.00462963 </v>
   <v>       0.00462963 </v>
   <v>       0.00462963 </v>
   <v>       0.00462963 </v>
   <v>       0.00462963 </v>
   <v>       0.00462963 </v>
   <v>       0.00462963 </v>
   <v>       0.00462963 </v>
   <v>       0.00231481 </v>
   <v>       0.00462963 </v>
   <v>       0.00925926 </v>
   <v>       0.00925926 </v>
   <v>       0.00925926 </v>
   <v>       0.00462963 </v>
   <v>       0.00462963 </v>
   <v>       0.00462963 </v>
   <v>       0.00925926 </v>
   <v>       0.00925926 </v>
   <v>       0.00925926 </v>
   <v>       0.00925926 </v>
   <v>       0.00925926 </v>
   <v>       0.00462963 </v>
   <v>       0.00925926 </v>
   <v>       0.00462963 </v>
   <v>       0.00462963 </v>
   <v>       0.00925926 </v>
   <v>       0.00925926 </v>
   <v>       0.00925926 </v>
   <v>       0.00462963 </v>
   <v>       0.00925926 </v>
   <v>       0.00925926 </v>
   <v>       0.00462963 </v>
   <v>       0.00462963 </v>
   <v>       0.00925926 </v>
   <v>       0.00462963 </v>
   <v>       0.00925926 </v>
   <v>       0.00925926 </v>
   <v>       0.00925926 </v>
   <v>       0.00462963 </v>
   <v>       0.00231481 </v>
   <v>       0.00925926 </v>
   <v>       0.00925926 </v>
   <v>       0.00925926 </v>
   <v>       0.00925926 </v>
   <v>       0.00231481 </v>
   <v>       0.00925926 </v>
   <v>       0.00925926 </v>
   <v>       0.00925926 </v>
   <v>       0.00462963 </v>
   <v>       0.00925926 </v>
   <v>       0.00925926 </v>
   <v>       0.00462963 </v>
   <v>       0.00925926 </v>
   <v>       0.00462963 </v>
   <v>       0.00462963 </v>
   <v>       0.00115741 </v>
   <v>       0.00462963 </v>
   <v>       0.00462963 </v>
   <v>       0.00462963 </v>
   <v>       0.00462963 </v>
   <v>       0.00462963 </v>
   <v>       0.00462963 </v>
   <v>       0.00462963 </v>
   <v>       0.00231481 </v>
   <v>       0.00462963 </v>
   <v>       0.00925926 </v>
   <v>       0.00462963 </v>
   <v>       0.00462963 </v>
   <v>       0.00462963 </v>
   <v>       0.00925926 </v>
   <v>       0.00462963 </v>
   <v>       0.00925926 </v>
   <v>       0.00462963 </v>
   <v>       0.00231481 </v>
   <v>       0.00925926 </v>
   <v>       0.00925926 </v>
   <v>       0.00462963 </v>
   <v>       0.00925926 </v>
   <v>       0.00925926 </v>
   <v>       0.00925926 </v>
   <v>       0.00231481 </v>
   <v>       0.00925926 </v>
   <v>       0.00925926 </v>
   <v>       0.00462963 </v>
   <v>       0.00925926 </v>
   <v>       0.00462963 </v>
   <v>       0.00462963 </v>
   <v>       0.00115741 </v>
   <v>       0.00462963 </v>
   <v>       0.00462963 </v>
   <v>       0.00462963 </v>
   <v>       0.00462963 </v>
   <v>       0.00462963 </v>
   <v>       0.00231481 </v>
   <v>       0.00115741 </v>
   <v>       0.00462963 </v>
   <v>       0.00925926 </v>
   <v>       0.00462963 </v>
   <v>       0.00925926 </v>
   <v>       0.00925926 </v>
   <v>       0.00231481 </v>
   <v>       0.00925926 </v>
   <v>       0.00462963 </v>
   <v>       0.00462963 </v>
   <v>       0.00115741 </v>
   <v>       0.00462963 </v>
   <v>       0.00462963 </v>
   <v>       0.00462963 </v>
   <v>       0.00231481 </v>
   <v>       0.00462963 </v>
   <v>       0.00925926 </v>
   <v>       0.00231481 </v>
   <v>       0.00462963 </v>
   <v>       0.00115741 </v>
   <v>       0.00462963 </v>
   <v>       0.00231481 </v>
   <v>       0.00231481 </v>
   <v>       0.00057870 </v>
  </varray>
 </kpoints>
 <parameters>
  <separator name="general" >
   <i type="string" name="SYSTEM">unknown system</i>
   <i type="logical" name="LCOMPAT"> F  </i>
  </separator>
  <separator name="electronic" >
   <i type="string" name="PREC">accura</i>
   <i name="ENMAX">    520.00000000</i>
   <i name="ENAUG">    503.85200000</i>
   <i name="EDIFF">      0.00000001</i>
   <i type="int" name="IALGO">    38</i>
   <i type="int" name="IWAVPR">    11</i>
   <i type="int" name="NBANDS">    16</i>
   <i name="NELECT">     14.00000000</i>
   <i type="int" name="TURBO">     0</i>
   <i type="int" name="IRESTART">     0</i>
   <i type="int" name="NREBOOT">     0</i>
   <i type="int" name="NMIN">     0</i>
   <i name="EREF">      0.00000000</i>
   <separator name="electronic smearing" >
    <i type="int" name="ISMEAR">     0</i>
    <i name="SIGMA">      0.01000000</i>
    <i name="KSPACING">      0.50000000</i>
    <i type="logical" name="KGAMMA"> T  </i>
   </separator>
   <separator name="electronic projectors" >
    <i type="logical" name="LREAL"> F  </i>
    <v name="ROPT">      0.00000000      0.00000000</v>
    <i type="int" name="LMAXPAW">  -100</i>
    <i type="int" name="LMAXMIX">     2</i>
    <i type="logical" name="NLSPLINE"> F  </i>
   </separator>
   <separator name="electronic startup" >
    <i type="int" name="ISTART">     0</i>
    <i type="int" name="ICHARG">     2</i>
    <i type="int" name="INIWAV">     1</i>
   </separator>
   <separator name="electronic spin" >
    <i type="int" name="ISPIN">     1</i>
    <i type="logical" name="LNONCOLLINEAR"> F  </i>
    <v name="MAGMOM">      1.00000000      1.00000000</v>
    <i name="NUPDOWN">     -1.00000000</i>
    <i type="logical" name="LSORBIT"> F  </i>
    <v name="SAXIS">      0.00000000      0.00000000      1.00000000</v>
    <i type="logical" name="LSPIRAL"> F  </i>
    <v name="QSPIRAL">      0.00000000      0.00000000      0.00000000</v>
    <i type="logical" name="LZEROZ"> F  </i>
   </separator>
   <separator name="electronic exchange-correlation" >
    <i type="logical" name="LASPH"> F  </i>
    <i type="logical" name="LMETAGGA"> F  </i>
   </separator>
   <separator name="electronic convergence" >
    <i type="int" name="NELM">   100</i>
    <i type="int" name="NELMDL">    -5</i>
    <i type="int" name="NELMIN">     2</i>
    <i name="ENINI">    520.00000000</i>
    <separator name="electronic convergence detail" >
     <i type="logical" name="LDIAG"> T  </i>
     <i type="logical" name="LSUBROT"> F  </i>
     <i name="WEIMIN">      0.00100000</i>
     <i name="EBREAK">      0.00000000</i>
     <i name="DEPER">      0.30000000</i>
     <i type="int" name="NRMM">     4</i>
     <i name="TIME">      0.40000000</i>
    </separator>
   </separator>
   <separator name="electronic mixer" >
    <i name="AMIX">      0.40000000</i>
    <i name="BMIX">      1.00000000</i>
    <i name="AMIN">      0.10000000</i>
    <i name="AMIX_MAG">      1.60000000</i>
    <i name="BMIX_MAG">      1.00000000</i>
    <separator name="electronic mixer details" >
     <i type="int" name="IMIX">     4</i>
     <i type="logical" name="MIXFIRST"> F  </i>
     <i type="int" name="MAXMIX">   -45</i>
     <i name="WC">    100.00000000</i>
     <i type="int" name="INIMIX">     1</i>
     <i type="int" name="MIXPRE">     1</i>
     <i type="int" name="MREMOVE">     5</i>
    </separator>
   </separator>
   <separator name="electronic dipolcorrection" >
    <i type="logical" name="LDIPOL"> F  </i>
    <i type="logical" name="LMONO"> F  </i>
    <i type="int" name="IDIPOL">     0</i>
    <i name="EPSILON">      1.00000000</i>
    <v name="DIPOL">   -100.00000000   -100.00000000   -100.00000000</v>
    <i name="EFIELD">      0.00000000</i>
   </separator>
  </separator>
  <separator name="grids" >
   <i type="int" name="NGX">    32</i>
   <i type="int" name="NGY">    32</i>
   <i type="int" name="NGZ">    32</i>
   <i type="int" name="NGXF">    64</i>
   <i type="int" name="NGYF">    64</i>
   <i type="int" name="NGZF">    64</i>
   <i type="logical" name="ADDGRID"> F  </i>
  </separator>
  <separator name="ionic" >
   <i type="int" name="NSW">     1</i>
   <i type="int" name="IBRION">     8</i>
   <i type="int" name="MDALGO">     0</i>
   <i type="int" name="ISIF">     2</i>
   <i name="PSTRESS">      0.00000000</i>
   <i name="EDIFFG">      0.00000010</i>
   <i type="int" name="NFREE">     0</i>
   <i name="POTIM">      0.50000000</i>
   <i name="SMASS">     -3.00000000</i>
   <i name="SCALEE">      1.00000000</i>
  </separator>
  <separator name="ionic md" >
   <i name="TEBEG">      0.00010000</i>
   <i name="TEEND">      0.00010000</i>
   <i type="int" name="NBLOCK">     1</i>
   <i type="int" name="KBLOCK">     1</i>
   <i type="int" name="NPACO">   256</i>
   <i name="APACO">     16.00000000</i>
  </separator>
  <separator name="symmetry" >
   <i type="int" name="ISYM">     2</i>
   <i name="SYMPREC">      0.00000001</i>
  </separator>
  <separator name="dos" >
   <i type="int" name="LORBIT">     0</i>
   <v name="RWIGS">     -1.00000000     -1.00000000</v>
   <i type="int" name="NEDOS">   301</i>
   <i name="EMIN">     10.00000000</i>
   <i name="EMAX">    -10.00000000</i>
   <i name="EFERMI">      0.00000000</i>
  </separator>
  <separator name="writing" >
   <i type="int" name="NWRITE">     2</i>
   <i type="logical" name="LWAVE"> F  </i>
   <i type="logical" name="LDOWNSAMPLE"> F  </i>
   <i type="logical" name="LCHARG"> T  </i>
   <i type="logical" name="LPARD"> F  </i>
   <i type="logical" name="LVTOT"> F  </i>
   <i type="logical" name="LVHAR"> F  </i>
   <i type="logical" name="LELF"> F  </i>
   <i type="logical" name="LOPTICS"> F  </i>
   <v name="STM">      0.00000000      0.00000000      0.00000000      0.00000000      0.00000000      0.00000000      0.00000000</v>
  </separator>
  <separator name="performance" >
   <i type="int" name="NPAR">     8</i>
   <i type="int" name="NSIM">     4</i>
   <i type="int" name="NBLK">    -1</i>
   <i type="logical" name="LPLANE"> T  </i>
   <i type="logical" name="LSCALAPACK"> T  </i>
   <i type="logical" name="LSCAAWARE"> F  </i>
   <i type="logical" name="LSCALU"> F  </i>
   <i type="logical" name="LASYNC"> F  </i>
   <i type="logical" name="LORBITALREAL"> F  </i>
  </separator>
  <separator name="miscellaneous" >
   <i type="int" name="IDIOT">     3</i>
   <i type="int" name="ISPECIAL">     0</i>
   <i type="logical" name="LMUSIC"> F  </i>
   <v name="POMASS">     22.99000000     79.90400000</v>
   <v name="DARWINR">      0.00000000      0.00000000</v>
   <v name="DARWINV">      1.00000000      1.00000000</v>
   <i type="logical" name="LCORR"> T  </i>
  </separator>
  <i type="logical" name="GGA_COMPAT"> T  </i>
  <i type="logical" name="LBERRY"> F  </i>
  <i type="int" name="ICORELEVEL">     0</i>
  <i type="logical" name="LDAU"> F  </i>
  <i type="int" name="I_CONSTRAINED_M">     0</i>
  <separator name="electronic exchange-correlation" >
   <i type="string" name="GGA">--</i>
   <i type="int" name="VOSKOWN">     0</i>
   <i type="logical" name="LHFCALC"> F  </i>
   <i type="string" name="PRECFOCK"></i>
   <i type="logical" name="LSYMGRAD"> F  </i>
   <i type="logical" name="LHFONE"> F  </i>
   <i type="logical" name="LRHFCALC"> F  </i>
   <i type="logical" name="LTHOMAS"> F  </i>
   <i type="logical" name="LMODELHF"> F  </i>
   <i name="ENCUT4O">     -1.00000000</i>
   <i type="int" name="EXXOEP">     0</i>
   <i type="int" name="FOURORBIT">     0</i>
   <i name="AEXX">      0.00000000</i>
   <i name="HFALPHA">      0.00000000</i>
   <i name="MCALPHA">      0.00000000</i>
   <i name="ALDAX">      1.00000000</i>
   <i name="AGGAX">      1.00000000</i>
   <i name="ALDAC">      1.00000000</i>
   <i name="AGGAC">      1.00000000</i>
   <i type="int" name="NKREDX">     1</i>
   <i type="int" name="NKREDY">     1</i>
   <i type="int" name="NKREDZ">     1</i>
   <i type="logical" name="SHIFTRED"> F  </i>
   <i type="logical" name="ODDONLY"> F  </i>
   <i type="logical" name="EVENONLY"> F  </i>
   <i type="int" name="LMAXFOCK">     0</i>
   <i type="int" name="NMAXFOCKAE">     0</i>
   <i type="logical" name="LFOCKAEDFT"> F  </i>
   <i name="HFSCREEN">      0.00000000</i>
   <i name="HFSCREENC">      0.00000000</i>
   <i type="int" name="NBANDSGWLOW">     0</i>
  </separator>
  <separator name="vdW DFT" >
   <i type="logical" name="LUSE_VDW"> F  </i>
   <i name="Zab_VDW">     -0.84910000</i>
   <i name="PARAM1">      0.12340000</i>
   <i name="PARAM2">      1.00000000</i>
   <i name="PARAM3">      0.00000000</i>
  </separator>
  <separator name="model GW" >
   <i type="int" name="MODEL_GW">     0</i>
   <i name="MODEL_EPS0">     15.58493338</i>
   <i name="MODEL_ALPHA">      1.00000000</i>
  </separator>
  <separator name="linear response parameters" >
   <i type="logical" name="LEPSILON"> T  </i>
   <i type="logical" name="LRPA"> F  </i>
   <i type="logical" name="LNABLA"> F  </i>
   <i type="logical" name="LVEL"> F  </i>
   <i type="int" name="KINTER">     0</i>
   <i name="CSHIFT">      0.10000000</i>
   <i name="OMEGAMAX">     -1.00000000</i>
   <i name="DEG_THRESHOLD">      0.00200000</i>
   <i name="RTIME">     -0.10000000</i>
   <i name="WPLASMAI">      0.00000000</i>
   <v name="DFIELD">      0.00000000      0.00000000      0.00000000</v>
   <v name="WPLASMA">      0.00000000      0.00000000      0.00000000      0.00000000      0.00000000      0.00000000      0.00000000      0.00000000      0.00000000</v>
  </separator>
  <separator name="orbital magnetization" >
   <i type="logical" name="NUCIND"> F  </i>
   <v name="MAGPOS">      0.00000000      0.00000000      0.00000000</v>
   <i type="logical" name="LNICSALL"> T  </i>
   <i type="logical" name="ORBITALMAG"> F  </i>
   <i type="logical" name="LMAGBLOCH"> F  </i>
   <i type="logical" name="LCHIMAG"> F  </i>
   <i type="logical" name="LGAUGE"> T  </i>
   <i type="int" name="MAGATOM">     0</i>
   <v name="MAGDIPOL">      0.00000000      0.00000000      0.00000000</v>
   <v name="AVECCONST">      0.00000000      0.00000000      0.00000000</v>
  </separator>
  <separator name="response functions" >
   <i type="logical" name="LADDER"> F  </i>
   <i type="logical" name="LRPAFORCE"> F  </i>
   <i type="logical" name="LFXC"> F  </i>
   <i type="logical" name="LHARTREE"> T  </i>
   <i type="int" name="IBSE">     0</i>
   <v type="int" name="KPOINT">    -1     0     0     0</v>
   <i type="logical" name="LTCTE"> F  </i>
   <i type="logical" name="LTETE"> F  </i>
   <i type="logical" name="LTRIPLET"> F  </i>
   <i type="logical" name="LFXCEPS"> F  </i>
   <i type="logical" name="LFXHEG"> F  </i>
   <i type="int" name="NATURALO">     2</i>
   <i type="logical" name="L2ORDER"> F  </i>
   <i type="logical" name="LMP2LT"> F  </i>
   <i type="logical" name="LUSEW"> F  </i>
   <i name="ENCUTGW">     -2.00000000</i>
   <i name="ENCUTGWSOFT">     -2.00000000</i>
   <i name="ENCUTLF">     -1.00000000</i>
   <i type="int" name="LMAXMP2">    -1</i>
   <i name="SCISSOR">      0.00000000</i>
   <i type="int" name="NOMEGA">     0</i>
   <i type="int" name="NOMEGAR">     0</i>
   <i type="int" name="NBANDSGW">    -1</i>
   <i type="int" name="NBANDSO">    -1</i>
   <i type="int" name="NBANDSV">    -1</i>
   <i type="int" name="NELM">   100</i>
   <i type="int" name="NELMHF">     1</i>
   <i type="int" name="DIM">     3</i>
   <i type="int" name="ANTIRES">     0</i>
   <i name="OMEGAMAX">    -30.00000000</i>
   <i name="OMEGAMIN">    -30.00000000</i>
   <i name="OMEGATL">   -200.00000000</i>
   <i type="int" name="OMEGAGRID">   140</i>
   <i name="CSHIFT">     -0.10000000</i>
   <i type="logical" name="SELFENERGY"> F  </i>
   <i type="logical" name="LSPECTRAL"> F  </i>
   <i type="logical" name="LSPECTRALGW"> F  </i>
   <i type="logical" name="LSINGLES"> F  </i>
   <i type="logical" name="LFERMIGW"> F  </i>
   <i type="logical" name="ODDONLYGW"> F  </i>
   <i type="logical" name="EVENONLYGW"> F  </i>
   <i type="int" name="NKREDLFX">     1</i>
   <i type="int" name="NKREDLFY">     1</i>
   <i type="int" name="NKREDLFZ">     1</i>
   <i type="int" name="MAXMEM">  2800</i>
   <i type="int" name="TELESCOPE">     0</i>
   <i type="int" name="TAUPAR">     1</i>
   <i type="int" name="OMEGAPAR">    -1</i>
   <i name="LAMBDA">      1.00000000</i>
  </separator>
  <separator name="External order field" >
   <i name="OFIELD_KAPPA">      0.00000000</i>
   <v name="OFIELD_K">      0.00000000      0.00000000      0.00000000</v>
   <i name="OFIELD_Q6_NEAR">      0.00000000</i>
   <i name="OFIELD_Q6_FAR">      0.00000000</i>
   <i name="OFIELD_A">      0.00000000</i>
  </separator>
 </parameters>
 <atominfo>
  <atoms>       2 </atoms>
  <types>       2 </types>
  <array name="atoms" >
   <dimension dim="1">ion</dimension>
   <field type="string">element</field>
   <field type="int">atomtype</field>
   <set>
    <rc><c>Na</c><c>   1</c></rc>
    <rc><c>Br</c><c>   2</c></rc>
   </set>
  </array>
  <array name="atomtypes" >
   <dimension dim="1">type</dimension>
   <field type="int">atomspertype</field>
   <field type="string">element</field>
   <field>mass</field>
   <field>valence</field>
   <field type="string">pseudopotential</field>
   <set>
    <rc><c>   1</c><c>Na</c><c>     22.99000000</c><c>      7.00000000</c><c>  PAW_PBE Na_pv 19Sep2006               </c></rc>
    <rc><c>   1</c><c>Br</c><c>     79.90400000</c><c>      7.00000000</c><c>  PAW_PBE Br 06Sep2000                  </c></rc>
   </set>
  </array>
 </atominfo>
 <structure name="initialpos" >
  <crystal>
   <varray name="basis" >
    <v>      -2.96154203       0.00000000       2.96154203 </v>
    <v>       0.00000000       2.96154203       2.96154203 </v>
    <v>      -2.96154203       2.96154203       0.00000000 </v>
   </varray>
   <i name="volume">     51.94977795 </i>
   <varray name="rec_basis" >
    <v>      -0.16883097      -0.16883097       0.16883097 </v>
    <v>       0.16883097       0.16883097       0.16883097 </v>
    <v>      -0.16883097       0.16883097      -0.16883097 </v>
   </varray>
  </crystal>
  <varray name="positions" >
   <v>       0.00000000       0.00000000       0.00000000 </v>
   <v>       0.49999996       0.50000004       0.49999996 </v>
  </varray>
 </structure>
 <calculation>
  <scstep>
   <time name="dav">    1.03    1.03</time>
   <time name="total">    1.05    1.06</time>
   <energy>
    <i name="alphaZ">     29.30762745 </i>
    <i name="ewald">   -675.98822191 </i>
    <i name="hartreedc">   -276.41121011 </i>
    <i name="XCdc">     34.64781069 </i>
    <i name="pawpsdc">    797.42783911 </i>
    <i name="pawaedc">   -879.82571805 </i>
    <i name="eentropy">     -0.00004677 </i>
    <i name="bandstr">    -64.53518653 </i>
    <i name="atom">   1134.48974244 </i>
    <i name="e_fr_energy">     99.11263631 </i>
    <i name="e_wo_entrp">     99.11268309 </i>
    <i name="e_0_energy">     99.11265970 </i>
   </energy>
  </scstep>
  <scstep>
   <time name="dav">    1.14    1.15</time>
   <time name="total">    1.14    1.15</time>
   <energy>
    <i name="e_fr_energy">      1.33530777 </i>
    <i name="e_wo_entrp">      1.33530777 </i>
    <i name="e_0_energy">      1.33530777 </i>
   </energy>
  </scstep>
  <scstep>
   <time name="dav">    1.30    1.32</time>
   <time name="total">    1.31    1.32</time>
   <energy>
    <i name="e_fr_energy">     -6.12882800 </i>
    <i name="e_wo_entrp">     -6.12882800 </i>
    <i name="e_0_energy">     -6.12882800 </i>
   </energy>
  </scstep>
  <scstep>
   <time name="dav">    1.20    1.21</time>
   <time name="total">    1.20    1.21</time>
   <energy>
    <i name="e_fr_energy">     -6.22693039 </i>
    <i name="e_wo_entrp">     -6.22693039 </i>
    <i name="e_0_energy">     -6.22693039 </i>
   </energy>
  </scstep>
  <scstep>
   <time name="dav">    1.28    1.29</time>
   <time name="total">    1.34    1.35</time>
   <energy>
    <i name="e_fr_energy">     -6.22823012 </i>
    <i name="e_wo_entrp">     -6.22823012 </i>
    <i name="e_0_energy">     -6.22823012 </i>
   </energy>
  </scstep>
  <scstep>
   <time name="dav">    1.24    1.25</time>
   <time name="total">    1.32    1.33</time>
   <energy>
    <i name="e_fr_energy">     -6.11595150 </i>
    <i name="e_wo_entrp">     -6.11595150 </i>
    <i name="e_0_energy">     -6.11595150 </i>
   </energy>
  </scstep>
  <scstep>
   <time name="dav">    1.25    1.26</time>
   <time name="total">    1.32    1.33</time>
   <energy>
    <i name="e_fr_energy">     -6.10531791 </i>
    <i name="e_wo_entrp">     -6.10531791 </i>
    <i name="e_0_energy">     -6.10531791 </i>
   </energy>
  </scstep>
  <scstep>
   <time name="dav">    1.13    1.14</time>
   <time name="total">    1.20    1.21</time>
   <energy>
    <i name="e_fr_energy">     -6.10898252 </i>
    <i name="e_wo_entrp">     -6.10898252 </i>
    <i name="e_0_energy">     -6.10898252 </i>
   </energy>
  </scstep>
  <scstep>
   <time name="dav">    1.20    1.21</time>
   <time name="total">    1.27    1.28</time>
   <energy>
    <i name="e_fr_energy">     -6.10887937 </i>
    <i name="e_wo_entrp">     -6.10887937 </i>
    <i name="e_0_energy">     -6.10887937 </i>
   </energy>
  </scstep>
  <scstep>
   <time name="dav">    1.18    1.19</time>
   <time name="total">    1.25    1.26</time>
   <energy>
    <i name="e_fr_energy">     -6.10890631 </i>
    <i name="e_wo_entrp">     -6.10890631 </i>
    <i name="e_0_energy">     -6.10890631 </i>
   </energy>
  </scstep>
  <scstep>
   <time name="dav">    1.28    1.29</time>
   <time name="total">    1.36    1.37</time>
   <energy>
    <i name="e_fr_energy">     -6.10890825 </i>
    <i name="e_wo_entrp">     -6.10890825 </i>
    <i name="e_0_energy">     -6.10890825 </i>
   </energy>
  </scstep>
  <scstep>
   <time name="dav">    1.12    1.12</time>
   <time name="total">    1.19    1.20</time>
   <energy>
    <i name="e_fr_energy">     -6.10890878 </i>
    <i name="e_wo_entrp">     -6.10890878 </i>
    <i name="e_0_energy">     -6.10890878 </i>
   </energy>
  </scstep>
  <scstep>
   <time name="dav">    1.21    1.22</time>
   <time name="total">    1.29    1.30</time>
   <energy>
    <i name="e_fr_energy">     -6.10890884 </i>
    <i name="e_wo_entrp">     -6.10890884 </i>
    <i name="e_0_energy">     -6.10890884 </i>
   </energy>
  </scstep>
  <scstep>
   <time name="dav">    1.14    1.15</time>
   <time name="total">    1.22    1.23</time>
   <energy>
    <i name="e_fr_energy">     -6.10890882 </i>
    <i name="e_wo_entrp">     -6.10890882 </i>
    <i name="e_0_energy">     -6.10890882 </i>
   </energy>
  </scstep>
  <scstep>
   <time name="dav">    0.83    0.84</time>
   <time name="total">    0.85    0.86</time>
   <energy>
    <i name="alphaZ">     29.30762745 </i>
    <i name="ewald">   -675.98822191 </i>
    <i name="hartreedc">   -278.18916838 </i>
    <i name="XCdc">     35.22799506 </i>
    <i name="pawpsdc">    865.95087889 </i>
    <i name="pawaedc">   -948.60134827 </i>
    <i name="eentropy">     -0.00000000 </i>
    <i name="bandstr">   -168.30641409 </i>
    <i name="atom">   1134.48974244 </i>
    <i name="e_fr_energy">     -6.10890882 </i>
    <i name="e_wo_entrp">     -6.10890882 </i>
    <i name="e_0_energy">     -6.10890882 </i>
   </energy>
  </scstep>
  <structure>
   <crystal>
    <varray name="basis" >
     <v>      -2.96154203       0.00000000       2.96154203 </v>
     <v>       0.00000000       2.96154203       2.96154203 </v>
     <v>      -2.96154203       2.96154203       0.00000000 </v>
    </varray>
    <i name="volume">     51.94977795 </i>
    <varray name="rec_basis" >
     <v>      -0.16883097      -0.16883097       0.16883097 </v>
     <v>       0.16883097       0.16883097       0.16883097 </v>
     <v>      -0.16883097       0.16883097      -0.16883097 </v>
    </varray>
   </crystal>
   <varray name="positions" >
    <v>       0.00000000       0.00000000       0.00000000 </v>
    <v>       0.49999996       0.50000004       0.49999996 </v>
   </varray>
  </structure>
  <varray name="forces" >
   <v>       0.00000031       0.00000000       0.00000000 </v>
   <v>      -0.00000031      -0.00000000      -0.00000000 </v>
  </varray>
  <varray name="stress" >
   <v>      12.60738334      -0.00000000       0.00000000 </v>
   <v>       0.00000000      12.60736994       0.00000000 </v>
   <v>      -0.00000000       0.00000000      12.60736994 </v>
  </varray>
  <energy>
   <i name="e_fr_energy">     -6.10890882 </i>
   <i name="e_wo_entrp">     -6.10890882 </i>
   <i name="e_0_energy">     -0.00000000 </i>
  </energy>
  <scstep>
   <time name="total">    0.98    0.98</time>
   <energy>
    <i name="e_fr_energy">     -0.28051092 </i>
    <i name="e_wo_entrp">     -0.28051092 </i>
    <i name="e_0_energy">     -0.28051092 </i>
   </energy>
  </scstep>
  <scstep>
   <time name="total">    0.98    0.98</time>
   <energy>
    <i name="e_fr_energy">     -0.31061599 </i>
    <i name="e_wo_entrp">     -0.31061599 </i>
    <i name="e_0_energy">     -0.31061599 </i>
   </energy>
  </scstep>
  <scstep>
   <time name="total">    0.97    0.97</time>
   <energy>
    <i name="e_fr_energy">     -0.31059889 </i>
    <i name="e_wo_entrp">     -0.31059889 </i>
    <i name="e_0_energy">     -0.31059889 </i>
   </energy>
  </scstep>
  <scstep>
   <time name="total">    0.96    0.96</time>
   <energy>
    <i name="e_fr_energy">     -0.31059886 </i>
    <i name="e_wo_entrp">     -0.31059886 </i>
    <i name="e_0_energy">     -0.31059886 </i>
   </energy>
  </scstep>
  <scstep>
   <time name="total">    0.96    0.96</time>
   <energy>
    <i name="e_fr_energy">     -0.31059886 </i>
    <i name="e_wo_entrp">     -0.31059886 </i>
    <i name="e_0_energy">     -0.31059886 </i>
   </energy>
  </scstep>
  <scstep>
   <time name="total">    1.03    1.03</time>
   <energy>
    <i name="e_fr_energy">     -0.30931964 </i>
    <i name="e_wo_entrp">     -0.30931964 </i>
    <i name="e_0_energy">     -0.30931964 </i>
   </energy>
  </scstep>
  <scstep>
   <time name="total">    1.02    1.02</time>
   <energy>
    <i name="e_fr_energy">     -0.34635966 </i>
    <i name="e_wo_entrp">     -0.34635966 </i>
    <i name="e_0_energy">     -0.34635966 </i>
   </energy>
  </scstep>
  <scstep>
   <time name="total">    0.96    0.96</time>
   <energy>
    <i name="e_fr_energy">     -0.34633658 </i>
    <i name="e_wo_entrp">     -0.34633658 </i>
    <i name="e_0_energy">     -0.34633658 </i>
   </energy>
  </scstep>
  <scstep>
   <time name="total">    0.96    0.96</time>
   <energy>
    <i name="e_fr_energy">     -0.34633642 </i>
    <i name="e_wo_entrp">     -0.34633642 </i>
    <i name="e_0_energy">     -0.34633642 </i>
   </energy>
  </scstep>
  <scstep>
   <time name="total">    0.96    0.96</time>
   <energy>
    <i name="e_fr_energy">     -0.34633642 </i>
    <i name="e_wo_entrp">     -0.34633642 </i>
    <i name="e_0_energy">     -0.34633642 </i>
   </energy>
  </scstep>
  <scstep>
   <time name="total">    0.97    0.97</time>
   <energy>
    <i name="e_fr_energy">     -0.25155785 </i>
    <i name="e_wo_entrp">     -0.25155785 </i>
    <i name="e_0_energy">     -0.25155785 </i>
   </energy>
  </scstep>
  <scstep>
   <time name="total">    0.99    0.99</time>
   <energy>
    <i name="e_fr_energy">     -0.27486457 </i>
    <i name="e_wo_entrp">     -0.27486457 </i>
    <i name="e_0_energy">     -0.27486457 </i>
   </energy>
  </scstep>
  <scstep>
   <time name="total">    0.97    0.97</time>
   <energy>
    <i name="e_fr_energy">     -0.27485291 </i>
    <i name="e_wo_entrp">     -0.27485291 </i>
    <i name="e_0_energy">     -0.27485291 </i>
   </energy>
  </scstep>
  <scstep>
   <time name="total">    0.97    0.97</time>
   <energy>
    <i name="e_fr_energy">     -0.27485301 </i>
    <i name="e_wo_entrp">     -0.27485301 </i>
    <i name="e_0_energy">     -0.27485301 </i>
   </energy>
  </scstep>
  <scstep>
   <time name="total">    0.96    0.96</time>
   <energy>
    <i name="e_fr_energy">     -0.27485301 </i>
    <i name="e_wo_entrp">     -0.27485301 </i>
    <i name="e_0_energy">     -0.27485301 </i>
   </energy>
  </scstep>
  <varray name="epsilon_rpa" >
   <v>       3.16377454      -0.00000000       0.00000000 </v>
   <v>      -0.00000000       3.16374567      -0.00000000 </v>
   <v>       0.00000000      -0.00000000       3.16374567 </v>
  </varray>
  <kpoints>
   <generation param="Gamma">
    <v type="int" name="divisions">      12       12       12 </v>
    <v name="usershift">      0.00000000       0.00000000       0.00000000 </v>
    <v name="genvec1">      0.08333333       0.00000000       0.00000000 </v>
    <v name="genvec2">      0.00000000       0.08333333      -0.00000000 </v>
    <v name="genvec3">     -0.00000000      -0.00000000       0.08333333 </v>
    <v name="shift">      0.00000000       0.00000000       0.00000000 </v>
   </generation>
   <varray name="kpointlist" >
    <v>       0.00000000       0.00000000       0.00000000 </v>
    <v>       0.08333333      -0.00000000      -0.00000000 </v>
    <v>       0.16666667      -0.00000000      -0.00000000 </v>
    <v>       0.25000000       0.00000000       0.00000000 </v>
    <v>       0.33333333      -0.00000000      -0.00000000 </v>
    <v>       0.41666667      -0.00000000      -0.00000000 </v>
    <v>       0.50000000       0.00000000       0.00000000 </v>
    <v>       0.08333333       0.08333333      -0.00000000 </v>
    <v>       0.16666667       0.08333333       0.00000000 </v>
    <v>       0.25000000       0.08333333      -0.00000000 </v>
    <v>       0.33333333       0.08333333      -0.00000000 </v>
    <v>       0.41666667       0.08333333      -0.00000000 </v>
    <v>       0.50000000       0.08333333      -0.00000000 </v>
    <v>      -0.41666667       0.08333333      -0.00000000 </v>
    <v>      -0.33333333       0.08333333      -0.00000000 </v>
    <v>      -0.25000000       0.08333333       0.00000000 </v>
    <v>      -0.16666667       0.08333333      -0.00000000 </v>
    <v>      -0.08333333       0.08333333       0.00000000 </v>
    <v>       0.16666667       0.16666667      -0.00000000 </v>
    <v>       0.25000000       0.16666667      -0.00000000 </v>
    <v>       0.33333333       0.16666667      -0.00000000 </v>
    <v>       0.41666667       0.16666667       0.00000000 </v>
    <v>       0.50000000       0.16666667      -0.00000000 </v>
    <v>      -0.41666667       0.16666667       0.00000000 </v>
    <v>      -0.33333333       0.16666667      -0.00000000 </v>
    <v>      -0.25000000       0.16666667       0.00000000 </v>
    <v>      -0.16666667       0.16666667       0.00000000 </v>
    <v>       0.25000000       0.25000000      -0.00000000 </v>
    <v>       0.33333333       0.25000000      -0.00000000 </v>
    <v>       0.41666667       0.25000000      -0.00000000 </v>
    <v>       0.50000000       0.25000000       0.00000000 </v>
    <v>      -0.41666667       0.25000000      -0.00000000 </v>
    <v>      -0.33333333       0.25000000       0.00000000 </v>
    <v>      -0.25000000       0.25000000      -0.00000000 </v>
    <v>       0.33333333       0.33333333      -0.00000000 </v>
    <v>       0.41666667       0.33333333      -0.00000000 </v>
    <v>       0.50000000       0.33333333      -0.00000000 </v>
    <v>      -0.41666667       0.33333333      -0.00000000 </v>
    <v>      -0.33333333       0.33333333       0.00000000 </v>
    <v>       0.41666667       0.41666667      -0.00000000 </v>
    <v>       0.50000000       0.41666667      -0.00000000 </v>
    <v>      -0.41666667       0.41666667       0.00000000 </v>
    <v>       0.50000000       0.50000000      -0.00000000 </v>
    <v>       0.08333333      -0.00000000       0.08333333 </v>
    <v>       0.16666667      -0.00000000       0.08333333 </v>
    <v>       0.25000000      -0.00000000       0.08333333 </v>
    <v>       0.33333333       0.00000000       0.08333333 </v>
    <v>       0.41666667      -0.00000000       0.08333333 </v>
    <v>       0.50000000       0.00000000       0.08333333 </v>
    <v>      -0.41666667      -0.00000000       0.08333333 </v>
    <v>      -0.33333333       0.00000000       0.08333333 </v>
    <v>      -0.25000000      -0.00000000       0.08333333 </v>
    <v>      -0.16666667      -0.00000000       0.08333333 </v>
    <v>      -0.08333333       0.00000000       0.08333333 </v>
    <v>       0.25000000       0.16666667       0.08333333 </v>
    <v>       0.33333333       0.16666667       0.08333333 </v>
    <v>       0.41666667       0.16666667       0.08333333 </v>
    <v>       0.50000000       0.16666667       0.08333333 </v>
    <v>      -0.41666667       0.16666667       0.08333333 </v>
    <v>       0.16666667       0.25000000       0.08333333 </v>
    <v>       0.33333333       0.25000000       0.08333333 </v>
    <v>       0.41666667       0.25000000       0.08333333 </v>
    <v>       0.50000000       0.25000000       0.08333333 </v>
    <v>      -0.41666667       0.25000000       0.08333333 </v>
    <v>      -0.33333333       0.25000000       0.08333333 </v>
    <v>      -0.25000000       0.25000000       0.08333333 </v>
    <v>      -0.16666667       0.25000000       0.08333333 </v>
    <v>       0.16666667       0.33333333       0.08333333 </v>
    <v>       0.25000000       0.33333333       0.08333333 </v>
    <v>       0.41666667       0.33333333       0.08333333 </v>
    <v>       0.50000000       0.33333333       0.08333333 </v>
    <v>      -0.41666667       0.33333333       0.08333333 </v>
    <v>      -0.33333333       0.33333333       0.08333333 </v>
    <v>      -0.25000000       0.33333333       0.08333333 </v>
    <v>       0.16666667       0.41666667       0.08333333 </v>
    <v>       0.25000000       0.41666667       0.08333333 </v>
    <v>       0.33333333       0.41666667       0.08333333 </v>
    <v>       0.50000000       0.41666667       0.08333333 </v>
    <v>      -0.41666667       0.41666667       0.08333333 </v>
    <v>      -0.33333333       0.41666667       0.08333333 </v>
    <v>       0.16666667       0.50000000       0.08333333 </v>
    <v>       0.25000000       0.50000000       0.08333333 </v>
    <v>       0.33333333       0.50000000       0.08333333 </v>
    <v>       0.41666667       0.50000000       0.08333333 </v>
    <v>      -0.41666667       0.50000000       0.08333333 </v>
    <v>       0.16666667      -0.41666667       0.08333333 </v>
    <v>       0.25000000      -0.41666667       0.08333333 </v>
    <v>       0.33333333      -0.41666667       0.08333333 </v>
    <v>       0.41666667      -0.41666667       0.08333333 </v>
    <v>       0.50000000      -0.41666667       0.08333333 </v>
    <v>       0.16666667      -0.33333333       0.08333333 </v>
    <v>       0.25000000      -0.33333333       0.08333333 </v>
    <v>       0.33333333      -0.33333333       0.08333333 </v>
    <v>       0.41666667      -0.33333333       0.08333333 </v>
    <v>       0.16666667      -0.25000000       0.08333333 </v>
    <v>       0.25000000      -0.25000000       0.08333333 </v>
    <v>       0.33333333      -0.25000000       0.08333333 </v>
    <v>       0.16666667      -0.16666667       0.08333333 </v>
    <v>       0.25000000      -0.16666667       0.08333333 </v>
    <v>       0.16666667      -0.08333333       0.08333333 </v>
    <v>       0.16666667      -0.00000000       0.16666667 </v>
    <v>       0.25000000      -0.00000000       0.16666667 </v>
    <v>       0.33333333       0.00000000       0.16666667 </v>
    <v>       0.41666667       0.00000000       0.16666667 </v>
    <v>       0.50000000       0.00000000       0.16666667 </v>
    <v>      -0.41666667       0.00000000       0.16666667 </v>
    <v>      -0.33333333      -0.00000000       0.16666667 </v>
    <v>      -0.25000000       0.00000000       0.16666667 </v>
    <v>      -0.16666667       0.00000000       0.16666667 </v>
    <v>       0.50000000       0.33333333       0.16666667 </v>
    <v>      -0.41666667       0.33333333       0.16666667 </v>
    <v>      -0.33333333       0.33333333       0.16666667 </v>
    <v>       0.25000000       0.41666667       0.16666667 </v>
    <v>      -0.41666667       0.41666667       0.16666667 </v>
    <v>      -0.33333333       0.41666667       0.16666667 </v>
    <v>      -0.25000000       0.41666667       0.16666667 </v>
    <v>       0.25000000       0.50000000       0.16666667 </v>
    <v>       0.33333333       0.50000000       0.16666667 </v>
    <v>      -0.33333333       0.50000000       0.16666667 </v>
    <v>       0.25000000      -0.41666667       0.16666667 </v>
    <v>       0.33333333      -0.41666667       0.16666667 </v>
    <v>       0.41666667      -0.41666667       0.16666667 </v>
    <v>       0.25000000      -0.33333333       0.16666667 </v>
    <v>       0.33333333      -0.33333333       0.16666667 </v>
    <v>       0.41666667      -0.33333333       0.16666667 </v>
    <v>       0.50000000      -0.33333333       0.16666667 </v>
    <v>       0.25000000      -0.25000000       0.16666667 </v>
    <v>       0.33333333      -0.25000000       0.16666667 </v>
    <v>       0.41666667      -0.25000000       0.16666667 </v>
    <v>       0.25000000      -0.16666667       0.16666667 </v>
    <v>       0.33333333      -0.16666667       0.16666667 </v>
    <v>       0.25000000      -0.08333333       0.16666667 </v>
    <v>       0.25000000      -0.00000000       0.25000000 </v>
    <v>       0.33333333      -0.00000000       0.25000000 </v>
    <v>       0.41666667       0.00000000       0.25000000 </v>
    <v>       0.50000000       0.00000000       0.25000000 </v>
    <v>      -0.41666667       0.00000000       0.25000000 </v>
    <v>      -0.33333333       0.00000000       0.25000000 </v>
    <v>      -0.25000000      -0.00000000       0.25000000 </v>
    <v>      -0.25000000       0.50000000       0.25000000 </v>
    <v>       0.33333333      -0.41666667       0.25000000 </v>
    <v>       0.33333333      -0.33333333       0.25000000 </v>
    <v>       0.41666667      -0.33333333       0.25000000 </v>
    <v>       0.33333333      -0.25000000       0.25000000 </v>
    <v>       0.41666667      -0.25000000       0.25000000 </v>
    <v>       0.50000000      -0.25000000       0.25000000 </v>
    <v>       0.33333333      -0.16666667       0.25000000 </v>
    <v>       0.41666667      -0.16666667       0.25000000 </v>
    <v>       0.33333333      -0.08333333       0.25000000 </v>
    <v>       0.33333333      -0.00000000       0.33333333 </v>
    <v>       0.41666667      -0.00000000       0.33333333 </v>
    <v>       0.50000000      -0.00000000       0.33333333 </v>
    <v>      -0.41666667       0.00000000       0.33333333 </v>
    <v>      -0.33333333       0.00000000       0.33333333 </v>
    <v>       0.41666667      -0.25000000       0.33333333 </v>
    <v>       0.41666667      -0.16666667       0.33333333 </v>
    <v>       0.50000000      -0.16666667       0.33333333 </v>
    <v>       0.41666667      -0.08333333       0.33333333 </v>
    <v>       0.41666667      -0.00000000       0.41666667 </v>
    <v>       0.50000000      -0.00000000       0.41666667 </v>
    <v>      -0.41666667       0.00000000       0.41666667 </v>
    <v>       0.50000000      -0.08333333       0.41666667 </v>
    <v>       0.50000000      -0.00000000       0.50000000 </v>
   </varray>
   <varray name="weights" >
    <v>       0.00057870 </v>
    <v>       0.00462963 </v>
    <v>       0.00462963 </v>
    <v>       0.00462963 </v>
    <v>       0.00462963 </v>
    <v>       0.00462963 </v>
    <v>       0.00231481 </v>
    <v>       0.00231481 </v>
    <v>       0.00925926 </v>
    <v>       0.00925926 </v>
    <v>       0.00925926 </v>
    <v>       0.00925926 </v>
    <v>       0.00925926 </v>
    <v>       0.00925926 </v>
    <v>       0.00925926 </v>
    <v>       0.00925926 </v>
    <v>       0.00925926 </v>
    <v>       0.00462963 </v>
    <v>       0.00231481 </v>
    <v>       0.00925926 </v>
    <v>       0.00925926 </v>
    <v>       0.00925926 </v>
    <v>       0.00925926 </v>
    <v>       0.00925926 </v>
    <v>       0.00925926 </v>
    <v>       0.00925926 </v>
    <v>       0.00462963 </v>
    <v>       0.00231481 </v>
    <v>       0.00925926 </v>
    <v>       0.00925926 </v>
    <v>       0.00925926 </v>
    <v>       0.00925926 </v>
    <v>       0.00925926 </v>
    <v>       0.00462963 </v>
    <v>       0.00231481 </v>
    <v>       0.00925926 </v>
    <v>       0.00925926 </v>
    <v>       0.00925926 </v>
    <v>       0.00462963 </v>
    <v>       0.00231481 </v>
    <v>       0.00925926 </v>
    <v>       0.00462963 </v>
    <v>       0.00115741 </v>
    <v>       0.00115741 </v>
    <v>       0.00462963 </v>
    <v>       0.00462963 </v>
    <v>       0.00462963 </v>
    <v>       0.00462963 </v>
    <v>       0.00462963 </v>
    <v>       0.00462963 </v>
    <v>       0.00462963 </v>
    <v>       0.00462963 </v>
    <v>       0.00462963 </v>
    <v>       0.00231481 </v>
    <v>       0.00462963 </v>
    <v>       0.00925926 </v>
    <v>       0.00925926 </v>
    <v>       0.00925926 </v>
    <v>       0.00462963 </v>
    <v>       0.00462963 </v>
    <v>       0.00462963 </v>
    <v>       0.00925926 </v>
    <v>       0.00925926 </v>
    <v>       0.00925926 </v>
    <v>       0.00925926 </v>
    <v>       0.00925926 </v>
    <v>       0.00462963 </v>
    <v>       0.00925926 </v>
    <v>       0.00462963 </v>
    <v>       0.00462963 </v>
    <v>       0.00925926 </v>
    <v>       0.00925926 </v>
    <v>       0.00925926 </v>
    <v>       0.00462963 </v>
    <v>       0.00925926 </v>
    <v>       0.00925926 </v>
    <v>       0.00462963 </v>
    <v>       0.00462963 </v>
    <v>       0.00925926 </v>
    <v>       0.00462963 </v>
    <v>       0.00925926 </v>
    <v>       0.00925926 </v>
    <v>       0.00925926 </v>
    <v>       0.00462963 </v>
    <v>       0.00231481 </v>
    <v>       0.00925926 </v>
    <v>       0.00925926 </v>
    <v>       0.00925926 </v>
    <v>       0.00925926 </v>
    <v>       0.00231481 </v>
    <v>       0.00925926 </v>
    <v>       0.00925926 </v>
    <v>       0.00925926 </v>
    <v>       0.00462963 </v>
    <v>       0.00925926 </v>
    <v>       0.00925926 </v>
    <v>       0.00462963 </v>
    <v>       0.00925926 </v>
    <v>       0.00462963 </v>
    <v>       0.00462963 </v>
    <v>       0.00115741 </v>
    <v>       0.00462963 </v>
    <v>       0.00462963 </v>
    <v>       0.00462963 </v>
    <v>       0.00462963 </v>
    <v>       0.00462963 </v>
    <v>       0.00462963 </v>
    <v>       0.00462963 </v>
    <v>       0.00231481 </v>
    <v>       0.00462963 </v>
    <v>       0.00925926 </v>
    <v>       0.00462963 </v>
    <v>       0.00462963 </v>
    <v>       0.00462963 </v>
    <v>       0.00925926 </v>
    <v>       0.00462963 </v>
    <v>       0.00925926 </v>
    <v>       0.00462963 </v>
    <v>       0.00231481 </v>
    <v>       0.00925926 </v>
    <v>       0.00925926 </v>
    <v>       0.00462963 </v>
    <v>       0.00925926 </v>
    <v>       0.00925926 </v>
    <v>       0.00925926 </v>
    <v>       0.00231481 </v>
    <v>       0.00925926 </v>
    <v>       0.00925926 </v>
    <v>       0.00462963 </v>
    <v>       0.00925926 </v>
    <v>       0.00462963 </v>
    <v>       0.00462963 </v>
    <v>       0.00115741 </v>
    <v>       0.00462963 </v>
    <v>       0.00462963 </v>
    <v>       0.00462963 </v>
    <v>       0.00462963 </v>
    <v>       0.00462963 </v>
    <v>       0.00231481 </v>
    <v>       0.00115741 </v>
    <v>       0.00462963 </v>
    <v>       0.00925926 </v>
    <v>       0.00462963 </v>
    <v>       0.00925926 </v>
    <v>       0.00925926 </v>
    <v>       0.00231481 </v>
    <v>       0.00925926 </v>
    <v>       0.00462963 </v>
    <v>       0.00462963 </v>
    <v>       0.00115741 </v>
    <v>       0.00462963 </v>
    <v>       0.00462963 </v>
    <v>       0.00462963 </v>
    <v>       0.00231481 </v>
    <v>       0.00462963 </v>
    <v>       0.00925926 </v>
    <v>       0.00231481 </v>
    <v>       0.00462963 </v>
    <v>       0.00115741 </v>
    <v>       0.00462963 </v>
    <v>       0.00231481 </v>
    <v>       0.00231481 </v>
    <v>       0.00057870 </v>
   </varray>
  </kpoints>
  <scstep>
   <time name="total">    0.96    0.96</time>
   <energy>
    <i name="e_fr_energy">     -0.28051092 </i>
    <i name="e_wo_entrp">     -0.28051092 </i>
    <i name="e_0_energy">     -0.28051092 </i>
   </energy>
  </scstep>
  <scstep>
   <time name="total">    1.11    1.11</time>
   <energy>
    <i name="e_fr_energy">     -0.31061599 </i>
    <i name="e_wo_entrp">     -0.31061599 </i>
    <i name="e_0_energy">     -0.31061599 </i>
   </energy>
  </scstep>
  <scstep>
   <time name="total">    1.45    1.45</time>
   <energy>
    <i name="e_fr_energy">     -0.28228573 </i>
    <i name="e_wo_entrp">     -0.28228573 </i>
    <i name="e_0_energy">     -0.28228573 </i>
   </energy>
  </scstep>
  <scstep>
   <time name="total">    1.74    1.74</time>
   <energy>
    <i name="e_fr_energy">     -0.29614989 </i>
    <i name="e_wo_entrp">     -0.29614989 </i>
    <i name="e_0_energy">     -0.29614989 </i>
   </energy>
  </scstep>
  <scstep>
   <time name="total">    1.48    1.48</time>
   <energy>
    <i name="e_fr_energy">     -0.31117321 </i>
    <i name="e_wo_entrp">     -0.31117321 </i>
    <i name="e_0_energy">     -0.31117321 </i>
   </energy>
  </scstep>
  <scstep>
   <time name="total">    1.64    1.64</time>
   <energy>
    <i name="e_fr_energy">     -0.31096699 </i>
    <i name="e_wo_entrp">     -0.31096699 </i>
    <i name="e_0_energy">     -0.31096699 </i>
   </energy>
  </scstep>
  <scstep>
   <time name="total">    1.62    1.62</time>
   <energy>
    <i name="e_fr_energy">     -0.31155559 </i>
    <i name="e_wo_entrp">     -0.31155559 </i>
    <i name="e_0_energy">     -0.31155559 </i>
   </energy>
  </scstep>
  <scstep>
   <time name="total">    1.72    1.72</time>
   <energy>
    <i name="e_fr_energy">     -0.31154819 </i>
    <i name="e_wo_entrp">     -0.31154819 </i>
    <i name="e_0_energy">     -0.31154819 </i>
   </energy>
  </scstep>
  <scstep>
   <time name="total">    1.67    1.67</time>
   <energy>
    <i name="e_fr_energy">     -0.31157906 </i>
    <i name="e_wo_entrp">     -0.31157906 </i>
    <i name="e_0_energy">     -0.31157906 </i>
   </energy>
  </scstep>
  <scstep>
   <time name="total">    1.55    1.55</time>
   <energy>
    <i name="e_fr_energy">     -0.31159172 </i>
    <i name="e_wo_entrp">     -0.31159172 </i>
    <i name="e_0_energy">     -0.31159172 </i>
   </energy>
  </scstep>
  <scstep>
   <time name="total">    1.67    1.67</time>
   <energy>
    <i name="e_fr_energy">     -0.31159200 </i>
    <i name="e_wo_entrp">     -0.31159200 </i>
    <i name="e_0_energy">     -0.31159200 </i>
   </energy>
  </scstep>
  <scstep>
   <time name="total">    1.65    1.65</time>
   <energy>
    <i name="e_fr_energy">     -0.31159002 </i>
    <i name="e_wo_entrp">     -0.31159002 </i>
    <i name="e_0_energy">     -0.31159002 </i>
   </energy>
  </scstep>
  <scstep>
   <time name="total">    1.52    1.52</time>
   <energy>
    <i name="e_fr_energy">     -0.31159005 </i>
    <i name="e_wo_entrp">     -0.31159005 </i>
    <i name="e_0_energy">     -0.31159005 </i>
   </energy>
  </scstep>
  <kpoints>
   <generation param="Gamma">
    <v type="int" name="divisions">      12       12       12 </v>
    <v name="usershift">      0.00000000       0.00000000       0.00000000 </v>
    <v name="genvec1">      0.08333333       0.00000000       0.00000000 </v>
    <v name="genvec2">      0.00000000       0.08333333      -0.00000000 </v>
    <v name="genvec3">     -0.00000000      -0.00000000       0.08333333 </v>
    <v name="shift">      0.00000000       0.00000000       0.00000000 </v>
   </generation>
   <varray name="kpointlist" >
    <v>       0.00000000       0.00000000       0.00000000 </v>
    <v>       0.08333333      -0.00000000      -0.00000000 </v>
    <v>       0.16666667      -0.00000000      -0.00000000 </v>
    <v>       0.25000000       0.00000000       0.00000000 </v>
    <v>       0.33333333      -0.00000000      -0.00000000 </v>
    <v>       0.41666667      -0.00000000      -0.00000000 </v>
    <v>       0.50000000       0.00000000       0.00000000 </v>
    <v>       0.08333333       0.08333333      -0.00000000 </v>
    <v>       0.16666667       0.08333333       0.00000000 </v>
    <v>       0.25000000       0.08333333      -0.00000000 </v>
    <v>       0.33333333       0.08333333      -0.00000000 </v>
    <v>       0.41666667       0.08333333      -0.00000000 </v>
    <v>       0.50000000       0.08333333      -0.00000000 </v>
    <v>      -0.41666667       0.08333333      -0.00000000 </v>
    <v>      -0.33333333       0.08333333      -0.00000000 </v>
    <v>      -0.25000000       0.08333333       0.00000000 </v>
    <v>      -0.16666667       0.08333333      -0.00000000 </v>
    <v>      -0.08333333       0.08333333       0.00000000 </v>
    <v>       0.16666667       0.16666667      -0.00000000 </v>
    <v>       0.25000000       0.16666667      -0.00000000 </v>
    <v>       0.33333333       0.16666667      -0.00000000 </v>
    <v>       0.41666667       0.16666667       0.00000000 </v>
    <v>       0.50000000       0.16666667      -0.00000000 </v>
    <v>      -0.41666667       0.16666667       0.00000000 </v>
    <v>      -0.33333333       0.16666667      -0.00000000 </v>
    <v>      -0.25000000       0.16666667       0.00000000 </v>
    <v>      -0.16666667       0.16666667       0.00000000 </v>
    <v>       0.25000000       0.25000000      -0.00000000 </v>
    <v>       0.33333333       0.25000000      -0.00000000 </v>
    <v>       0.41666667       0.25000000      -0.00000000 </v>
    <v>       0.50000000       0.25000000       0.00000000 </v>
    <v>      -0.41666667       0.25000000      -0.00000000 </v>
    <v>      -0.33333333       0.25000000       0.00000000 </v>
    <v>      -0.25000000       0.25000000      -0.00000000 </v>
    <v>       0.33333333       0.33333333      -0.00000000 </v>
    <v>       0.41666667       0.33333333      -0.00000000 </v>
    <v>       0.50000000       0.33333333      -0.00000000 </v>
    <v>      -0.41666667       0.33333333      -0.00000000 </v>
    <v>      -0.33333333       0.33333333       0.00000000 </v>
    <v>       0.41666667       0.41666667      -0.00000000 </v>
    <v>       0.50000000       0.41666667      -0.00000000 </v>
    <v>      -0.41666667       0.41666667       0.00000000 </v>
    <v>       0.50000000       0.50000000      -0.00000000 </v>
    <v>       0.00000000       0.00000000       0.08333333 </v>
    <v>       0.08333333      -0.00000000       0.08333333 </v>
    <v>       0.16666667      -0.00000000       0.08333333 </v>
    <v>       0.25000000      -0.00000000       0.08333333 </v>
    <v>       0.33333333       0.00000000       0.08333333 </v>
    <v>       0.41666667      -0.00000000       0.08333333 </v>
    <v>       0.50000000       0.00000000       0.08333333 </v>
    <v>      -0.41666667      -0.00000000       0.08333333 </v>
    <v>      -0.33333333       0.00000000       0.08333333 </v>
    <v>      -0.25000000      -0.00000000       0.08333333 </v>
    <v>      -0.16666667      -0.00000000       0.08333333 </v>
    <v>      -0.08333333       0.00000000       0.08333333 </v>
    <v>      -0.00000000       0.08333333       0.08333333 </v>
    <v>       0.16666667       0.08333333       0.08333333 </v>
    <v>       0.25000000       0.08333333       0.08333333 </v>
    <v>       0.33333333       0.08333333       0.08333333 </v>
    <v>       0.41666667       0.08333333       0.08333333 </v>
    <v>       0.50000000       0.08333333       0.08333333 </v>
    <v>      -0.41666667       0.08333333       0.08333333 </v>
    <v>      -0.33333333       0.08333333       0.08333333 </v>
    <v>      -0.25000000       0.08333333       0.08333333 </v>
    <v>      -0.16666667       0.08333333       0.08333333 </v>
    <v>      -0.08333333       0.08333333       0.08333333 </v>
    <v>       0.16666667       0.16666667       0.08333333 </v>
    <v>       0.25000000       0.16666667       0.08333333 </v>
    <v>       0.33333333       0.16666667       0.08333333 </v>
    <v>       0.41666667       0.16666667       0.08333333 </v>
    <v>       0.50000000       0.16666667       0.08333333 </v>
    <v>      -0.41666667       0.16666667       0.08333333 </v>
    <v>      -0.33333333       0.16666667       0.08333333 </v>
    <v>      -0.25000000       0.16666667       0.08333333 </v>
    <v>      -0.16666667       0.16666667       0.08333333 </v>
    <v>      -0.08333333       0.16666667       0.08333333 </v>
    <v>       0.16666667       0.25000000       0.08333333 </v>
    <v>       0.25000000       0.25000000       0.08333333 </v>
    <v>       0.33333333       0.25000000       0.08333333 </v>
    <v>       0.41666667       0.25000000       0.08333333 </v>
    <v>       0.50000000       0.25000000       0.08333333 </v>
    <v>      -0.41666667       0.25000000       0.08333333 </v>
    <v>      -0.33333333       0.25000000       0.08333333 </v>
    <v>      -0.25000000       0.25000000       0.08333333 </v>
    <v>      -0.16666667       0.25000000       0.08333333 </v>
    <v>       0.16666667       0.33333333       0.08333333 </v>
    <v>       0.25000000       0.33333333       0.08333333 </v>
    <v>       0.33333333       0.33333333       0.08333333 </v>
    <v>       0.41666667       0.33333333       0.08333333 </v>
    <v>       0.50000000       0.33333333       0.08333333 </v>
    <v>      -0.41666667       0.33333333       0.08333333 </v>
    <v>      -0.33333333       0.33333333       0.08333333 </v>
    <v>      -0.25000000       0.33333333       0.08333333 </v>
    <v>       0.16666667       0.41666667       0.08333333 </v>
    <v>       0.25000000       0.41666667       0.08333333 </v>
    <v>       0.33333333       0.41666667       0.08333333 </v>
    <v>       0.41666667       0.41666667       0.08333333 </v>
    <v>       0.50000000       0.41666667       0.08333333 </v>
    <v>      -0.41666667       0.41666667       0.08333333 </v>
    <v>      -0.33333333       0.41666667       0.08333333 </v>
    <v>       0.16666667       0.50000000       0.08333333 </v>
    <v>       0.25000000       0.50000000       0.08333333 </v>
    <v>       0.33333333       0.50000000       0.08333333 </v>
    <v>       0.41666667       0.50000000       0.08333333 </v>
    <v>       0.50000000       0.50000000       0.08333333 </v>
    <v>      -0.41666667       0.50000000       0.08333333 </v>
    <v>       0.16666667      -0.41666667       0.08333333 </v>
    <v>       0.25000000      -0.41666667       0.08333333 </v>
    <v>       0.33333333      -0.41666667       0.08333333 </v>
    <v>       0.41666667      -0.41666667       0.08333333 </v>
    <v>       0.50000000      -0.41666667       0.08333333 </v>
    <v>       0.16666667      -0.33333333       0.08333333 </v>
    <v>       0.25000000      -0.33333333       0.08333333 </v>
    <v>       0.33333333      -0.33333333       0.08333333 </v>
    <v>       0.41666667      -0.33333333       0.08333333 </v>
    <v>       0.16666667      -0.25000000       0.08333333 </v>
    <v>       0.25000000      -0.25000000       0.08333333 </v>
    <v>       0.33333333      -0.25000000       0.08333333 </v>
    <v>       0.16666667      -0.16666667       0.08333333 </v>
    <v>       0.25000000      -0.16666667       0.08333333 </v>
    <v>       0.16666667      -0.08333333       0.08333333 </v>
    <v>       0.00000000       0.00000000       0.16666667 </v>
    <v>       0.08333333      -0.00000000       0.16666667 </v>
    <v>       0.16666667      -0.00000000       0.16666667 </v>
    <v>       0.25000000      -0.00000000       0.16666667 </v>
    <v>       0.33333333       0.00000000       0.16666667 </v>
    <v>       0.41666667       0.00000000       0.16666667 </v>
    <v>       0.50000000       0.00000000       0.16666667 </v>
    <v>      -0.41666667       0.00000000       0.16666667 </v>
    <v>      -0.33333333      -0.00000000       0.16666667 </v>
    <v>      -0.25000000       0.00000000       0.16666667 </v>
    <v>      -0.16666667       0.00000000       0.16666667 </v>
    <v>      -0.08333333      -0.00000000       0.16666667 </v>
    <v>      -0.00000000       0.08333333       0.16666667 </v>
    <v>       0.08333333       0.08333333       0.16666667 </v>
    <v>       0.25000000       0.08333333       0.16666667 </v>
    <v>       0.33333333       0.08333333       0.16666667 </v>
    <v>       0.41666667       0.08333333       0.16666667 </v>
    <v>       0.50000000       0.08333333       0.16666667 </v>
    <v>      -0.41666667       0.08333333       0.16666667 </v>
    <v>      -0.33333333       0.08333333       0.16666667 </v>
    <v>      -0.25000000       0.08333333       0.16666667 </v>
    <v>      -0.16666667       0.08333333       0.16666667 </v>
    <v>      -0.08333333       0.08333333       0.16666667 </v>
    <v>      -0.00000000       0.16666667       0.16666667 </v>
    <v>       0.25000000       0.16666667       0.16666667 </v>
    <v>       0.33333333       0.16666667       0.16666667 </v>
    <v>       0.41666667       0.16666667       0.16666667 </v>
    <v>       0.50000000       0.16666667       0.16666667 </v>
    <v>      -0.41666667       0.16666667       0.16666667 </v>
    <v>      -0.33333333       0.16666667       0.16666667 </v>
    <v>      -0.25000000       0.16666667       0.16666667 </v>
    <v>      -0.16666667       0.16666667       0.16666667 </v>
    <v>      -0.08333333       0.16666667       0.16666667 </v>
    <v>       0.25000000       0.25000000       0.16666667 </v>
    <v>       0.33333333       0.25000000       0.16666667 </v>
    <v>       0.41666667       0.25000000       0.16666667 </v>
    <v>       0.50000000       0.25000000       0.16666667 </v>
    <v>      -0.41666667       0.25000000       0.16666667 </v>
    <v>      -0.33333333       0.25000000       0.16666667 </v>
    <v>      -0.25000000       0.25000000       0.16666667 </v>
    <v>      -0.16666667       0.25000000       0.16666667 </v>
    <v>      -0.08333333       0.25000000       0.16666667 </v>
    <v>       0.25000000       0.33333333       0.16666667 </v>
    <v>       0.33333333       0.33333333       0.16666667 </v>
    <v>       0.41666667       0.33333333       0.16666667 </v>
    <v>       0.50000000       0.33333333       0.16666667 </v>
    <v>      -0.41666667       0.33333333       0.16666667 </v>
    <v>      -0.33333333       0.33333333       0.16666667 </v>
    <v>      -0.25000000       0.33333333       0.16666667 </v>
    <v>      -0.16666667       0.33333333       0.16666667 </v>
    <v>       0.25000000       0.41666667       0.16666667 </v>
    <v>       0.33333333       0.41666667       0.16666667 </v>
    <v>       0.41666667       0.41666667       0.16666667 </v>
    <v>       0.50000000       0.41666667       0.16666667 </v>
    <v>      -0.41666667       0.41666667       0.16666667 </v>
    <v>      -0.33333333       0.41666667       0.16666667 </v>
    <v>      -0.25000000       0.41666667       0.16666667 </v>
    <v>       0.25000000       0.50000000       0.16666667 </v>
    <v>       0.33333333       0.50000000       0.16666667 </v>
    <v>       0.41666667       0.50000000       0.16666667 </v>
    <v>       0.50000000       0.50000000       0.16666667 </v>
    <v>      -0.41666667       0.50000000       0.16666667 </v>
    <v>      -0.33333333       0.50000000       0.16666667 </v>
    <v>       0.25000000      -0.41666667       0.16666667 </v>
    <v>       0.33333333      -0.41666667       0.16666667 </v>
    <v>       0.41666667      -0.41666667       0.16666667 </v>
    <v>       0.50000000      -0.41666667       0.16666667 </v>
    <v>      -0.41666667      -0.41666667       0.16666667 </v>
    <v>       0.25000000      -0.33333333       0.16666667 </v>
    <v>       0.33333333      -0.33333333       0.16666667 </v>
    <v>       0.41666667      -0.33333333       0.16666667 </v>
    <v>       0.50000000      -0.33333333       0.16666667 </v>
    <v>       0.25000000      -0.25000000       0.16666667 </v>
    <v>       0.33333333      -0.25000000       0.16666667 </v>
    <v>       0.41666667      -0.25000000       0.16666667 </v>
    <v>       0.25000000      -0.16666667       0.16666667 </v>
    <v>       0.33333333      -0.16666667       0.16666667 </v>
    <v>       0.25000000      -0.08333333       0.16666667 </v>
    <v>      -0.00000000      -0.00000000       0.25000000 </v>
    <v>       0.08333333       0.00000000       0.25000000 </v>
    <v>       0.16666667      -0.00000000       0.25000000 </v>
    <v>       0.25000000      -0.00000000       0.25000000 </v>
    <v>       0.33333333      -0.00000000       0.25000000 </v>
    <v>       0.41666667       0.00000000       0.25000000 </v>
    <v>       0.50000000       0.00000000       0.25000000 </v>
    <v>      -0.41666667       0.00000000       0.25000000 </v>
    <v>      -0.33333333       0.00000000       0.25000000 </v>
    <v>      -0.25000000      -0.00000000       0.25000000 </v>
    <v>      -0.16666667       0.00000000       0.25000000 </v>
    <v>      -0.08333333       0.00000000       0.25000000 </v>
    <v>      -0.00000000       0.08333333       0.25000000 </v>
    <v>       0.08333333       0.08333333       0.25000000 </v>
    <v>       0.16666667       0.08333333       0.25000000 </v>
    <v>       0.33333333       0.08333333       0.25000000 </v>
    <v>       0.41666667       0.08333333       0.25000000 </v>
    <v>       0.50000000       0.08333333       0.25000000 </v>
    <v>      -0.41666667       0.08333333       0.25000000 </v>
    <v>      -0.33333333       0.08333333       0.25000000 </v>
    <v>      -0.25000000       0.08333333       0.25000000 </v>
    <v>      -0.16666667       0.08333333       0.25000000 </v>
    <v>      -0.08333333       0.08333333       0.25000000 </v>
    <v>      -0.00000000       0.16666667       0.25000000 </v>
    <v>       0.08333333       0.16666667       0.25000000 </v>
    <v>       0.33333333       0.16666667       0.25000000 </v>
    <v>       0.41666667       0.16666667       0.25000000 </v>
    <v>       0.50000000       0.16666667       0.25000000 </v>
    <v>      -0.41666667       0.16666667       0.25000000 </v>
    <v>      -0.33333333       0.16666667       0.25000000 </v>
    <v>      -0.25000000       0.16666667       0.25000000 </v>
    <v>      -0.16666667       0.16666667       0.25000000 </v>
    <v>      -0.08333333       0.16666667       0.25000000 </v>
    <v>      -0.00000000       0.25000000       0.25000000 </v>
    <v>       0.33333333       0.25000000       0.25000000 </v>
    <v>       0.41666667       0.25000000       0.25000000 </v>
    <v>       0.50000000       0.25000000       0.25000000 </v>
    <v>      -0.41666667       0.25000000       0.25000000 </v>
    <v>      -0.33333333       0.25000000       0.25000000 </v>
    <v>      -0.25000000       0.25000000       0.25000000 </v>
    <v>      -0.16666667       0.25000000       0.25000000 </v>
    <v>      -0.08333333       0.25000000       0.25000000 </v>
    <v>       0.33333333       0.33333333       0.25000000 </v>
    <v>       0.41666667       0.33333333       0.25000000 </v>
    <v>       0.50000000       0.33333333       0.25000000 </v>
    <v>      -0.41666667       0.33333333       0.25000000 </v>
    <v>      -0.33333333       0.33333333       0.25000000 </v>
    <v>      -0.25000000       0.33333333       0.25000000 </v>
    <v>      -0.16666667       0.33333333       0.25000000 </v>
    <v>      -0.08333333       0.33333333       0.25000000 </v>
    <v>       0.33333333       0.41666667       0.25000000 </v>
    <v>       0.41666667       0.41666667       0.25000000 </v>
    <v>       0.50000000       0.41666667       0.25000000 </v>
    <v>      -0.41666667       0.41666667       0.25000000 </v>
    <v>      -0.33333333       0.41666667       0.25000000 </v>
    <v>      -0.25000000       0.41666667       0.25000000 </v>
    <v>      -0.16666667       0.41666667       0.25000000 </v>
    <v>       0.33333333       0.50000000       0.25000000 </v>
    <v>       0.41666667       0.50000000       0.25000000 </v>
    <v>       0.50000000       0.50000000       0.25000000 </v>
    <v>      -0.41666667       0.50000000       0.25000000 </v>
    <v>      -0.33333333       0.50000000       0.25000000 </v>
    <v>      -0.25000000       0.50000000       0.25000000 </v>
    <v>       0.33333333      -0.41666667       0.25000000 </v>
    <v>       0.41666667      -0.41666667       0.25000000 </v>
    <v>       0.50000000      -0.41666667       0.25000000 </v>
    <v>      -0.41666667      -0.41666667       0.25000000 </v>
    <v>      -0.33333333      -0.41666667       0.25000000 </v>
    <v>       0.33333333      -0.33333333       0.25000000 </v>
    <v>       0.41666667      -0.33333333       0.25000000 </v>
    <v>       0.50000000      -0.33333333       0.25000000 </v>
    <v>      -0.41666667      -0.33333333       0.25000000 </v>
    <v>       0.33333333      -0.25000000       0.25000000 </v>
    <v>       0.41666667      -0.25000000       0.25000000 </v>
    <v>       0.50000000      -0.25000000       0.25000000 </v>
    <v>       0.33333333      -0.16666667       0.25000000 </v>
    <v>       0.41666667      -0.16666667       0.25000000 </v>
    <v>       0.33333333      -0.08333333       0.25000000 </v>
    <v>      -0.00000000       0.00000000       0.33333333 </v>
    <v>       0.08333333      -0.00000000       0.33333333 </v>
    <v>       0.16666667      -0.00000000       0.33333333 </v>
    <v>       0.25000000       0.00000000       0.33333333 </v>
    <v>       0.33333333      -0.00000000       0.33333333 </v>
    <v>       0.41666667      -0.00000000       0.33333333 </v>
    <v>       0.50000000      -0.00000000       0.33333333 </v>
    <v>      -0.41666667       0.00000000       0.33333333 </v>
    <v>      -0.33333333       0.00000000       0.33333333 </v>
    <v>      -0.25000000       0.00000000       0.33333333 </v>
    <v>      -0.16666667      -0.00000000       0.33333333 </v>
    <v>      -0.08333333      -0.00000000       0.33333333 </v>
    <v>      -0.00000000       0.08333333       0.33333333 </v>
[...]
       <r>   13.2552    0.0000 </r>
       <r>   14.3171    0.0000 </r>
       <r>   14.3890    0.0000 </r>
       <r>   15.4880    0.0000 </r>
       <r>   17.3325    0.0000 </r>
      </set>
      <set comment="kpoint 158">
       <r>  -22.1423    1.0000 </r>
       <r>  -22.1361    1.0000 </r>
       <r>  -22.1357    1.0000 </r>
       <r>  -13.1226    1.0000 </r>
       <r>   -2.3592    1.0000 </r>
       <r>   -1.3557    1.0000 </r>
       <r>   -1.2844    1.0000 </r>
       <r>    5.9795    0.0000 </r>
       <r>    6.7293    0.0000 </r>
       <r>    9.4203    0.0000 </r>
       <r>   11.5234    0.0000 </r>
       <r>   12.4624    0.0000 </r>
       <r>   14.0835    0.0000 </r>
       <r>   14.9815    0.0000 </r>
       <r>   16.0544    0.0000 </r>
       <r>   16.6408    0.0000 </r>
      </set>
      <set comment="kpoint 159">
       <r>  -22.1425    1.0000 </r>
       <r>  -22.1356    1.0000 </r>
       <r>  -22.1356    1.0000 </r>
       <r>  -13.1275    1.0000 </r>
       <r>   -2.3973    1.0000 </r>
       <r>   -1.2572    1.0000 </r>
       <r>   -1.2572    1.0000 </r>
       <r>    5.7231    0.0000 </r>
       <r>    6.4858    0.0000 </r>
       <r>    9.7574    0.0000 </r>
       <r>   12.3870    0.0000 </r>
       <r>   12.3870    0.0000 </r>
       <r>   13.2991    0.0000 </r>
       <r>   15.7165    0.0000 </r>
       <r>   16.0324    0.0000 </r>
       <r>   16.0324    0.0000 </r>
      </set>
      <set comment="kpoint 160">
       <r>  -22.1426    1.0000 </r>
       <r>  -22.1364    1.0000 </r>
       <r>  -22.1357    1.0000 </r>
       <r>  -13.1092    1.0000 </r>
       <r>   -2.4209    1.0000 </r>
       <r>   -1.3735    1.0000 </r>
       <r>   -1.2731    1.0000 </r>
       <r>    5.7479    0.0000 </r>
       <r>    6.5356    0.0000 </r>
       <r>    9.9710    0.0000 </r>
       <r>   12.1435    0.0000 </r>
       <r>   12.5077    0.0000 </r>
       <r>   14.1401    0.0000 </r>
       <r>   15.2063    0.0000 </r>
       <r>   15.3003    0.0000 </r>
       <r>   15.9727    0.0000 </r>
      </set>
      <set comment="kpoint 161">
       <r>  -22.1420    1.0000 </r>
       <r>  -22.1380    1.0000 </r>
       <r>  -22.1353    1.0000 </r>
       <r>  -13.1008    1.0000 </r>
       <r>   -2.3421    1.0000 </r>
       <r>   -1.6116    1.0000 </r>
       <r>   -1.2401    1.0000 </r>
       <r>    5.9941    0.0000 </r>
       <r>    6.9218    0.0000 </r>
       <r>    9.7684    0.0000 </r>
       <r>   11.4874    0.0000 </r>
       <r>   11.8978    0.0000 </r>
       <r>   14.3973    0.0000 </r>
       <r>   15.3156    0.0000 </r>
       <r>   15.9595    0.0000 </r>
       <r>   15.9932    0.0000 </r>
      </set>
      <set comment="kpoint 162">
       <r>  -22.1425    1.0000 </r>
       <r>  -22.1364    1.0000 </r>
       <r>  -22.1363    1.0000 </r>
       <r>  -13.1022    1.0000 </r>
       <r>   -2.4036    1.0000 </r>
       <r>   -1.3988    1.0000 </r>
       <r>   -1.3437    1.0000 </r>
       <r>    5.8466    0.0000 </r>
       <r>    6.6283    0.0000 </r>
       <r>    9.9833    0.0000 </r>
       <r>   11.5474    0.0000 </r>
       <r>   12.9747    0.0000 </r>
       <r>   14.1385    0.0000 </r>
       <r>   15.0837    0.0000 </r>
       <r>   15.4378    0.0000 </r>
       <r>   15.8255    0.0000 </r>
      </set>
      <set comment="kpoint 163">
       <r>  -22.1430    1.0000 </r>
       <r>  -22.1360    1.0000 </r>
       <r>  -22.1360    1.0000 </r>
       <r>  -13.1053    1.0000 </r>
       <r>   -2.4659    1.0000 </r>
       <r>   -1.2978    1.0000 </r>
       <r>   -1.2978    1.0000 </r>
       <r>    5.5893    0.0000 </r>
       <r>    6.3760    0.0000 </r>
       <r>   10.2654    0.0000 </r>
       <r>   12.8824    0.0000 </r>
       <r>   12.8824    0.0000 </r>
       <r>   13.5304    0.0000 </r>
       <r>   14.9866    0.0000 </r>
       <r>   15.4139    0.0000 </r>
       <r>   15.4139    0.0000 </r>
      </set>
     </set>
    </set>
   </array>
  </eigenvalues>
  <separator name="orbital magnetization" >
   <v name="MAGDIPOLOUT">      0.00000000      0.00000000      0.00000000</v>
  </separator>
  <dos>
   <i name="efermi">     -0.53688620 </i>
   <total>
    <array>
     <dimension dim="1">gridpoints</dimension>
     <dimension dim="2">spin</dimension>
     <field>energy</field>
     <field>total</field>
     <field>integrated</field>
     <set>
      <set comment="spin 1">
       <r>   -24.1583     0.0000     0.0000 </r>
       <r>   -24.0109     0.0000     0.0000 </r>
       <r>   -23.8635     0.0000     0.0000 </r>
       <r>   -23.7161     0.0000     0.0000 </r>
       <r>   -23.5687     0.0000     0.0000 </r>
       <r>   -23.4213     0.0000     0.0000 </r>
       <r>   -23.2739     0.0000     0.0000 </r>
       <r>   -23.1265     0.0000     0.0000 </r>
       <r>   -22.9791     0.0000     0.0000 </r>
       <r>   -22.8317     0.0000     0.0000 </r>
       <r>   -22.6843     0.0000     0.0000 </r>
       <r>   -22.5369     0.0000     0.0000 </r>
       <r>   -22.3895     0.0000     0.0000 </r>
       <r>   -22.2421     0.0000     0.0000 </r>
       <r>   -22.0947    40.7046     6.0000 </r>
       <r>   -21.9473     0.0000     6.0000 </r>
       <r>   -21.7999     0.0000     6.0000 </r>
       <r>   -21.6524     0.0000     6.0000 </r>
       <r>   -21.5050     0.0000     6.0000 </r>
       <r>   -21.3576     0.0000     6.0000 </r>
       <r>   -21.2102     0.0000     6.0000 </r>
       <r>   -21.0628     0.0000     6.0000 </r>
       <r>   -20.9154     0.0000     6.0000 </r>
       <r>   -20.7680     0.0000     6.0000 </r>
       <r>   -20.6206     0.0000     6.0000 </r>
       <r>   -20.4732     0.0000     6.0000 </r>
       <r>   -20.3258     0.0000     6.0000 </r>
       <r>   -20.1784     0.0000     6.0000 </r>
       <r>   -20.0310     0.0000     6.0000 </r>
       <r>   -19.8836     0.0000     6.0000 </r>
       <r>   -19.7362     0.0000     6.0000 </r>
       <r>   -19.5888     0.0000     6.0000 </r>
       <r>   -19.4414     0.0000     6.0000 </r>
       <r>   -19.2940     0.0000     6.0000 </r>
       <r>   -19.1466     0.0000     6.0000 </r>
       <r>   -18.9992     0.0000     6.0000 </r>
       <r>   -18.8518     0.0000     6.0000 </r>
       <r>   -18.7044     0.0000     6.0000 </r>
       <r>   -18.5570     0.0000     6.0000 </r>
       <r>   -18.4096     0.0000     6.0000 </r>
       <r>   -18.2622     0.0000     6.0000 </r>
       <r>   -18.1148     0.0000     6.0000 </r>
       <r>   -17.9674     0.0000     6.0000 </r>
       <r>   -17.8200     0.0000     6.0000 </r>
       <r>   -17.6726     0.0000     6.0000 </r>
       <r>   -17.5251     0.0000     6.0000 </r>
       <r>   -17.3777     0.0000     6.0000 </r>
       <r>   -17.2303     0.0000     6.0000 </r>
       <r>   -17.0829     0.0000     6.0000 </r>
       <r>   -16.9355     0.0000     6.0000 </r>
       <r>   -16.7881     0.0000     6.0000 </r>
       <r>   -16.6407     0.0000     6.0000 </r>
       <r>   -16.4933     0.0000     6.0000 </r>
       <r>   -16.3459     0.0000     6.0000 </r>
       <r>   -16.1985     0.0000     6.0000 </r>
       <r>   -16.0511     0.0000     6.0000 </r>
       <r>   -15.9037     0.0000     6.0000 </r>
       <r>   -15.7563     0.0000     6.0000 </r>
       <r>   -15.6089     0.0000     6.0000 </r>
       <r>   -15.4615     0.0000     6.0000 </r>
       <r>   -15.3141     0.0000     6.0000 </r>
       <r>   -15.1667     0.0000     6.0000 </r>
       <r>   -15.0193     0.0000     6.0000 </r>
       <r>   -14.8719     0.0000     6.0000 </r>
       <r>   -14.7245     0.0000     6.0000 </r>
       <r>   -14.5771     0.0000     6.0000 </r>
       <r>   -14.4297     0.0000     6.0000 </r>
       <r>   -14.2823     0.0000     6.0000 </r>
       <r>   -14.1349     0.0000     6.0000 </r>
       <r>   -13.9875     0.0000     6.0000 </r>
       <r>   -13.8401     0.0000     6.0000 </r>
       <r>   -13.6927     0.0000     6.0000 </r>
       <r>   -13.5453     0.0000     6.0000 </r>
       <r>   -13.3978     0.2810     6.0414 </r>
       <r>   -13.2504     1.5221     6.3551 </r>
       <r>   -13.1030     7.7585     7.8207 </r>
       <r>   -12.9556     0.0000     8.0000 </r>
       <r>   -12.8082     0.0000     8.0000 </r>
       <r>   -12.6608     0.0000     8.0000 </r>
       <r>   -12.5134     0.0000     8.0000 </r>
       <r>   -12.3660     0.0000     8.0000 </r>
       <r>   -12.2186     0.0000     8.0000 </r>
       <r>   -12.0712     0.0000     8.0000 </r>
       <r>   -11.9238     0.0000     8.0000 </r>
       <r>   -11.7764     0.0000     8.0000 </r>
       <r>   -11.6290     0.0000     8.0000 </r>
       <r>   -11.4816     0.0000     8.0000 </r>
       <r>   -11.3342     0.0000     8.0000 </r>
       <r>   -11.1868     0.0000     8.0000 </r>
       <r>   -11.0394     0.0000     8.0000 </r>
       <r>   -10.8920     0.0000     8.0000 </r>
       <r>   -10.7446     0.0000     8.0000 </r>
       <r>   -10.5972     0.0000     8.0000 </r>
       <r>   -10.4498     0.0000     8.0000 </r>
       <r>   -10.3024     0.0000     8.0000 </r>
       <r>   -10.1550     0.0000     8.0000 </r>
       <r>   -10.0076     0.0000     8.0000 </r>
       <r>    -9.8602     0.0000     8.0000 </r>
       <r>    -9.7128     0.0000     8.0000 </r>
       <r>    -9.5654     0.0000     8.0000 </r>
       <r>    -9.4180     0.0000     8.0000 </r>
       <r>    -9.2705     0.0000     8.0000 </r>
       <r>    -9.1231     0.0000     8.0000 </r>
       <r>    -8.9757     0.0000     8.0000 </r>
       <r>    -8.8283     0.0000     8.0000 </r>
       <r>    -8.6809     0.0000     8.0000 </r>
       <r>    -8.5335     0.0000     8.0000 </r>
       <r>    -8.3861     0.0000     8.0000 </r>
       <r>    -8.2387     0.0000     8.0000 </r>
       <r>    -8.0913     0.0000     8.0000 </r>
       <r>    -7.9439     0.0000     8.0000 </r>
       <r>    -7.7965     0.0000     8.0000 </r>
       <r>    -7.6491     0.0000     8.0000 </r>
       <r>    -7.5017     0.0000     8.0000 </r>
       <r>    -7.3543     0.0000     8.0000 </r>
       <r>    -7.2069     0.0000     8.0000 </r>
       <r>    -7.0595     0.0000     8.0000 </r>
       <r>    -6.9121     0.0000     8.0000 </r>
       <r>    -6.7647     0.0000     8.0000 </r>
       <r>    -6.6173     0.0000     8.0000 </r>
       <r>    -6.4699     0.0000     8.0000 </r>
       <r>    -6.3225     0.0000     8.0000 </r>
       <r>    -6.1751     0.0000     8.0000 </r>
       <r>    -6.0277     0.0000     8.0000 </r>
       <r>    -5.8803     0.0000     8.0000 </r>
       <r>    -5.7329     0.0000     8.0000 </r>
       <r>    -5.5855     0.0000     8.0000 </r>
       <r>    -5.4381     0.0000     8.0000 </r>
       <r>    -5.2907     0.0000     8.0000 </r>
       <r>    -5.1432     0.0000     8.0000 </r>
       <r>    -4.9958     0.0000     8.0000 </r>
       <r>    -4.8484     0.0000     8.0000 </r>
       <r>    -4.7010     0.0000     8.0000 </r>
       <r>    -4.5536     0.0000     8.0000 </r>
       <r>    -4.4062     0.0000     8.0000 </r>
       <r>    -4.2588     0.0000     8.0000 </r>
       <r>    -4.1114     0.0000     8.0000 </r>
       <r>    -3.9640     0.0000     8.0000 </r>
       <r>    -3.8166     0.0000     8.0000 </r>
       <r>    -3.6692     0.0000     8.0000 </r>
       <r>    -3.5218     0.0000     8.0000 </r>
       <r>    -3.3744     0.0000     8.0000 </r>
       <r>    -3.2270     0.0000     8.0000 </r>
       <r>    -3.0796     0.0000     8.0000 </r>
       <r>    -2.9322     0.0000     8.0000 </r>
       <r>    -2.7848     0.0000     8.0000 </r>
       <r>    -2.6374     0.4081     8.0648 </r>
       <r>    -2.4900     0.9422     8.2361 </r>
       <r>    -2.3426     2.0987     8.6323 </r>
       <r>    -2.1952     2.6302     9.3379 </r>
       <r>    -2.0478     0.7346     9.6488 </r>
       <r>    -1.9004     0.7410     9.8164 </r>
       <r>    -1.7530     0.6475    10.0341 </r>
       <r>    -1.6056     1.5601    10.3422 </r>
       <r>    -1.4582     1.6480    10.6885 </r>
       <r>    -1.3108     1.7667    11.0880 </r>
       <r>    -1.1634     3.4039    11.9080 </r>
       <r>    -1.0159     2.7207    12.5573 </r>
       <r>    -0.8685     2.9347    13.4222 </r>
       <r>    -0.7211     1.5728    13.8534 </r>
       <r>    -0.5737     0.2434    14.0000 </r>
       <r>    -0.4263     0.0000    14.0000 </r>
       <r>    -0.2789     0.0000    14.0000 </r>
       <r>    -0.1315     0.0000    14.0000 </r>
       <r>     0.0159     0.0000    14.0000 </r>
       <r>     0.1633     0.0000    14.0000 </r>
       <r>     0.3107     0.0000    14.0000 </r>
       <r>     0.4581     0.0000    14.0000 </r>
       <r>     0.6055     0.0000    14.0000 </r>
       <r>     0.7529     0.0000    14.0000 </r>
       <r>     0.9003     0.0000    14.0000 </r>
       <r>     1.0477     0.0000    14.0000 </r>
       <r>     1.1951     0.0000    14.0000 </r>
       <r>     1.3425     0.0000    14.0000 </r>
       <r>     1.4899     0.0000    14.0000 </r>
       <r>     1.6373     0.0000    14.0000 </r>
       <r>     1.7847     0.0000    14.0000 </r>
       <r>     1.9321     0.0000    14.0000 </r>
       <r>     2.0795     0.0000    14.0000 </r>
       <r>     2.2269     0.0000    14.0000 </r>
       <r>     2.3743     0.0000    14.0000 </r>
       <r>     2.5217     0.0000    14.0000 </r>
       <r>     2.6691     0.0000    14.0000 </r>
       <r>     2.8165     0.0000    14.0000 </r>
       <r>     2.9639     0.0000    14.0000 </r>
       <r>     3.1114     0.0000    14.0000 </r>
       <r>     3.2588     0.0000    14.0000 </r>
       <r>     3.4062     0.0000    14.0000 </r>
       <r>     3.5536     0.0000    14.0000 </r>
       <r>     3.7010     0.0079    14.0012 </r>
       <r>     3.8484     0.0000    14.0012 </r>
       <r>     3.9958     0.0468    14.0173 </r>
       <r>     4.1432     0.0000    14.0174 </r>
       <r>     4.2906     0.0939    14.0312 </r>
       <r>     4.4380     0.0000    14.0313 </r>
       <r>     4.5854     0.0000    14.0683 </r>
       <r>     4.7328     0.0000    14.0683 </r>
       <r>     4.8802     0.0471    14.0752 </r>
       <r>     5.0276     0.1884    14.1308 </r>
       <r>     5.1750     0.2513    14.1678 </r>
       <r>     5.3224     0.0006    14.1679 </r>
       <r>     5.4698     0.0185    14.1983 </r>
       <r>     5.6172     0.5239    14.3099 </r>
       <r>     5.7646     0.4336    14.4181 </r>
       <r>     5.9120     0.2827    14.5694 </r>
       <r>     6.0594     0.8480    14.7292 </r>
       <r>     6.2068     1.3188    14.9791 </r>
       <r>     6.3542     0.8788    15.1920 </r>
       <r>     6.5016     0.4452    15.3260 </r>
       <r>     6.6490     0.7399    15.5292 </r>
       <r>     6.7964     0.8522    15.7958 </r>
       <r>     6.9438     1.0364    15.9826 </r>
       <r>     7.0912     0.7554    16.1009 </r>
       <r>     7.2387     0.7537    16.2951 </r>
       <r>     7.3861     0.6044    16.4120 </r>
       <r>     7.5335     0.3855    16.4839 </r>
       <r>     7.6809     0.5056    16.7794 </r>
       <r>     7.8283     1.1105    17.1463 </r>
       <r>     7.9757     0.8525    17.3444 </r>
       <r>     8.1231     0.7393    17.5222 </r>
       <r>     8.2705     1.2663    17.8707 </r>
       <r>     8.4179     0.4394    18.1516 </r>
       <r>     8.5653     0.7438    18.3168 </r>
       <r>     8.7127     1.8591    18.8516 </r>
       <r>     8.8601     0.5816    19.0198 </r>
       <r>     9.0075     1.1174    19.3487 </r>
       <r>     9.1549     0.7726    19.4947 </r>
       <r>     9.3023     0.5283    19.7550 </r>
       <r>     9.4497     1.5587    20.0978 </r>
       <r>     9.5971     0.3769    20.3403 </r>
       <r>     9.7445     0.2372    20.5141 </r>
       <r>     9.8919     0.8786    20.8448 </r>
       <r>    10.0393     0.7606    21.1052 </r>
       <r>    10.1867     0.4712    21.3403 </r>
       <r>    10.3341     0.6457    21.5188 </r>
       <r>    10.4815     1.0819    21.7116 </r>
       <r>    10.6289     0.7230    21.8531 </r>
       <r>    10.7763     0.3040    21.9441 </r>
       <r>    10.9237     0.6462    22.1543 </r>
       <r>    11.0711     0.1853    22.2160 </r>
       <r>    11.2185     0.6314    22.3095 </r>
       <r>    11.3660     0.4741    22.4206 </r>
       <r>    11.5134     0.5020    22.5798 </r>
       <r>    11.6608     0.0001    22.7905 </r>
       <r>    11.8082     0.2307    22.8801 </r>
       <r>    11.9556     1.0364    23.0891 </r>
       <r>    12.1030     1.7633    23.3490 </r>
       <r>    12.2504     1.1753    23.6976 </r>
       <r>    12.3978     1.0168    23.9172 </r>
       <r>    12.5452     0.5618    24.1013 </r>
       <r>    12.6926     0.4940    24.2395 </r>
       <r>    12.8400     0.6486    24.4428 </r>
       <r>    12.9874     0.4677    24.5597 </r>
       <r>    13.1348     0.7538    24.7894 </r>
       <r>    13.2822     1.2240    24.9975 </r>
       <r>    13.4296     0.6059    25.0939 </r>
       <r>    13.5770     0.4005    25.3276 </r>
       <r>    13.7244     1.1369    25.6479 </r>
       <r>    13.8718     0.7538    25.8831 </r>
       <r>    14.0192     0.3768    25.9664 </r>
       <r>    14.1666     1.3993    26.2653 </r>
       <r>    14.3140     1.2612    26.4834 </r>
       <r>    14.4614     0.6414    26.6628 </r>
       <r>    14.6088     0.2579    26.8308 </r>
       <r>    14.7562     0.8433    27.0884 </r>
       <r>    14.9036     1.1804    27.5270 </r>
       <r>    15.0510     0.8716    27.7407 </r>
       <r>    15.1984     2.0352    28.0546 </r>
       <r>    15.3458     0.8482    28.3519 </r>
       <r>    15.4933     0.5561    28.4894 </r>
       <r>    15.6407     0.7879    28.7180 </r>
       <r>    15.7881     1.6474    29.0206 </r>
       <r>    15.9355     0.9178    29.4478 </r>
       <r>    16.0829     1.0498    29.6756 </r>
       <r>    16.2303     1.7108    29.9906 </r>
       <r>    16.3777     0.5631    30.1733 </r>
       <r>    16.5251     1.8724    30.4843 </r>
       <r>    16.6725     1.0895    30.7300 </r>
       <r>    16.8199     1.1039    30.9822 </r>
       <r>    16.9673     0.5843    31.1417 </r>
       <r>    17.1147     0.5989    31.3059 </r>
       <r>    17.2621     1.5690    31.5878 </r>
       <r>    17.4095     0.7598    31.7532 </r>
       <r>    17.5569     0.0000    31.8310 </r>
       <r>    17.7043     0.2679    31.8844 </r>
       <r>    17.8517     0.0000    31.9282 </r>
       <r>    17.9991     0.0000    31.9838 </r>
       <r>    18.1465     0.0000    32.0000 </r>
       <r>    18.2939     0.0000    32.0000 </r>
       <r>    18.4413     0.0000    32.0000 </r>
       <r>    18.5887     0.0000    32.0000 </r>
       <r>    18.7361     0.0000    32.0000 </r>
       <r>    18.8835     0.0000    32.0000 </r>
       <r>    19.0309     0.0000    32.0000 </r>
       <r>    19.1783     0.0000    32.0000 </r>
       <r>    19.3257     0.0000    32.0000 </r>
       <r>    19.4731     0.0000    32.0000 </r>
       <r>    19.6206     0.0000    32.0000 </r>
       <r>    19.7680     0.0000    32.0000 </r>
       <r>    19.9154     0.0000    32.0000 </r>
       <r>    20.0628     0.0000    32.0000 </r>
      </set>
     </set>
    </array>
   </total>
  </dos>
 </calculation>
 <structure name="finalpos" >
  <crystal>
   <varray name="basis" >
    <v>      -2.96154203       0.00000000       2.96154203 </v>
    <v>       0.00000000       2.96154203       2.96154203 </v>
    <v>      -2.96154203       2.96154203       0.00000000 </v>
   </varray>
   <i name="volume">     51.94977795 </i>
   <varray name="rec_basis" >
    <v>      -0.16883097      -0.16883097       0.16883097 </v>
    <v>       0.16883097       0.16883097       0.16883097 </v>
    <v>      -0.16883097       0.16883097      -0.16883097 </v>
   </varray>
  </crystal>
  <varray name="positions" >
   <v>       0.00000000       0.00000000       0.00000000 </v>
   <v>       0.49999996       0.50000004       0.49999996 </v>
  </varray>
 </structure>
</modeling>
