<?xml version="1.0" encoding="ISO-8859-1"?>
<modeling>
 <generator>
  <i name="program" type="string">vasp </i>
  <i name="version" type="string">5.4.4.18Apr17-6-g9f103f2a35  </i>
  <i name="subversion" type="string">(build Aug 24 2017 11:22:49) complex            parallel </i>
  <i name="platform" type="string">LinuxIFC </i>
  <i name="date" type="string">2023 12 25 </i>
  <i name="time" type="string">13:07:24 </i>
 </generator>
 <incar>
  <i type="string" name="PREC">accurate</i>
  <i type="string" name="ALGO"> Normal</i>
  <i type="int" name="NELM">   100</i>
  <i type="int" name="IBRION">     8</i>
  <i name="EDIFF">      0.00000001</i>
  <i name="SYMPREC">      0.00000001</i>
  <i name="ENCUT">    520.00000000</i>
  <i type="logical" name="LREAL"> F  </i>
  <i type="int" name="ISMEAR">     0</i>
  <i name="SIGMA">      0.01000000</i>
  <i type="logical" name="LWAVE"> F  </i>
  <v type="int" name="KPOINT_BSE">    -1     0     0     0</v>
  <i type="int" name="NELM">   100</i>
  <i type="logical" name="LPEAD"> T  </i>
  <i type="logical" name="LEPSILON"> T  </i>
 </incar>
 <structure name="primitive_cell" >
  <crystal>
   <varray name="basis" >
    <v>      -2.85237407       0.00000000       2.85237407 </v>
    <v>       0.00000000       2.85237407       2.85237407 </v>
    <v>      -2.85237407       2.85237407       0.00000000 </v>
   </varray>
   <i name="volume">     46.41404684 </i>
   <varray name="rec_basis" >
    <v>      -0.17529258      -0.17529258       0.17529258 </v>
    <v>       0.17529258       0.17529258       0.17529258 </v>
    <v>      -0.17529258       0.17529258      -0.17529258 </v>
   </varray>
  </crystal>
  <varray name="positions" >
   <v>       0.00000000       0.00000000       0.00000000 </v>
   <v>       0.49999996      -0.49999996       0.49999996 </v>
  </varray>
 </structure>
 <varray name="primitive_index" >
  <v type="int" >        1 </v>
  <v type="int" >        2 </v>
 </varray>
 <kpoints>
  <generation param="Gamma">
   <v type="int" name="divisions">      12       12       12 </v>
   <v name="usershift">      0.00000000       0.00000000       0.00000000 </v>
   <v name="genvec1">      0.08333333       0.00000000       0.00000000 </v>
   <v name="genvec2">      0.00000000       0.08333333      -0.00000000 </v>
   <v name="genvec3">     -0.00000000      -0.00000000       0.08333333 </v>
   <v name="shift">      0.00000000       0.00000000       0.00000000 </v>
  </generation>
  <varray name="kpointlist" >
   <v>       0.00000000       0.00000000       0.00000000 </v>
   <v>       0.08333333       0.00000000       0.00000000 </v>
   <v>       0.16666667       0.00000000       0.00000000 </v>
   <v>       0.25000000      -0.00000000      -0.00000000 </v>
   <v>       0.33333333      -0.00000000      -0.00000000 </v>
   <v>       0.41666667       0.00000000       0.00000000 </v>
   <v>       0.50000000      -0.00000000      -0.00000000 </v>
   <v>       0.08333333       0.08333333       0.00000000 </v>
   <v>       0.16666667       0.08333333       0.00000000 </v>
   <v>       0.25000000       0.08333333       0.00000000 </v>
   <v>       0.33333333       0.08333333      -0.00000000 </v>
   <v>       0.41666667       0.08333333      -0.00000000 </v>
   <v>       0.50000000       0.08333333       0.00000000 </v>
   <v>      -0.41666667       0.08333333       0.00000000 </v>
   <v>      -0.33333333       0.08333333       0.00000000 </v>
   <v>      -0.25000000       0.08333333       0.00000000 </v>
   <v>      -0.16666667       0.08333333       0.00000000 </v>
   <v>      -0.08333333       0.08333333      -0.00000000 </v>
   <v>       0.16666667       0.16666667       0.00000000 </v>
   <v>       0.25000000       0.16666667       0.00000000 </v>
   <v>       0.33333333       0.16666667      -0.00000000 </v>
   <v>       0.41666667       0.16666667       0.00000000 </v>
   <v>       0.50000000       0.16666667       0.00000000 </v>
   <v>      -0.41666667       0.16666667      -0.00000000 </v>
   <v>      -0.33333333       0.16666667       0.00000000 </v>
   <v>      -0.25000000       0.16666667      -0.00000000 </v>
   <v>      -0.16666667       0.16666667      -0.00000000 </v>
   <v>       0.25000000       0.25000000       0.00000000 </v>
   <v>       0.33333333       0.25000000       0.00000000 </v>
   <v>       0.41666667       0.25000000       0.00000000 </v>
   <v>       0.50000000       0.25000000      -0.00000000 </v>
   <v>      -0.41666667       0.25000000      -0.00000000 </v>
   <v>      -0.33333333       0.25000000      -0.00000000 </v>
   <v>      -0.25000000       0.25000000       0.00000000 </v>
   <v>       0.33333333       0.33333333       0.00000000 </v>
   <v>       0.41666667       0.33333333       0.00000000 </v>
   <v>       0.50000000       0.33333333       0.00000000 </v>
   <v>      -0.41666667       0.33333333      -0.00000000 </v>
   <v>      -0.33333333       0.33333333       0.00000000 </v>
   <v>       0.41666667       0.41666667       0.00000000 </v>
   <v>       0.50000000       0.41666667       0.00000000 </v>
   <v>      -0.41666667       0.41666667      -0.00000000 </v>
   <v>       0.50000000       0.50000000       0.00000000 </v>
   <v>       0.08333333       0.00000000       0.08333333 </v>
   <v>       0.16666667      -0.00000000       0.08333333 </v>
   <v>       0.25000000       0.00000000       0.08333333 </v>
   <v>       0.33333333       0.00000000       0.08333333 </v>
   <v>       0.41666667      -0.00000000       0.08333333 </v>
   <v>       0.50000000       0.00000000       0.08333333 </v>
   <v>      -0.41666667       0.00000000       0.08333333 </v>
   <v>      -0.33333333       0.00000000       0.08333333 </v>
   <v>      -0.25000000       0.00000000       0.08333333 </v>
   <v>      -0.16666667       0.00000000       0.08333333 </v>
   <v>      -0.08333333      -0.00000000       0.08333333 </v>
   <v>       0.25000000       0.16666667       0.08333333 </v>
   <v>       0.33333333       0.16666667       0.08333333 </v>
   <v>       0.41666667       0.16666667       0.08333333 </v>
   <v>       0.50000000       0.16666667       0.08333333 </v>
   <v>      -0.41666667       0.16666667       0.08333333 </v>
   <v>       0.16666667       0.25000000       0.08333333 </v>
   <v>       0.33333333       0.25000000       0.08333333 </v>
   <v>       0.41666667       0.25000000       0.08333333 </v>
   <v>       0.50000000       0.25000000       0.08333333 </v>
   <v>      -0.41666667       0.25000000       0.08333333 </v>
   <v>      -0.33333333       0.25000000       0.08333333 </v>
   <v>      -0.25000000       0.25000000       0.08333333 </v>
   <v>      -0.16666667       0.25000000       0.08333333 </v>
   <v>       0.16666667       0.33333333       0.08333333 </v>
   <v>       0.25000000       0.33333333       0.08333333 </v>
   <v>       0.41666667       0.33333333       0.08333333 </v>
   <v>       0.50000000       0.33333333       0.08333333 </v>
   <v>      -0.41666667       0.33333333       0.08333333 </v>
   <v>      -0.33333333       0.33333333       0.08333333 </v>
   <v>      -0.25000000       0.33333333       0.08333333 </v>
   <v>       0.16666667       0.41666667       0.08333333 </v>
   <v>       0.25000000       0.41666667       0.08333333 </v>
   <v>       0.33333333       0.41666667       0.08333333 </v>
   <v>       0.50000000       0.41666667       0.08333333 </v>
   <v>      -0.41666667       0.41666667       0.08333333 </v>
   <v>      -0.33333333       0.41666667       0.08333333 </v>
   <v>       0.16666667       0.50000000       0.08333333 </v>
   <v>       0.25000000       0.50000000       0.08333333 </v>
   <v>       0.33333333       0.50000000       0.08333333 </v>
   <v>       0.41666667       0.50000000       0.08333333 </v>
   <v>      -0.41666667       0.50000000       0.08333333 </v>
   <v>       0.16666667      -0.41666667       0.08333333 </v>
   <v>       0.25000000      -0.41666667       0.08333333 </v>
   <v>       0.33333333      -0.41666667       0.08333333 </v>
   <v>       0.41666667      -0.41666667       0.08333333 </v>
   <v>       0.50000000      -0.41666667       0.08333333 </v>
   <v>       0.16666667      -0.33333333       0.08333333 </v>
   <v>       0.25000000      -0.33333333       0.08333333 </v>
   <v>       0.33333333      -0.33333333       0.08333333 </v>
   <v>       0.41666667      -0.33333333       0.08333333 </v>
   <v>       0.16666667      -0.25000000       0.08333333 </v>
   <v>       0.25000000      -0.25000000       0.08333333 </v>
   <v>       0.33333333      -0.25000000       0.08333333 </v>
   <v>       0.16666667      -0.16666667       0.08333333 </v>
   <v>       0.25000000      -0.16666667       0.08333333 </v>
   <v>       0.16666667      -0.08333333       0.08333333 </v>
   <v>       0.16666667       0.00000000       0.16666667 </v>
   <v>       0.25000000      -0.00000000       0.16666667 </v>
   <v>       0.33333333      -0.00000000       0.16666667 </v>
   <v>       0.41666667       0.00000000       0.16666667 </v>
   <v>       0.50000000       0.00000000       0.16666667 </v>
   <v>      -0.41666667       0.00000000       0.16666667 </v>
   <v>      -0.33333333       0.00000000       0.16666667 </v>
   <v>      -0.25000000      -0.00000000       0.16666667 </v>
   <v>      -0.16666667       0.00000000       0.16666667 </v>
   <v>       0.50000000       0.33333333       0.16666667 </v>
   <v>      -0.41666667       0.33333333       0.16666667 </v>
   <v>      -0.33333333       0.33333333       0.16666667 </v>
   <v>       0.25000000       0.41666667       0.16666667 </v>
   <v>      -0.41666667       0.41666667       0.16666667 </v>
   <v>      -0.33333333       0.41666667       0.16666667 </v>
   <v>      -0.25000000       0.41666667       0.16666667 </v>
   <v>       0.25000000       0.50000000       0.16666667 </v>
   <v>       0.33333333       0.50000000       0.16666667 </v>
   <v>      -0.33333333       0.50000000       0.16666667 </v>
   <v>       0.25000000      -0.41666667       0.16666667 </v>
   <v>       0.33333333      -0.41666667       0.16666667 </v>
   <v>       0.41666667      -0.41666667       0.16666667 </v>
   <v>       0.25000000      -0.33333333       0.16666667 </v>
   <v>       0.33333333      -0.33333333       0.16666667 </v>
   <v>       0.41666667      -0.33333333       0.16666667 </v>
   <v>       0.50000000      -0.33333333       0.16666667 </v>
   <v>       0.25000000      -0.25000000       0.16666667 </v>
   <v>       0.33333333      -0.25000000       0.16666667 </v>
   <v>       0.41666667      -0.25000000       0.16666667 </v>
   <v>       0.25000000      -0.16666667       0.16666667 </v>
   <v>       0.33333333      -0.16666667       0.16666667 </v>
   <v>       0.25000000      -0.08333333       0.16666667 </v>
   <v>       0.25000000       0.00000000       0.25000000 </v>
   <v>       0.33333333       0.00000000       0.25000000 </v>
   <v>       0.41666667       0.00000000       0.25000000 </v>
   <v>       0.50000000      -0.00000000       0.25000000 </v>
   <v>      -0.41666667       0.00000000       0.25000000 </v>
   <v>      -0.33333333      -0.00000000       0.25000000 </v>
   <v>      -0.25000000       0.00000000       0.25000000 </v>
   <v>      -0.25000000       0.50000000       0.25000000 </v>
   <v>       0.33333333      -0.41666667       0.25000000 </v>
   <v>       0.33333333      -0.33333333       0.25000000 </v>
   <v>       0.41666667      -0.33333333       0.25000000 </v>
   <v>       0.33333333      -0.25000000       0.25000000 </v>
   <v>       0.41666667      -0.25000000       0.25000000 </v>
   <v>       0.50000000      -0.25000000       0.25000000 </v>
   <v>       0.33333333      -0.16666667       0.25000000 </v>
   <v>       0.41666667      -0.16666667       0.25000000 </v>
   <v>       0.33333333      -0.08333333       0.25000000 </v>
   <v>       0.33333333       0.00000000       0.33333333 </v>
   <v>       0.41666667       0.00000000       0.33333333 </v>
   <v>       0.50000000       0.00000000       0.33333333 </v>
   <v>      -0.41666667      -0.00000000       0.33333333 </v>
   <v>      -0.33333333       0.00000000       0.33333333 </v>
   <v>       0.41666667      -0.25000000       0.33333333 </v>
   <v>       0.41666667      -0.16666667       0.33333333 </v>
   <v>       0.50000000      -0.16666667       0.33333333 </v>
   <v>       0.41666667      -0.08333333       0.33333333 </v>
   <v>       0.41666667       0.00000000       0.41666667 </v>
   <v>       0.50000000       0.00000000       0.41666667 </v>
   <v>      -0.41666667      -0.00000000       0.41666667 </v>
   <v>       0.50000000      -0.08333333       0.41666667 </v>
   <v>       0.50000000       0.00000000       0.50000000 </v>
  </varray>
  <varray name="weights" >
   <v>       0.00057870 </v>
   <v>       0.00462963 </v>
   <v>       0.00462963 </v>
   <v>       0.00462963 </v>
   <v>       0.00462963 </v>
   <v>       0.00462963 </v>
   <v>       0.00231481 </v>
   <v>       0.00231481 </v>
   <v>       0.00925926 </v>
   <v>       0.00925926 </v>
   <v>       0.00925926 </v>
   <v>       0.00925926 </v>
   <v>       0.00925926 </v>
   <v>       0.00925926 </v>
   <v>       0.00925926 </v>
   <v>       0.00925926 </v>
   <v>       0.00925926 </v>
   <v>       0.00462963 </v>
   <v>       0.00231481 </v>
   <v>       0.00925926 </v>
   <v>       0.00925926 </v>
   <v>       0.00925926 </v>
   <v>       0.00925926 </v>
   <v>       0.00925926 </v>
   <v>       0.00925926 </v>
   <v>       0.00925926 </v>
   <v>       0.00462963 </v>
   <v>       0.00231481 </v>
   <v>       0.00925926 </v>
   <v>       0.00925926 </v>
   <v>       0.00925926 </v>
   <v>       0.00925926 </v>
   <v>       0.00925926 </v>
   <v>       0.00462963 </v>
   <v>       0.00231481 </v>
   <v>       0.00925926 </v>
   <v>       0.00925926 </v>
   <v>       0.00925926 </v>
   <v>       0.00462963 </v>
   <v>       0.00231481 </v>
   <v>       0.00925926 </v>
   <v>       0.00462963 </v>
   <v>       0.00115741 </v>
   <v>       0.00115741 </v>
   <v>       0.00462963 </v>
   <v>       0.00462963 </v>
   <v>       0.00462963 </v>
   <v>       0.00462963 </v>
   <v>       0.00462963 </v>
   <v>       0.00462963 </v>
   <v>       0.00462963 </v>
   <v>       0.00462963 </v>
   <v>       0.00462963 </v>
   <v>       0.00231481 </v>
   <v>       0.00462963 </v>
   <v>       0.00925926 </v>
   <v>       0.00925926 </v>
   <v>       0.00925926 </v>
   <v>       0.00462963 </v>
   <v>       0.00462963 </v>
   <v>       0.00462963 </v>
   <v>       0.00925926 </v>
   <v>       0.00925926 </v>
   <v>       0.00925926 </v>
   <v>       0.00925926 </v>
   <v>       0.00925926 </v>
   <v>       0.00462963 </v>
   <v>       0.00925926 </v>
   <v>       0.00462963 </v>
   <v>       0.00462963 </v>
   <v>       0.00925926 </v>
   <v>       0.00925926 </v>
   <v>       0.00925926 </v>
   <v>       0.00462963 </v>
   <v>       0.00925926 </v>
   <v>       0.00925926 </v>
   <v>       0.00462963 </v>
   <v>       0.00462963 </v>
   <v>       0.00925926 </v>
   <v>       0.00462963 </v>
   <v>       0.00925926 </v>
   <v>       0.00925926 </v>
   <v>       0.00925926 </v>
   <v>       0.00462963 </v>
   <v>       0.00231481 </v>
   <v>       0.00925926 </v>
   <v>       0.00925926 </v>
   <v>       0.00925926 </v>
   <v>       0.00925926 </v>
   <v>       0.00231481 </v>
   <v>       0.00925926 </v>
   <v>       0.00925926 </v>
   <v>       0.00925926 </v>
   <v>       0.00462963 </v>
   <v>       0.00925926 </v>
   <v>       0.00925926 </v>
   <v>       0.00462963 </v>
   <v>       0.00925926 </v>
   <v>       0.00462963 </v>
   <v>       0.00462963 </v>
   <v>       0.00115741 </v>
   <v>       0.00462963 </v>
   <v>       0.00462963 </v>
   <v>       0.00462963 </v>
   <v>       0.00462963 </v>
   <v>       0.00462963 </v>
   <v>       0.00462963 </v>
   <v>       0.00462963 </v>
   <v>       0.00231481 </v>
   <v>       0.00462963 </v>
   <v>       0.00925926 </v>
   <v>       0.00462963 </v>
   <v>       0.00462963 </v>
   <v>       0.00462963 </v>
   <v>       0.00925926 </v>
   <v>       0.00462963 </v>
   <v>       0.00925926 </v>
   <v>       0.00462963 </v>
   <v>       0.00231481 </v>
   <v>       0.00925926 </v>
   <v>       0.00925926 </v>
   <v>       0.00462963 </v>
   <v>       0.00925926 </v>
   <v>       0.00925926 </v>
   <v>       0.00925926 </v>
   <v>       0.00231481 </v>
   <v>       0.00925926 </v>
   <v>       0.00925926 </v>
   <v>       0.00462963 </v>
   <v>       0.00925926 </v>
   <v>       0.00462963 </v>
   <v>       0.00462963 </v>
   <v>       0.00115741 </v>
   <v>       0.00462963 </v>
   <v>       0.00462963 </v>
   <v>       0.00462963 </v>
   <v>       0.00462963 </v>
   <v>       0.00462963 </v>
   <v>       0.00231481 </v>
   <v>       0.00115741 </v>
   <v>       0.00462963 </v>
   <v>       0.00925926 </v>
   <v>       0.00462963 </v>
   <v>       0.00925926 </v>
   <v>       0.00925926 </v>
   <v>       0.00231481 </v>
   <v>       0.00925926 </v>
   <v>       0.00462963 </v>
   <v>       0.00462963 </v>
   <v>       0.00115741 </v>
   <v>       0.00462963 </v>
   <v>       0.00462963 </v>
   <v>       0.00462963 </v>
   <v>       0.00231481 </v>
   <v>       0.00462963 </v>
   <v>       0.00925926 </v>
   <v>       0.00231481 </v>
   <v>       0.00462963 </v>
   <v>       0.00115741 </v>
   <v>       0.00462963 </v>
   <v>       0.00231481 </v>
   <v>       0.00231481 </v>
   <v>       0.00057870 </v>
  </varray>
 </kpoints>
 <parameters>
  <separator name="general" >
   <i type="string" name="SYSTEM">unknown system</i>
   <i type="logical" name="LCOMPAT"> F  </i>
  </separator>
  <separator name="electronic" >
   <i type="string" name="PREC">accura</i>
   <i name="ENMAX">    520.00000000</i>
   <i name="ENAUG">    420.85200000</i>
   <i name="EDIFF">      0.00000001</i>
   <i type="int" name="IALGO">    38</i>
   <i type="int" name="IWAVPR">    11</i>
   <i type="int" name="NBANDS">    16</i>
   <i name="NELECT">     16.00000000</i>
   <i type="int" name="TURBO">     0</i>
   <i type="int" name="IRESTART">     0</i>
   <i type="int" name="NREBOOT">     0</i>
   <i type="int" name="NMIN">     0</i>
   <i name="EREF">      0.00000000</i>
   <separator name="electronic smearing" >
    <i type="int" name="ISMEAR">     0</i>
    <i name="SIGMA">      0.01000000</i>
    <i name="KSPACING">      0.50000000</i>
    <i type="logical" name="KGAMMA"> T  </i>
   </separator>
   <separator name="electronic projectors" >
    <i type="logical" name="LREAL"> F  </i>
    <v name="ROPT">      0.00000000      0.00000000</v>
    <i type="int" name="LMAXPAW">  -100</i>
    <i type="int" name="LMAXMIX">     2</i>
    <i type="logical" name="NLSPLINE"> F  </i>
   </separator>
   <separator name="electronic startup" >
    <i type="int" name="ISTART">     0</i>
    <i type="int" name="ICHARG">     2</i>
    <i type="int" name="INIWAV">     1</i>
   </separator>
   <separator name="electronic spin" >
    <i type="int" name="ISPIN">     1</i>
    <i type="logical" name="LNONCOLLINEAR"> F  </i>
    <v name="MAGMOM">      1.00000000      1.00000000</v>
    <i name="NUPDOWN">     -1.00000000</i>
    <i type="logical" name="LSORBIT"> F  </i>
    <v name="SAXIS">      0.00000000      0.00000000      1.00000000</v>
    <i type="logical" name="LSPIRAL"> F  </i>
    <v name="QSPIRAL">      0.00000000      0.00000000      0.00000000</v>
    <i type="logical" name="LZEROZ"> F  </i>
   </separator>
   <separator name="electronic exchange-correlation" >
    <i type="logical" name="LASPH"> F  </i>
    <i type="logical" name="LMETAGGA"> F  </i>
   </separator>
   <separator name="electronic convergence" >
    <i type="int" name="NELM">   100</i>
    <i type="int" name="NELMDL">    -5</i>
    <i type="int" name="NELMIN">     2</i>
    <i name="ENINI">    520.00000000</i>
    <separator name="electronic convergence detail" >
     <i type="logical" name="LDIAG"> T  </i>
     <i type="logical" name="LSUBROT"> F  </i>
     <i name="WEIMIN">      0.00100000</i>
     <i name="EBREAK">      0.00000000</i>
     <i name="DEPER">      0.30000000</i>
     <i type="int" name="NRMM">     4</i>
     <i name="TIME">      0.40000000</i>
    </separator>
   </separator>
   <separator name="electronic mixer" >
    <i name="AMIX">      0.40000000</i>
    <i name="BMIX">      1.00000000</i>
    <i name="AMIN">      0.10000000</i>
    <i name="AMIX_MAG">      1.60000000</i>
    <i name="BMIX_MAG">      1.00000000</i>
    <separator name="electronic mixer details" >
     <i type="int" name="IMIX">     4</i>
     <i type="logical" name="MIXFIRST"> F  </i>
     <i type="int" name="MAXMIX">   -45</i>
     <i name="WC">    100.00000000</i>
     <i type="int" name="INIMIX">     1</i>
     <i type="int" name="MIXPRE">     1</i>
     <i type="int" name="MREMOVE">     5</i>
    </separator>
   </separator>
   <separator name="electronic dipolcorrection" >
    <i type="logical" name="LDIPOL"> F  </i>
    <i type="logical" name="LMONO"> F  </i>
    <i type="int" name="IDIPOL">     0</i>
    <i name="EPSILON">      1.00000000</i>
    <v name="DIPOL">   -100.00000000   -100.00000000   -100.00000000</v>
    <i name="EFIELD">      0.00000000</i>
   </separator>
  </separator>
  <separator name="grids" >
   <i type="int" name="NGX">    30</i>
   <i type="int" name="NGY">    30</i>
   <i type="int" name="NGZ">    30</i>
   <i type="int" name="NGXF">    60</i>
   <i type="int" name="NGYF">    60</i>
   <i type="int" name="NGZF">    60</i>
   <i type="logical" name="ADDGRID"> F  </i>
  </separator>
  <separator name="ionic" >
   <i type="int" name="NSW">     1</i>
   <i type="int" name="IBRION">     8</i>
   <i type="int" name="MDALGO">     0</i>
   <i type="int" name="ISIF">     2</i>
   <i name="PSTRESS">      0.00000000</i>
   <i name="EDIFFG">      0.00000010</i>
   <i type="int" name="NFREE">     0</i>
   <i name="POTIM">      0.50000000</i>
   <i name="SMASS">     -3.00000000</i>
   <i name="SCALEE">      1.00000000</i>
  </separator>
  <separator name="ionic md" >
   <i name="TEBEG">      0.00010000</i>
   <i name="TEEND">      0.00010000</i>
   <i type="int" name="NBLOCK">     1</i>
   <i type="int" name="KBLOCK">     1</i>
   <i type="int" name="NPACO">   256</i>
   <i name="APACO">     16.00000000</i>
  </separator>
  <separator name="symmetry" >
   <i type="int" name="ISYM">     2</i>
   <i name="SYMPREC">      0.00000001</i>
  </separator>
  <separator name="dos" >
   <i type="int" name="LORBIT">     0</i>
   <v name="RWIGS">     -1.00000000     -1.00000000</v>
   <i type="int" name="NEDOS">   301</i>
   <i name="EMIN">     10.00000000</i>
   <i name="EMAX">    -10.00000000</i>
   <i name="EFERMI">      0.00000000</i>
  </separator>
  <separator name="writing" >
   <i type="int" name="NWRITE">     2</i>
   <i type="logical" name="LWAVE"> F  </i>
   <i type="logical" name="LDOWNSAMPLE"> F  </i>
   <i type="logical" name="LCHARG"> T  </i>
   <i type="logical" name="LPARD"> F  </i>
   <i type="logical" name="LVTOT"> F  </i>
   <i type="logical" name="LVHAR"> F  </i>
   <i type="logical" name="LELF"> F  </i>
   <i type="logical" name="LOPTICS"> F  </i>
   <v name="STM">      0.00000000      0.00000000      0.00000000      0.00000000      0.00000000      0.00000000      0.00000000</v>
  </separator>
  <separator name="performance" >
   <i type="int" name="NPAR">     8</i>
   <i type="int" name="NSIM">     4</i>
   <i type="int" name="NBLK">    -1</i>
   <i type="logical" name="LPLANE"> T  </i>
   <i type="logical" name="LSCALAPACK"> T  </i>
   <i type="logical" name="LSCAAWARE"> F  </i>
   <i type="logical" name="LSCALU"> F  </i>
   <i type="logical" name="LASYNC"> F  </i>
   <i type="logical" name="LORBITALREAL"> F  </i>
  </separator>
  <separator name="miscellaneous" >
   <i type="int" name="IDIOT">     3</i>
   <i type="int" name="ISPECIAL">     0</i>
   <i type="logical" name="LMUSIC"> F  </i>
   <v name="POMASS">     40.07800000     32.06600000</v>
   <v name="DARWINR">      0.00000000      0.00000000</v>
   <v name="DARWINV">      1.00000000      1.00000000</v>
   <i type="logical" name="LCORR"> T  </i>
  </separator>
  <i type="logical" name="GGA_COMPAT"> T  </i>
  <i type="logical" name="LBERRY"> F  </i>
  <i type="int" name="ICORELEVEL">     0</i>
  <i type="logical" name="LDAU"> F  </i>
  <i type="int" name="I_CONSTRAINED_M">     0</i>
  <separator name="electronic exchange-correlation" >
   <i type="string" name="GGA">--</i>
   <i type="int" name="VOSKOWN">     0</i>
   <i type="logical" name="LHFCALC"> F  </i>
   <i type="string" name="PRECFOCK"></i>
   <i type="logical" name="LSYMGRAD"> F  </i>
   <i type="logical" name="LHFONE"> F  </i>
   <i type="logical" name="LRHFCALC"> F  </i>
   <i type="logical" name="LTHOMAS"> F  </i>
   <i type="logical" name="LMODELHF"> F  </i>
   <i name="ENCUT4O">     -1.00000000</i>
   <i type="int" name="EXXOEP">     0</i>
   <i type="int" name="FOURORBIT">     0</i>
   <i name="AEXX">      0.00000000</i>
   <i name="HFALPHA">      0.00000000</i>
   <i name="MCALPHA">      0.00000000</i>
   <i name="ALDAX">      1.00000000</i>
   <i name="AGGAX">      1.00000000</i>
   <i name="ALDAC">      1.00000000</i>
   <i name="AGGAC">      1.00000000</i>
   <i type="int" name="NKREDX">     1</i>
   <i type="int" name="NKREDY">     1</i>
   <i type="int" name="NKREDZ">     1</i>
   <i type="logical" name="SHIFTRED"> F  </i>
   <i type="logical" name="ODDONLY"> F  </i>
   <i type="logical" name="EVENONLY"> F  </i>
   <i type="int" name="LMAXFOCK">     0</i>
   <i type="int" name="NMAXFOCKAE">     0</i>
   <i type="logical" name="LFOCKAEDFT"> F  </i>
   <i name="HFSCREEN">      0.00000000</i>
   <i name="HFSCREENC">      0.00000000</i>
   <i type="int" name="NBANDSGWLOW">     0</i>
  </separator>
  <separator name="vdW DFT" >
   <i type="logical" name="LUSE_VDW"> F  </i>
   <i name="Zab_VDW">     -0.84910000</i>
   <i name="PARAM1">      0.12340000</i>
   <i name="PARAM2">      1.00000000</i>
   <i name="PARAM3">      0.00000000</i>
  </separator>
  <separator name="model GW" >
   <i type="int" name="MODEL_GW">     0</i>
   <i name="MODEL_EPS0">     13.92421405</i>
   <i name="MODEL_ALPHA">      1.00000000</i>
  </separator>
  <separator name="linear response parameters" >
   <i type="logical" name="LEPSILON"> T  </i>
   <i type="logical" name="LRPA"> F  </i>
   <i type="logical" name="LNABLA"> F  </i>
   <i type="logical" name="LVEL"> F  </i>
   <i type="int" name="KINTER">     0</i>
   <i name="CSHIFT">      0.10000000</i>
   <i name="OMEGAMAX">     -1.00000000</i>
   <i name="DEG_THRESHOLD">      0.00200000</i>
   <i name="RTIME">     -0.10000000</i>
   <i name="WPLASMAI">      0.00000000</i>
   <v name="DFIELD">      0.00000000      0.00000000      0.00000000</v>
   <v name="WPLASMA">      0.00000000      0.00000000      0.00000000      0.00000000      0.00000000      0.00000000      0.00000000      0.00000000      0.00000000</v>
  </separator>
  <separator name="orbital magnetization" >
   <i type="logical" name="NUCIND"> F  </i>
   <v name="MAGPOS">      0.00000000      0.00000000      0.00000000</v>
   <i type="logical" name="LNICSALL"> T  </i>
   <i type="logical" name="ORBITALMAG"> F  </i>
   <i type="logical" name="LMAGBLOCH"> F  </i>
   <i type="logical" name="LCHIMAG"> F  </i>
   <i type="logical" name="LGAUGE"> T  </i>
   <i type="int" name="MAGATOM">     0</i>
   <v name="MAGDIPOL">      0.00000000      0.00000000      0.00000000</v>
   <v name="AVECCONST">      0.00000000      0.00000000      0.00000000</v>
  </separator>
  <separator name="response functions" >
   <i type="logical" name="LADDER"> F  </i>
   <i type="logical" name="LRPAFORCE"> F  </i>
   <i type="logical" name="LFXC"> F  </i>
   <i type="logical" name="LHARTREE"> T  </i>
   <i type="int" name="IBSE">     0</i>
   <v type="int" name="KPOINT">    -1     0     0     0</v>
   <i type="logical" name="LTCTE"> F  </i>
   <i type="logical" name="LTETE"> F  </i>
   <i type="logical" name="LTRIPLET"> F  </i>
   <i type="logical" name="LFXCEPS"> F  </i>
   <i type="logical" name="LFXHEG"> F  </i>
   <i type="int" name="NATURALO">     2</i>
   <i type="logical" name="L2ORDER"> F  </i>
   <i type="logical" name="LMP2LT"> F  </i>
   <i type="logical" name="LUSEW"> F  </i>
   <i name="ENCUTGW">     -2.00000000</i>
   <i name="ENCUTGWSOFT">     -2.00000000</i>
   <i name="ENCUTLF">     -1.00000000</i>
   <i type="int" name="LMAXMP2">    -1</i>
   <i name="SCISSOR">      0.00000000</i>
   <i type="int" name="NOMEGA">     0</i>
   <i type="int" name="NOMEGAR">     0</i>
   <i type="int" name="NBANDSGW">    -1</i>
   <i type="int" name="NBANDSO">    -1</i>
   <i type="int" name="NBANDSV">    -1</i>
   <i type="int" name="NELM">   100</i>
   <i type="int" name="NELMHF">     1</i>
   <i type="int" name="DIM">     3</i>
   <i type="int" name="ANTIRES">     0</i>
   <i name="OMEGAMAX">    -30.00000000</i>
   <i name="OMEGAMIN">    -30.00000000</i>
   <i name="OMEGATL">   -200.00000000</i>
   <i type="int" name="OMEGAGRID">   140</i>
   <i name="CSHIFT">     -0.10000000</i>
   <i type="logical" name="SELFENERGY"> F  </i>
   <i type="logical" name="LSPECTRAL"> F  </i>
   <i type="logical" name="LSPECTRALGW"> F  </i>
   <i type="logical" name="LSINGLES"> F  </i>
   <i type="logical" name="LFERMIGW"> F  </i>
   <i type="logical" name="ODDONLYGW"> F  </i>
   <i type="logical" name="EVENONLYGW"> F  </i>
   <i type="int" name="NKREDLFX">     1</i>
   <i type="int" name="NKREDLFY">     1</i>
   <i type="int" name="NKREDLFZ">     1</i>
   <i type="int" name="MAXMEM">  2800</i>
   <i type="int" name="TELESCOPE">     0</i>
   <i type="int" name="TAUPAR">     1</i>
   <i type="int" name="OMEGAPAR">    -1</i>
   <i name="LAMBDA">      1.00000000</i>
  </separator>
  <separator name="External order field" >
   <i name="OFIELD_KAPPA">      0.00000000</i>
   <v name="OFIELD_K">      0.00000000      0.00000000      0.00000000</v>
   <i name="OFIELD_Q6_NEAR">      0.00000000</i>
   <i name="OFIELD_Q6_FAR">      0.00000000</i>
   <i name="OFIELD_A">      0.00000000</i>
  </separator>
 </parameters>
 <atominfo>
  <atoms>       2 </atoms>
  <types>       2 </types>
  <array name="atoms" >
   <dimension dim="1">ion</dimension>
   <field type="string">element</field>
   <field type="int">atomtype</field>
   <set>
    <rc><c>Ca</c><c>   1</c></rc>
    <rc><c>S </c><c>   2</c></rc>
   </set>
  </array>
  <array name="atomtypes" >
   <dimension dim="1">type</dimension>
   <field type="int">atomspertype</field>
   <field type="string">element</field>
   <field>mass</field>
   <field>valence</field>
   <field type="string">pseudopotential</field>
   <set>
    <rc><c>   1</c><c>Ca</c><c>     40.07800000</c><c>     10.00000000</c><c>  PAW_PBE Ca_sv 06Sep2000               </c></rc>
    <rc><c>   1</c><c>S </c><c>     32.06600000</c><c>      6.00000000</c><c>  PAW_PBE S 06Sep2000                   </c></rc>
   </set>
  </array>
 </atominfo>
 <structure name="initialpos" >
  <crystal>
   <varray name="basis" >
    <v>      -2.85237407       0.00000000       2.85237407 </v>
    <v>       0.00000000       2.85237407       2.85237407 </v>
    <v>      -2.85237407       2.85237407       0.00000000 </v>
   </varray>
   <i name="volume">     46.41404684 </i>
   <varray name="rec_basis" >
    <v>      -0.17529258      -0.17529258       0.17529258 </v>
    <v>       0.17529258       0.17529258       0.17529258 </v>
    <v>      -0.17529258       0.17529258      -0.17529258 </v>
   </varray>
  </crystal>
  <varray name="positions" >
   <v>       0.00000000       0.00000000       0.00000000 </v>
   <v>       0.49999996       0.50000004       0.49999996 </v>
  </varray>
 </structure>
 <calculation>
  <scstep>
   <time name="dav">    1.20    1.21</time>
   <time name="total">    1.22    1.23</time>
   <energy>
    <i name="alphaZ">     52.43478141 </i>
    <i name="ewald">   -952.00450343 </i>
    <i name="hartreedc">   -267.61825247 </i>
    <i name="XCdc">     54.54964107 </i>
    <i name="pawpsdc">    963.58264361 </i>
    <i name="pawaedc">   -950.37277349 </i>
    <i name="eentropy">     -0.00005306 </i>
    <i name="bandstr">    -73.28192510 </i>
    <i name="atom">   1282.91009387 </i>
    <i name="e_fr_energy">    110.19965241 </i>
    <i name="e_wo_entrp">    110.19970546 </i>
    <i name="e_0_energy">    110.19967893 </i>
   </energy>
  </scstep>
  <scstep>
   <time name="dav">    1.50    1.51</time>
   <time name="total">    1.50    1.51</time>
   <energy>
    <i name="e_fr_energy">     -5.98015527 </i>
    <i name="e_wo_entrp">     -5.98015527 </i>
    <i name="e_0_energy">     -5.98015527 </i>
   </energy>
  </scstep>
  <scstep>
   <time name="dav">    1.51    1.52</time>
   <time name="total">    1.51    1.52</time>
   <energy>
    <i name="e_fr_energy">    -10.43686123 </i>
    <i name="e_wo_entrp">    -10.43686123 </i>
    <i name="e_0_energy">    -10.43686123 </i>
   </energy>
  </scstep>
  <scstep>
   <time name="dav">    1.55    1.56</time>
   <time name="total">    1.55    1.56</time>
   <energy>
    <i name="e_fr_energy">    -10.62076912 </i>
    <i name="e_wo_entrp">    -10.62076912 </i>
    <i name="e_0_energy">    -10.62076912 </i>
   </energy>
  </scstep>
  <scstep>
   <time name="dav">    1.56    1.57</time>
   <time name="total">    1.63    1.65</time>
   <energy>
    <i name="e_fr_energy">    -10.62210470 </i>
    <i name="e_wo_entrp">    -10.62210470 </i>
    <i name="e_0_energy">    -10.62210470 </i>
   </energy>
  </scstep>
  <scstep>
   <time name="dav">    1.60    1.65</time>
   <time name="total">    1.70    1.75</time>
   <energy>
    <i name="e_fr_energy">    -10.36504139 </i>
    <i name="e_wo_entrp">    -10.36504139 </i>
    <i name="e_0_energy">    -10.36504139 </i>
   </energy>
  </scstep>
  <scstep>
   <time name="dav">    1.54    1.55</time>
   <time name="total">    1.63    1.64</time>
   <energy>
    <i name="e_fr_energy">    -10.35795390 </i>
    <i name="e_wo_entrp">    -10.35795390 </i>
    <i name="e_0_energy">    -10.35795390 </i>
   </energy>
  </scstep>
  <scstep>
   <time name="dav">    1.48    1.49</time>
   <time name="total">    1.57    1.58</time>
   <energy>
    <i name="e_fr_energy">    -10.36496661 </i>
    <i name="e_wo_entrp">    -10.36496661 </i>
    <i name="e_0_energy">    -10.36496661 </i>
   </energy>
  </scstep>
  <scstep>
   <time name="dav">    1.64    1.65</time>
   <time name="total">    1.74    1.76</time>
   <energy>
    <i name="e_fr_energy">    -10.36442093 </i>
    <i name="e_wo_entrp">    -10.36442093 </i>
    <i name="e_0_energy">    -10.36442093 </i>
   </energy>
  </scstep>
  <scstep>
   <time name="dav">    1.41    1.42</time>
   <time name="total">    1.49    1.50</time>
   <energy>
    <i name="e_fr_energy">    -10.36468004 </i>
    <i name="e_wo_entrp">    -10.36468004 </i>
    <i name="e_0_energy">    -10.36468004 </i>
   </energy>
  </scstep>
  <scstep>
   <time name="dav">    1.29    1.30</time>
   <time name="total">    1.37    1.38</time>
   <energy>
    <i name="e_fr_energy">    -10.36472798 </i>
    <i name="e_wo_entrp">    -10.36472798 </i>
    <i name="e_0_energy">    -10.36472798 </i>
   </energy>
  </scstep>
  <scstep>
   <time name="dav">    1.63    1.66</time>
   <time name="total">    1.72    1.76</time>
   <energy>
    <i name="e_fr_energy">    -10.36472782 </i>
    <i name="e_wo_entrp">    -10.36472782 </i>
    <i name="e_0_energy">    -10.36472782 </i>
   </energy>
  </scstep>
  <scstep>
   <time name="dav">    1.47    1.48</time>
   <time name="total">    1.56    1.57</time>
   <energy>
    <i name="e_fr_energy">    -10.36472762 </i>
    <i name="e_wo_entrp">    -10.36472762 </i>
    <i name="e_0_energy">    -10.36472762 </i>
   </energy>
  </scstep>
  <scstep>
   <time name="dav">    1.55    1.56</time>
   <time name="total">    1.65    1.66</time>
   <energy>
    <i name="e_fr_energy">    -10.36472758 </i>
    <i name="e_wo_entrp">    -10.36472758 </i>
    <i name="e_0_energy">    -10.36472758 </i>
   </energy>
  </scstep>
  <scstep>
   <time name="dav">    1.20    1.21</time>
   <time name="total">    1.30    1.31</time>
   <energy>
    <i name="e_fr_energy">    -10.36472763 </i>
    <i name="e_wo_entrp">    -10.36472763 </i>
    <i name="e_0_energy">    -10.36472763 </i>
   </energy>
  </scstep>
  <scstep>
   <time name="dav">    1.03    1.04</time>
   <time name="total">    1.12    1.14</time>
   <energy>
    <i name="e_fr_energy">    -10.36472761 </i>
    <i name="e_wo_entrp">    -10.36472761 </i>
    <i name="e_0_energy">    -10.36472761 </i>
   </energy>
  </scstep>
  <scstep>
   <time name="dav">    1.05    1.06</time>
   <time name="total">    1.06    1.07</time>
   <energy>
    <i name="alphaZ">     52.43478141 </i>
    <i name="ewald">   -952.00450343 </i>
    <i name="hartreedc">   -265.49742753 </i>
    <i name="XCdc">     54.87912486 </i>
    <i name="pawpsdc">   1242.27671530 </i>
    <i name="pawaedc">  -1238.31223990 </i>
    <i name="eentropy">     -0.00000000 </i>
    <i name="bandstr">   -187.05127220 </i>
    <i name="atom">   1282.91009387 </i>
    <i name="e_fr_energy">    -10.36472761 </i>
    <i name="e_wo_entrp">    -10.36472761 </i>
    <i name="e_0_energy">    -10.36472761 </i>
   </energy>
  </scstep>
  <structure>
   <crystal>
    <varray name="basis" >
     <v>      -2.85237407       0.00000000       2.85237407 </v>
     <v>       0.00000000       2.85237407       2.85237407 </v>
     <v>      -2.85237407       2.85237407       0.00000000 </v>
    </varray>
    <i name="volume">     46.41404684 </i>
    <varray name="rec_basis" >
     <v>      -0.17529258      -0.17529258       0.17529258 </v>
     <v>       0.17529258       0.17529258       0.17529258 </v>
     <v>      -0.17529258       0.17529258      -0.17529258 </v>
    </varray>
   </crystal>
   <varray name="positions" >
    <v>       0.00000000       0.00000000       0.00000000 </v>
    <v>       0.49999996       0.50000004       0.49999996 </v>
   </varray>
  </structure>
  <varray name="forces" >
   <v>       0.00000070       0.00000000      -0.00000000 </v>
   <v>      -0.00000070      -0.00000000       0.00000000 </v>
  </varray>
  <varray name="stress" >
   <v>       3.65341936      -0.00000000       0.00000000 </v>
   <v>      -0.00000000       3.65341784       0.00000000 </v>
   <v>       0.00000000       0.00000000       3.65341784 </v>
  </varray>
  <energy>
   <i name="e_fr_energy">    -10.36472761 </i>
   <i name="e_wo_entrp">    -10.36472761 </i>
   <i name="e_0_energy">     -0.00000000 </i>
  </energy>
  <scstep>
   <time name="total">    1.40    1.41</time>
   <energy>
    <i name="e_fr_energy">     -0.54209625 </i>
    <i name="e_wo_entrp">     -0.54209625 </i>
    <i name="e_0_energy">     -0.54209625 </i>
   </energy>
  </scstep>
  <scstep>
   <time name="total">    1.26    1.28</time>
   <energy>
    <i name="e_fr_energy">     -0.56799997 </i>
    <i name="e_wo_entrp">     -0.56799997 </i>
    <i name="e_0_energy">     -0.56799997 </i>
   </energy>
  </scstep>
  <scstep>
   <time name="total">    1.28    1.29</time>
   <energy>
    <i name="e_fr_energy">     -0.57126827 </i>
    <i name="e_wo_entrp">     -0.57126827 </i>
    <i name="e_0_energy">     -0.57126827 </i>
   </energy>
  </scstep>
  <scstep>
   <time name="total">    1.25    1.25</time>
   <energy>
    <i name="e_fr_energy">     -0.57184378 </i>
    <i name="e_wo_entrp">     -0.57184378 </i>
    <i name="e_0_energy">     -0.57184378 </i>
   </energy>
  </scstep>
  <scstep>
   <time name="total">    1.31    1.32</time>
   <energy>
    <i name="e_fr_energy">     -0.57189670 </i>
    <i name="e_wo_entrp">     -0.57189670 </i>
    <i name="e_0_energy">     -0.57189670 </i>
   </energy>
  </scstep>
  <scstep>
   <time name="total">    1.31    1.32</time>
   <energy>
    <i name="e_fr_energy">     -0.57190240 </i>
    <i name="e_wo_entrp">     -0.57190240 </i>
    <i name="e_0_energy">     -0.57190240 </i>
   </energy>
  </scstep>
  <scstep>
   <time name="total">    1.26    1.26</time>
   <energy>
    <i name="e_fr_energy">     -0.57190304 </i>
    <i name="e_wo_entrp">     -0.57190304 </i>
    <i name="e_0_energy">     -0.57190304 </i>
   </energy>
  </scstep>
  <scstep>
   <time name="total">    1.21    1.23</time>
   <energy>
    <i name="e_fr_energy">     -0.57190312 </i>
    <i name="e_wo_entrp">     -0.57190312 </i>
    <i name="e_0_energy">     -0.57190312 </i>
   </energy>
  </scstep>
  <scstep>
   <time name="total">    1.18    1.19</time>
   <energy>
    <i name="e_fr_energy">     -0.57190313 </i>
    <i name="e_wo_entrp">     -0.57190313 </i>
    <i name="e_0_energy">     -0.57190313 </i>
   </energy>
  </scstep>
  <scstep>
   <time name="total">    1.48    1.48</time>
   <energy>
    <i name="e_fr_energy">     -0.59990883 </i>
    <i name="e_wo_entrp">     -0.59990883 </i>
    <i name="e_0_energy">     -0.59990883 </i>
   </energy>
  </scstep>
  <scstep>
   <time name="total">    1.32    1.32</time>
   <energy>
    <i name="e_fr_energy">     -0.62572346 </i>
    <i name="e_wo_entrp">     -0.62572346 </i>
    <i name="e_0_energy">     -0.62572346 </i>
   </energy>
  </scstep>
  <scstep>
   <time name="total">    1.31    1.31</time>
   <energy>
    <i name="e_fr_energy">     -0.62874950 </i>
    <i name="e_wo_entrp">     -0.62874950 </i>
    <i name="e_0_energy">     -0.62874950 </i>
   </energy>
  </scstep>
  <scstep>
   <time name="total">    1.33    1.34</time>
   <energy>
    <i name="e_fr_energy">     -0.62929296 </i>
    <i name="e_wo_entrp">     -0.62929296 </i>
    <i name="e_0_energy">     -0.62929296 </i>
   </energy>
  </scstep>
  <scstep>
   <time name="total">    1.28    1.29</time>
   <energy>
    <i name="e_fr_energy">     -0.62934167 </i>
    <i name="e_wo_entrp">     -0.62934167 </i>
    <i name="e_0_energy">     -0.62934167 </i>
   </energy>
  </scstep>
  <scstep>
   <time name="total">    1.28    1.28</time>
   <energy>
    <i name="e_fr_energy">     -0.62934702 </i>
    <i name="e_wo_entrp">     -0.62934702 </i>
    <i name="e_0_energy">     -0.62934702 </i>
   </energy>
  </scstep>
  <scstep>
   <time name="total">    1.33    1.33</time>
   <energy>
    <i name="e_fr_energy">     -0.62934762 </i>
    <i name="e_wo_entrp">     -0.62934762 </i>
    <i name="e_0_energy">     -0.62934762 </i>
   </energy>
  </scstep>
  <scstep>
   <time name="total">    1.29    1.29</time>
   <energy>
    <i name="e_fr_energy">     -0.62934770 </i>
    <i name="e_wo_entrp">     -0.62934770 </i>
    <i name="e_0_energy">     -0.62934770 </i>
   </energy>
  </scstep>
  <scstep>
   <time name="total">    1.33    1.33</time>
   <energy>
    <i name="e_fr_energy">     -0.62934771 </i>
    <i name="e_wo_entrp">     -0.62934771 </i>
    <i name="e_0_energy">     -0.62934771 </i>
   </energy>
  </scstep>
  <scstep>
   <time name="total">    1.38    1.38</time>
   <energy>
    <i name="e_fr_energy">     -0.48430238 </i>
    <i name="e_wo_entrp">     -0.48430238 </i>
    <i name="e_0_energy">     -0.48430238 </i>
   </energy>
  </scstep>
  <scstep>
   <time name="total">    1.24    1.24</time>
   <energy>
    <i name="e_fr_energy">     -0.51036161 </i>
    <i name="e_wo_entrp">     -0.51036161 </i>
    <i name="e_0_energy">     -0.51036161 </i>
   </energy>
  </scstep>
  <scstep>
   <time name="total">    1.30    1.30</time>
   <energy>
    <i name="e_fr_energy">     -0.51384465 </i>
    <i name="e_wo_entrp">     -0.51384465 </i>
    <i name="e_0_energy">     -0.51384465 </i>
   </energy>
  </scstep>
  <scstep>
   <time name="total">    1.30    1.32</time>
   <energy>
    <i name="e_fr_energy">     -0.51444878 </i>
    <i name="e_wo_entrp">     -0.51444878 </i>
    <i name="e_0_energy">     -0.51444878 </i>
   </energy>
  </scstep>
  <scstep>
   <time name="total">    1.34    1.36</time>
   <energy>
    <i name="e_fr_energy">     -0.51450562 </i>
    <i name="e_wo_entrp">     -0.51450562 </i>
    <i name="e_0_energy">     -0.51450562 </i>
   </energy>
  </scstep>
  <scstep>
   <time name="total">    1.26    1.26</time>
   <energy>
    <i name="e_fr_energy">     -0.51451161 </i>
    <i name="e_wo_entrp">     -0.51451161 </i>
    <i name="e_0_energy">     -0.51451161 </i>
   </energy>
  </scstep>
  <scstep>
   <time name="total">    1.24    1.26</time>
   <energy>
    <i name="e_fr_energy">     -0.51451228 </i>
    <i name="e_wo_entrp">     -0.51451228 </i>
    <i name="e_0_energy">     -0.51451228 </i>
   </energy>
  </scstep>
  <scstep>
   <time name="total">    1.26    1.27</time>
   <energy>
    <i name="e_fr_energy">     -0.51451237 </i>
    <i name="e_wo_entrp">     -0.51451237 </i>
    <i name="e_0_energy">     -0.51451237 </i>
   </energy>
  </scstep>
  <scstep>
   <time name="total">    1.27    1.28</time>
   <energy>
    <i name="e_fr_energy">     -0.51451238 </i>
    <i name="e_wo_entrp">     -0.51451238 </i>
    <i name="e_0_energy">     -0.51451238 </i>
   </energy>
  </scstep>
  <scstep>
   <time name="total">    1.22    1.22</time>
   <energy>
    <i name="e_fr_energy">     -0.51451238 </i>
    <i name="e_wo_entrp">     -0.51451238 </i>
    <i name="e_0_energy">     -0.51451238 </i>
   </energy>
  </scstep>
  <varray name="epsilon_rpa" >
   <v>       5.45932124       0.00000000      -0.00000000 </v>
   <v>      -0.00000000       5.45953179       0.00000000 </v>
   <v>       0.00000000       0.00000000       5.45953179 </v>
  </varray>
  <kpoints>
   <generation param="Gamma">
    <v type="int" name="divisions">      12       12       12 </v>
    <v name="usershift">      0.00000000       0.00000000       0.00000000 </v>
    <v name="genvec1">      0.08333333       0.00000000       0.00000000 </v>
    <v name="genvec2">      0.00000000       0.08333333      -0.00000000 </v>
    <v name="genvec3">     -0.00000000      -0.00000000       0.08333333 </v>
    <v name="shift">      0.00000000       0.00000000       0.00000000 </v>
   </generation>
   <varray name="kpointlist" >
    <v>       0.00000000       0.00000000       0.00000000 </v>
    <v>       0.08333333       0.00000000       0.00000000 </v>
    <v>       0.16666667       0.00000000       0.00000000 </v>
    <v>       0.25000000      -0.00000000      -0.00000000 </v>
    <v>       0.33333333      -0.00000000      -0.00000000 </v>
    <v>       0.41666667       0.00000000       0.00000000 </v>
    <v>       0.50000000      -0.00000000      -0.00000000 </v>
    <v>       0.08333333       0.08333333       0.00000000 </v>
    <v>       0.16666667       0.08333333       0.00000000 </v>
    <v>       0.25000000       0.08333333       0.00000000 </v>
    <v>       0.33333333       0.08333333      -0.00000000 </v>
    <v>       0.41666667       0.08333333      -0.00000000 </v>
    <v>       0.50000000       0.08333333       0.00000000 </v>
    <v>      -0.41666667       0.08333333       0.00000000 </v>
    <v>      -0.33333333       0.08333333       0.00000000 </v>
    <v>      -0.25000000       0.08333333       0.00000000 </v>
    <v>      -0.16666667       0.08333333       0.00000000 </v>
    <v>      -0.08333333       0.08333333      -0.00000000 </v>
    <v>       0.16666667       0.16666667       0.00000000 </v>
    <v>       0.25000000       0.16666667       0.00000000 </v>
    <v>       0.33333333       0.16666667      -0.00000000 </v>
    <v>       0.41666667       0.16666667       0.00000000 </v>
    <v>       0.50000000       0.16666667       0.00000000 </v>
    <v>      -0.41666667       0.16666667      -0.00000000 </v>
    <v>      -0.33333333       0.16666667       0.00000000 </v>
    <v>      -0.25000000       0.16666667      -0.00000000 </v>
    <v>      -0.16666667       0.16666667      -0.00000000 </v>
    <v>       0.25000000       0.25000000       0.00000000 </v>
    <v>       0.33333333       0.25000000       0.00000000 </v>
    <v>       0.41666667       0.25000000       0.00000000 </v>
    <v>       0.50000000       0.25000000      -0.00000000 </v>
    <v>      -0.41666667       0.25000000      -0.00000000 </v>
    <v>      -0.33333333       0.25000000      -0.00000000 </v>
    <v>      -0.25000000       0.25000000       0.00000000 </v>
    <v>       0.33333333       0.33333333       0.00000000 </v>
    <v>       0.41666667       0.33333333       0.00000000 </v>
    <v>       0.50000000       0.33333333       0.00000000 </v>
    <v>      -0.41666667       0.33333333      -0.00000000 </v>
    <v>      -0.33333333       0.33333333       0.00000000 </v>
    <v>       0.41666667       0.41666667       0.00000000 </v>
    <v>       0.50000000       0.41666667       0.00000000 </v>
    <v>      -0.41666667       0.41666667      -0.00000000 </v>
    <v>       0.50000000       0.50000000       0.00000000 </v>
    <v>       0.08333333       0.00000000       0.08333333 </v>
    <v>       0.16666667      -0.00000000       0.08333333 </v>
    <v>       0.25000000       0.00000000       0.08333333 </v>
    <v>       0.33333333       0.00000000       0.08333333 </v>
    <v>       0.41666667      -0.00000000       0.08333333 </v>
    <v>       0.50000000       0.00000000       0.08333333 </v>
    <v>      -0.41666667       0.00000000       0.08333333 </v>
    <v>      -0.33333333       0.00000000       0.08333333 </v>
    <v>      -0.25000000       0.00000000       0.08333333 </v>
    <v>      -0.16666667       0.00000000       0.08333333 </v>
    <v>      -0.08333333      -0.00000000       0.08333333 </v>
    <v>       0.25000000       0.16666667       0.08333333 </v>
    <v>       0.33333333       0.16666667       0.08333333 </v>
    <v>       0.41666667       0.16666667       0.08333333 </v>
    <v>       0.50000000       0.16666667       0.08333333 </v>
    <v>      -0.41666667       0.16666667       0.08333333 </v>
    <v>       0.16666667       0.25000000       0.08333333 </v>
    <v>       0.33333333       0.25000000       0.08333333 </v>
    <v>       0.41666667       0.25000000       0.08333333 </v>
    <v>       0.50000000       0.25000000       0.08333333 </v>
    <v>      -0.41666667       0.25000000       0.08333333 </v>
    <v>      -0.33333333       0.25000000       0.08333333 </v>
    <v>      -0.25000000       0.25000000       0.08333333 </v>
    <v>      -0.16666667       0.25000000       0.08333333 </v>
    <v>       0.16666667       0.33333333       0.08333333 </v>
    <v>       0.25000000       0.33333333       0.08333333 </v>
    <v>       0.41666667       0.33333333       0.08333333 </v>
    <v>       0.50000000       0.33333333       0.08333333 </v>
    <v>      -0.41666667       0.33333333       0.08333333 </v>
    <v>      -0.33333333       0.33333333       0.08333333 </v>
    <v>      -0.25000000       0.33333333       0.08333333 </v>
    <v>       0.16666667       0.41666667       0.08333333 </v>
    <v>       0.25000000       0.41666667       0.08333333 </v>
    <v>       0.33333333       0.41666667       0.08333333 </v>
    <v>       0.50000000       0.41666667       0.08333333 </v>
    <v>      -0.41666667       0.41666667       0.08333333 </v>
    <v>      -0.33333333       0.41666667       0.08333333 </v>
    <v>       0.16666667       0.50000000       0.08333333 </v>
    <v>       0.25000000       0.50000000       0.08333333 </v>
    <v>       0.33333333       0.50000000       0.08333333 </v>
    <v>       0.41666667       0.50000000       0.08333333 </v>
    <v>      -0.41666667       0.50000000       0.08333333 </v>
    <v>       0.16666667      -0.41666667       0.08333333 </v>
    <v>       0.25000000      -0.41666667       0.08333333 </v>
    <v>       0.33333333      -0.41666667       0.08333333 </v>
    <v>       0.41666667      -0.41666667       0.08333333 </v>
    <v>       0.50000000      -0.41666667       0.08333333 </v>
    <v>       0.16666667      -0.33333333       0.08333333 </v>
    <v>       0.25000000      -0.33333333       0.08333333 </v>
    <v>       0.33333333      -0.33333333       0.08333333 </v>
    <v>       0.41666667      -0.33333333       0.08333333 </v>
    <v>       0.16666667      -0.25000000       0.08333333 </v>
    <v>       0.25000000      -0.25000000       0.08333333 </v>
    <v>       0.33333333      -0.25000000       0.08333333 </v>
    <v>       0.16666667      -0.16666667       0.08333333 </v>
    <v>       0.25000000      -0.16666667       0.08333333 </v>
    <v>       0.16666667      -0.08333333       0.08333333 </v>
    <v>       0.16666667       0.00000000       0.16666667 </v>
    <v>       0.25000000      -0.00000000       0.16666667 </v>
    <v>       0.33333333      -0.00000000       0.16666667 </v>
    <v>       0.41666667       0.00000000       0.16666667 </v>
    <v>       0.50000000       0.00000000       0.16666667 </v>
    <v>      -0.41666667       0.00000000       0.16666667 </v>
    <v>      -0.33333333       0.00000000       0.16666667 </v>
    <v>      -0.25000000      -0.00000000       0.16666667 </v>
    <v>      -0.16666667       0.00000000       0.16666667 </v>
    <v>       0.50000000       0.33333333       0.16666667 </v>
    <v>      -0.41666667       0.33333333       0.16666667 </v>
    <v>      -0.33333333       0.33333333       0.16666667 </v>
    <v>       0.25000000       0.41666667       0.16666667 </v>
    <v>      -0.41666667       0.41666667       0.16666667 </v>
    <v>      -0.33333333       0.41666667       0.16666667 </v>
    <v>      -0.25000000       0.41666667       0.16666667 </v>
    <v>       0.25000000       0.50000000       0.16666667 </v>
    <v>       0.33333333       0.50000000       0.16666667 </v>
    <v>      -0.33333333       0.50000000       0.16666667 </v>
    <v>       0.25000000      -0.41666667       0.16666667 </v>
    <v>       0.33333333      -0.41666667       0.16666667 </v>
    <v>       0.41666667      -0.41666667       0.16666667 </v>
    <v>       0.25000000      -0.33333333       0.16666667 </v>
    <v>       0.33333333      -0.33333333       0.16666667 </v>
    <v>       0.41666667      -0.33333333       0.16666667 </v>
    <v>       0.50000000      -0.33333333       0.16666667 </v>
    <v>       0.25000000      -0.25000000       0.16666667 </v>
    <v>       0.33333333      -0.25000000       0.16666667 </v>
    <v>       0.41666667      -0.25000000       0.16666667 </v>
    <v>       0.25000000      -0.16666667       0.16666667 </v>
    <v>       0.33333333      -0.16666667       0.16666667 </v>
    <v>       0.25000000      -0.08333333       0.16666667 </v>
    <v>       0.25000000       0.00000000       0.25000000 </v>
    <v>       0.33333333       0.00000000       0.25000000 </v>
    <v>       0.41666667       0.00000000       0.25000000 </v>
    <v>       0.50000000      -0.00000000       0.25000000 </v>
    <v>      -0.41666667       0.00000000       0.25000000 </v>
    <v>      -0.33333333      -0.00000000       0.25000000 </v>
    <v>      -0.25000000       0.00000000       0.25000000 </v>
    <v>      -0.25000000       0.50000000       0.25000000 </v>
    <v>       0.33333333      -0.41666667       0.25000000 </v>
    <v>       0.33333333      -0.33333333       0.25000000 </v>
    <v>       0.41666667      -0.33333333       0.25000000 </v>
    <v>       0.33333333      -0.25000000       0.25000000 </v>
    <v>       0.41666667      -0.25000000       0.25000000 </v>
    <v>       0.50000000      -0.25000000       0.25000000 </v>
    <v>       0.33333333      -0.16666667       0.25000000 </v>
    <v>       0.41666667      -0.16666667       0.25000000 </v>
    <v>       0.33333333      -0.08333333       0.25000000 </v>
    <v>       0.33333333       0.00000000       0.33333333 </v>
    <v>       0.41666667       0.00000000       0.33333333 </v>
    <v>       0.50000000       0.00000000       0.33333333 </v>
    <v>      -0.41666667      -0.00000000       0.33333333 </v>
    <v>      -0.33333333       0.00000000       0.33333333 </v>
    <v>       0.41666667      -0.25000000       0.33333333 </v>
    <v>       0.41666667      -0.16666667       0.33333333 </v>
    <v>       0.50000000      -0.16666667       0.33333333 </v>
    <v>       0.41666667      -0.08333333       0.33333333 </v>
    <v>       0.41666667       0.00000000       0.41666667 </v>
    <v>       0.50000000       0.00000000       0.41666667 </v>
    <v>      -0.41666667      -0.00000000       0.41666667 </v>
    <v>       0.50000000      -0.08333333       0.41666667 </v>
    <v>       0.50000000       0.00000000       0.50000000 </v>
   </varray>
   <varray name="weights" >
    <v>       0.00057870 </v>
    <v>       0.00462963 </v>
    <v>       0.00462963 </v>
    <v>       0.00462963 </v>
    <v>       0.00462963 </v>
    <v>       0.00462963 </v>
    <v>       0.00231481 </v>
    <v>       0.00231481 </v>
    <v>       0.00925926 </v>
    <v>       0.00925926 </v>
    <v>       0.00925926 </v>
    <v>       0.00925926 </v>
    <v>       0.00925926 </v>
    <v>       0.00925926 </v>
    <v>       0.00925926 </v>
    <v>       0.00925926 </v>
    <v>       0.00925926 </v>
    <v>       0.00462963 </v>
    <v>       0.00231481 </v>
    <v>       0.00925926 </v>
    <v>       0.00925926 </v>
    <v>       0.00925926 </v>
    <v>       0.00925926 </v>
    <v>       0.00925926 </v>
    <v>       0.00925926 </v>
    <v>       0.00925926 </v>
    <v>       0.00462963 </v>
    <v>       0.00231481 </v>
    <v>       0.00925926 </v>
    <v>       0.00925926 </v>
    <v>       0.00925926 </v>
    <v>       0.00925926 </v>
    <v>       0.00925926 </v>
    <v>       0.00462963 </v>
    <v>       0.00231481 </v>
    <v>       0.00925926 </v>
    <v>       0.00925926 </v>
    <v>       0.00925926 </v>
    <v>       0.00462963 </v>
    <v>       0.00231481 </v>
    <v>       0.00925926 </v>
    <v>       0.00462963 </v>
    <v>       0.00115741 </v>
    <v>       0.00115741 </v>
    <v>       0.00462963 </v>
    <v>       0.00462963 </v>
    <v>       0.00462963 </v>
    <v>       0.00462963 </v>
    <v>       0.00462963 </v>
    <v>       0.00462963 </v>
    <v>       0.00462963 </v>
    <v>       0.00462963 </v>
    <v>       0.00462963 </v>
    <v>       0.00231481 </v>
    <v>       0.00462963 </v>
    <v>       0.00925926 </v>
    <v>       0.00925926 </v>
    <v>       0.00925926 </v>
    <v>       0.00462963 </v>
    <v>       0.00462963 </v>
    <v>       0.00462963 </v>
    <v>       0.00925926 </v>
    <v>       0.00925926 </v>
    <v>       0.00925926 </v>
    <v>       0.00925926 </v>
    <v>       0.00925926 </v>
    <v>       0.00462963 </v>
    <v>       0.00925926 </v>
    <v>       0.00462963 </v>
    <v>       0.00462963 </v>
    <v>       0.00925926 </v>
    <v>       0.00925926 </v>
    <v>       0.00925926 </v>
    <v>       0.00462963 </v>
    <v>       0.00925926 </v>
    <v>       0.00925926 </v>
    <v>       0.00462963 </v>
    <v>       0.00462963 </v>
    <v>       0.00925926 </v>
    <v>       0.00462963 </v>
    <v>       0.00925926 </v>
    <v>       0.00925926 </v>
    <v>       0.00925926 </v>
    <v>       0.00462963 </v>
    <v>       0.00231481 </v>
    <v>       0.00925926 </v>
    <v>       0.00925926 </v>
    <v>       0.00925926 </v>
    <v>       0.00925926 </v>
    <v>       0.00231481 </v>
    <v>       0.00925926 </v>
    <v>       0.00925926 </v>
    <v>       0.00925926 </v>
    <v>       0.00462963 </v>
    <v>       0.00925926 </v>
    <v>       0.00925926 </v>
    <v>       0.00462963 </v>
    <v>       0.00925926 </v>
    <v>       0.00462963 </v>
    <v>       0.00462963 </v>
    <v>       0.00115741 </v>
    <v>       0.00462963 </v>
    <v>       0.00462963 </v>
    <v>       0.00462963 </v>
    <v>       0.00462963 </v>
    <v>       0.00462963 </v>
    <v>       0.00462963 </v>
    <v>       0.00462963 </v>
    <v>       0.00231481 </v>
    <v>       0.00462963 </v>
    <v>       0.00925926 </v>
    <v>       0.00462963 </v>
    <v>       0.00462963 </v>
    <v>       0.00462963 </v>
    <v>       0.00925926 </v>
    <v>       0.00462963 </v>
    <v>       0.00925926 </v>
    <v>       0.00462963 </v>
    <v>       0.00231481 </v>
    <v>       0.00925926 </v>
    <v>       0.00925926 </v>
    <v>       0.00462963 </v>
    <v>       0.00925926 </v>
    <v>       0.00925926 </v>
    <v>       0.00925926 </v>
    <v>       0.00231481 </v>
    <v>       0.00925926 </v>
    <v>       0.00925926 </v>
    <v>       0.00462963 </v>
    <v>       0.00925926 </v>
    <v>       0.00462963 </v>
    <v>       0.00462963 </v>
    <v>       0.00115741 </v>
    <v>       0.00462963 </v>
    <v>       0.00462963 </v>
    <v>       0.00462963 </v>
    <v>       0.00462963 </v>
    <v>       0.00462963 </v>
    <v>       0.00231481 </v>
    <v>       0.00115741 </v>
    <v>       0.00462963 </v>
    <v>       0.00925926 </v>
    <v>       0.00462963 </v>
    <v>       0.00925926 </v>
    <v>       0.00925926 </v>
    <v>       0.00231481 </v>
    <v>       0.00925926 </v>
    <v>       0.00462963 </v>
    <v>       0.00462963 </v>
    <v>       0.00115741 </v>
    <v>       0.00462963 </v>
    <v>       0.00462963 </v>
    <v>       0.00462963 </v>
    <v>       0.00231481 </v>
    <v>       0.00462963 </v>
    <v>       0.00925926 </v>
    <v>       0.00231481 </v>
    <v>       0.00462963 </v>
    <v>       0.00115741 </v>
    <v>       0.00462963 </v>
    <v>       0.00231481 </v>
    <v>       0.00231481 </v>
    <v>       0.00057870 </v>
   </varray>
  </kpoints>
  <scstep>
   <time name="total">    1.39    1.39</time>
   <energy>
    <i name="e_fr_energy">     -0.54209625 </i>
    <i name="e_wo_entrp">     -0.54209625 </i>
    <i name="e_0_energy">     -0.54209625 </i>
   </energy>
  </scstep>
  <scstep>
   <time name="total">    1.38    1.39</time>
   <energy>
    <i name="e_fr_energy">     -0.56799997 </i>
    <i name="e_wo_entrp">     -0.56799997 </i>
    <i name="e_0_energy">     -0.56799997 </i>
   </energy>
  </scstep>
  <scstep>
   <time name="total">    1.87    1.87</time>
   <energy>
    <i name="e_fr_energy">     -0.52573201 </i>
    <i name="e_wo_entrp">     -0.52573201 </i>
    <i name="e_0_energy">     -0.52573201 </i>
   </energy>
  </scstep>
  <scstep>
   <time name="total">    1.98    1.98</time>
   <energy>
    <i name="e_fr_energy">     -0.54622095 </i>
    <i name="e_wo_entrp">     -0.54622095 </i>
    <i name="e_0_energy">     -0.54622095 </i>
   </energy>
  </scstep>
  <scstep>
   <time name="total">    1.84    1.85</time>
   <energy>
    <i name="e_fr_energy">     -0.56961783 </i>
    <i name="e_wo_entrp">     -0.56961783 </i>
    <i name="e_0_energy">     -0.56961783 </i>
   </energy>
  </scstep>
  <scstep>
   <time name="total">    2.08    2.10</time>
   <energy>
    <i name="e_fr_energy">     -0.56988114 </i>
    <i name="e_wo_entrp">     -0.56988114 </i>
    <i name="e_0_energy">     -0.56988114 </i>
   </energy>
  </scstep>
  <scstep>
   <time name="total">    2.02    2.04</time>
   <energy>
    <i name="e_fr_energy">     -0.57171063 </i>
    <i name="e_wo_entrp">     -0.57171063 </i>
    <i name="e_0_energy">     -0.57171063 </i>
   </energy>
  </scstep>
  <scstep>
   <time name="total">    2.07    2.07</time>
   <energy>
    <i name="e_fr_energy">     -0.57186871 </i>
    <i name="e_wo_entrp">     -0.57186871 </i>
    <i name="e_0_energy">     -0.57186871 </i>
   </energy>
  </scstep>
  <scstep>
   <time name="total">    2.08    2.09</time>
   <energy>
    <i name="e_fr_energy">     -0.57192283 </i>
    <i name="e_wo_entrp">     -0.57192283 </i>
    <i name="e_0_energy">     -0.57192283 </i>
   </energy>
  </scstep>
  <scstep>
   <time name="total">    2.00    2.02</time>
   <energy>
    <i name="e_fr_energy">     -0.57195327 </i>
    <i name="e_wo_entrp">     -0.57195327 </i>
    <i name="e_0_energy">     -0.57195327 </i>
   </energy>
  </scstep>
  <scstep>
   <time name="total">    2.10    2.10</time>
   <energy>
    <i name="e_fr_energy">     -0.57195650 </i>
    <i name="e_wo_entrp">     -0.57195650 </i>
    <i name="e_0_energy">     -0.57195650 </i>
   </energy>
  </scstep>
  <scstep>
   <time name="total">    2.13    2.15</time>
   <energy>
    <i name="e_fr_energy">     -0.57195638 </i>
    <i name="e_wo_entrp">     -0.57195638 </i>
    <i name="e_0_energy">     -0.57195638 </i>
   </energy>
  </scstep>
  <scstep>
   <time name="total">    2.03    2.04</time>
   <energy>
    <i name="e_fr_energy">     -0.57195677 </i>
    <i name="e_wo_entrp">     -0.57195677 </i>
    <i name="e_0_energy">     -0.57195677 </i>
   </energy>
  </scstep>
  <scstep>
   <time name="total">    1.83    1.84</time>
   <energy>
    <i name="e_fr_energy">     -0.57195670 </i>
    <i name="e_wo_entrp">     -0.57195670 </i>
    <i name="e_0_energy">     -0.57195670 </i>
   </energy>
  </scstep>
  <kpoints>
   <generation param="Gamma">
    <v type="int" name="divisions">      12       12       12 </v>
    <v name="usershift">      0.00000000       0.00000000       0.00000000 </v>
    <v name="genvec1">      0.08333333       0.00000000       0.00000000 </v>
    <v name="genvec2">      0.00000000       0.08333333      -0.00000000 </v>
    <v name="genvec3">     -0.00000000      -0.00000000       0.08333333 </v>
    <v name="shift">      0.00000000       0.00000000       0.00000000 </v>
   </generation>
   <varray name="kpointlist" >
    <v>       0.00000000       0.00000000       0.00000000 </v>
    <v>       0.08333333       0.00000000       0.00000000 </v>
    <v>       0.16666667       0.00000000       0.00000000 </v>
    <v>       0.25000000      -0.00000000      -0.00000000 </v>
    <v>       0.33333333      -0.00000000      -0.00000000 </v>
    <v>       0.41666667       0.00000000       0.00000000 </v>
    <v>       0.50000000      -0.00000000      -0.00000000 </v>
    <v>       0.08333333       0.08333333       0.00000000 </v>
    <v>       0.16666667       0.08333333       0.00000000 </v>
    <v>       0.25000000       0.08333333       0.00000000 </v>
    <v>       0.33333333       0.08333333      -0.00000000 </v>
    <v>       0.41666667       0.08333333      -0.00000000 </v>
    <v>       0.50000000       0.08333333       0.00000000 </v>
    <v>      -0.41666667       0.08333333       0.00000000 </v>
    <v>      -0.33333333       0.08333333       0.00000000 </v>
    <v>      -0.25000000       0.08333333       0.00000000 </v>
    <v>      -0.16666667       0.08333333       0.00000000 </v>
    <v>      -0.08333333       0.08333333      -0.00000000 </v>
    <v>       0.16666667       0.16666667       0.00000000 </v>
    <v>       0.25000000       0.16666667       0.00000000 </v>
    <v>       0.33333333       0.16666667      -0.00000000 </v>
    <v>       0.41666667       0.16666667       0.00000000 </v>
    <v>       0.50000000       0.16666667       0.00000000 </v>
    <v>      -0.41666667       0.16666667      -0.00000000 </v>
    <v>      -0.33333333       0.16666667       0.00000000 </v>
    <v>      -0.25000000       0.16666667      -0.00000000 </v>
    <v>      -0.16666667       0.16666667      -0.00000000 </v>
    <v>       0.25000000       0.25000000       0.00000000 </v>
    <v>       0.33333333       0.25000000       0.00000000 </v>
    <v>       0.41666667       0.25000000       0.00000000 </v>
    <v>       0.50000000       0.25000000      -0.00000000 </v>
    <v>      -0.41666667       0.25000000      -0.00000000 </v>
    <v>      -0.33333333       0.25000000      -0.00000000 </v>
    <v>      -0.25000000       0.25000000       0.00000000 </v>
    <v>       0.33333333       0.33333333       0.00000000 </v>
    <v>       0.41666667       0.33333333       0.00000000 </v>
    <v>       0.50000000       0.33333333       0.00000000 </v>
    <v>      -0.41666667       0.33333333      -0.00000000 </v>
    <v>      -0.33333333       0.33333333       0.00000000 </v>
    <v>       0.41666667       0.41666667       0.00000000 </v>
    <v>       0.50000000       0.41666667       0.00000000 </v>
    <v>      -0.41666667       0.41666667      -0.00000000 </v>
    <v>       0.50000000       0.50000000       0.00000000 </v>
    <v>      -0.00000000      -0.00000000       0.08333333 </v>
    <v>       0.08333333       0.00000000       0.08333333 </v>
    <v>       0.16666667      -0.00000000       0.08333333 </v>
    <v>       0.25000000       0.00000000       0.08333333 </v>
    <v>       0.33333333       0.00000000       0.08333333 </v>
    <v>       0.41666667      -0.00000000       0.08333333 </v>
    <v>       0.50000000       0.00000000       0.08333333 </v>
    <v>      -0.41666667       0.00000000       0.08333333 </v>
    <v>      -0.33333333       0.00000000       0.08333333 </v>
    <v>      -0.25000000       0.00000000       0.08333333 </v>
    <v>      -0.16666667       0.00000000       0.08333333 </v>
    <v>      -0.08333333      -0.00000000       0.08333333 </v>
    <v>       0.00000000       0.08333333       0.08333333 </v>
    <v>       0.16666667       0.08333333       0.08333333 </v>
    <v>       0.25000000       0.08333333       0.08333333 </v>
    <v>       0.33333333       0.08333333       0.08333333 </v>
    <v>       0.41666667       0.08333333       0.08333333 </v>
    <v>       0.50000000       0.08333333       0.08333333 </v>
    <v>      -0.41666667       0.08333333       0.08333333 </v>
    <v>      -0.33333333       0.08333333       0.08333333 </v>
    <v>      -0.25000000       0.08333333       0.08333333 </v>
    <v>      -0.16666667       0.08333333       0.08333333 </v>
    <v>      -0.08333333       0.08333333       0.08333333 </v>
    <v>       0.16666667       0.16666667       0.08333333 </v>
    <v>       0.25000000       0.16666667       0.08333333 </v>
    <v>       0.33333333       0.16666667       0.08333333 </v>
    <v>       0.41666667       0.16666667       0.08333333 </v>
    <v>       0.50000000       0.16666667       0.08333333 </v>
    <v>      -0.41666667       0.16666667       0.08333333 </v>
    <v>      -0.33333333       0.16666667       0.08333333 </v>
    <v>      -0.25000000       0.16666667       0.08333333 </v>
    <v>      -0.16666667       0.16666667       0.08333333 </v>
    <v>      -0.08333333       0.16666667       0.08333333 </v>
    <v>       0.16666667       0.25000000       0.08333333 </v>
    <v>       0.25000000       0.25000000       0.08333333 </v>
    <v>       0.33333333       0.25000000       0.08333333 </v>
    <v>       0.41666667       0.25000000       0.08333333 </v>
    <v>       0.50000000       0.25000000       0.08333333 </v>
    <v>      -0.41666667       0.25000000       0.08333333 </v>
    <v>      -0.33333333       0.25000000       0.08333333 </v>
    <v>      -0.25000000       0.25000000       0.08333333 </v>
    <v>      -0.16666667       0.25000000       0.08333333 </v>
    <v>       0.16666667       0.33333333       0.08333333 </v>
    <v>       0.25000000       0.33333333       0.08333333 </v>
    <v>       0.33333333       0.33333333       0.08333333 </v>
    <v>       0.41666667       0.33333333       0.08333333 </v>
    <v>       0.50000000       0.33333333       0.08333333 </v>
    <v>      -0.41666667       0.33333333       0.08333333 </v>
    <v>      -0.33333333       0.33333333       0.08333333 </v>
    <v>      -0.25000000       0.33333333       0.08333333 </v>
    <v>       0.16666667       0.41666667       0.08333333 </v>
    <v>       0.25000000       0.41666667       0.08333333 </v>
    <v>       0.33333333       0.41666667       0.08333333 </v>
    <v>       0.41666667       0.41666667       0.08333333 </v>
    <v>       0.50000000       0.41666667       0.08333333 </v>
    <v>      -0.41666667       0.41666667       0.08333333 </v>
    <v>      -0.33333333       0.41666667       0.08333333 </v>
    <v>       0.16666667       0.50000000       0.08333333 </v>
    <v>       0.25000000       0.50000000       0.08333333 </v>
    <v>       0.33333333       0.50000000       0.08333333 </v>
    <v>       0.41666667       0.50000000       0.08333333 </v>
    <v>       0.50000000       0.50000000       0.08333333 </v>
    <v>      -0.41666667       0.50000000       0.08333333 </v>
    <v>       0.16666667      -0.41666667       0.08333333 </v>
    <v>       0.25000000      -0.41666667       0.08333333 </v>
    <v>       0.33333333      -0.41666667       0.08333333 </v>
    <v>       0.41666667      -0.41666667       0.08333333 </v>
    <v>       0.50000000      -0.41666667       0.08333333 </v>
    <v>       0.16666667      -0.33333333       0.08333333 </v>
    <v>       0.25000000      -0.33333333       0.08333333 </v>
    <v>       0.33333333      -0.33333333       0.08333333 </v>
    <v>       0.41666667      -0.33333333       0.08333333 </v>
    <v>       0.16666667      -0.25000000       0.08333333 </v>
    <v>       0.25000000      -0.25000000       0.08333333 </v>
    <v>       0.33333333      -0.25000000       0.08333333 </v>
    <v>       0.16666667      -0.16666667       0.08333333 </v>
    <v>       0.25000000      -0.16666667       0.08333333 </v>
    <v>       0.16666667      -0.08333333       0.08333333 </v>
    <v>       0.00000000       0.00000000       0.16666667 </v>
    <v>       0.08333333       0.00000000       0.16666667 </v>
    <v>       0.16666667       0.00000000       0.16666667 </v>
    <v>       0.25000000      -0.00000000       0.16666667 </v>
    <v>       0.33333333      -0.00000000       0.16666667 </v>
    <v>       0.41666667       0.00000000       0.16666667 </v>
    <v>       0.50000000       0.00000000       0.16666667 </v>
    <v>      -0.41666667       0.00000000       0.16666667 </v>
    <v>      -0.33333333       0.00000000       0.16666667 </v>
    <v>      -0.25000000      -0.00000000       0.16666667 </v>
    <v>      -0.16666667       0.00000000       0.16666667 </v>
    <v>      -0.08333333       0.00000000       0.16666667 </v>
    <v>       0.00000000       0.08333333       0.16666667 </v>
    <v>       0.08333333       0.08333333       0.16666667 </v>
    <v>       0.25000000       0.08333333       0.16666667 </v>
    <v>       0.33333333       0.08333333       0.16666667 </v>
    <v>       0.41666667       0.08333333       0.16666667 </v>
    <v>       0.50000000       0.08333333       0.16666667 </v>
    <v>      -0.41666667       0.08333333       0.16666667 </v>
    <v>      -0.33333333       0.08333333       0.16666667 </v>
    <v>      -0.25000000       0.08333333       0.16666667 </v>
    <v>      -0.16666667       0.08333333       0.16666667 </v>
    <v>      -0.08333333       0.08333333       0.16666667 </v>
    <v>       0.00000000       0.16666667       0.16666667 </v>
    <v>       0.25000000       0.16666667       0.16666667 </v>
    <v>       0.33333333       0.16666667       0.16666667 </v>
    <v>       0.41666667       0.16666667       0.16666667 </v>
    <v>       0.50000000       0.16666667       0.16666667 </v>
    <v>      -0.41666667       0.16666667       0.16666667 </v>
    <v>      -0.33333333       0.16666667       0.16666667 </v>
    <v>      -0.25000000       0.16666667       0.16666667 </v>
    <v>      -0.16666667       0.16666667       0.16666667 </v>
    <v>      -0.08333333       0.16666667       0.16666667 </v>
    <v>       0.25000000       0.25000000       0.16666667 </v>
    <v>       0.33333333       0.25000000       0.16666667 </v>
    <v>       0.41666667       0.25000000       0.16666667 </v>
    <v>       0.50000000       0.25000000       0.16666667 </v>
    <v>      -0.41666667       0.25000000       0.16666667 </v>
    <v>      -0.33333333       0.25000000       0.16666667 </v>
    <v>      -0.25000000       0.25000000       0.16666667 </v>
    <v>      -0.16666667       0.25000000       0.16666667 </v>
    <v>      -0.08333333       0.25000000       0.16666667 </v>
    <v>       0.25000000       0.33333333       0.16666667 </v>
    <v>       0.33333333       0.33333333       0.16666667 </v>
    <v>       0.41666667       0.33333333       0.16666667 </v>
    <v>       0.50000000       0.33333333       0.16666667 </v>
    <v>      -0.41666667       0.33333333       0.16666667 </v>
    <v>      -0.33333333       0.33333333       0.16666667 </v>
    <v>      -0.25000000       0.33333333       0.16666667 </v>
    <v>      -0.16666667       0.33333333       0.16666667 </v>
    <v>       0.25000000       0.41666667       0.16666667 </v>
    <v>       0.33333333       0.41666667       0.16666667 </v>
    <v>       0.41666667       0.41666667       0.16666667 </v>
    <v>       0.50000000       0.41666667       0.16666667 </v>
    <v>      -0.41666667       0.41666667       0.16666667 </v>
    <v>      -0.33333333       0.41666667       0.16666667 </v>
    <v>      -0.25000000       0.41666667       0.16666667 </v>
    <v>       0.25000000       0.50000000       0.16666667 </v>
    <v>       0.33333333       0.50000000       0.16666667 </v>
    <v>       0.41666667       0.50000000       0.16666667 </v>
    <v>       0.50000000       0.50000000       0.16666667 </v>
    <v>      -0.41666667       0.50000000       0.16666667 </v>
    <v>      -0.33333333       0.50000000       0.16666667 </v>
    <v>       0.25000000      -0.41666667       0.16666667 </v>
    <v>       0.33333333      -0.41666667       0.16666667 </v>
    <v>       0.41666667      -0.41666667       0.16666667 </v>
    <v>       0.50000000      -0.41666667       0.16666667 </v>
    <v>      -0.41666667      -0.41666667       0.16666667 </v>
    <v>       0.25000000      -0.33333333       0.16666667 </v>
    <v>       0.33333333      -0.33333333       0.16666667 </v>
    <v>       0.41666667      -0.33333333       0.16666667 </v>
    <v>       0.50000000      -0.33333333       0.16666667 </v>
    <v>       0.25000000      -0.25000000       0.16666667 </v>
    <v>       0.33333333      -0.25000000       0.16666667 </v>
    <v>       0.41666667      -0.25000000       0.16666667 </v>
    <v>       0.25000000      -0.16666667       0.16666667 </v>
    <v>       0.33333333      -0.16666667       0.16666667 </v>
    <v>       0.25000000      -0.08333333       0.16666667 </v>
    <v>       0.00000000       0.00000000       0.25000000 </v>
    <v>       0.08333333       0.00000000       0.25000000 </v>
    <v>       0.16666667       0.00000000       0.25000000 </v>
    <v>       0.25000000       0.00000000       0.25000000 </v>
    <v>       0.33333333       0.00000000       0.25000000 </v>
    <v>       0.41666667       0.00000000       0.25000000 </v>
    <v>       0.50000000      -0.00000000       0.25000000 </v>
    <v>      -0.41666667       0.00000000       0.25000000 </v>
    <v>      -0.33333333      -0.00000000       0.25000000 </v>
    <v>      -0.25000000       0.00000000       0.25000000 </v>
    <v>      -0.16666667      -0.00000000       0.25000000 </v>
    <v>      -0.08333333       0.00000000       0.25000000 </v>
    <v>       0.00000000       0.08333333       0.25000000 </v>
    <v>       0.08333333       0.08333333       0.25000000 </v>
    <v>       0.16666667       0.08333333       0.25000000 </v>
    <v>       0.33333333       0.08333333       0.25000000 </v>
    <v>       0.41666667       0.08333333       0.25000000 </v>
    <v>       0.50000000       0.08333333       0.25000000 </v>
    <v>      -0.41666667       0.08333333       0.25000000 </v>
    <v>      -0.33333333       0.08333333       0.25000000 </v>
    <v>      -0.25000000       0.08333333       0.25000000 </v>
    <v>      -0.16666667       0.08333333       0.25000000 </v>
    <v>      -0.08333333       0.08333333       0.25000000 </v>
    <v>       0.00000000       0.16666667       0.25000000 </v>
    <v>       0.08333333       0.16666667       0.25000000 </v>
    <v>       0.33333333       0.16666667       0.25000000 </v>
    <v>       0.41666667       0.16666667       0.25000000 </v>
    <v>       0.50000000       0.16666667       0.25000000 </v>
    <v>      -0.41666667       0.16666667       0.25000000 </v>
    <v>      -0.33333333       0.16666667       0.25000000 </v>
    <v>      -0.25000000       0.16666667       0.25000000 </v>
[...]
       <r>    9.1991    0.0000 </r>
       <r>    9.4647    0.0000 </r>
       <r>   10.5058    0.0000 </r>
       <r>   12.6557    0.0000 </r>
       <r>   13.4687    0.0000 </r>
      </set>
      <set comment="kpoint 158">
       <r>  -36.5104    1.0000 </r>
       <r>  -17.6159    1.0000 </r>
       <r>  -17.5526    1.0000 </r>
       <r>  -17.5484    1.0000 </r>
       <r>   -7.9828    1.0000 </r>
       <r>    0.4274    1.0000 </r>
       <r>    1.7261    1.0000 </r>
       <r>    1.7305    1.0000 </r>
       <r>    5.5244    0.0000 </r>
       <r>    8.3725    0.0000 </r>
       <r>    9.0940    0.0000 </r>
       <r>    9.2478    0.0000 </r>
       <r>    9.4102    0.0000 </r>
       <r>    9.6753    0.0000 </r>
       <r>   12.5960    0.0000 </r>
       <r>   13.9909    0.0000 </r>
      </set>
      <set comment="kpoint 159">
       <r>  -36.5105    1.0000 </r>
       <r>  -17.6178    1.0000 </r>
       <r>  -17.5479    1.0000 </r>
       <r>  -17.5479    1.0000 </r>
       <r>   -8.0135    1.0000 </r>
       <r>    0.4005    1.0000 </r>
       <r>    1.9170    1.0000 </r>
       <r>    1.9170    1.0000 </r>
       <r>    5.1495    0.0000 </r>
       <r>    8.2229    0.0000 </r>
       <r>    8.6725    0.0000 </r>
       <r>    9.4173    0.0000 </r>
       <r>    9.4173    0.0000 </r>
       <r>    9.7062    0.0000 </r>
       <r>   12.9162    0.0000 </r>
       <r>   14.4635    0.0000 </r>
      </set>
      <set comment="kpoint 160">
       <r>  -36.5098    1.0000 </r>
       <r>  -17.6198    1.0000 </r>
       <r>  -17.5551    1.0000 </r>
       <r>  -17.5487    1.0000 </r>
       <r>   -7.9868    1.0000 </r>
       <r>    0.4412    1.0000 </r>
       <r>    1.7192    1.0000 </r>
       <r>    1.8639    1.0000 </r>
       <r>    5.2746    0.0000 </r>
       <r>    8.3895    0.0000 </r>
       <r>    8.8842    0.0000 </r>
       <r>    9.3828    0.0000 </r>
       <r>    9.4142    0.0000 </r>
       <r>    9.4789    0.0000 </r>
       <r>   12.8594    0.0000 </r>
       <r>   14.2671    0.0000 </r>
      </set>
      <set comment="kpoint 161">
       <r>  -36.5096    1.0000 </r>
       <r>  -17.6136    1.0000 </r>
       <r>  -17.5703    1.0000 </r>
       <r>  -17.5452    1.0000 </r>
       <r>   -7.9452    1.0000 </r>
       <r>    0.5340    1.0000 </r>
       <r>    1.2916    1.0000 </r>
       <r>    1.7760    1.0000 </r>
       <r>    5.7335    0.0000 </r>
       <r>    8.7466    0.0000 </r>
       <r>    9.1914    0.0000 </r>
       <r>    9.2467    0.0000 </r>
       <r>    9.3026    0.0000 </r>
       <r>    9.5120    0.0000 </r>
       <r>   12.6553    0.0000 </r>
       <r>   13.7440    0.0000 </r>
      </set>
      <set comment="kpoint 162">
       <r>  -36.5095    1.0000 </r>
       <r>  -17.6183    1.0000 </r>
       <r>  -17.5559    1.0000 </r>
       <r>  -17.5535    1.0000 </r>
       <r>   -7.9706    1.0000 </r>
       <r>    0.4809    1.0000 </r>
       <r>    1.6849    1.0000 </r>
       <r>    1.6928    1.0000 </r>
       <r>    5.4418    0.0000 </r>
       <r>    8.4242    0.0000 </r>
       <r>    9.1018    0.0000 </r>
       <r>    9.2618    0.0000 </r>
       <r>    9.4187    0.0000 </r>
       <r>    9.4605    0.0000 </r>
       <r>   12.8196    0.0000 </r>
       <r>   14.1309    0.0000 </r>
      </set>
      <set comment="kpoint 163">
       <r>  -36.5096    1.0000 </r>
       <r>  -17.6231    1.0000 </r>
       <r>  -17.5510    1.0000 </r>
       <r>  -17.5510    1.0000 </r>
       <r>   -7.9985    1.0000 </r>
       <r>    0.4273    1.0000 </r>
       <r>    1.8894    1.0000 </r>
       <r>    1.8894    1.0000 </r>
       <r>    5.0600    0.0000 </r>
       <r>    8.2865    0.0000 </r>
       <r>    8.6856    0.0000 </r>
       <r>    9.4444    0.0000 </r>
       <r>    9.4585    0.0000 </r>
       <r>    9.4585    0.0000 </r>
       <r>   13.0132    0.0000 </r>
       <r>   14.4896    0.0000 </r>
      </set>
     </set>
    </set>
   </array>
  </eigenvalues>
  <separator name="orbital magnetization" >
   <v name="MAGDIPOLOUT">      0.00000000      0.00000000      0.00000000</v>
  </separator>
  <dos>
   <i name="efermi">      2.86527735 </i>
   <total>
    <array>
     <dimension dim="1">gridpoints</dimension>
     <dimension dim="2">spin</dimension>
     <field>energy</field>
     <field>total</field>
     <field>integrated</field>
     <set>
      <set comment="spin 1">
       <r>   -39.1380     0.0000     0.0000 </r>
       <r>   -38.9463     0.0000     0.0000 </r>
       <r>   -38.7546     0.0000     0.0000 </r>
       <r>   -38.5629     0.0000     0.0000 </r>
       <r>   -38.3712     0.0000     0.0000 </r>
       <r>   -38.1796     0.0000     0.0000 </r>
       <r>   -37.9879     0.0000     0.0000 </r>
       <r>   -37.7962     0.0000     0.0000 </r>
       <r>   -37.6045     0.0000     0.0000 </r>
       <r>   -37.4128     0.0000     0.0000 </r>
       <r>   -37.2211     0.0000     0.0000 </r>
       <r>   -37.0294     0.0000     0.0000 </r>
       <r>   -36.8378     0.0000     0.0000 </r>
       <r>   -36.6461     0.0000     0.0000 </r>
       <r>   -36.4544    10.4337     2.0000 </r>
       <r>   -36.2627     0.0000     2.0000 </r>
       <r>   -36.0710     0.0000     2.0000 </r>
       <r>   -35.8793     0.0000     2.0000 </r>
       <r>   -35.6876     0.0000     2.0000 </r>
       <r>   -35.4959     0.0000     2.0000 </r>
       <r>   -35.3043     0.0000     2.0000 </r>
       <r>   -35.1126     0.0000     2.0000 </r>
       <r>   -34.9209     0.0000     2.0000 </r>
       <r>   -34.7292     0.0000     2.0000 </r>
       <r>   -34.5375     0.0000     2.0000 </r>
       <r>   -34.3458     0.0000     2.0000 </r>
       <r>   -34.1541     0.0000     2.0000 </r>
       <r>   -33.9625     0.0000     2.0000 </r>
       <r>   -33.7708     0.0000     2.0000 </r>
       <r>   -33.5791     0.0000     2.0000 </r>
       <r>   -33.3874     0.0000     2.0000 </r>
       <r>   -33.1957     0.0000     2.0000 </r>
       <r>   -33.0040     0.0000     2.0000 </r>
       <r>   -32.8123     0.0000     2.0000 </r>
       <r>   -32.6207     0.0000     2.0000 </r>
       <r>   -32.4290     0.0000     2.0000 </r>
       <r>   -32.2373     0.0000     2.0000 </r>
       <r>   -32.0456     0.0000     2.0000 </r>
       <r>   -31.8539     0.0000     2.0000 </r>
       <r>   -31.6622     0.0000     2.0000 </r>
       <r>   -31.4705     0.0000     2.0000 </r>
       <r>   -31.2788     0.0000     2.0000 </r>
       <r>   -31.0872     0.0000     2.0000 </r>
       <r>   -30.8955     0.0000     2.0000 </r>
       <r>   -30.7038     0.0000     2.0000 </r>
       <r>   -30.5121     0.0000     2.0000 </r>
       <r>   -30.3204     0.0000     2.0000 </r>
       <r>   -30.1287     0.0000     2.0000 </r>
       <r>   -29.9370     0.0000     2.0000 </r>
       <r>   -29.7454     0.0000     2.0000 </r>
       <r>   -29.5537     0.0000     2.0000 </r>
       <r>   -29.3620     0.0000     2.0000 </r>
       <r>   -29.1703     0.0000     2.0000 </r>
       <r>   -28.9786     0.0000     2.0000 </r>
       <r>   -28.7869     0.0000     2.0000 </r>
       <r>   -28.5952     0.0000     2.0000 </r>
       <r>   -28.4036     0.0000     2.0000 </r>
       <r>   -28.2119     0.0000     2.0000 </r>
       <r>   -28.0202     0.0000     2.0000 </r>
       <r>   -27.8285     0.0000     2.0000 </r>
       <r>   -27.6368     0.0000     2.0000 </r>
       <r>   -27.4451     0.0000     2.0000 </r>
       <r>   -27.2534     0.0000     2.0000 </r>
       <r>   -27.0617     0.0000     2.0000 </r>
       <r>   -26.8701     0.0000     2.0000 </r>
       <r>   -26.6784     0.0000     2.0000 </r>
       <r>   -26.4867     0.0000     2.0000 </r>
       <r>   -26.2950     0.0000     2.0000 </r>
       <r>   -26.1033     0.0000     2.0000 </r>
       <r>   -25.9116     0.0000     2.0000 </r>
       <r>   -25.7199     0.0000     2.0000 </r>
       <r>   -25.5283     0.0000     2.0000 </r>
       <r>   -25.3366     0.0000     2.0000 </r>
       <r>   -25.1449     0.0000     2.0000 </r>
       <r>   -24.9532     0.0000     2.0000 </r>
       <r>   -24.7615     0.0000     2.0000 </r>
       <r>   -24.5698     0.0000     2.0000 </r>
       <r>   -24.3781     0.0000     2.0000 </r>
       <r>   -24.1865     0.0000     2.0000 </r>
       <r>   -23.9948     0.0000     2.0000 </r>
       <r>   -23.8031     0.0000     2.0000 </r>
       <r>   -23.6114     0.0000     2.0000 </r>
       <r>   -23.4197     0.0000     2.0000 </r>
       <r>   -23.2280     0.0000     2.0000 </r>
       <r>   -23.0363     0.0000     2.0000 </r>
       <r>   -22.8447     0.0000     2.0000 </r>
       <r>   -22.6530     0.0000     2.0000 </r>
       <r>   -22.4613     0.0000     2.0000 </r>
       <r>   -22.2696     0.0000     2.0000 </r>
       <r>   -22.0779     0.0000     2.0000 </r>
       <r>   -21.8862     0.0000     2.0000 </r>
       <r>   -21.6945     0.0000     2.0000 </r>
       <r>   -21.5028     0.0000     2.0000 </r>
       <r>   -21.3112     0.0000     2.0000 </r>
       <r>   -21.1195     0.0000     2.0000 </r>
       <r>   -20.9278     0.0000     2.0000 </r>
       <r>   -20.7361     0.0000     2.0000 </r>
       <r>   -20.5444     0.0000     2.0000 </r>
       <r>   -20.3527     0.0000     2.0000 </r>
       <r>   -20.1610     0.0000     2.0000 </r>
       <r>   -19.9694     0.0000     2.0000 </r>
       <r>   -19.7777     0.0000     2.0000 </r>
       <r>   -19.5860     0.0000     2.0000 </r>
       <r>   -19.3943     0.0000     2.0000 </r>
       <r>   -19.2026     0.0000     2.0000 </r>
       <r>   -19.0109     0.0000     2.0000 </r>
       <r>   -18.8192     0.0000     2.0000 </r>
       <r>   -18.6276     0.0000     2.0000 </r>
       <r>   -18.4359     0.0000     2.0000 </r>
       <r>   -18.2442     0.0000     2.0000 </r>
       <r>   -18.0525     0.0000     2.0000 </r>
       <r>   -17.8608     0.0000     2.0000 </r>
       <r>   -17.6691     0.0319     2.0061 </r>
       <r>   -17.4774    18.1442     8.0000 </r>
       <r>   -17.2857     0.0000     8.0000 </r>
       <r>   -17.0941     0.0000     8.0000 </r>
       <r>   -16.9024     0.0000     8.0000 </r>
       <r>   -16.7107     0.0000     8.0000 </r>
       <r>   -16.5190     0.0000     8.0000 </r>
       <r>   -16.3273     0.0000     8.0000 </r>
       <r>   -16.1356     0.0000     8.0000 </r>
       <r>   -15.9439     0.0000     8.0000 </r>
       <r>   -15.7523     0.0000     8.0000 </r>
       <r>   -15.5606     0.0000     8.0000 </r>
       <r>   -15.3689     0.0000     8.0000 </r>
       <r>   -15.1772     0.0000     8.0000 </r>
       <r>   -14.9855     0.0000     8.0000 </r>
       <r>   -14.7938     0.0000     8.0000 </r>
       <r>   -14.6021     0.0000     8.0000 </r>
       <r>   -14.4105     0.0000     8.0000 </r>
       <r>   -14.2188     0.0000     8.0000 </r>
       <r>   -14.0271     0.0000     8.0000 </r>
       <r>   -13.8354     0.0000     8.0000 </r>
       <r>   -13.6437     0.0000     8.0000 </r>
       <r>   -13.4520     0.0000     8.0000 </r>
       <r>   -13.2603     0.0000     8.0000 </r>
       <r>   -13.0686     0.0000     8.0000 </r>
       <r>   -12.8770     0.0000     8.0000 </r>
       <r>   -12.6853     0.0000     8.0000 </r>
       <r>   -12.4936     0.0000     8.0000 </r>
       <r>   -12.3019     0.0000     8.0000 </r>
       <r>   -12.1102     0.0000     8.0000 </r>
       <r>   -11.9185     0.0000     8.0000 </r>
       <r>   -11.7268     0.0000     8.0000 </r>
       <r>   -11.5352     0.0000     8.0000 </r>
       <r>   -11.3435     0.0000     8.0000 </r>
       <r>   -11.1518     0.0000     8.0000 </r>
       <r>   -10.9601     0.0000     8.0000 </r>
       <r>   -10.7684     0.0000     8.0000 </r>
       <r>   -10.5767     0.0000     8.0000 </r>
       <r>   -10.3850     0.0000     8.0000 </r>
       <r>   -10.1934     0.0000     8.0000 </r>
       <r>   -10.0017     0.0000     8.0000 </r>
       <r>    -9.8100     0.0000     8.0000 </r>
       <r>    -9.6183     0.0000     8.0000 </r>
       <r>    -9.4266     0.0000     8.0000 </r>
       <r>    -9.2349     0.0000     8.0000 </r>
       <r>    -9.0432     0.0000     8.0000 </r>
       <r>    -8.8515     0.0000     8.0000 </r>
       <r>    -8.6599     0.0000     8.0000 </r>
       <r>    -8.4682     0.0743     8.0316 </r>
       <r>    -8.2765     0.4709     8.1655 </r>
       <r>    -8.0848     0.7010     8.4064 </r>
       <r>    -7.8931     3.2202     9.3603 </r>
       <r>    -7.7014     0.0000    10.0000 </r>
       <r>    -7.5097     0.0000    10.0000 </r>
       <r>    -7.3181     0.0000    10.0000 </r>
       <r>    -7.1264     0.0000    10.0000 </r>
       <r>    -6.9347     0.0000    10.0000 </r>
       <r>    -6.7430     0.0000    10.0000 </r>
       <r>    -6.5513     0.0000    10.0000 </r>
       <r>    -6.3596     0.0000    10.0000 </r>
       <r>    -6.1679     0.0000    10.0000 </r>
       <r>    -5.9763     0.0000    10.0000 </r>
       <r>    -5.7846     0.0000    10.0000 </r>
       <r>    -5.5929     0.0000    10.0000 </r>
       <r>    -5.4012     0.0000    10.0000 </r>
       <r>    -5.2095     0.0000    10.0000 </r>
       <r>    -5.0178     0.0000    10.0000 </r>
       <r>    -4.8261     0.0000    10.0000 </r>
       <r>    -4.6344     0.0000    10.0000 </r>
       <r>    -4.4428     0.0000    10.0000 </r>
       <r>    -4.2511     0.0000    10.0000 </r>
       <r>    -4.0594     0.0000    10.0000 </r>
       <r>    -3.8677     0.0000    10.0000 </r>
       <r>    -3.6760     0.0000    10.0000 </r>
       <r>    -3.4843     0.0000    10.0000 </r>
       <r>    -3.2926     0.0000    10.0000 </r>
       <r>    -3.1010     0.0000    10.0000 </r>
       <r>    -2.9093     0.0000    10.0000 </r>
       <r>    -2.7176     0.0000    10.0000 </r>
       <r>    -2.5259     0.0000    10.0000 </r>
       <r>    -2.3342     0.0000    10.0000 </r>
       <r>    -2.1425     0.0000    10.0000 </r>
       <r>    -1.9508     0.0000    10.0000 </r>
       <r>    -1.7592     0.0000    10.0000 </r>
       <r>    -1.5675     0.0000    10.0000 </r>
       <r>    -1.3758     0.0000    10.0000 </r>
       <r>    -1.1841     0.0000    10.0000 </r>
       <r>    -0.9924     0.0000    10.0000 </r>
       <r>    -0.8007     0.0000    10.0000 </r>
       <r>    -0.6090     0.0000    10.0000 </r>
       <r>    -0.4174     0.0000    10.0000 </r>
       <r>    -0.2257     0.3146    10.0649 </r>
       <r>    -0.0340     0.7162    10.2345 </r>
       <r>     0.1577     0.5797    10.4028 </r>
       <r>     0.3494     0.4077    10.7819 </r>
       <r>     0.5411     0.8328    11.4918 </r>
       <r>     0.7328     0.8465    11.7722 </r>
       <r>     0.9245     0.3144    11.8577 </r>
       <r>     1.1161     0.8169    12.2133 </r>
       <r>     1.3078     0.6211    12.5438 </r>
       <r>     1.4995     1.6265    13.2713 </r>
       <r>     1.6912     2.3036    14.4844 </r>
       <r>     1.8829     1.0609    15.1767 </r>
       <r>     2.0746     0.6030    15.6237 </r>
       <r>     2.2663     0.4697    15.8389 </r>
       <r>     2.4579     0.4347    15.9502 </r>
       <r>     2.6496     0.1691    15.9965 </r>
       <r>     2.8413     0.0000    16.0000 </r>
       <r>     3.0330     0.0000    16.0000 </r>
       <r>     3.2247     0.0000    16.0000 </r>
       <r>     3.4164     0.0000    16.0000 </r>
       <r>     3.6081     0.0000    16.0000 </r>
       <r>     3.7997     0.0000    16.0000 </r>
       <r>     3.9914     0.0000    16.0000 </r>
       <r>     4.1831     0.0000    16.0000 </r>
       <r>     4.3748     0.0000    16.0000 </r>
       <r>     4.5665     0.0000    16.0000 </r>
       <r>     4.7582     0.0000    16.0000 </r>
       <r>     4.9499     0.0000    16.0000 </r>
       <r>     5.1416     0.0048    16.0044 </r>
       <r>     5.3332     0.1449    16.0382 </r>
       <r>     5.5249     0.0770    16.1016 </r>
       <r>     5.7166     0.0006    16.1147 </r>
       <r>     5.9083     0.0002    16.2188 </r>
       <r>     6.1000     0.4343    16.3576 </r>
       <r>     6.2917     0.0358    16.4201 </r>
       <r>     6.4834     0.1449    16.5729 </r>
       <r>     6.6750     0.5820    16.7678 </r>
       <r>     6.8667     0.1081    16.9617 </r>
       <r>     7.0584     0.3767    17.2169 </r>
       <r>     7.2501     0.6002    17.4750 </r>
       <r>     7.4418     0.6857    17.8618 </r>
       <r>     7.6335     1.0079    18.0925 </r>
       <r>     7.8252     1.3055    18.6472 </r>
       <r>     8.0168     0.2044    18.8575 </r>
       <r>     8.2085     1.4378    19.3670 </r>
       <r>     8.4002     1.5645    20.2582 </r>
       <r>     8.5919     0.9250    20.5732 </r>
       <r>     8.7836     2.3620    21.6623 </r>
       <r>     8.9753     1.8116    22.6725 </r>
       <r>     9.1670     2.6470    23.6011 </r>
       <r>     9.3587     2.6968    24.7287 </r>
       <r>     9.5503     1.1387    25.5470 </r>
       <r>     9.7420     1.3142    26.0436 </r>
       <r>     9.9337     0.0730    26.1598 </r>
       <r>    10.1254     0.7367    26.3565 </r>
       <r>    10.3171     0.3008    26.5785 </r>
       <r>    10.5088     0.7792    26.8832 </r>
       <r>    10.7005     0.5048    27.1222 </r>
       <r>    10.8921     0.4215    27.4836 </r>
       <r>    11.0838     0.6158    27.7986 </r>
       <r>    11.2755     0.0374    27.8613 </r>
       <r>    11.4672     0.0677    28.0338 </r>
       <r>    11.6589     0.2897    28.2523 </r>
       <r>    11.8506     0.5580    28.4982 </r>
       <r>    12.0423     1.1307    28.9204 </r>
       <r>    12.2339     0.4329    29.1385 </r>
       <r>    12.4256     0.5430    29.4374 </r>
       <r>    12.6173     1.2673    29.8054 </r>
       <r>    12.8090     0.6439    30.1790 </r>
       <r>    13.0007     0.6861    30.5783 </r>
       <r>    13.1924     0.2478    30.8774 </r>
       <r>    13.3841     0.4348    31.1910 </r>
       <r>    13.5758     0.4890    31.4097 </r>
       <r>    13.7674     0.3981    31.6064 </r>
       <r>    13.9591     0.0000    31.7315 </r>
       <r>    14.1508     0.4106    31.8449 </r>
       <r>    14.3425     0.1790    31.9140 </r>
       <r>    14.5342     0.0543    31.9248 </r>
       <r>    14.7259     0.0000    31.9317 </r>
       <r>    14.9176     0.2144    31.9728 </r>
       <r>    15.1092     0.0483    31.9826 </r>
       <r>    15.3009     0.0000    31.9826 </r>
       <r>    15.4926     0.0000    31.9896 </r>
       <r>    15.6843     0.0000    31.9988 </r>
       <r>    15.8760     0.0000    32.0000 </r>
       <r>    16.0677     0.0000    32.0000 </r>
       <r>    16.2594     0.0000    32.0000 </r>
       <r>    16.4510     0.0000    32.0000 </r>
       <r>    16.6427     0.0000    32.0000 </r>
       <r>    16.8344     0.0000    32.0000 </r>
       <r>    17.0261     0.0000    32.0000 </r>
       <r>    17.2178     0.0000    32.0000 </r>
       <r>    17.4095     0.0000    32.0000 </r>
       <r>    17.6012     0.0000    32.0000 </r>
       <r>    17.7928     0.0000    32.0000 </r>
       <r>    17.9845     0.0000    32.0000 </r>
       <r>    18.1762     0.0000    32.0000 </r>
       <r>    18.3679     0.0000    32.0000 </r>
      </set>
     </set>
    </array>
   </total>
  </dos>
 </calculation>
 <structure name="finalpos" >
  <crystal>
   <varray name="basis" >
    <v>      -2.85237407       0.00000000       2.85237407 </v>
    <v>       0.00000000       2.85237407       2.85237407 </v>
    <v>      -2.85237407       2.85237407       0.00000000 </v>
   </varray>
   <i name="volume">     46.41404684 </i>
   <varray name="rec_basis" >
    <v>      -0.17529258      -0.17529258       0.17529258 </v>
    <v>       0.17529258       0.17529258       0.17529258 </v>
    <v>      -0.17529258       0.17529258      -0.17529258 </v>
   </varray>
  </crystal>
  <varray name="positions" >
   <v>       0.00000000       0.00000000       0.00000000 </v>
   <v>       0.49999996       0.50000004       0.49999996 </v>
  </varray>
 </structure>
</modeling>
