<?xml version="1.0" encoding="ISO-8859-1"?>
<modeling>
 <generator>
  <i name="program" type="string">vasp </i>
  <i name="version" type="string">5.4.4.18Apr17-6-g9f103f2a35  </i>
  <i name="subversion" type="string">(build Aug 24 2017 11:22:49) complex            parallel </i>
  <i name="platform" type="string">LinuxIFC </i>
  <i name="date" type="string">2023 12 25 </i>
  <i name="time" type="string">13:07:49 </i>
 </generator>
 <incar>
  <i type="string" name="PREC">accurate</i>
  <i type="string" name="ALGO"> Normal</i>
  <i type="int" name="NELM">   100</i>
  <i type="int" name="IBRION">     8</i>
  <i name="EDIFF">      0.00000001</i>
  <i name="SYMPREC">      0.00000001</i>
  <i name="ENCUT">    520.00000000</i>
  <i type="logical" name="LREAL"> F  </i>
  <i type="int" name="ISMEAR">     0</i>
  <i name="SIGMA">      0.01000000</i>
  <i type="logical" name="LWAVE"> F  </i>
  <v type="int" name="KPOINT_BSE">    -1     0     0     0</v>
  <i type="int" name="NELM">   100</i>
  <i type="logical" name="LPEAD"> T  </i>
  <i type="logical" name="LEPSILON"> T  </i>
 </incar>
 <structure name="primitive_cell" >
  <crystal>
   <varray name="basis" >
    <v>      -3.29454072       0.00000000       3.29454072 </v>
    <v>       0.00000000       3.29454072       3.29454072 </v>
    <v>      -3.29454072       3.29454072       0.00000000 </v>
   </varray>
   <i name="volume">     71.51788022 </i>
   <varray name="rec_basis" >
    <v>      -0.15176622      -0.15176622       0.15176622 </v>
    <v>       0.15176622       0.15176622       0.15176622 </v>
    <v>      -0.15176622       0.15176622      -0.15176622 </v>
   </varray>
  </crystal>
  <varray name="positions" >
   <v>       0.00000000       0.00000000       0.00000000 </v>
   <v>       0.49999996      -0.49999996       0.49999996 </v>
  </varray>
 </structure>
 <varray name="primitive_index" >
  <v type="int" >        1 </v>
  <v type="int" >        2 </v>
 </varray>
 <kpoints>
  <generation param="Gamma">
   <v type="int" name="divisions">      12       12       12 </v>
   <v name="usershift">      0.00000000       0.00000000       0.00000000 </v>
   <v name="genvec1">      0.08333333       0.00000000       0.00000000 </v>
   <v name="genvec2">      0.00000000       0.08333333      -0.00000000 </v>
   <v name="genvec3">     -0.00000000      -0.00000000       0.08333333 </v>
   <v name="shift">      0.00000000       0.00000000       0.00000000 </v>
  </generation>
  <varray name="kpointlist" >
   <v>       0.00000000       0.00000000       0.00000000 </v>
   <v>       0.08333333      -0.00000000      -0.00000000 </v>
   <v>       0.16666667      -0.00000000      -0.00000000 </v>
   <v>       0.25000000      -0.00000000      -0.00000000 </v>
   <v>       0.33333333      -0.00000000       0.00000000 </v>
   <v>       0.41666667      -0.00000000      -0.00000000 </v>
   <v>       0.50000000      -0.00000000      -0.00000000 </v>
   <v>       0.08333333       0.08333333      -0.00000000 </v>
   <v>       0.16666667       0.08333333      -0.00000000 </v>
   <v>       0.25000000       0.08333333      -0.00000000 </v>
   <v>       0.33333333       0.08333333      -0.00000000 </v>
   <v>       0.41666667       0.08333333      -0.00000000 </v>
   <v>       0.50000000       0.08333333      -0.00000000 </v>
   <v>      -0.41666667       0.08333333      -0.00000000 </v>
   <v>      -0.33333333       0.08333333      -0.00000000 </v>
   <v>      -0.25000000       0.08333333      -0.00000000 </v>
   <v>      -0.16666667       0.08333333      -0.00000000 </v>
   <v>      -0.08333333       0.08333333       0.00000000 </v>
   <v>       0.16666667       0.16666667      -0.00000000 </v>
   <v>       0.25000000       0.16666667      -0.00000000 </v>
   <v>       0.33333333       0.16666667       0.00000000 </v>
   <v>       0.41666667       0.16666667      -0.00000000 </v>
   <v>       0.50000000       0.16666667       0.00000000 </v>
   <v>      -0.41666667       0.16666667       0.00000000 </v>
   <v>      -0.33333333       0.16666667       0.00000000 </v>
   <v>      -0.25000000       0.16666667       0.00000000 </v>
   <v>      -0.16666667       0.16666667      -0.00000000 </v>
   <v>       0.25000000       0.25000000      -0.00000000 </v>
   <v>       0.33333333       0.25000000      -0.00000000 </v>
   <v>       0.41666667       0.25000000      -0.00000000 </v>
   <v>       0.50000000       0.25000000      -0.00000000 </v>
   <v>      -0.41666667       0.25000000      -0.00000000 </v>
   <v>      -0.33333333       0.25000000       0.00000000 </v>
   <v>      -0.25000000       0.25000000       0.00000000 </v>
   <v>       0.33333333       0.33333333      -0.00000000 </v>
   <v>       0.41666667       0.33333333      -0.00000000 </v>
   <v>       0.50000000       0.33333333      -0.00000000 </v>
   <v>      -0.41666667       0.33333333      -0.00000000 </v>
   <v>      -0.33333333       0.33333333      -0.00000000 </v>
   <v>       0.41666667       0.41666667      -0.00000000 </v>
   <v>       0.50000000       0.41666667      -0.00000000 </v>
   <v>      -0.41666667       0.41666667       0.00000000 </v>
   <v>       0.50000000       0.50000000      -0.00000000 </v>
   <v>       0.08333333      -0.00000000       0.08333333 </v>
   <v>       0.16666667      -0.00000000       0.08333333 </v>
   <v>       0.25000000      -0.00000000       0.08333333 </v>
   <v>       0.33333333       0.00000000       0.08333333 </v>
   <v>       0.41666667      -0.00000000       0.08333333 </v>
   <v>       0.50000000      -0.00000000       0.08333333 </v>
   <v>      -0.41666667       0.00000000       0.08333333 </v>
   <v>      -0.33333333      -0.00000000       0.08333333 </v>
   <v>      -0.25000000      -0.00000000       0.08333333 </v>
   <v>      -0.16666667      -0.00000000       0.08333333 </v>
   <v>      -0.08333333       0.00000000       0.08333333 </v>
   <v>       0.25000000       0.16666667       0.08333333 </v>
   <v>       0.33333333       0.16666667       0.08333333 </v>
   <v>       0.41666667       0.16666667       0.08333333 </v>
   <v>       0.50000000       0.16666667       0.08333333 </v>
   <v>      -0.41666667       0.16666667       0.08333333 </v>
   <v>       0.16666667       0.25000000       0.08333333 </v>
   <v>       0.33333333       0.25000000       0.08333333 </v>
   <v>       0.41666667       0.25000000       0.08333333 </v>
   <v>       0.50000000       0.25000000       0.08333333 </v>
   <v>      -0.41666667       0.25000000       0.08333333 </v>
   <v>      -0.33333333       0.25000000       0.08333333 </v>
   <v>      -0.25000000       0.25000000       0.08333333 </v>
   <v>      -0.16666667       0.25000000       0.08333333 </v>
   <v>       0.16666667       0.33333333       0.08333333 </v>
   <v>       0.25000000       0.33333333       0.08333333 </v>
   <v>       0.41666667       0.33333333       0.08333333 </v>
   <v>       0.50000000       0.33333333       0.08333333 </v>
   <v>      -0.41666667       0.33333333       0.08333333 </v>
   <v>      -0.33333333       0.33333333       0.08333333 </v>
   <v>      -0.25000000       0.33333333       0.08333333 </v>
   <v>       0.16666667       0.41666667       0.08333333 </v>
   <v>       0.25000000       0.41666667       0.08333333 </v>
   <v>       0.33333333       0.41666667       0.08333333 </v>
   <v>       0.50000000       0.41666667       0.08333333 </v>
   <v>      -0.41666667       0.41666667       0.08333333 </v>
   <v>      -0.33333333       0.41666667       0.08333333 </v>
   <v>       0.16666667       0.50000000       0.08333333 </v>
   <v>       0.25000000       0.50000000       0.08333333 </v>
   <v>       0.33333333       0.50000000       0.08333333 </v>
   <v>       0.41666667       0.50000000       0.08333333 </v>
   <v>      -0.41666667       0.50000000       0.08333333 </v>
   <v>       0.16666667      -0.41666667       0.08333333 </v>
   <v>       0.25000000      -0.41666667       0.08333333 </v>
   <v>       0.33333333      -0.41666667       0.08333333 </v>
   <v>       0.41666667      -0.41666667       0.08333333 </v>
   <v>       0.50000000      -0.41666667       0.08333333 </v>
   <v>       0.16666667      -0.33333333       0.08333333 </v>
   <v>       0.25000000      -0.33333333       0.08333333 </v>
   <v>       0.33333333      -0.33333333       0.08333333 </v>
   <v>       0.41666667      -0.33333333       0.08333333 </v>
   <v>       0.16666667      -0.25000000       0.08333333 </v>
   <v>       0.25000000      -0.25000000       0.08333333 </v>
   <v>       0.33333333      -0.25000000       0.08333333 </v>
   <v>       0.16666667      -0.16666667       0.08333333 </v>
   <v>       0.25000000      -0.16666667       0.08333333 </v>
   <v>       0.16666667      -0.08333333       0.08333333 </v>
   <v>       0.16666667      -0.00000000       0.16666667 </v>
   <v>       0.25000000      -0.00000000       0.16666667 </v>
   <v>       0.33333333      -0.00000000       0.16666667 </v>
   <v>       0.41666667       0.00000000       0.16666667 </v>
   <v>       0.50000000       0.00000000       0.16666667 </v>
   <v>      -0.41666667       0.00000000       0.16666667 </v>
   <v>      -0.33333333      -0.00000000       0.16666667 </v>
   <v>      -0.25000000       0.00000000       0.16666667 </v>
   <v>      -0.16666667      -0.00000000       0.16666667 </v>
   <v>       0.50000000       0.33333333       0.16666667 </v>
   <v>      -0.41666667       0.33333333       0.16666667 </v>
   <v>      -0.33333333       0.33333333       0.16666667 </v>
   <v>       0.25000000       0.41666667       0.16666667 </v>
   <v>      -0.41666667       0.41666667       0.16666667 </v>
   <v>      -0.33333333       0.41666667       0.16666667 </v>
   <v>      -0.25000000       0.41666667       0.16666667 </v>
   <v>       0.25000000       0.50000000       0.16666667 </v>
   <v>       0.33333333       0.50000000       0.16666667 </v>
   <v>      -0.33333333       0.50000000       0.16666667 </v>
   <v>       0.25000000      -0.41666667       0.16666667 </v>
   <v>       0.33333333      -0.41666667       0.16666667 </v>
   <v>       0.41666667      -0.41666667       0.16666667 </v>
   <v>       0.25000000      -0.33333333       0.16666667 </v>
   <v>       0.33333333      -0.33333333       0.16666667 </v>
   <v>       0.41666667      -0.33333333       0.16666667 </v>
   <v>       0.50000000      -0.33333333       0.16666667 </v>
   <v>       0.25000000      -0.25000000       0.16666667 </v>
   <v>       0.33333333      -0.25000000       0.16666667 </v>
   <v>       0.41666667      -0.25000000       0.16666667 </v>
   <v>       0.25000000      -0.16666667       0.16666667 </v>
   <v>       0.33333333      -0.16666667       0.16666667 </v>
   <v>       0.25000000      -0.08333333       0.16666667 </v>
   <v>       0.25000000      -0.00000000       0.25000000 </v>
   <v>       0.33333333      -0.00000000       0.25000000 </v>
   <v>       0.41666667      -0.00000000       0.25000000 </v>
   <v>       0.50000000      -0.00000000       0.25000000 </v>
   <v>      -0.41666667      -0.00000000       0.25000000 </v>
   <v>      -0.33333333      -0.00000000       0.25000000 </v>
   <v>      -0.25000000       0.00000000       0.25000000 </v>
   <v>      -0.25000000       0.50000000       0.25000000 </v>
   <v>       0.33333333      -0.41666667       0.25000000 </v>
   <v>       0.33333333      -0.33333333       0.25000000 </v>
   <v>       0.41666667      -0.33333333       0.25000000 </v>
   <v>       0.33333333      -0.25000000       0.25000000 </v>
   <v>       0.41666667      -0.25000000       0.25000000 </v>
   <v>       0.50000000      -0.25000000       0.25000000 </v>
   <v>       0.33333333      -0.16666667       0.25000000 </v>
   <v>       0.41666667      -0.16666667       0.25000000 </v>
   <v>       0.33333333      -0.08333333       0.25000000 </v>
   <v>       0.33333333      -0.00000000       0.33333333 </v>
   <v>       0.41666667      -0.00000000       0.33333333 </v>
   <v>       0.50000000      -0.00000000       0.33333333 </v>
   <v>      -0.41666667      -0.00000000       0.33333333 </v>
   <v>      -0.33333333       0.00000000       0.33333333 </v>
   <v>       0.41666667      -0.25000000       0.33333333 </v>
   <v>       0.41666667      -0.16666667       0.33333333 </v>
   <v>       0.50000000      -0.16666667       0.33333333 </v>
   <v>       0.41666667      -0.08333333       0.33333333 </v>
   <v>       0.41666667      -0.00000000       0.41666667 </v>
   <v>       0.50000000      -0.00000000       0.41666667 </v>
   <v>      -0.41666667       0.00000000       0.41666667 </v>
   <v>       0.50000000      -0.08333333       0.41666667 </v>
   <v>       0.50000000      -0.00000000       0.50000000 </v>
  </varray>
  <varray name="weights" >
   <v>       0.00057870 </v>
   <v>       0.00462963 </v>
   <v>       0.00462963 </v>
   <v>       0.00462963 </v>
   <v>       0.00462963 </v>
   <v>       0.00462963 </v>
   <v>       0.00231481 </v>
   <v>       0.00231481 </v>
   <v>       0.00925926 </v>
   <v>       0.00925926 </v>
   <v>       0.00925926 </v>
   <v>       0.00925926 </v>
   <v>       0.00925926 </v>
   <v>       0.00925926 </v>
   <v>       0.00925926 </v>
   <v>       0.00925926 </v>
   <v>       0.00925926 </v>
   <v>       0.00462963 </v>
   <v>       0.00231481 </v>
   <v>       0.00925926 </v>
   <v>       0.00925926 </v>
   <v>       0.00925926 </v>
   <v>       0.00925926 </v>
   <v>       0.00925926 </v>
   <v>       0.00925926 </v>
   <v>       0.00925926 </v>
   <v>       0.00462963 </v>
   <v>       0.00231481 </v>
   <v>       0.00925926 </v>
   <v>       0.00925926 </v>
   <v>       0.00925926 </v>
   <v>       0.00925926 </v>
   <v>       0.00925926 </v>
   <v>       0.00462963 </v>
   <v>       0.00231481 </v>
   <v>       0.00925926 </v>
   <v>       0.00925926 </v>
   <v>       0.00925926 </v>
   <v>       0.00462963 </v>
   <v>       0.00231481 </v>
   <v>       0.00925926 </v>
   <v>       0.00462963 </v>
   <v>       0.00115741 </v>
   <v>       0.00115741 </v>
   <v>       0.00462963 </v>
   <v>       0.00462963 </v>
   <v>       0.00462963 </v>
   <v>       0.00462963 </v>
   <v>       0.00462963 </v>
   <v>       0.00462963 </v>
   <v>       0.00462963 </v>
   <v>       0.00462963 </v>
   <v>       0.00462963 </v>
   <v>       0.00231481 </v>
   <v>       0.00462963 </v>
   <v>       0.00925926 </v>
   <v>       0.00925926 </v>
   <v>       0.00925926 </v>
   <v>       0.00462963 </v>
   <v>       0.00462963 </v>
   <v>       0.00462963 </v>
   <v>       0.00925926 </v>
   <v>       0.00925926 </v>
   <v>       0.00925926 </v>
   <v>       0.00925926 </v>
   <v>       0.00925926 </v>
   <v>       0.00462963 </v>
   <v>       0.00925926 </v>
   <v>       0.00462963 </v>
   <v>       0.00462963 </v>
   <v>       0.00925926 </v>
   <v>       0.00925926 </v>
   <v>       0.00925926 </v>
   <v>       0.00462963 </v>
   <v>       0.00925926 </v>
   <v>       0.00925926 </v>
   <v>       0.00462963 </v>
   <v>       0.00462963 </v>
   <v>       0.00925926 </v>
   <v>       0.00462963 </v>
   <v>       0.00925926 </v>
   <v>       0.00925926 </v>
   <v>       0.00925926 </v>
   <v>       0.00462963 </v>
   <v>       0.00231481 </v>
   <v>       0.00925926 </v>
   <v>       0.00925926 </v>
   <v>       0.00925926 </v>
   <v>       0.00925926 </v>
   <v>       0.00231481 </v>
   <v>       0.00925926 </v>
   <v>       0.00925926 </v>
   <v>       0.00925926 </v>
   <v>       0.00462963 </v>
   <v>       0.00925926 </v>
   <v>       0.00925926 </v>
   <v>       0.00462963 </v>
   <v>       0.00925926 </v>
   <v>       0.00462963 </v>
   <v>       0.00462963 </v>
   <v>       0.00115741 </v>
   <v>       0.00462963 </v>
   <v>       0.00462963 </v>
   <v>       0.00462963 </v>
   <v>       0.00462963 </v>
   <v>       0.00462963 </v>
   <v>       0.00462963 </v>
   <v>       0.00462963 </v>
   <v>       0.00231481 </v>
   <v>       0.00462963 </v>
   <v>       0.00925926 </v>
   <v>       0.00462963 </v>
   <v>       0.00462963 </v>
   <v>       0.00462963 </v>
   <v>       0.00925926 </v>
   <v>       0.00462963 </v>
   <v>       0.00925926 </v>
   <v>       0.00462963 </v>
   <v>       0.00231481 </v>
   <v>       0.00925926 </v>
   <v>       0.00925926 </v>
   <v>       0.00462963 </v>
   <v>       0.00925926 </v>
   <v>       0.00925926 </v>
   <v>       0.00925926 </v>
   <v>       0.00231481 </v>
   <v>       0.00925926 </v>
   <v>       0.00925926 </v>
   <v>       0.00462963 </v>
   <v>       0.00925926 </v>
   <v>       0.00462963 </v>
   <v>       0.00462963 </v>
   <v>       0.00115741 </v>
   <v>       0.00462963 </v>
   <v>       0.00462963 </v>
   <v>       0.00462963 </v>
   <v>       0.00462963 </v>
   <v>       0.00462963 </v>
   <v>       0.00231481 </v>
   <v>       0.00115741 </v>
   <v>       0.00462963 </v>
   <v>       0.00925926 </v>
   <v>       0.00462963 </v>
   <v>       0.00925926 </v>
   <v>       0.00925926 </v>
   <v>       0.00231481 </v>
   <v>       0.00925926 </v>
   <v>       0.00462963 </v>
   <v>       0.00462963 </v>
   <v>       0.00115741 </v>
   <v>       0.00462963 </v>
   <v>       0.00462963 </v>
   <v>       0.00462963 </v>
   <v>       0.00231481 </v>
   <v>       0.00462963 </v>
   <v>       0.00925926 </v>
   <v>       0.00231481 </v>
   <v>       0.00462963 </v>
   <v>       0.00115741 </v>
   <v>       0.00462963 </v>
   <v>       0.00231481 </v>
   <v>       0.00231481 </v>
   <v>       0.00057870 </v>
  </varray>
 </kpoints>
 <parameters>
  <separator name="general" >
   <i type="string" name="SYSTEM">unknown system</i>
   <i type="logical" name="LCOMPAT"> F  </i>
  </separator>
  <separator name="electronic" >
   <i type="string" name="PREC">accura</i>
   <i name="ENMAX">    520.00000000</i>
   <i name="ENAUG">    503.85200000</i>
   <i name="EDIFF">      0.00000001</i>
   <i type="int" name="IALGO">    38</i>
   <i type="int" name="IWAVPR">    11</i>
   <i type="int" name="NBANDS">    16</i>
   <i name="NELECT">     16.00000000</i>
   <i type="int" name="TURBO">     0</i>
   <i type="int" name="IRESTART">     0</i>
   <i type="int" name="NREBOOT">     0</i>
   <i type="int" name="NMIN">     0</i>
   <i name="EREF">      0.00000000</i>
   <separator name="electronic smearing" >
    <i type="int" name="ISMEAR">     0</i>
    <i name="SIGMA">      0.01000000</i>
    <i name="KSPACING">      0.50000000</i>
    <i type="logical" name="KGAMMA"> T  </i>
   </separator>
   <separator name="electronic projectors" >
    <i type="logical" name="LREAL"> F  </i>
    <v name="ROPT">      0.00000000      0.00000000</v>
    <i type="int" name="LMAXPAW">  -100</i>
    <i type="int" name="LMAXMIX">     2</i>
    <i type="logical" name="NLSPLINE"> F  </i>
   </separator>
   <separator name="electronic startup" >
    <i type="int" name="ISTART">     0</i>
    <i type="int" name="ICHARG">     2</i>
    <i type="int" name="INIWAV">     1</i>
   </separator>
   <separator name="electronic spin" >
    <i type="int" name="ISPIN">     1</i>
    <i type="logical" name="LNONCOLLINEAR"> F  </i>
    <v name="MAGMOM">      1.00000000      1.00000000</v>
    <i name="NUPDOWN">     -1.00000000</i>
    <i type="logical" name="LSORBIT"> F  </i>
    <v name="SAXIS">      0.00000000      0.00000000      1.00000000</v>
    <i type="logical" name="LSPIRAL"> F  </i>
    <v name="QSPIRAL">      0.00000000      0.00000000      0.00000000</v>
    <i type="logical" name="LZEROZ"> F  </i>
   </separator>
   <separator name="electronic exchange-correlation" >
    <i type="logical" name="LASPH"> F  </i>
    <i type="logical" name="LMETAGGA"> F  </i>
   </separator>
   <separator name="electronic convergence" >
    <i type="int" name="NELM">   100</i>
    <i type="int" name="NELMDL">    -5</i>
    <i type="int" name="NELMIN">     2</i>
    <i name="ENINI">    520.00000000</i>
    <separator name="electronic convergence detail" >
     <i type="logical" name="LDIAG"> T  </i>
     <i type="logical" name="LSUBROT"> F  </i>
     <i name="WEIMIN">      0.00100000</i>
     <i name="EBREAK">      0.00000000</i>
     <i name="DEPER">      0.30000000</i>
     <i type="int" name="NRMM">     4</i>
     <i name="TIME">      0.40000000</i>
    </separator>
   </separator>
   <separator name="electronic mixer" >
    <i name="AMIX">      0.40000000</i>
    <i name="BMIX">      1.00000000</i>
    <i name="AMIN">      0.10000000</i>
    <i name="AMIX_MAG">      1.60000000</i>
    <i name="BMIX_MAG">      1.00000000</i>
    <separator name="electronic mixer details" >
     <i type="int" name="IMIX">     4</i>
     <i type="logical" name="MIXFIRST"> F  </i>
     <i type="int" name="MAXMIX">   -45</i>
     <i name="WC">    100.00000000</i>
     <i type="int" name="INIMIX">     1</i>
     <i type="int" name="MIXPRE">     1</i>
     <i type="int" name="MREMOVE">     5</i>
    </separator>
   </separator>
   <separator name="electronic dipolcorrection" >
    <i type="logical" name="LDIPOL"> F  </i>
    <i type="logical" name="LMONO"> F  </i>
    <i type="int" name="IDIPOL">     0</i>
    <i name="EPSILON">      1.00000000</i>
    <v name="DIPOL">   -100.00000000   -100.00000000   -100.00000000</v>
    <i name="EFIELD">      0.00000000</i>
   </separator>
  </separator>
  <separator name="grids" >
   <i type="int" name="NGX">    36</i>
   <i type="int" name="NGY">    36</i>
   <i type="int" name="NGZ">    36</i>
   <i type="int" name="NGXF">    72</i>
   <i type="int" name="NGYF">    72</i>
   <i type="int" name="NGZF">    72</i>
   <i type="logical" name="ADDGRID"> F  </i>
  </separator>
  <separator name="ionic" >
   <i type="int" name="NSW">     1</i>
   <i type="int" name="IBRION">     8</i>
   <i type="int" name="MDALGO">     0</i>
   <i type="int" name="ISIF">     2</i>
   <i name="PSTRESS">      0.00000000</i>
   <i name="EDIFFG">      0.00000010</i>
   <i type="int" name="NFREE">     0</i>
   <i name="POTIM">      0.50000000</i>
   <i name="SMASS">     -3.00000000</i>
   <i name="SCALEE">      1.00000000</i>
  </separator>
  <separator name="ionic md" >
   <i name="TEBEG">      0.00010000</i>
   <i name="TEEND">      0.00010000</i>
   <i type="int" name="NBLOCK">     1</i>
   <i type="int" name="KBLOCK">     1</i>
   <i type="int" name="NPACO">   256</i>
   <i name="APACO">     16.00000000</i>
  </separator>
  <separator name="symmetry" >
   <i type="int" name="ISYM">     2</i>
   <i name="SYMPREC">      0.00000001</i>
  </separator>
  <separator name="dos" >
   <i type="int" name="LORBIT">     0</i>
   <v name="RWIGS">     -1.00000000     -1.00000000</v>
   <i type="int" name="NEDOS">   301</i>
   <i name="EMIN">     10.00000000</i>
   <i name="EMAX">    -10.00000000</i>
   <i name="EFERMI">      0.00000000</i>
  </separator>
  <separator name="writing" >
   <i type="int" name="NWRITE">     2</i>
   <i type="logical" name="LWAVE"> F  </i>
   <i type="logical" name="LDOWNSAMPLE"> F  </i>
   <i type="logical" name="LCHARG"> T  </i>
   <i type="logical" name="LPARD"> F  </i>
   <i type="logical" name="LVTOT"> F  </i>
   <i type="logical" name="LVHAR"> F  </i>
   <i type="logical" name="LELF"> F  </i>
   <i type="logical" name="LOPTICS"> F  </i>
   <v name="STM">      0.00000000      0.00000000      0.00000000      0.00000000      0.00000000      0.00000000      0.00000000</v>
  </separator>
  <separator name="performance" >
   <i type="int" name="NPAR">     8</i>
   <i type="int" name="NSIM">     4</i>
   <i type="int" name="NBLK">    -1</i>
   <i type="logical" name="LPLANE"> T  </i>
   <i type="logical" name="LSCALAPACK"> T  </i>
   <i type="logical" name="LSCAAWARE"> F  </i>
   <i type="logical" name="LSCALU"> F  </i>
   <i type="logical" name="LASYNC"> F  </i>
   <i type="logical" name="LORBITALREAL"> F  </i>
  </separator>
  <separator name="miscellaneous" >
   <i type="int" name="IDIOT">     3</i>
   <i type="int" name="ISPECIAL">     0</i>
   <i type="logical" name="LMUSIC"> F  </i>
   <v name="POMASS">     39.09800000     79.90400000</v>
   <v name="DARWINR">      0.00000000      0.00000000</v>
   <v name="DARWINV">      1.00000000      1.00000000</v>
   <i type="logical" name="LCORR"> T  </i>
  </separator>
  <i type="logical" name="GGA_COMPAT"> T  </i>
  <i type="logical" name="LBERRY"> F  </i>
  <i type="int" name="ICORELEVEL">     0</i>
  <i type="logical" name="LDAU"> F  </i>
  <i type="int" name="I_CONSTRAINED_M">     0</i>
  <separator name="electronic exchange-correlation" >
   <i type="string" name="GGA">--</i>
   <i type="int" name="VOSKOWN">     0</i>
   <i type="logical" name="LHFCALC"> F  </i>
   <i type="string" name="PRECFOCK"></i>
   <i type="logical" name="LSYMGRAD"> F  </i>
   <i type="logical" name="LHFONE"> F  </i>
   <i type="logical" name="LRHFCALC"> F  </i>
   <i type="logical" name="LTHOMAS"> F  </i>
   <i type="logical" name="LMODELHF"> F  </i>
   <i name="ENCUT4O">     -1.00000000</i>
   <i type="int" name="EXXOEP">     0</i>
   <i type="int" name="FOURORBIT">     0</i>
   <i name="AEXX">      0.00000000</i>
   <i name="HFALPHA">      0.00000000</i>
   <i name="MCALPHA">      0.00000000</i>
   <i name="ALDAX">      1.00000000</i>
   <i name="AGGAX">      1.00000000</i>
   <i name="ALDAC">      1.00000000</i>
   <i name="AGGAC">      1.00000000</i>
   <i type="int" name="NKREDX">     1</i>
   <i type="int" name="NKREDY">     1</i>
   <i type="int" name="NKREDZ">     1</i>
   <i type="logical" name="SHIFTRED"> F  </i>
   <i type="logical" name="ODDONLY"> F  </i>
   <i type="logical" name="EVENONLY"> F  </i>
   <i type="int" name="LMAXFOCK">     0</i>
   <i type="int" name="NMAXFOCKAE">     0</i>
   <i type="logical" name="LFOCKAEDFT"> F  </i>
   <i name="HFSCREEN">      0.00000000</i>
   <i name="HFSCREENC">      0.00000000</i>
   <i type="int" name="NBANDSGWLOW">     0</i>
  </separator>
  <separator name="vdW DFT" >
   <i type="logical" name="LUSE_VDW"> F  </i>
   <i name="Zab_VDW">     -0.84910000</i>
   <i name="PARAM1">      0.12340000</i>
   <i name="PARAM2">      1.00000000</i>
   <i name="PARAM3">      0.00000000</i>
  </separator>
  <separator name="model GW" >
   <i type="int" name="MODEL_GW">     0</i>
   <i name="MODEL_EPS0">     21.45536407</i>
   <i name="MODEL_ALPHA">      1.00000000</i>
  </separator>
  <separator name="linear response parameters" >
   <i type="logical" name="LEPSILON"> T  </i>
   <i type="logical" name="LRPA"> F  </i>
   <i type="logical" name="LNABLA"> F  </i>
   <i type="logical" name="LVEL"> F  </i>
   <i type="int" name="KINTER">     0</i>
   <i name="CSHIFT">      0.10000000</i>
   <i name="OMEGAMAX">     -1.00000000</i>
   <i name="DEG_THRESHOLD">      0.00200000</i>
   <i name="RTIME">     -0.10000000</i>
   <i name="WPLASMAI">      0.00000000</i>
   <v name="DFIELD">      0.00000000      0.00000000      0.00000000</v>
   <v name="WPLASMA">      0.00000000      0.00000000      0.00000000      0.00000000      0.00000000      0.00000000      0.00000000      0.00000000      0.00000000</v>
  </separator>
  <separator name="orbital magnetization" >
   <i type="logical" name="NUCIND"> F  </i>
   <v name="MAGPOS">      0.00000000      0.00000000      0.00000000</v>
   <i type="logical" name="LNICSALL"> T  </i>
   <i type="logical" name="ORBITALMAG"> F  </i>
   <i type="logical" name="LMAGBLOCH"> F  </i>
   <i type="logical" name="LCHIMAG"> F  </i>
   <i type="logical" name="LGAUGE"> T  </i>
   <i type="int" name="MAGATOM">     0</i>
   <v name="MAGDIPOL">      0.00000000      0.00000000      0.00000000</v>
   <v name="AVECCONST">      0.00000000      0.00000000      0.00000000</v>
  </separator>
  <separator name="response functions" >
   <i type="logical" name="LADDER"> F  </i>
   <i type="logical" name="LRPAFORCE"> F  </i>
   <i type="logical" name="LFXC"> F  </i>
   <i type="logical" name="LHARTREE"> T  </i>
   <i type="int" name="IBSE">     0</i>
   <v type="int" name="KPOINT">    -1     0     0     0</v>
   <i type="logical" name="LTCTE"> F  </i>
   <i type="logical" name="LTETE"> F  </i>
   <i type="logical" name="LTRIPLET"> F  </i>
   <i type="logical" name="LFXCEPS"> F  </i>
   <i type="logical" name="LFXHEG"> F  </i>
   <i type="int" name="NATURALO">     2</i>
   <i type="logical" name="L2ORDER"> F  </i>
   <i type="logical" name="LMP2LT"> F  </i>
   <i type="logical" name="LUSEW"> F  </i>
   <i name="ENCUTGW">     -2.00000000</i>
   <i name="ENCUTGWSOFT">     -2.00000000</i>
   <i name="ENCUTLF">     -1.00000000</i>
   <i type="int" name="LMAXMP2">    -1</i>
   <i name="SCISSOR">      0.00000000</i>
   <i type="int" name="NOMEGA">     0</i>
   <i type="int" name="NOMEGAR">     0</i>
   <i type="int" name="NBANDSGW">    -1</i>
   <i type="int" name="NBANDSO">    -1</i>
   <i type="int" name="NBANDSV">    -1</i>
   <i type="int" name="NELM">   100</i>
   <i type="int" name="NELMHF">     1</i>
   <i type="int" name="DIM">     3</i>
   <i type="int" name="ANTIRES">     0</i>
   <i name="OMEGAMAX">    -30.00000000</i>
   <i name="OMEGAMIN">    -30.00000000</i>
   <i name="OMEGATL">   -200.00000000</i>
   <i type="int" name="OMEGAGRID">   140</i>
   <i name="CSHIFT">     -0.10000000</i>
   <i type="logical" name="SELFENERGY"> F  </i>
   <i type="logical" name="LSPECTRAL"> F  </i>
   <i type="logical" name="LSPECTRALGW"> F  </i>
   <i type="logical" name="LSINGLES"> F  </i>
   <i type="logical" name="LFERMIGW"> F  </i>
   <i type="logical" name="ODDONLYGW"> F  </i>
   <i type="logical" name="EVENONLYGW"> F  </i>
   <i type="int" name="NKREDLFX">     1</i>
   <i type="int" name="NKREDLFY">     1</i>
   <i type="int" name="NKREDLFZ">     1</i>
   <i type="int" name="MAXMEM">  2800</i>
   <i type="int" name="TELESCOPE">     0</i>
   <i type="int" name="TAUPAR">     1</i>
   <i type="int" name="OMEGAPAR">    -1</i>
   <i name="LAMBDA">      1.00000000</i>
  </separator>
  <separator name="External order field" >
   <i name="OFIELD_KAPPA">      0.00000000</i>
   <v name="OFIELD_K">      0.00000000      0.00000000      0.00000000</v>
   <i name="OFIELD_Q6_NEAR">      0.00000000</i>
   <i name="OFIELD_Q6_FAR">      0.00000000</i>
   <i name="OFIELD_A">      0.00000000</i>
  </separator>
 </parameters>
 <atominfo>
  <atoms>       2 </atoms>
  <types>       2 </types>
  <array name="atoms" >
   <dimension dim="1">ion</dimension>
   <field type="string">element</field>
   <field type="int">atomtype</field>
   <set>
    <rc><c>K </c><c>   1</c></rc>
    <rc><c>Br</c><c>   2</c></rc>
   </set>
  </array>
  <array name="atomtypes" >
   <dimension dim="1">type</dimension>
   <field type="int">atomspertype</field>
   <field type="string">element</field>
   <field>mass</field>
   <field>valence</field>
   <field type="string">pseudopotential</field>
   <set>
    <rc><c>   1</c><c>K </c><c>     39.09800000</c><c>      9.00000000</c><c>  PAW_PBE K_sv 06Sep2000                </c></rc>
    <rc><c>   1</c><c>Br</c><c>     79.90400000</c><c>      7.00000000</c><c>  PAW_PBE Br 06Sep2000                  </c></rc>
   </set>
  </array>
 </atominfo>
 <structure name="initialpos" >
  <crystal>
   <varray name="basis" >
    <v>      -3.29454072       0.00000000       3.29454072 </v>
    <v>       0.00000000       3.29454072       3.29454072 </v>
    <v>      -3.29454072       3.29454072       0.00000000 </v>
   </varray>
   <i name="volume">     71.51788022 </i>
   <varray name="rec_basis" >
    <v>      -0.15176622      -0.15176622       0.15176622 </v>
    <v>       0.15176622       0.15176622       0.15176622 </v>
    <v>      -0.15176622       0.15176622      -0.15176622 </v>
   </varray>
  </crystal>
  <varray name="positions" >
   <v>       0.00000000       0.00000000       0.00000000 </v>
   <v>       0.49999996       0.50000004       0.49999996 </v>
  </varray>
 </structure>
 <calculation>
  <scstep>
   <time name="dav">    1.65    1.65</time>
   <time name="total">    1.69    1.70</time>
   <energy>
    <i name="alphaZ">     45.43119441 </i>
    <i name="ewald">   -801.31936921 </i>
    <i name="hartreedc">   -267.93121778 </i>
    <i name="XCdc">     45.19576361 </i>
    <i name="pawpsdc">    889.10445710 </i>
    <i name="pawaedc">   -877.88460924 </i>
    <i name="eentropy">     -0.00001610 </i>
    <i name="bandstr">    -78.56927039 </i>
    <i name="atom">   1143.45303997 </i>
    <i name="e_fr_energy">     97.47997236 </i>
    <i name="e_wo_entrp">     97.47998846 </i>
    <i name="e_0_energy">     97.47998041 </i>
   </energy>
  </scstep>
  <scstep>
   <time name="dav">    2.08    2.10</time>
   <time name="total">    2.08    2.10</time>
   <energy>
    <i name="e_fr_energy">     -0.56331404 </i>
    <i name="e_wo_entrp">     -0.56331404 </i>
    <i name="e_0_energy">     -0.56331404 </i>
   </energy>
  </scstep>
  <scstep>
   <time name="dav">    2.00    2.01</time>
   <time name="total">    2.00    2.01</time>
   <energy>
    <i name="e_fr_energy">     -6.17828679 </i>
    <i name="e_wo_entrp">     -6.17828679 </i>
    <i name="e_0_energy">     -6.17828679 </i>
   </energy>
  </scstep>
  <scstep>
   <time name="dav">    2.10    2.11</time>
   <time name="total">    2.10    2.11</time>
   <energy>
    <i name="e_fr_energy">     -6.38327021 </i>
    <i name="e_wo_entrp">     -6.38327021 </i>
    <i name="e_0_energy">     -6.38327021 </i>
   </energy>
  </scstep>
  <scstep>
   <time name="dav">    2.04    2.05</time>
   <time name="total">    2.15    2.16</time>
   <energy>
    <i name="e_fr_energy">     -6.38487684 </i>
    <i name="e_wo_entrp">     -6.38487684 </i>
    <i name="e_0_energy">     -6.38487684 </i>
   </energy>
  </scstep>
  <scstep>
   <time name="dav">    1.88    1.89</time>
   <time name="total">    2.01    2.02</time>
   <energy>
    <i name="e_fr_energy">     -6.21423657 </i>
    <i name="e_wo_entrp">     -6.21423657 </i>
    <i name="e_0_energy">     -6.21423657 </i>
   </energy>
  </scstep>
  <scstep>
   <time name="dav">    2.01    2.03</time>
   <time name="total">    2.14    2.16</time>
   <energy>
    <i name="e_fr_energy">     -6.20337366 </i>
    <i name="e_wo_entrp">     -6.20337366 </i>
    <i name="e_0_energy">     -6.20337366 </i>
   </energy>
  </scstep>
  <scstep>
   <time name="dav">    1.70    1.71</time>
   <time name="total">    1.83    1.84</time>
   <energy>
    <i name="e_fr_energy">     -6.21217380 </i>
    <i name="e_wo_entrp">     -6.21217380 </i>
    <i name="e_0_energy">     -6.21217380 </i>
   </energy>
  </scstep>
  <scstep>
   <time name="dav">    2.07    2.07</time>
   <time name="total">    2.19    2.20</time>
   <energy>
    <i name="e_fr_energy">     -6.21299959 </i>
    <i name="e_wo_entrp">     -6.21299959 </i>
    <i name="e_0_energy">     -6.21299959 </i>
   </energy>
  </scstep>
  <scstep>
   <time name="dav">    1.65    1.66</time>
   <time name="total">    1.78    1.79</time>
   <energy>
    <i name="e_fr_energy">     -6.21324945 </i>
    <i name="e_wo_entrp">     -6.21324945 </i>
    <i name="e_0_energy">     -6.21324945 </i>
   </energy>
  </scstep>
  <scstep>
   <time name="dav">    1.91    1.92</time>
   <time name="total">    2.04    2.05</time>
   <energy>
    <i name="e_fr_energy">     -6.21327308 </i>
    <i name="e_wo_entrp">     -6.21327308 </i>
    <i name="e_0_energy">     -6.21327308 </i>
   </energy>
  </scstep>
  <scstep>
   <time name="dav">    1.82    1.83</time>
   <time name="total">    1.95    1.96</time>
   <energy>
    <i name="e_fr_energy">     -6.21327444 </i>
    <i name="e_wo_entrp">     -6.21327444 </i>
    <i name="e_0_energy">     -6.21327444 </i>
   </energy>
  </scstep>
  <scstep>
   <time name="dav">    2.15    2.16</time>
   <time name="total">    2.28    2.29</time>
   <energy>
    <i name="e_fr_energy">     -6.21327452 </i>
    <i name="e_wo_entrp">     -6.21327452 </i>
    <i name="e_0_energy">     -6.21327452 </i>
   </energy>
  </scstep>
  <scstep>
   <time name="dav">    1.76    1.77</time>
   <time name="total">    1.89    1.90</time>
   <energy>
    <i name="e_fr_energy">     -6.21327461 </i>
    <i name="e_wo_entrp">     -6.21327461 </i>
    <i name="e_0_energy">     -6.21327461 </i>
   </energy>
  </scstep>
  <scstep>
   <time name="dav">    1.75    1.75</time>
   <time name="total">    1.87    1.88</time>
   <energy>
    <i name="e_fr_energy">     -6.21327465 </i>
    <i name="e_wo_entrp">     -6.21327465 </i>
    <i name="e_0_energy">     -6.21327465 </i>
   </energy>
  </scstep>
  <scstep>
   <time name="dav">    1.49    1.50</time>
   <time name="total">    1.51    1.52</time>
   <energy>
    <i name="alphaZ">     45.43119441 </i>
    <i name="ewald">   -801.31936921 </i>
    <i name="hartreedc">   -271.22387461 </i>
    <i name="XCdc">     45.79152252 </i>
    <i name="pawpsdc">    957.94583535 </i>
    <i name="pawaedc">   -948.14290888 </i>
    <i name="eentropy">     -0.00000000 </i>
    <i name="bandstr">   -178.14871421 </i>
    <i name="atom">   1143.45303997 </i>
    <i name="e_fr_energy">     -6.21327465 </i>
    <i name="e_wo_entrp">     -6.21327465 </i>
    <i name="e_0_energy">     -6.21327465 </i>
   </energy>
  </scstep>
  <structure>
   <crystal>
    <varray name="basis" >
     <v>      -3.29454072       0.00000000       3.29454072 </v>
     <v>       0.00000000       3.29454072       3.29454072 </v>
     <v>      -3.29454072       3.29454072       0.00000000 </v>
    </varray>
    <i name="volume">     71.51788022 </i>
    <varray name="rec_basis" >
     <v>      -0.15176622      -0.15176622       0.15176622 </v>
     <v>       0.15176622       0.15176622       0.15176622 </v>
     <v>      -0.15176622       0.15176622      -0.15176622 </v>
    </varray>
   </crystal>
   <varray name="positions" >
    <v>       0.00000000       0.00000000       0.00000000 </v>
    <v>       0.49999996       0.50000004       0.49999996 </v>
   </varray>
  </structure>
  <varray name="forces" >
   <v>      -0.00000006       0.00000000       0.00000000 </v>
   <v>       0.00000006      -0.00000000      -0.00000000 </v>
  </varray>
  <varray name="stress" >
   <v>       8.39953037      -0.00000000       0.00000000 </v>
   <v>       0.00000000       8.39952879      -0.00000000 </v>
   <v>       0.00000000      -0.00000000       8.39952879 </v>
  </varray>
  <energy>
   <i name="e_fr_energy">     -6.21327465 </i>
   <i name="e_wo_entrp">     -6.21327465 </i>
   <i name="e_0_energy">     -0.00000000 </i>
  </energy>
  <scstep>
   <time name="total">    1.67    1.68</time>
   <energy>
    <i name="e_fr_energy">     -0.34357879 </i>
    <i name="e_wo_entrp">     -0.34357879 </i>
    <i name="e_0_energy">     -0.34357879 </i>
   </energy>
  </scstep>
  <scstep>
   <time name="total">    1.84    1.84</time>
   <energy>
    <i name="e_fr_energy">     -0.35882666 </i>
    <i name="e_wo_entrp">     -0.35882666 </i>
    <i name="e_0_energy">     -0.35882666 </i>
   </energy>
  </scstep>
  <scstep>
   <time name="total">    1.84    1.84</time>
   <energy>
    <i name="e_fr_energy">     -0.36119514 </i>
    <i name="e_wo_entrp">     -0.36119514 </i>
    <i name="e_0_energy">     -0.36119514 </i>
   </energy>
  </scstep>
  <scstep>
   <time name="total">    1.83    1.83</time>
   <energy>
    <i name="e_fr_energy">     -0.36150416 </i>
    <i name="e_wo_entrp">     -0.36150416 </i>
    <i name="e_0_energy">     -0.36150416 </i>
   </energy>
  </scstep>
  <scstep>
   <time name="total">    1.80    1.80</time>
   <energy>
    <i name="e_fr_energy">     -0.36153387 </i>
    <i name="e_wo_entrp">     -0.36153387 </i>
    <i name="e_0_energy">     -0.36153387 </i>
   </energy>
  </scstep>
  <scstep>
   <time name="total">    1.76    1.76</time>
   <energy>
    <i name="e_fr_energy">     -0.36153755 </i>
    <i name="e_wo_entrp">     -0.36153755 </i>
    <i name="e_0_energy">     -0.36153755 </i>
   </energy>
  </scstep>
  <scstep>
   <time name="total">    1.76    1.76</time>
   <energy>
    <i name="e_fr_energy">     -0.36153802 </i>
    <i name="e_wo_entrp">     -0.36153802 </i>
    <i name="e_0_energy">     -0.36153802 </i>
   </energy>
  </scstep>
  <scstep>
   <time name="total">    1.75    1.75</time>
   <energy>
    <i name="e_fr_energy">     -0.36153809 </i>
    <i name="e_wo_entrp">     -0.36153809 </i>
    <i name="e_0_energy">     -0.36153809 </i>
   </energy>
  </scstep>
  <scstep>
   <time name="total">    1.76    1.76</time>
   <energy>
    <i name="e_fr_energy">     -0.36153810 </i>
    <i name="e_wo_entrp">     -0.36153810 </i>
    <i name="e_0_energy">     -0.36153810 </i>
   </energy>
  </scstep>
  <scstep>
   <time name="total">    1.69    1.69</time>
   <energy>
    <i name="e_fr_energy">     -0.36162083 </i>
    <i name="e_wo_entrp">     -0.36162083 </i>
    <i name="e_0_energy">     -0.36162083 </i>
   </energy>
  </scstep>
  <scstep>
   <time name="total">    1.85    1.85</time>
   <energy>
    <i name="e_fr_energy">     -0.37767102 </i>
    <i name="e_wo_entrp">     -0.37767102 </i>
    <i name="e_0_energy">     -0.37767102 </i>
   </energy>
  </scstep>
  <scstep>
   <time name="total">    1.87    1.87</time>
   <energy>
    <i name="e_fr_energy">     -0.38001296 </i>
    <i name="e_wo_entrp">     -0.38001296 </i>
    <i name="e_0_energy">     -0.38001296 </i>
   </energy>
  </scstep>
  <scstep>
   <time name="total">    1.86    1.86</time>
   <energy>
    <i name="e_fr_energy">     -0.38031795 </i>
    <i name="e_wo_entrp">     -0.38031795 </i>
    <i name="e_0_energy">     -0.38031795 </i>
   </energy>
  </scstep>
  <scstep>
   <time name="total">    1.85    1.85</time>
   <energy>
    <i name="e_fr_energy">     -0.38034747 </i>
    <i name="e_wo_entrp">     -0.38034747 </i>
    <i name="e_0_energy">     -0.38034747 </i>
   </energy>
  </scstep>
  <scstep>
   <time name="total">    1.82    1.82</time>
   <energy>
    <i name="e_fr_energy">     -0.38035100 </i>
    <i name="e_wo_entrp">     -0.38035100 </i>
    <i name="e_0_energy">     -0.38035100 </i>
   </energy>
  </scstep>
  <scstep>
   <time name="total">    1.83    1.83</time>
   <energy>
    <i name="e_fr_energy">     -0.38035144 </i>
    <i name="e_wo_entrp">     -0.38035144 </i>
    <i name="e_0_energy">     -0.38035144 </i>
   </energy>
  </scstep>
  <scstep>
   <time name="total">    1.82    1.82</time>
   <energy>
    <i name="e_fr_energy">     -0.38035150 </i>
    <i name="e_wo_entrp">     -0.38035150 </i>
    <i name="e_0_energy">     -0.38035150 </i>
   </energy>
  </scstep>
  <scstep>
   <time name="total">    1.85    1.85</time>
   <energy>
    <i name="e_fr_energy">     -0.38035151 </i>
    <i name="e_wo_entrp">     -0.38035151 </i>
    <i name="e_0_energy">     -0.38035151 </i>
   </energy>
  </scstep>
  <scstep>
   <time name="total">    1.69    1.69</time>
   <energy>
    <i name="e_fr_energy">     -0.32556926 </i>
    <i name="e_wo_entrp">     -0.32556926 </i>
    <i name="e_0_energy">     -0.32556926 </i>
   </energy>
  </scstep>
  <scstep>
   <time name="total">    1.80    1.80</time>
   <energy>
    <i name="e_fr_energy">     -0.33998369 </i>
    <i name="e_wo_entrp">     -0.33998369 </i>
    <i name="e_0_energy">     -0.33998369 </i>
   </energy>
  </scstep>
  <scstep>
   <time name="total">    1.86    1.86</time>
   <energy>
    <i name="e_fr_energy">     -0.34237800 </i>
    <i name="e_wo_entrp">     -0.34237800 </i>
    <i name="e_0_energy">     -0.34237800 </i>
   </energy>
  </scstep>
  <scstep>
   <time name="total">    1.84    1.84</time>
   <energy>
    <i name="e_fr_energy">     -0.34269095 </i>
    <i name="e_wo_entrp">     -0.34269095 </i>
    <i name="e_0_energy">     -0.34269095 </i>
   </energy>
  </scstep>
  <scstep>
   <time name="total">    1.84    1.84</time>
   <energy>
    <i name="e_fr_energy">     -0.34272094 </i>
    <i name="e_wo_entrp">     -0.34272094 </i>
    <i name="e_0_energy">     -0.34272094 </i>
   </energy>
  </scstep>
  <scstep>
   <time name="total">    1.77    1.77</time>
   <energy>
    <i name="e_fr_energy">     -0.34272477 </i>
    <i name="e_wo_entrp">     -0.34272477 </i>
    <i name="e_0_energy">     -0.34272477 </i>
   </energy>
  </scstep>
  <scstep>
   <time name="total">    1.76    1.76</time>
   <energy>
    <i name="e_fr_energy">     -0.34272528 </i>
    <i name="e_wo_entrp">     -0.34272528 </i>
    <i name="e_0_energy">     -0.34272528 </i>
   </energy>
  </scstep>
  <scstep>
   <time name="total">    1.78    1.78</time>
   <energy>
    <i name="e_fr_energy">     -0.34272535 </i>
    <i name="e_wo_entrp">     -0.34272535 </i>
    <i name="e_0_energy">     -0.34272535 </i>
   </energy>
  </scstep>
  <scstep>
   <time name="total">    1.77    1.77</time>
   <energy>
    <i name="e_fr_energy">     -0.34272536 </i>
    <i name="e_wo_entrp">     -0.34272536 </i>
    <i name="e_0_energy">     -0.34272536 </i>
   </energy>
  </scstep>
  <scstep>
   <time name="total">    1.77    1.77</time>
   <energy>
    <i name="e_fr_energy">     -0.34272536 </i>
    <i name="e_wo_entrp">     -0.34272536 </i>
    <i name="e_0_energy">     -0.34272536 </i>
   </energy>
  </scstep>
  <varray name="epsilon_rpa" >
   <v>       2.82951166      -0.00000000       0.00000000 </v>
   <v>      -0.00000000       2.82951380      -0.00000000 </v>
   <v>       0.00000000      -0.00000000       2.82951380 </v>
  </varray>
  <kpoints>
   <generation param="Gamma">
    <v type="int" name="divisions">      12       12       12 </v>
    <v name="usershift">      0.00000000       0.00000000       0.00000000 </v>
    <v name="genvec1">      0.08333333       0.00000000       0.00000000 </v>
    <v name="genvec2">      0.00000000       0.08333333      -0.00000000 </v>
    <v name="genvec3">     -0.00000000      -0.00000000       0.08333333 </v>
    <v name="shift">      0.00000000       0.00000000       0.00000000 </v>
   </generation>
   <varray name="kpointlist" >
    <v>       0.00000000       0.00000000       0.00000000 </v>
    <v>       0.08333333      -0.00000000      -0.00000000 </v>
    <v>       0.16666667      -0.00000000      -0.00000000 </v>
    <v>       0.25000000      -0.00000000      -0.00000000 </v>
    <v>       0.33333333      -0.00000000       0.00000000 </v>
    <v>       0.41666667      -0.00000000      -0.00000000 </v>
    <v>       0.50000000      -0.00000000      -0.00000000 </v>
    <v>       0.08333333       0.08333333      -0.00000000 </v>
    <v>       0.16666667       0.08333333      -0.00000000 </v>
    <v>       0.25000000       0.08333333      -0.00000000 </v>
    <v>       0.33333333       0.08333333      -0.00000000 </v>
    <v>       0.41666667       0.08333333      -0.00000000 </v>
    <v>       0.50000000       0.08333333      -0.00000000 </v>
    <v>      -0.41666667       0.08333333      -0.00000000 </v>
    <v>      -0.33333333       0.08333333      -0.00000000 </v>
    <v>      -0.25000000       0.08333333      -0.00000000 </v>
    <v>      -0.16666667       0.08333333      -0.00000000 </v>
    <v>      -0.08333333       0.08333333       0.00000000 </v>
    <v>       0.16666667       0.16666667      -0.00000000 </v>
    <v>       0.25000000       0.16666667      -0.00000000 </v>
    <v>       0.33333333       0.16666667       0.00000000 </v>
    <v>       0.41666667       0.16666667      -0.00000000 </v>
    <v>       0.50000000       0.16666667       0.00000000 </v>
    <v>      -0.41666667       0.16666667       0.00000000 </v>
    <v>      -0.33333333       0.16666667       0.00000000 </v>
    <v>      -0.25000000       0.16666667       0.00000000 </v>
    <v>      -0.16666667       0.16666667      -0.00000000 </v>
    <v>       0.25000000       0.25000000      -0.00000000 </v>
    <v>       0.33333333       0.25000000      -0.00000000 </v>
    <v>       0.41666667       0.25000000      -0.00000000 </v>
    <v>       0.50000000       0.25000000      -0.00000000 </v>
    <v>      -0.41666667       0.25000000      -0.00000000 </v>
    <v>      -0.33333333       0.25000000       0.00000000 </v>
    <v>      -0.25000000       0.25000000       0.00000000 </v>
    <v>       0.33333333       0.33333333      -0.00000000 </v>
    <v>       0.41666667       0.33333333      -0.00000000 </v>
    <v>       0.50000000       0.33333333      -0.00000000 </v>
    <v>      -0.41666667       0.33333333      -0.00000000 </v>
    <v>      -0.33333333       0.33333333      -0.00000000 </v>
    <v>       0.41666667       0.41666667      -0.00000000 </v>
    <v>       0.50000000       0.41666667      -0.00000000 </v>
    <v>      -0.41666667       0.41666667       0.00000000 </v>
    <v>       0.50000000       0.50000000      -0.00000000 </v>
    <v>       0.08333333      -0.00000000       0.08333333 </v>
    <v>       0.16666667      -0.00000000       0.08333333 </v>
    <v>       0.25000000      -0.00000000       0.08333333 </v>
    <v>       0.33333333       0.00000000       0.08333333 </v>
    <v>       0.41666667      -0.00000000       0.08333333 </v>
    <v>       0.50000000      -0.00000000       0.08333333 </v>
    <v>      -0.41666667       0.00000000       0.08333333 </v>
    <v>      -0.33333333      -0.00000000       0.08333333 </v>
    <v>      -0.25000000      -0.00000000       0.08333333 </v>
    <v>      -0.16666667      -0.00000000       0.08333333 </v>
    <v>      -0.08333333       0.00000000       0.08333333 </v>
    <v>       0.25000000       0.16666667       0.08333333 </v>
    <v>       0.33333333       0.16666667       0.08333333 </v>
    <v>       0.41666667       0.16666667       0.08333333 </v>
    <v>       0.50000000       0.16666667       0.08333333 </v>
    <v>      -0.41666667       0.16666667       0.08333333 </v>
    <v>       0.16666667       0.25000000       0.08333333 </v>
    <v>       0.33333333       0.25000000       0.08333333 </v>
    <v>       0.41666667       0.25000000       0.08333333 </v>
    <v>       0.50000000       0.25000000       0.08333333 </v>
    <v>      -0.41666667       0.25000000       0.08333333 </v>
    <v>      -0.33333333       0.25000000       0.08333333 </v>
    <v>      -0.25000000       0.25000000       0.08333333 </v>
    <v>      -0.16666667       0.25000000       0.08333333 </v>
    <v>       0.16666667       0.33333333       0.08333333 </v>
    <v>       0.25000000       0.33333333       0.08333333 </v>
    <v>       0.41666667       0.33333333       0.08333333 </v>
    <v>       0.50000000       0.33333333       0.08333333 </v>
    <v>      -0.41666667       0.33333333       0.08333333 </v>
    <v>      -0.33333333       0.33333333       0.08333333 </v>
    <v>      -0.25000000       0.33333333       0.08333333 </v>
    <v>       0.16666667       0.41666667       0.08333333 </v>
    <v>       0.25000000       0.41666667       0.08333333 </v>
    <v>       0.33333333       0.41666667       0.08333333 </v>
    <v>       0.50000000       0.41666667       0.08333333 </v>
    <v>      -0.41666667       0.41666667       0.08333333 </v>
    <v>      -0.33333333       0.41666667       0.08333333 </v>
    <v>       0.16666667       0.50000000       0.08333333 </v>
    <v>       0.25000000       0.50000000       0.08333333 </v>
    <v>       0.33333333       0.50000000       0.08333333 </v>
    <v>       0.41666667       0.50000000       0.08333333 </v>
    <v>      -0.41666667       0.50000000       0.08333333 </v>
    <v>       0.16666667      -0.41666667       0.08333333 </v>
    <v>       0.25000000      -0.41666667       0.08333333 </v>
    <v>       0.33333333      -0.41666667       0.08333333 </v>
    <v>       0.41666667      -0.41666667       0.08333333 </v>
    <v>       0.50000000      -0.41666667       0.08333333 </v>
    <v>       0.16666667      -0.33333333       0.08333333 </v>
    <v>       0.25000000      -0.33333333       0.08333333 </v>
    <v>       0.33333333      -0.33333333       0.08333333 </v>
    <v>       0.41666667      -0.33333333       0.08333333 </v>
    <v>       0.16666667      -0.25000000       0.08333333 </v>
    <v>       0.25000000      -0.25000000       0.08333333 </v>
    <v>       0.33333333      -0.25000000       0.08333333 </v>
    <v>       0.16666667      -0.16666667       0.08333333 </v>
    <v>       0.25000000      -0.16666667       0.08333333 </v>
    <v>       0.16666667      -0.08333333       0.08333333 </v>
    <v>       0.16666667      -0.00000000       0.16666667 </v>
    <v>       0.25000000      -0.00000000       0.16666667 </v>
    <v>       0.33333333      -0.00000000       0.16666667 </v>
    <v>       0.41666667       0.00000000       0.16666667 </v>
    <v>       0.50000000       0.00000000       0.16666667 </v>
    <v>      -0.41666667       0.00000000       0.16666667 </v>
    <v>      -0.33333333      -0.00000000       0.16666667 </v>
    <v>      -0.25000000       0.00000000       0.16666667 </v>
    <v>      -0.16666667      -0.00000000       0.16666667 </v>
    <v>       0.50000000       0.33333333       0.16666667 </v>
    <v>      -0.41666667       0.33333333       0.16666667 </v>
    <v>      -0.33333333       0.33333333       0.16666667 </v>
    <v>       0.25000000       0.41666667       0.16666667 </v>
    <v>      -0.41666667       0.41666667       0.16666667 </v>
    <v>      -0.33333333       0.41666667       0.16666667 </v>
    <v>      -0.25000000       0.41666667       0.16666667 </v>
    <v>       0.25000000       0.50000000       0.16666667 </v>
    <v>       0.33333333       0.50000000       0.16666667 </v>
    <v>      -0.33333333       0.50000000       0.16666667 </v>
    <v>       0.25000000      -0.41666667       0.16666667 </v>
    <v>       0.33333333      -0.41666667       0.16666667 </v>
    <v>       0.41666667      -0.41666667       0.16666667 </v>
    <v>       0.25000000      -0.33333333       0.16666667 </v>
    <v>       0.33333333      -0.33333333       0.16666667 </v>
    <v>       0.41666667      -0.33333333       0.16666667 </v>
    <v>       0.50000000      -0.33333333       0.16666667 </v>
    <v>       0.25000000      -0.25000000       0.16666667 </v>
    <v>       0.33333333      -0.25000000       0.16666667 </v>
    <v>       0.41666667      -0.25000000       0.16666667 </v>
    <v>       0.25000000      -0.16666667       0.16666667 </v>
    <v>       0.33333333      -0.16666667       0.16666667 </v>
    <v>       0.25000000      -0.08333333       0.16666667 </v>
    <v>       0.25000000      -0.00000000       0.25000000 </v>
    <v>       0.33333333      -0.00000000       0.25000000 </v>
    <v>       0.41666667      -0.00000000       0.25000000 </v>
    <v>       0.50000000      -0.00000000       0.25000000 </v>
    <v>      -0.41666667      -0.00000000       0.25000000 </v>
    <v>      -0.33333333      -0.00000000       0.25000000 </v>
    <v>      -0.25000000       0.00000000       0.25000000 </v>
    <v>      -0.25000000       0.50000000       0.25000000 </v>
    <v>       0.33333333      -0.41666667       0.25000000 </v>
    <v>       0.33333333      -0.33333333       0.25000000 </v>
    <v>       0.41666667      -0.33333333       0.25000000 </v>
    <v>       0.33333333      -0.25000000       0.25000000 </v>
    <v>       0.41666667      -0.25000000       0.25000000 </v>
    <v>       0.50000000      -0.25000000       0.25000000 </v>
    <v>       0.33333333      -0.16666667       0.25000000 </v>
    <v>       0.41666667      -0.16666667       0.25000000 </v>
    <v>       0.33333333      -0.08333333       0.25000000 </v>
    <v>       0.33333333      -0.00000000       0.33333333 </v>
    <v>       0.41666667      -0.00000000       0.33333333 </v>
    <v>       0.50000000      -0.00000000       0.33333333 </v>
    <v>      -0.41666667      -0.00000000       0.33333333 </v>
    <v>      -0.33333333       0.00000000       0.33333333 </v>
    <v>       0.41666667      -0.25000000       0.33333333 </v>
    <v>       0.41666667      -0.16666667       0.33333333 </v>
    <v>       0.50000000      -0.16666667       0.33333333 </v>
    <v>       0.41666667      -0.08333333       0.33333333 </v>
    <v>       0.41666667      -0.00000000       0.41666667 </v>
    <v>       0.50000000      -0.00000000       0.41666667 </v>
    <v>      -0.41666667       0.00000000       0.41666667 </v>
    <v>       0.50000000      -0.08333333       0.41666667 </v>
    <v>       0.50000000      -0.00000000       0.50000000 </v>
   </varray>
   <varray name="weights" >
    <v>       0.00057870 </v>
    <v>       0.00462963 </v>
    <v>       0.00462963 </v>
    <v>       0.00462963 </v>
    <v>       0.00462963 </v>
    <v>       0.00462963 </v>
    <v>       0.00231481 </v>
    <v>       0.00231481 </v>
    <v>       0.00925926 </v>
    <v>       0.00925926 </v>
    <v>       0.00925926 </v>
    <v>       0.00925926 </v>
    <v>       0.00925926 </v>
    <v>       0.00925926 </v>
    <v>       0.00925926 </v>
    <v>       0.00925926 </v>
    <v>       0.00925926 </v>
    <v>       0.00462963 </v>
    <v>       0.00231481 </v>
    <v>       0.00925926 </v>
    <v>       0.00925926 </v>
    <v>       0.00925926 </v>
    <v>       0.00925926 </v>
    <v>       0.00925926 </v>
    <v>       0.00925926 </v>
    <v>       0.00925926 </v>
    <v>       0.00462963 </v>
    <v>       0.00231481 </v>
    <v>       0.00925926 </v>
    <v>       0.00925926 </v>
    <v>       0.00925926 </v>
    <v>       0.00925926 </v>
    <v>       0.00925926 </v>
    <v>       0.00462963 </v>
    <v>       0.00231481 </v>
    <v>       0.00925926 </v>
    <v>       0.00925926 </v>
    <v>       0.00925926 </v>
    <v>       0.00462963 </v>
    <v>       0.00231481 </v>
    <v>       0.00925926 </v>
    <v>       0.00462963 </v>
    <v>       0.00115741 </v>
    <v>       0.00115741 </v>
    <v>       0.00462963 </v>
    <v>       0.00462963 </v>
    <v>       0.00462963 </v>
    <v>       0.00462963 </v>
    <v>       0.00462963 </v>
    <v>       0.00462963 </v>
    <v>       0.00462963 </v>
    <v>       0.00462963 </v>
    <v>       0.00462963 </v>
    <v>       0.00231481 </v>
    <v>       0.00462963 </v>
    <v>       0.00925926 </v>
    <v>       0.00925926 </v>
    <v>       0.00925926 </v>
    <v>       0.00462963 </v>
    <v>       0.00462963 </v>
    <v>       0.00462963 </v>
    <v>       0.00925926 </v>
    <v>       0.00925926 </v>
    <v>       0.00925926 </v>
    <v>       0.00925926 </v>
    <v>       0.00925926 </v>
    <v>       0.00462963 </v>
    <v>       0.00925926 </v>
    <v>       0.00462963 </v>
    <v>       0.00462963 </v>
    <v>       0.00925926 </v>
    <v>       0.00925926 </v>
    <v>       0.00925926 </v>
    <v>       0.00462963 </v>
    <v>       0.00925926 </v>
    <v>       0.00925926 </v>
    <v>       0.00462963 </v>
    <v>       0.00462963 </v>
    <v>       0.00925926 </v>
    <v>       0.00462963 </v>
    <v>       0.00925926 </v>
    <v>       0.00925926 </v>
    <v>       0.00925926 </v>
    <v>       0.00462963 </v>
    <v>       0.00231481 </v>
    <v>       0.00925926 </v>
    <v>       0.00925926 </v>
    <v>       0.00925926 </v>
    <v>       0.00925926 </v>
    <v>       0.00231481 </v>
    <v>       0.00925926 </v>
    <v>       0.00925926 </v>
    <v>       0.00925926 </v>
    <v>       0.00462963 </v>
    <v>       0.00925926 </v>
    <v>       0.00925926 </v>
    <v>       0.00462963 </v>
    <v>       0.00925926 </v>
    <v>       0.00462963 </v>
    <v>       0.00462963 </v>
    <v>       0.00115741 </v>
    <v>       0.00462963 </v>
    <v>       0.00462963 </v>
    <v>       0.00462963 </v>
    <v>       0.00462963 </v>
    <v>       0.00462963 </v>
    <v>       0.00462963 </v>
    <v>       0.00462963 </v>
    <v>       0.00231481 </v>
    <v>       0.00462963 </v>
    <v>       0.00925926 </v>
    <v>       0.00462963 </v>
    <v>       0.00462963 </v>
    <v>       0.00462963 </v>
    <v>       0.00925926 </v>
    <v>       0.00462963 </v>
    <v>       0.00925926 </v>
    <v>       0.00462963 </v>
    <v>       0.00231481 </v>
    <v>       0.00925926 </v>
    <v>       0.00925926 </v>
    <v>       0.00462963 </v>
    <v>       0.00925926 </v>
    <v>       0.00925926 </v>
    <v>       0.00925926 </v>
    <v>       0.00231481 </v>
    <v>       0.00925926 </v>
    <v>       0.00925926 </v>
    <v>       0.00462963 </v>
    <v>       0.00925926 </v>
    <v>       0.00462963 </v>
    <v>       0.00462963 </v>
    <v>       0.00115741 </v>
    <v>       0.00462963 </v>
    <v>       0.00462963 </v>
    <v>       0.00462963 </v>
    <v>       0.00462963 </v>
    <v>       0.00462963 </v>
    <v>       0.00231481 </v>
    <v>       0.00115741 </v>
    <v>       0.00462963 </v>
    <v>       0.00925926 </v>
    <v>       0.00462963 </v>
    <v>       0.00925926 </v>
    <v>       0.00925926 </v>
    <v>       0.00231481 </v>
    <v>       0.00925926 </v>
    <v>       0.00462963 </v>
    <v>       0.00462963 </v>
    <v>       0.00115741 </v>
    <v>       0.00462963 </v>
    <v>       0.00462963 </v>
    <v>       0.00462963 </v>
    <v>       0.00231481 </v>
    <v>       0.00462963 </v>
    <v>       0.00925926 </v>
    <v>       0.00231481 </v>
    <v>       0.00462963 </v>
    <v>       0.00115741 </v>
    <v>       0.00462963 </v>
    <v>       0.00231481 </v>
    <v>       0.00231481 </v>
    <v>       0.00057870 </v>
   </varray>
  </kpoints>
  <scstep>
   <time name="total">    1.71    1.71</time>
   <energy>
    <i name="e_fr_energy">     -0.34357879 </i>
    <i name="e_wo_entrp">     -0.34357879 </i>
    <i name="e_0_energy">     -0.34357879 </i>
   </energy>
  </scstep>
  <scstep>
   <time name="total">    2.02    2.02</time>
   <energy>
    <i name="e_fr_energy">     -0.35882666 </i>
    <i name="e_wo_entrp">     -0.35882666 </i>
    <i name="e_0_energy">     -0.35882666 </i>
   </energy>
  </scstep>
  <scstep>
   <time name="total">    2.44    2.44</time>
   <energy>
    <i name="e_fr_energy">     -0.32087399 </i>
    <i name="e_wo_entrp">     -0.32087399 </i>
    <i name="e_0_energy">     -0.32087399 </i>
   </energy>
  </scstep>
  <scstep>
   <time name="total">    2.93    2.93</time>
   <energy>
    <i name="e_fr_energy">     -0.33622321 </i>
    <i name="e_wo_entrp">     -0.33622321 </i>
    <i name="e_0_energy">     -0.33622321 </i>
   </energy>
  </scstep>
  <scstep>
   <time name="total">    2.58    2.58</time>
   <energy>
    <i name="e_fr_energy">     -0.35318482 </i>
    <i name="e_wo_entrp">     -0.35318482 </i>
    <i name="e_0_energy">     -0.35318482 </i>
   </energy>
  </scstep>
  <scstep>
   <time name="total">    3.06    3.06</time>
   <energy>
    <i name="e_fr_energy">     -0.35561890 </i>
    <i name="e_wo_entrp">     -0.35561890 </i>
    <i name="e_0_energy">     -0.35561890 </i>
   </energy>
  </scstep>
  <scstep>
   <time name="total">    3.02    3.02</time>
   <energy>
    <i name="e_fr_energy">     -0.35646528 </i>
    <i name="e_wo_entrp">     -0.35646528 </i>
    <i name="e_0_energy">     -0.35646528 </i>
   </energy>
  </scstep>
  <scstep>
   <time name="total">    3.14    3.14</time>
   <energy>
    <i name="e_fr_energy">     -0.35669094 </i>
    <i name="e_wo_entrp">     -0.35669094 </i>
    <i name="e_0_energy">     -0.35669094 </i>
   </energy>
  </scstep>
  <scstep>
   <time name="total">    3.10    3.10</time>
   <energy>
    <i name="e_fr_energy">     -0.35674104 </i>
    <i name="e_wo_entrp">     -0.35674104 </i>
    <i name="e_0_energy">     -0.35674104 </i>
   </energy>
  </scstep>
  <scstep>
   <time name="total">    3.18    3.18</time>
   <energy>
    <i name="e_fr_energy">     -0.35673743 </i>
    <i name="e_wo_entrp">     -0.35673743 </i>
    <i name="e_0_energy">     -0.35673743 </i>
   </energy>
  </scstep>
  <scstep>
   <time name="total">    3.11    3.11</time>
   <energy>
    <i name="e_fr_energy">     -0.35673729 </i>
    <i name="e_wo_entrp">     -0.35673729 </i>
    <i name="e_0_energy">     -0.35673729 </i>
   </energy>
  </scstep>
  <scstep>
   <time name="total">    3.23    3.23</time>
   <energy>
    <i name="e_fr_energy">     -0.35673563 </i>
    <i name="e_wo_entrp">     -0.35673563 </i>
    <i name="e_0_energy">     -0.35673563 </i>
   </energy>
  </scstep>
  <scstep>
   <time name="total">    3.21    3.21</time>
   <energy>
    <i name="e_fr_energy">     -0.35673496 </i>
    <i name="e_wo_entrp">     -0.35673496 </i>
    <i name="e_0_energy">     -0.35673496 </i>
   </energy>
  </scstep>
  <scstep>
   <time name="total">    3.08    3.08</time>
   <energy>
    <i name="e_fr_energy">     -0.35673491 </i>
    <i name="e_wo_entrp">     -0.35673491 </i>
    <i name="e_0_energy">     -0.35673491 </i>
   </energy>
  </scstep>
  <scstep>
   <time name="total">    2.95    2.95</time>
   <energy>
    <i name="e_fr_energy">     -0.35673493 </i>
    <i name="e_wo_entrp">     -0.35673493 </i>
    <i name="e_0_energy">     -0.35673493 </i>
   </energy>
  </scstep>
  <kpoints>
   <generation param="Gamma">
    <v type="int" name="divisions">      12       12       12 </v>
    <v name="usershift">      0.00000000       0.00000000       0.00000000 </v>
    <v name="genvec1">      0.08333333       0.00000000       0.00000000 </v>
    <v name="genvec2">      0.00000000       0.08333333      -0.00000000 </v>
    <v name="genvec3">     -0.00000000      -0.00000000       0.08333333 </v>
    <v name="shift">      0.00000000       0.00000000       0.00000000 </v>
   </generation>
   <varray name="kpointlist" >
    <v>       0.00000000       0.00000000       0.00000000 </v>
    <v>       0.08333333      -0.00000000      -0.00000000 </v>
    <v>       0.16666667      -0.00000000      -0.00000000 </v>
    <v>       0.25000000      -0.00000000      -0.00000000 </v>
    <v>       0.33333333      -0.00000000       0.00000000 </v>
    <v>       0.41666667      -0.00000000      -0.00000000 </v>
    <v>       0.50000000      -0.00000000      -0.00000000 </v>
    <v>       0.08333333       0.08333333      -0.00000000 </v>
    <v>       0.16666667       0.08333333      -0.00000000 </v>
    <v>       0.25000000       0.08333333      -0.00000000 </v>
    <v>       0.33333333       0.08333333      -0.00000000 </v>
    <v>       0.41666667       0.08333333      -0.00000000 </v>
    <v>       0.50000000       0.08333333      -0.00000000 </v>
    <v>      -0.41666667       0.08333333      -0.00000000 </v>
    <v>      -0.33333333       0.08333333      -0.00000000 </v>
    <v>      -0.25000000       0.08333333      -0.00000000 </v>
    <v>      -0.16666667       0.08333333      -0.00000000 </v>
    <v>      -0.08333333       0.08333333       0.00000000 </v>
    <v>       0.16666667       0.16666667      -0.00000000 </v>
    <v>       0.25000000       0.16666667      -0.00000000 </v>
    <v>       0.33333333       0.16666667       0.00000000 </v>
    <v>       0.41666667       0.16666667      -0.00000000 </v>
    <v>       0.50000000       0.16666667       0.00000000 </v>
    <v>      -0.41666667       0.16666667       0.00000000 </v>
    <v>      -0.33333333       0.16666667       0.00000000 </v>
    <v>      -0.25000000       0.16666667       0.00000000 </v>
    <v>      -0.16666667       0.16666667      -0.00000000 </v>
    <v>       0.25000000       0.25000000      -0.00000000 </v>
    <v>       0.33333333       0.25000000      -0.00000000 </v>
    <v>       0.41666667       0.25000000      -0.00000000 </v>
    <v>       0.50000000       0.25000000      -0.00000000 </v>
    <v>      -0.41666667       0.25000000      -0.00000000 </v>
    <v>      -0.33333333       0.25000000       0.00000000 </v>
    <v>      -0.25000000       0.25000000       0.00000000 </v>
    <v>       0.33333333       0.33333333      -0.00000000 </v>
    <v>       0.41666667       0.33333333      -0.00000000 </v>
    <v>       0.50000000       0.33333333      -0.00000000 </v>
    <v>      -0.41666667       0.33333333      -0.00000000 </v>
    <v>      -0.33333333       0.33333333      -0.00000000 </v>
    <v>       0.41666667       0.41666667      -0.00000000 </v>
    <v>       0.50000000       0.41666667      -0.00000000 </v>
    <v>      -0.41666667       0.41666667       0.00000000 </v>
    <v>       0.50000000       0.50000000      -0.00000000 </v>
    <v>       0.00000000       0.00000000       0.08333333 </v>
    <v>       0.08333333      -0.00000000       0.08333333 </v>
    <v>       0.16666667      -0.00000000       0.08333333 </v>
    <v>       0.25000000      -0.00000000       0.08333333 </v>
    <v>       0.33333333       0.00000000       0.08333333 </v>
    <v>       0.41666667      -0.00000000       0.08333333 </v>
    <v>       0.50000000      -0.00000000       0.08333333 </v>
    <v>      -0.41666667       0.00000000       0.08333333 </v>
    <v>      -0.33333333      -0.00000000       0.08333333 </v>
    <v>      -0.25000000      -0.00000000       0.08333333 </v>
    <v>      -0.16666667      -0.00000000       0.08333333 </v>
    <v>      -0.08333333       0.00000000       0.08333333 </v>
    <v>      -0.00000000       0.08333333       0.08333333 </v>
    <v>       0.16666667       0.08333333       0.08333333 </v>
    <v>       0.25000000       0.08333333       0.08333333 </v>
    <v>       0.33333333       0.08333333       0.08333333 </v>
    <v>       0.41666667       0.08333333       0.08333333 </v>
    <v>       0.50000000       0.08333333       0.08333333 </v>
    <v>      -0.41666667       0.08333333       0.08333333 </v>
    <v>      -0.33333333       0.08333333       0.08333333 </v>
    <v>      -0.25000000       0.08333333       0.08333333 </v>
    <v>      -0.16666667       0.08333333       0.08333333 </v>
    <v>      -0.08333333       0.08333333       0.08333333 </v>
    <v>       0.16666667       0.16666667       0.08333333 </v>
    <v>       0.25000000       0.16666667       0.08333333 </v>
    <v>       0.33333333       0.16666667       0.08333333 </v>
    <v>       0.41666667       0.16666667       0.08333333 </v>
    <v>       0.50000000       0.16666667       0.08333333 </v>
    <v>      -0.41666667       0.16666667       0.08333333 </v>
    <v>      -0.33333333       0.16666667       0.08333333 </v>
    <v>      -0.25000000       0.16666667       0.08333333 </v>
    <v>      -0.16666667       0.16666667       0.08333333 </v>
    <v>      -0.08333333       0.16666667       0.08333333 </v>
    <v>       0.16666667       0.25000000       0.08333333 </v>
    <v>       0.25000000       0.25000000       0.08333333 </v>
    <v>       0.33333333       0.25000000       0.08333333 </v>
    <v>       0.41666667       0.25000000       0.08333333 </v>
    <v>       0.50000000       0.25000000       0.08333333 </v>
    <v>      -0.41666667       0.25000000       0.08333333 </v>
    <v>      -0.33333333       0.25000000       0.08333333 </v>
    <v>      -0.25000000       0.25000000       0.08333333 </v>
    <v>      -0.16666667       0.25000000       0.08333333 </v>
    <v>       0.16666667       0.33333333       0.08333333 </v>
    <v>       0.25000000       0.33333333       0.08333333 </v>
    <v>       0.33333333       0.33333333       0.08333333 </v>
    <v>       0.41666667       0.33333333       0.08333333 </v>
    <v>       0.50000000       0.33333333       0.08333333 </v>
    <v>      -0.41666667       0.33333333       0.08333333 </v>
    <v>      -0.33333333       0.33333333       0.08333333 </v>
    <v>      -0.25000000       0.33333333       0.08333333 </v>
    <v>       0.16666667       0.41666667       0.08333333 </v>
    <v>       0.25000000       0.41666667       0.08333333 </v>
    <v>       0.33333333       0.41666667       0.08333333 </v>
    <v>       0.41666667       0.41666667       0.08333333 </v>
    <v>       0.50000000       0.41666667       0.08333333 </v>
    <v>      -0.41666667       0.41666667       0.08333333 </v>
    <v>      -0.33333333       0.41666667       0.08333333 </v>
    <v>       0.16666667       0.50000000       0.08333333 </v>
    <v>       0.25000000       0.50000000       0.08333333 </v>
    <v>       0.33333333       0.50000000       0.08333333 </v>
    <v>       0.41666667       0.50000000       0.08333333 </v>
    <v>       0.50000000       0.50000000       0.08333333 </v>
    <v>      -0.41666667       0.50000000       0.08333333 </v>
    <v>       0.16666667      -0.41666667       0.08333333 </v>
    <v>       0.25000000      -0.41666667       0.08333333 </v>
    <v>       0.33333333      -0.41666667       0.08333333 </v>
    <v>       0.41666667      -0.41666667       0.08333333 </v>
    <v>       0.50000000      -0.41666667       0.08333333 </v>
    <v>       0.16666667      -0.33333333       0.08333333 </v>
    <v>       0.25000000      -0.33333333       0.08333333 </v>
    <v>       0.33333333      -0.33333333       0.08333333 </v>
    <v>       0.41666667      -0.33333333       0.08333333 </v>
    <v>       0.16666667      -0.25000000       0.08333333 </v>
    <v>       0.25000000      -0.25000000       0.08333333 </v>
    <v>       0.33333333      -0.25000000       0.08333333 </v>
    <v>       0.16666667      -0.16666667       0.08333333 </v>
    <v>       0.25000000      -0.16666667       0.08333333 </v>
    <v>       0.16666667      -0.08333333       0.08333333 </v>
    <v>       0.00000000       0.00000000       0.16666667 </v>
    <v>       0.08333333       0.00000000       0.16666667 </v>
    <v>       0.16666667      -0.00000000       0.16666667 </v>
    <v>       0.25000000      -0.00000000       0.16666667 </v>
    <v>       0.33333333      -0.00000000       0.16666667 </v>
    <v>       0.41666667       0.00000000       0.16666667 </v>
    <v>       0.50000000       0.00000000       0.16666667 </v>
    <v>      -0.41666667       0.00000000       0.16666667 </v>
    <v>      -0.33333333      -0.00000000       0.16666667 </v>
    <v>      -0.25000000       0.00000000       0.16666667 </v>
    <v>      -0.16666667      -0.00000000       0.16666667 </v>
    <v>      -0.08333333       0.00000000       0.16666667 </v>
    <v>      -0.00000000       0.08333333       0.16666667 </v>
    <v>       0.08333333       0.08333333       0.16666667 </v>
    <v>       0.25000000       0.08333333       0.16666667 </v>
    <v>       0.33333333       0.08333333       0.16666667 </v>
    <v>       0.41666667       0.08333333       0.16666667 </v>
    <v>       0.50000000       0.08333333       0.16666667 </v>
    <v>      -0.41666667       0.08333333       0.16666667 </v>
    <v>      -0.33333333       0.08333333       0.16666667 </v>
    <v>      -0.25000000       0.08333333       0.16666667 </v>
    <v>      -0.16666667       0.08333333       0.16666667 </v>
    <v>      -0.08333333       0.08333333       0.16666667 </v>
    <v>      -0.00000000       0.16666667       0.16666667 </v>
    <v>       0.25000000       0.16666667       0.16666667 </v>
    <v>       0.33333333       0.16666667       0.16666667 </v>
    <v>       0.41666667       0.16666667       0.16666667 </v>
    <v>       0.50000000       0.16666667       0.16666667 </v>
    <v>      -0.41666667       0.16666667       0.16666667 </v>
    <v>      -0.33333333       0.16666667       0.16666667 </v>
    <v>      -0.25000000       0.16666667       0.16666667 </v>
    <v>      -0.16666667       0.16666667       0.16666667 </v>
    <v>      -0.08333333       0.16666667       0.16666667 </v>
    <v>       0.25000000       0.25000000       0.16666667 </v>
    <v>       0.33333333       0.25000000       0.16666667 </v>
    <v>       0.41666667       0.25000000       0.16666667 </v>
    <v>       0.50000000       0.25000000       0.16666667 </v>
    <v>      -0.41666667       0.25000000       0.16666667 </v>
    <v>      -0.33333333       0.25000000       0.16666667 </v>
    <v>      -0.25000000       0.25000000       0.16666667 </v>
    <v>      -0.16666667       0.25000000       0.16666667 </v>
    <v>      -0.08333333       0.25000000       0.16666667 </v>
    <v>       0.25000000       0.33333333       0.16666667 </v>
    <v>       0.33333333       0.33333333       0.16666667 </v>
    <v>       0.41666667       0.33333333       0.16666667 </v>
    <v>       0.50000000       0.33333333       0.16666667 </v>
    <v>      -0.41666667       0.33333333       0.16666667 </v>
    <v>      -0.33333333       0.33333333       0.16666667 </v>
    <v>      -0.25000000       0.33333333       0.16666667 </v>
    <v>      -0.16666667       0.33333333       0.16666667 </v>
    <v>       0.25000000       0.41666667       0.16666667 </v>
    <v>       0.33333333       0.41666667       0.16666667 </v>
    <v>       0.41666667       0.41666667       0.16666667 </v>
    <v>       0.50000000       0.41666667       0.16666667 </v>
    <v>      -0.41666667       0.41666667       0.16666667 </v>
    <v>      -0.33333333       0.41666667       0.16666667 </v>
    <v>      -0.25000000       0.41666667       0.16666667 </v>
    <v>       0.25000000       0.50000000       0.16666667 </v>
    <v>       0.33333333       0.50000000       0.16666667 </v>
    <v>       0.41666667       0.50000000       0.16666667 </v>
    <v>       0.50000000       0.50000000       0.16666667 </v>
    <v>      -0.41666667       0.50000000       0.16666667 </v>
    <v>      -0.33333333       0.50000000       0.16666667 </v>
    <v>       0.25000000      -0.41666667       0.16666667 </v>
    <v>       0.33333333      -0.41666667       0.16666667 </v>
    <v>       0.41666667      -0.41666667       0.16666667 </v>
    <v>       0.50000000      -0.41666667       0.16666667 </v>
    <v>      -0.41666667      -0.41666667       0.16666667 </v>
    <v>       0.25000000      -0.33333333       0.16666667 </v>
    <v>       0.33333333      -0.33333333       0.16666667 </v>
    <v>       0.41666667      -0.33333333       0.16666667 </v>
    <v>       0.50000000      -0.33333333       0.16666667 </v>
    <v>       0.25000000      -0.25000000       0.16666667 </v>
    <v>       0.33333333      -0.25000000       0.16666667 </v>
    <v>       0.41666667      -0.25000000       0.16666667 </v>
    <v>       0.25000000      -0.16666667       0.16666667 </v>
    <v>       0.33333333      -0.16666667       0.16666667 </v>
    <v>       0.25000000      -0.08333333       0.16666667 </v>
    <v>      -0.00000000      -0.00000000       0.25000000 </v>
    <v>       0.08333333       0.00000000       0.25000000 </v>
    <v>       0.16666667       0.00000000       0.25000000 </v>
    <v>       0.25000000      -0.00000000       0.25000000 </v>
    <v>       0.33333333      -0.00000000       0.25000000 </v>
    <v>       0.41666667      -0.00000000       0.25000000 </v>
    <v>       0.50000000      -0.00000000       0.25000000 </v>
    <v>      -0.41666667      -0.00000000       0.25000000 </v>
    <v>      -0.33333333      -0.00000000       0.25000000 </v>
    <v>      -0.25000000       0.00000000       0.25000000 </v>
    <v>      -0.16666667      -0.00000000       0.25000000 </v>
    <v>      -0.08333333      -0.00000000       0.25000000 </v>
    <v>      -0.00000000       0.08333333       0.25000000 </v>
    <v>       0.08333333       0.08333333       0.25000000 </v>
    <v>       0.16666667       0.08333333       0.25000000 </v>
    <v>       0.33333333       0.08333333       0.25000000 </v>
    <v>       0.41666667       0.08333333       0.25000000 </v>
    <v>       0.50000000       0.08333333       0.25000000 </v>
    <v>      -0.41666667       0.08333333       0.25000000 </v>
    <v>      -0.33333333       0.08333333       0.25000000 </v>
    <v>      -0.25000000       0.08333333       0.25000000 </v>
    <v>      -0.16666667       0.08333333       0.25000000 </v>
    <v>      -0.08333333       0.08333333       0.25000000 </v>
    <v>       0.00000000       0.16666667       0.25000000 </v>
    <v>       0.08333333       0.16666667       0.25000000 </v>
    <v>       0.33333333       0.16666667       0.25000000 </v>
    <v>       0.41666667       0.16666667       0.25000000 </v>
    <v>       0.50000000       0.16666667       0.25000000 </v>
    <v>      -0.41666667       0.16666667       0.25000000 </v>
    <v>      -0.33333333       0.16666667       0.25000000 </v>
    <v>      -0.25000000       0.16666667       0.25000000 </v>
    <v>      -0.16666667       0.16666667       0.25000000 </v>
[...]
       <r>    7.5395    0.0000 </r>
       <r>    8.2912    0.0000 </r>
       <r>    9.0886    0.0000 </r>
       <r>    9.6229    0.0000 </r>
       <r>   10.1737    0.0000 </r>
      </set>
      <set comment="kpoint 158">
       <r>  -29.4843    1.0000 </r>
       <r>  -13.9802    1.0000 </r>
       <r>  -13.0271    1.0000 </r>
       <r>  -13.0068    1.0000 </r>
       <r>  -12.9558    1.0000 </r>
       <r>   -2.5389    1.0000 </r>
       <r>   -2.0512    1.0000 </r>
       <r>   -2.0390    1.0000 </r>
       <r>    4.4063    0.0000 </r>
       <r>    5.5372    0.0000 </r>
       <r>    7.3680    0.0000 </r>
       <r>    7.7382    0.0000 </r>
       <r>    8.2365    0.0000 </r>
       <r>    8.8792    0.0000 </r>
       <r>    9.1354    0.0000 </r>
       <r>   10.5900    0.0000 </r>
      </set>
      <set comment="kpoint 159">
       <r>  -29.4843    1.0000 </r>
       <r>  -13.9558    1.0000 </r>
       <r>  -13.0165    1.0000 </r>
       <r>  -13.0032    1.0000 </r>
       <r>  -13.0032    1.0000 </r>
       <r>   -2.5528    1.0000 </r>
       <r>   -1.9934    1.0000 </r>
       <r>   -1.9934    1.0000 </r>
       <r>    4.2164    0.0000 </r>
       <r>    5.3365    0.0000 </r>
       <r>    7.5763    0.0000 </r>
       <r>    7.6389    0.0000 </r>
       <r>    8.5114    0.0000 </r>
       <r>    8.9018    0.0000 </r>
       <r>    8.9018    0.0000 </r>
       <r>   10.7019    0.0000 </r>
      </set>
      <set comment="kpoint 160">
       <r>  -29.4840    1.0000 </r>
       <r>  -13.9439    1.0000 </r>
       <r>  -13.0493    1.0000 </r>
       <r>  -13.0036    1.0000 </r>
       <r>  -12.9870    1.0000 </r>
       <r>   -2.5318    1.0000 </r>
       <r>   -2.0550    1.0000 </r>
       <r>   -2.0115    1.0000 </r>
       <r>    4.2536    0.0000 </r>
       <r>    5.5738    0.0000 </r>
       <r>    7.5356    0.0000 </r>
       <r>    7.7055    0.0000 </r>
       <r>    8.0787    0.0000 </r>
       <r>    8.9779    0.0000 </r>
       <r>    9.1866    0.0000 </r>
       <r>   10.8721    0.0000 </r>
      </set>
      <set comment="kpoint 161">
       <r>  -29.4839    1.0000 </r>
       <r>  -13.9727    1.0000 </r>
       <r>  -13.0539    1.0000 </r>
       <r>  -13.0001    1.0000 </r>
       <r>  -12.9472    1.0000 </r>
       <r>   -2.4856    1.0000 </r>
       <r>   -2.1960    1.0000 </r>
       <r>   -2.0329    1.0000 </r>
       <r>    4.4981    0.0000 </r>
       <r>    5.9545    0.0000 </r>
       <r>    7.2062    0.0000 </r>
       <r>    7.7230    0.0000 </r>
       <r>    7.9380    0.0000 </r>
       <r>    8.8071    0.0000 </r>
       <r>    9.5308    0.0000 </r>
       <r>   10.6115    0.0000 </r>
      </set>
      <set comment="kpoint 162">
       <r>  -29.4838    1.0000 </r>
       <r>  -13.9465    1.0000 </r>
       <r>  -13.0575    1.0000 </r>
       <r>  -13.0094    1.0000 </r>
       <r>  -12.9699    1.0000 </r>
       <r>   -2.5122    1.0000 </r>
       <r>   -2.0742    1.0000 </r>
       <r>   -2.0550    1.0000 </r>
       <r>    4.3317    0.0000 </r>
       <r>    5.7185    0.0000 </r>
       <r>    7.4219    0.0000 </r>
       <r>    7.7973    0.0000 </r>
       <r>    7.8525    0.0000 </r>
       <r>    9.0761    0.0000 </r>
       <r>    9.2626    0.0000 </r>
       <r>   10.8857    0.0000 </r>
      </set>
      <set comment="kpoint 163">
       <r>  -29.4839    1.0000 </r>
       <r>  -13.9197    1.0000 </r>
       <r>  -13.0613    1.0000 </r>
       <r>  -13.0057    1.0000 </r>
       <r>  -13.0057    1.0000 </r>
       <r>   -2.5393    1.0000 </r>
       <r>   -2.0081    1.0000 </r>
       <r>   -2.0081    1.0000 </r>
       <r>    4.1385    0.0000 </r>
       <r>    5.4965    0.0000 </r>
       <r>    7.6548    0.0000 </r>
       <r>    7.8163    0.0000 </r>
       <r>    7.9707    0.0000 </r>
       <r>    9.0699    0.0000 </r>
       <r>    9.0699    0.0000 </r>
       <r>   11.1100    0.0000 </r>
      </set>
     </set>
    </set>
   </array>
  </eigenvalues>
  <separator name="orbital magnetization" >
   <v name="MAGDIPOLOUT">      0.00000000      0.00000000      0.00000000</v>
  </separator>
  <dos>
   <i name="efermi">     -1.54822615 </i>
   <total>
    <array>
     <dimension dim="1">gridpoints</dimension>
     <dimension dim="2">spin</dimension>
     <field>energy</field>
     <field>total</field>
     <field>integrated</field>
     <set>
      <set comment="spin 1">
       <r>   -31.6381     0.0000     0.0000 </r>
       <r>   -31.4807     0.0000     0.0000 </r>
       <r>   -31.3233     0.0000     0.0000 </r>
       <r>   -31.1658     0.0000     0.0000 </r>
       <r>   -31.0084     0.0000     0.0000 </r>
       <r>   -30.8510     0.0000     0.0000 </r>
       <r>   -30.6935     0.0000     0.0000 </r>
       <r>   -30.5361     0.0000     0.0000 </r>
       <r>   -30.3787     0.0000     0.0000 </r>
       <r>   -30.2212     0.0000     0.0000 </r>
       <r>   -30.0638     0.0000     0.0000 </r>
       <r>   -29.9064     0.0000     0.0000 </r>
       <r>   -29.7489     0.0000     0.0000 </r>
       <r>   -29.5915     0.0000     0.0000 </r>
       <r>   -29.4340    12.7036     2.0000 </r>
       <r>   -29.2766     0.0000     2.0000 </r>
       <r>   -29.1192     0.0000     2.0000 </r>
       <r>   -28.9617     0.0000     2.0000 </r>
       <r>   -28.8043     0.0000     2.0000 </r>
       <r>   -28.6469     0.0000     2.0000 </r>
       <r>   -28.4894     0.0000     2.0000 </r>
       <r>   -28.3320     0.0000     2.0000 </r>
       <r>   -28.1746     0.0000     2.0000 </r>
       <r>   -28.0171     0.0000     2.0000 </r>
       <r>   -27.8597     0.0000     2.0000 </r>
       <r>   -27.7023     0.0000     2.0000 </r>
       <r>   -27.5448     0.0000     2.0000 </r>
       <r>   -27.3874     0.0000     2.0000 </r>
       <r>   -27.2299     0.0000     2.0000 </r>
       <r>   -27.0725     0.0000     2.0000 </r>
       <r>   -26.9151     0.0000     2.0000 </r>
       <r>   -26.7576     0.0000     2.0000 </r>
       <r>   -26.6002     0.0000     2.0000 </r>
       <r>   -26.4428     0.0000     2.0000 </r>
       <r>   -26.2853     0.0000     2.0000 </r>
       <r>   -26.1279     0.0000     2.0000 </r>
       <r>   -25.9705     0.0000     2.0000 </r>
       <r>   -25.8130     0.0000     2.0000 </r>
       <r>   -25.6556     0.0000     2.0000 </r>
       <r>   -25.4981     0.0000     2.0000 </r>
       <r>   -25.3407     0.0000     2.0000 </r>
       <r>   -25.1833     0.0000     2.0000 </r>
       <r>   -25.0258     0.0000     2.0000 </r>
       <r>   -24.8684     0.0000     2.0000 </r>
       <r>   -24.7110     0.0000     2.0000 </r>
       <r>   -24.5535     0.0000     2.0000 </r>
       <r>   -24.3961     0.0000     2.0000 </r>
       <r>   -24.2387     0.0000     2.0000 </r>
       <r>   -24.0812     0.0000     2.0000 </r>
       <r>   -23.9238     0.0000     2.0000 </r>
       <r>   -23.7664     0.0000     2.0000 </r>
       <r>   -23.6089     0.0000     2.0000 </r>
       <r>   -23.4515     0.0000     2.0000 </r>
       <r>   -23.2940     0.0000     2.0000 </r>
       <r>   -23.1366     0.0000     2.0000 </r>
       <r>   -22.9792     0.0000     2.0000 </r>
       <r>   -22.8217     0.0000     2.0000 </r>
       <r>   -22.6643     0.0000     2.0000 </r>
       <r>   -22.5069     0.0000     2.0000 </r>
       <r>   -22.3494     0.0000     2.0000 </r>
       <r>   -22.1920     0.0000     2.0000 </r>
       <r>   -22.0346     0.0000     2.0000 </r>
       <r>   -21.8771     0.0000     2.0000 </r>
       <r>   -21.7197     0.0000     2.0000 </r>
       <r>   -21.5623     0.0000     2.0000 </r>
       <r>   -21.4048     0.0000     2.0000 </r>
       <r>   -21.2474     0.0000     2.0000 </r>
       <r>   -21.0899     0.0000     2.0000 </r>
       <r>   -20.9325     0.0000     2.0000 </r>
       <r>   -20.7751     0.0000     2.0000 </r>
       <r>   -20.6176     0.0000     2.0000 </r>
       <r>   -20.4602     0.0000     2.0000 </r>
       <r>   -20.3028     0.0000     2.0000 </r>
       <r>   -20.1453     0.0000     2.0000 </r>
       <r>   -19.9879     0.0000     2.0000 </r>
       <r>   -19.8305     0.0000     2.0000 </r>
       <r>   -19.6730     0.0000     2.0000 </r>
       <r>   -19.5156     0.0000     2.0000 </r>
       <r>   -19.3582     0.0000     2.0000 </r>
       <r>   -19.2007     0.0000     2.0000 </r>
       <r>   -19.0433     0.0000     2.0000 </r>
       <r>   -18.8858     0.0000     2.0000 </r>
       <r>   -18.7284     0.0000     2.0000 </r>
       <r>   -18.5710     0.0000     2.0000 </r>
       <r>   -18.4135     0.0000     2.0000 </r>
       <r>   -18.2561     0.0000     2.0000 </r>
       <r>   -18.0987     0.0000     2.0000 </r>
       <r>   -17.9412     0.0000     2.0000 </r>
       <r>   -17.7838     0.0000     2.0000 </r>
       <r>   -17.6264     0.0000     2.0000 </r>
       <r>   -17.4689     0.0000     2.0000 </r>
       <r>   -17.3115     0.0000     2.0000 </r>
       <r>   -17.1541     0.0000     2.0000 </r>
       <r>   -16.9966     0.0000     2.0000 </r>
       <r>   -16.8392     0.0000     2.0000 </r>
       <r>   -16.6817     0.0000     2.0000 </r>
       <r>   -16.5243     0.0000     2.0000 </r>
       <r>   -16.3669     0.0000     2.0000 </r>
       <r>   -16.2094     0.0000     2.0000 </r>
       <r>   -16.0520     0.0000     2.0000 </r>
       <r>   -15.8946     0.0000     2.0000 </r>
       <r>   -15.7371     0.0000     2.0000 </r>
       <r>   -15.5797     0.0000     2.0000 </r>
       <r>   -15.4223     0.0000     2.0000 </r>
       <r>   -15.2648     0.0000     2.0000 </r>
       <r>   -15.1074     0.0000     2.0000 </r>
       <r>   -14.9499     0.0000     2.0000 </r>
       <r>   -14.7925     0.0000     2.0000 </r>
       <r>   -14.6351     0.0000     2.0000 </r>
       <r>   -14.4776     0.0000     2.0000 </r>
       <r>   -14.3202     0.0000     2.0000 </r>
       <r>   -14.1628     0.7441     2.1171 </r>
       <r>   -14.0053     4.8943     3.8029 </r>
       <r>   -13.8479     0.0221     4.0000 </r>
       <r>   -13.6905     0.0000     4.0000 </r>
       <r>   -13.5330     0.0000     4.0000 </r>
       <r>   -13.3756     0.0000     4.0000 </r>
       <r>   -13.2182     0.0000     4.0000 </r>
       <r>   -13.0607     0.0735     4.0116 </r>
       <r>   -12.9033     9.6641     8.2888 </r>
       <r>   -12.7458     4.7497     9.9330 </r>
       <r>   -12.5884     0.0000    10.0000 </r>
       <r>   -12.4310     0.0000    10.0000 </r>
       <r>   -12.2735     0.0000    10.0000 </r>
       <r>   -12.1161     0.0000    10.0000 </r>
       <r>   -11.9587     0.0000    10.0000 </r>
       <r>   -11.8012     0.0000    10.0000 </r>
       <r>   -11.6438     0.0000    10.0000 </r>
       <r>   -11.4864     0.0000    10.0000 </r>
       <r>   -11.3289     0.0000    10.0000 </r>
       <r>   -11.1715     0.0000    10.0000 </r>
       <r>   -11.0141     0.0000    10.0000 </r>
       <r>   -10.8566     0.0000    10.0000 </r>
       <r>   -10.6992     0.0000    10.0000 </r>
       <r>   -10.5417     0.0000    10.0000 </r>
       <r>   -10.3843     0.0000    10.0000 </r>
       <r>   -10.2269     0.0000    10.0000 </r>
       <r>   -10.0694     0.0000    10.0000 </r>
       <r>    -9.9120     0.0000    10.0000 </r>
       <r>    -9.7546     0.0000    10.0000 </r>
       <r>    -9.5971     0.0000    10.0000 </r>
       <r>    -9.4397     0.0000    10.0000 </r>
       <r>    -9.2823     0.0000    10.0000 </r>
       <r>    -9.1248     0.0000    10.0000 </r>
       <r>    -8.9674     0.0000    10.0000 </r>
       <r>    -8.8100     0.0000    10.0000 </r>
       <r>    -8.6525     0.0000    10.0000 </r>
       <r>    -8.4951     0.0000    10.0000 </r>
       <r>    -8.3376     0.0000    10.0000 </r>
       <r>    -8.1802     0.0000    10.0000 </r>
       <r>    -8.0228     0.0000    10.0000 </r>
       <r>    -7.8653     0.0000    10.0000 </r>
       <r>    -7.7079     0.0000    10.0000 </r>
       <r>    -7.5505     0.0000    10.0000 </r>
       <r>    -7.3930     0.0000    10.0000 </r>
       <r>    -7.2356     0.0000    10.0000 </r>
       <r>    -7.0782     0.0000    10.0000 </r>
       <r>    -6.9207     0.0000    10.0000 </r>
       <r>    -6.7633     0.0000    10.0000 </r>
       <r>    -6.6059     0.0000    10.0000 </r>
       <r>    -6.4484     0.0000    10.0000 </r>
       <r>    -6.2910     0.0000    10.0000 </r>
       <r>    -6.1335     0.0000    10.0000 </r>
       <r>    -5.9761     0.0000    10.0000 </r>
       <r>    -5.8187     0.0000    10.0000 </r>
       <r>    -5.6612     0.0000    10.0000 </r>
       <r>    -5.5038     0.0000    10.0000 </r>
       <r>    -5.3464     0.0000    10.0000 </r>
       <r>    -5.1889     0.0000    10.0000 </r>
       <r>    -5.0315     0.0000    10.0000 </r>
       <r>    -4.8741     0.0000    10.0000 </r>
       <r>    -4.7166     0.0000    10.0000 </r>
       <r>    -4.5592     0.0000    10.0000 </r>
       <r>    -4.4018     0.0000    10.0000 </r>
       <r>    -4.2443     0.0000    10.0000 </r>
       <r>    -4.0869     0.0000    10.0000 </r>
       <r>    -3.9294     0.0000    10.0000 </r>
       <r>    -3.7720     0.0000    10.0000 </r>
       <r>    -3.6146     0.0000    10.0000 </r>
       <r>    -3.4571     0.0000    10.0000 </r>
       <r>    -3.2997     0.0000    10.0000 </r>
       <r>    -3.1423     0.0000    10.0000 </r>
       <r>    -2.9848     0.0000    10.0000 </r>
       <r>    -2.8274     0.4115    10.0694 </r>
       <r>    -2.6700     1.0755    10.4054 </r>
       <r>    -2.5125     3.9730    11.4125 </r>
       <r>    -2.3551     0.9551    11.8298 </r>
       <r>    -2.1976     1.9666    12.3941 </r>
       <r>    -2.0402     8.5843    14.3110 </r>
       <r>    -1.8828     2.7081    15.6289 </r>
       <r>    -1.7253     0.7405    15.9974 </r>
       <r>    -1.5679     0.0000    16.0000 </r>
       <r>    -1.4105     0.0000    16.0000 </r>
       <r>    -1.2530     0.0000    16.0000 </r>
       <r>    -1.0956     0.0000    16.0000 </r>
       <r>    -0.9382     0.0000    16.0000 </r>
       <r>    -0.7807     0.0000    16.0000 </r>
       <r>    -0.6233     0.0000    16.0000 </r>
       <r>    -0.4659     0.0000    16.0000 </r>
       <r>    -0.3084     0.0000    16.0000 </r>
       <r>    -0.1510     0.0000    16.0000 </r>
       <r>     0.0065     0.0000    16.0000 </r>
       <r>     0.1639     0.0000    16.0000 </r>
       <r>     0.3213     0.0000    16.0000 </r>
       <r>     0.4788     0.0000    16.0000 </r>
       <r>     0.6362     0.0000    16.0000 </r>
       <r>     0.7936     0.0000    16.0000 </r>
       <r>     0.9511     0.0000    16.0000 </r>
       <r>     1.1085     0.0000    16.0000 </r>
       <r>     1.2659     0.0000    16.0000 </r>
       <r>     1.4234     0.0000    16.0000 </r>
       <r>     1.5808     0.0000    16.0000 </r>
       <r>     1.7382     0.0000    16.0000 </r>
       <r>     1.8957     0.0000    16.0000 </r>
       <r>     2.0531     0.0000    16.0000 </r>
       <r>     2.2106     0.0000    16.0000 </r>
       <r>     2.3680     0.0000    16.0000 </r>
       <r>     2.5254     0.0000    16.0000 </r>
       <r>     2.6829     0.0000    16.0000 </r>
       <r>     2.8403     0.0000    16.0012 </r>
       <r>     2.9977     0.0441    16.0174 </r>
       <r>     3.1552     0.0000    16.0174 </r>
       <r>     3.3126     0.0055    16.0321 </r>
       <r>     3.4700     0.0000    16.0683 </r>
       <r>     3.6275     0.0000    16.0752 </r>
       <r>     3.7849     0.1764    16.1308 </r>
       <r>     3.9423     0.2174    16.1650 </r>
       <r>     4.0998     0.0000    16.1956 </r>
       <r>     4.2572     0.5629    16.2877 </r>
       <r>     4.4147     0.5090    16.4320 </r>
       <r>     4.5721     0.3015    16.5452 </r>
       <r>     4.7295     0.6882    16.7681 </r>
       <r>     4.8870     0.8722    17.0841 </r>
       <r>     5.0444     1.5441    17.4445 </r>
       <r>     5.2018     0.7954    17.7711 </r>
       <r>     5.3593     1.1494    18.1671 </r>
       <r>     5.5167     0.4471    18.3968 </r>
       <r>     5.6741     1.5943    18.8448 </r>
       <r>     5.8316     0.6210    19.1244 </r>
       <r>     5.9890     0.7347    19.3032 </r>
       <r>     6.1464     2.1159    19.8123 </r>
       <r>     6.3039     0.8294    19.9755 </r>
       <r>     6.4613     0.3736    20.1352 </r>
       <r>     6.6188     1.2198    20.3981 </r>
       <r>     6.7762     0.3723    20.5401 </r>
       <r>     6.9336     0.9733    21.0097 </r>
       <r>     7.0911     1.2100    21.3248 </r>
       <r>     7.2485     2.2468    21.9625 </r>
       <r>     7.4059     1.2621    22.3978 </r>
       <r>     7.5634     2.2929    23.1851 </r>
       <r>     7.7208     2.6926    23.8776 </r>
       <r>     7.8782     2.1491    24.6196 </r>
       <r>     8.0357     2.2910    25.4093 </r>
       <r>     8.1931     1.2405    25.9279 </r>
       <r>     8.3506     1.5756    26.4668 </r>
       <r>     8.5080     0.2649    26.7743 </r>
       <r>     8.6654     1.8812    27.2302 </r>
       <r>     8.8229     0.6847    27.5279 </r>
       <r>     8.9803     2.1787    27.9159 </r>
       <r>     9.1377     0.4030    28.0322 </r>
       <r>     9.2952     1.1392    28.3634 </r>
       <r>     9.4526     3.1613    29.1470 </r>
       <r>     9.6100     1.5569    29.7879 </r>
       <r>     9.7675     0.5119    29.9568 </r>
       <r>     9.9249     1.8069    30.3875 </r>
       <r>    10.0823     1.4992    30.7430 </r>
       <r>    10.2398     0.3955    30.8424 </r>
       <r>    10.3972     0.3922    31.0571 </r>
       <r>    10.5547     0.7658    31.2826 </r>
       <r>    10.7121     0.5684    31.5270 </r>
       <r>    10.8695     0.0285    31.5693 </r>
       <r>    11.0270     0.1926    31.7201 </r>
       <r>    11.1844     0.2184    31.8214 </r>
       <r>    11.3418     0.1753    31.8875 </r>
       <r>    11.4993     0.1764    31.9317 </r>
       <r>    11.6567     0.0000    31.9317 </r>
       <r>    11.8141     0.2353    31.9687 </r>
       <r>    11.9716     0.0697    31.9797 </r>
       <r>    12.1290     0.0000    31.9826 </r>
       <r>    12.2864     0.0000    31.9826 </r>
       <r>    12.4439     0.0000    31.9826 </r>
       <r>    12.6013     0.0000    31.9826 </r>
       <r>    12.7588     0.1029    31.9988 </r>
       <r>    12.9162     0.0000    31.9988 </r>
       <r>    13.0736     0.0000    31.9988 </r>
       <r>    13.2311     0.0000    31.9988 </r>
       <r>    13.3885     0.0000    31.9988 </r>
       <r>    13.5459     0.0000    32.0000 </r>
       <r>    13.7034     0.0000    32.0000 </r>
       <r>    13.8608     0.0000    32.0000 </r>
       <r>    14.0182     0.0000    32.0000 </r>
       <r>    14.1757     0.0000    32.0000 </r>
       <r>    14.3331     0.0000    32.0000 </r>
       <r>    14.4905     0.0000    32.0000 </r>
       <r>    14.6480     0.0000    32.0000 </r>
       <r>    14.8054     0.0000    32.0000 </r>
       <r>    14.9629     0.0000    32.0000 </r>
       <r>    15.1203     0.0000    32.0000 </r>
       <r>    15.2777     0.0000    32.0000 </r>
       <r>    15.4352     0.0000    32.0000 </r>
       <r>    15.5926     0.0000    32.0000 </r>
      </set>
     </set>
    </array>
   </total>
  </dos>
 </calculation>
 <structure name="finalpos" >
  <crystal>
   <varray name="basis" >
    <v>      -3.29454072       0.00000000       3.29454072 </v>
    <v>       0.00000000       3.29454072       3.29454072 </v>
    <v>      -3.29454072       3.29454072       0.00000000 </v>
   </varray>
   <i name="volume">     71.51788022 </i>
   <varray name="rec_basis" >
    <v>      -0.15176622      -0.15176622       0.15176622 </v>
    <v>       0.15176622       0.15176622       0.15176622 </v>
    <v>      -0.15176622       0.15176622      -0.15176622 </v>
   </varray>
  </crystal>
  <varray name="positions" >
   <v>       0.00000000       0.00000000       0.00000000 </v>
   <v>       0.49999996       0.50000004       0.49999996 </v>
  </varray>
 </structure>
</modeling>
