<?xml version="1.0" encoding="ISO-8859-1"?>
<modeling>
 <generator>
  <i name="program" type="string">vasp </i>
  <i name="version" type="string">5.4.4.18Apr17-6-g9f103f2a35  </i>
  <i name="subversion" type="string">(build Aug 24 2017 11:22:49) complex            parallel </i>
  <i name="platform" type="string">LinuxIFC </i>
  <i name="date" type="string">2023 12 25 </i>
  <i name="time" type="string">13:07:53 </i>
 </generator>
 <incar>
  <i type="string" name="PREC">accurate</i>
  <i type="string" name="ALGO"> Normal</i>
  <i type="int" name="NELM">   100</i>
  <i type="int" name="IBRION">     8</i>
  <i name="EDIFF">      0.00000001</i>
  <i name="SYMPREC">      0.00000001</i>
  <i name="ENCUT">    520.00000000</i>
  <i type="logical" name="LREAL"> F  </i>
  <i type="int" name="ISMEAR">     0</i>
  <i name="SIGMA">      0.01000000</i>
  <i type="logical" name="LWAVE"> F  </i>
  <v type="int" name="KPOINT_BSE">    -1     0     0     0</v>
  <i type="int" name="NELM">   100</i>
  <i type="logical" name="LPEAD"> T  </i>
  <i type="logical" name="LEPSILON"> T  </i>
 </incar>
 <structure name="primitive_cell" >
  <crystal>
   <varray name="basis" >
    <v>      -2.00861924       0.00000000       2.00861924 </v>
    <v>       0.00000000       2.00861924       2.00861924 </v>
    <v>      -2.00861924       2.00861924       0.00000000 </v>
   </varray>
   <i name="volume">     16.20775448 </i>
   <varray name="rec_basis" >
    <v>      -0.24892722      -0.24892722       0.24892722 </v>
    <v>       0.24892722       0.24892722       0.24892722 </v>
    <v>      -0.24892722       0.24892722      -0.24892722 </v>
   </varray>
  </crystal>
  <varray name="positions" >
   <v>       0.00000000       0.00000000       0.00000000 </v>
   <v>       0.49999996      -0.49999996       0.49999996 </v>
  </varray>
 </structure>
 <varray name="primitive_index" >
  <v type="int" >        1 </v>
  <v type="int" >        2 </v>
 </varray>
 <kpoints>
  <generation param="Gamma">
   <v type="int" name="divisions">      12       12       12 </v>
   <v name="usershift">      0.00000000       0.00000000       0.00000000 </v>
   <v name="genvec1">      0.08333333      -0.00000000      -0.00000000 </v>
   <v name="genvec2">     -0.00000000       0.08333333       0.00000000 </v>
   <v name="genvec3">      0.00000000       0.00000000       0.08333333 </v>
   <v name="shift">      0.00000000       0.00000000       0.00000000 </v>
  </generation>
  <varray name="kpointlist" >
   <v>       0.00000000       0.00000000       0.00000000 </v>
   <v>       0.08333333      -0.00000000      -0.00000000 </v>
   <v>       0.16666667      -0.00000000      -0.00000000 </v>
   <v>       0.25000000       0.00000000       0.00000000 </v>
   <v>       0.33333333      -0.00000000      -0.00000000 </v>
   <v>       0.41666667       0.00000000       0.00000000 </v>
   <v>       0.50000000       0.00000000       0.00000000 </v>
   <v>       0.08333333       0.08333333       0.00000000 </v>
   <v>       0.16666667       0.08333333       0.00000000 </v>
   <v>       0.25000000       0.08333333       0.00000000 </v>
   <v>       0.33333333       0.08333333       0.00000000 </v>
   <v>       0.41666667       0.08333333       0.00000000 </v>
   <v>       0.50000000       0.08333333       0.00000000 </v>
   <v>      -0.41666667       0.08333333      -0.00000000 </v>
   <v>      -0.33333333       0.08333333      -0.00000000 </v>
   <v>      -0.25000000       0.08333333       0.00000000 </v>
   <v>      -0.16666667       0.08333333       0.00000000 </v>
   <v>      -0.08333333       0.08333333       0.00000000 </v>
   <v>       0.16666667       0.16666667       0.00000000 </v>
   <v>       0.25000000       0.16666667       0.00000000 </v>
   <v>       0.33333333       0.16666667       0.00000000 </v>
   <v>       0.41666667       0.16666667       0.00000000 </v>
   <v>       0.50000000       0.16666667       0.00000000 </v>
   <v>      -0.41666667       0.16666667      -0.00000000 </v>
   <v>      -0.33333333       0.16666667       0.00000000 </v>
   <v>      -0.25000000       0.16666667      -0.00000000 </v>
   <v>      -0.16666667       0.16666667       0.00000000 </v>
   <v>       0.25000000       0.25000000       0.00000000 </v>
   <v>       0.33333333       0.25000000       0.00000000 </v>
   <v>       0.41666667       0.25000000       0.00000000 </v>
   <v>       0.50000000       0.25000000       0.00000000 </v>
   <v>      -0.41666667       0.25000000       0.00000000 </v>
   <v>      -0.33333333       0.25000000      -0.00000000 </v>
   <v>      -0.25000000       0.25000000      -0.00000000 </v>
   <v>       0.33333333       0.33333333       0.00000000 </v>
   <v>       0.41666667       0.33333333       0.00000000 </v>
   <v>       0.50000000       0.33333333       0.00000000 </v>
   <v>      -0.41666667       0.33333333       0.00000000 </v>
   <v>      -0.33333333       0.33333333       0.00000000 </v>
   <v>       0.41666667       0.41666667       0.00000000 </v>
   <v>       0.50000000       0.41666667       0.00000000 </v>
   <v>      -0.41666667       0.41666667      -0.00000000 </v>
   <v>       0.50000000       0.50000000       0.00000000 </v>
   <v>       0.08333333       0.00000000       0.08333333 </v>
   <v>       0.16666667       0.00000000       0.08333333 </v>
   <v>       0.25000000      -0.00000000       0.08333333 </v>
   <v>       0.33333333       0.00000000       0.08333333 </v>
   <v>       0.41666667      -0.00000000       0.08333333 </v>
   <v>       0.50000000       0.00000000       0.08333333 </v>
   <v>      -0.41666667       0.00000000       0.08333333 </v>
   <v>      -0.33333333      -0.00000000       0.08333333 </v>
   <v>      -0.25000000       0.00000000       0.08333333 </v>
   <v>      -0.16666667      -0.00000000       0.08333333 </v>
   <v>      -0.08333333       0.00000000       0.08333333 </v>
   <v>       0.25000000       0.16666667       0.08333333 </v>
   <v>       0.33333333       0.16666667       0.08333333 </v>
   <v>       0.41666667       0.16666667       0.08333333 </v>
   <v>       0.50000000       0.16666667       0.08333333 </v>
   <v>      -0.41666667       0.16666667       0.08333333 </v>
   <v>       0.16666667       0.25000000       0.08333333 </v>
   <v>       0.33333333       0.25000000       0.08333333 </v>
   <v>       0.41666667       0.25000000       0.08333333 </v>
   <v>       0.50000000       0.25000000       0.08333333 </v>
   <v>      -0.41666667       0.25000000       0.08333333 </v>
   <v>      -0.33333333       0.25000000       0.08333333 </v>
   <v>      -0.25000000       0.25000000       0.08333333 </v>
   <v>      -0.16666667       0.25000000       0.08333333 </v>
   <v>       0.16666667       0.33333333       0.08333333 </v>
   <v>       0.25000000       0.33333333       0.08333333 </v>
   <v>       0.41666667       0.33333333       0.08333333 </v>
   <v>       0.50000000       0.33333333       0.08333333 </v>
   <v>      -0.41666667       0.33333333       0.08333333 </v>
   <v>      -0.33333333       0.33333333       0.08333333 </v>
   <v>      -0.25000000       0.33333333       0.08333333 </v>
   <v>       0.16666667       0.41666667       0.08333333 </v>
   <v>       0.25000000       0.41666667       0.08333333 </v>
   <v>       0.33333333       0.41666667       0.08333333 </v>
   <v>       0.50000000       0.41666667       0.08333333 </v>
   <v>      -0.41666667       0.41666667       0.08333333 </v>
   <v>      -0.33333333       0.41666667       0.08333333 </v>
   <v>       0.16666667       0.50000000       0.08333333 </v>
   <v>       0.25000000       0.50000000       0.08333333 </v>
   <v>       0.33333333       0.50000000       0.08333333 </v>
   <v>       0.41666667       0.50000000       0.08333333 </v>
   <v>      -0.41666667       0.50000000       0.08333333 </v>
   <v>       0.16666667      -0.41666667       0.08333333 </v>
   <v>       0.25000000      -0.41666667       0.08333333 </v>
   <v>       0.33333333      -0.41666667       0.08333333 </v>
   <v>       0.41666667      -0.41666667       0.08333333 </v>
   <v>       0.50000000      -0.41666667       0.08333333 </v>
   <v>       0.16666667      -0.33333333       0.08333333 </v>
   <v>       0.25000000      -0.33333333       0.08333333 </v>
   <v>       0.33333333      -0.33333333       0.08333333 </v>
   <v>       0.41666667      -0.33333333       0.08333333 </v>
   <v>       0.16666667      -0.25000000       0.08333333 </v>
   <v>       0.25000000      -0.25000000       0.08333333 </v>
   <v>       0.33333333      -0.25000000       0.08333333 </v>
   <v>       0.16666667      -0.16666667       0.08333333 </v>
   <v>       0.25000000      -0.16666667       0.08333333 </v>
   <v>       0.16666667      -0.08333333       0.08333333 </v>
   <v>       0.16666667       0.00000000       0.16666667 </v>
   <v>       0.25000000       0.00000000       0.16666667 </v>
   <v>       0.33333333      -0.00000000       0.16666667 </v>
   <v>       0.41666667      -0.00000000       0.16666667 </v>
   <v>       0.50000000      -0.00000000       0.16666667 </v>
   <v>      -0.41666667      -0.00000000       0.16666667 </v>
   <v>      -0.33333333       0.00000000       0.16666667 </v>
   <v>      -0.25000000      -0.00000000       0.16666667 </v>
   <v>      -0.16666667       0.00000000       0.16666667 </v>
   <v>       0.50000000       0.33333333       0.16666667 </v>
   <v>      -0.41666667       0.33333333       0.16666667 </v>
   <v>      -0.33333333       0.33333333       0.16666667 </v>
   <v>       0.25000000       0.41666667       0.16666667 </v>
   <v>      -0.41666667       0.41666667       0.16666667 </v>
   <v>      -0.33333333       0.41666667       0.16666667 </v>
   <v>      -0.25000000       0.41666667       0.16666667 </v>
   <v>       0.25000000       0.50000000       0.16666667 </v>
   <v>       0.33333333       0.50000000       0.16666667 </v>
   <v>      -0.33333333       0.50000000       0.16666667 </v>
   <v>       0.25000000      -0.41666667       0.16666667 </v>
   <v>       0.33333333      -0.41666667       0.16666667 </v>
   <v>       0.41666667      -0.41666667       0.16666667 </v>
   <v>       0.25000000      -0.33333333       0.16666667 </v>
   <v>       0.33333333      -0.33333333       0.16666667 </v>
   <v>       0.41666667      -0.33333333       0.16666667 </v>
   <v>       0.50000000      -0.33333333       0.16666667 </v>
   <v>       0.25000000      -0.25000000       0.16666667 </v>
   <v>       0.33333333      -0.25000000       0.16666667 </v>
   <v>       0.41666667      -0.25000000       0.16666667 </v>
   <v>       0.25000000      -0.16666667       0.16666667 </v>
   <v>       0.33333333      -0.16666667       0.16666667 </v>
   <v>       0.25000000      -0.08333333       0.16666667 </v>
   <v>       0.25000000       0.00000000       0.25000000 </v>
   <v>       0.33333333       0.00000000       0.25000000 </v>
   <v>       0.41666667      -0.00000000       0.25000000 </v>
   <v>       0.50000000       0.00000000       0.25000000 </v>
   <v>      -0.41666667       0.00000000       0.25000000 </v>
   <v>      -0.33333333      -0.00000000       0.25000000 </v>
   <v>      -0.25000000       0.00000000       0.25000000 </v>
   <v>      -0.25000000       0.50000000       0.25000000 </v>
   <v>       0.33333333      -0.41666667       0.25000000 </v>
   <v>       0.33333333      -0.33333333       0.25000000 </v>
   <v>       0.41666667      -0.33333333       0.25000000 </v>
   <v>       0.33333333      -0.25000000       0.25000000 </v>
   <v>       0.41666667      -0.25000000       0.25000000 </v>
   <v>       0.50000000      -0.25000000       0.25000000 </v>
   <v>       0.33333333      -0.16666667       0.25000000 </v>
   <v>       0.41666667      -0.16666667       0.25000000 </v>
   <v>       0.33333333      -0.08333333       0.25000000 </v>
   <v>       0.33333333       0.00000000       0.33333333 </v>
   <v>       0.41666667       0.00000000       0.33333333 </v>
   <v>       0.50000000       0.00000000       0.33333333 </v>
   <v>      -0.41666667       0.00000000       0.33333333 </v>
   <v>      -0.33333333       0.00000000       0.33333333 </v>
   <v>       0.41666667      -0.25000000       0.33333333 </v>
   <v>       0.41666667      -0.16666667       0.33333333 </v>
   <v>       0.50000000      -0.16666667       0.33333333 </v>
   <v>       0.41666667      -0.08333333       0.33333333 </v>
   <v>       0.41666667       0.00000000       0.41666667 </v>
   <v>       0.50000000       0.00000000       0.41666667 </v>
   <v>      -0.41666667      -0.00000000       0.41666667 </v>
   <v>       0.50000000      -0.08333333       0.41666667 </v>
   <v>       0.50000000       0.00000000       0.50000000 </v>
  </varray>
  <varray name="weights" >
   <v>       0.00057870 </v>
   <v>       0.00462963 </v>
   <v>       0.00462963 </v>
   <v>       0.00462963 </v>
   <v>       0.00462963 </v>
   <v>       0.00462963 </v>
   <v>       0.00231481 </v>
   <v>       0.00231481 </v>
   <v>       0.00925926 </v>
   <v>       0.00925926 </v>
   <v>       0.00925926 </v>
   <v>       0.00925926 </v>
   <v>       0.00925926 </v>
   <v>       0.00925926 </v>
   <v>       0.00925926 </v>
   <v>       0.00925926 </v>
   <v>       0.00925926 </v>
   <v>       0.00462963 </v>
   <v>       0.00231481 </v>
   <v>       0.00925926 </v>
   <v>       0.00925926 </v>
   <v>       0.00925926 </v>
   <v>       0.00925926 </v>
   <v>       0.00925926 </v>
   <v>       0.00925926 </v>
   <v>       0.00925926 </v>
   <v>       0.00462963 </v>
   <v>       0.00231481 </v>
   <v>       0.00925926 </v>
   <v>       0.00925926 </v>
   <v>       0.00925926 </v>
   <v>       0.00925926 </v>
   <v>       0.00925926 </v>
   <v>       0.00462963 </v>
   <v>       0.00231481 </v>
   <v>       0.00925926 </v>
   <v>       0.00925926 </v>
   <v>       0.00925926 </v>
   <v>       0.00462963 </v>
   <v>       0.00231481 </v>
   <v>       0.00925926 </v>
   <v>       0.00462963 </v>
   <v>       0.00115741 </v>
   <v>       0.00115741 </v>
   <v>       0.00462963 </v>
   <v>       0.00462963 </v>
   <v>       0.00462963 </v>
   <v>       0.00462963 </v>
   <v>       0.00462963 </v>
   <v>       0.00462963 </v>
   <v>       0.00462963 </v>
   <v>       0.00462963 </v>
   <v>       0.00462963 </v>
   <v>       0.00231481 </v>
   <v>       0.00462963 </v>
   <v>       0.00925926 </v>
   <v>       0.00925926 </v>
   <v>       0.00925926 </v>
   <v>       0.00462963 </v>
   <v>       0.00462963 </v>
   <v>       0.00462963 </v>
   <v>       0.00925926 </v>
   <v>       0.00925926 </v>
   <v>       0.00925926 </v>
   <v>       0.00925926 </v>
   <v>       0.00925926 </v>
   <v>       0.00462963 </v>
   <v>       0.00925926 </v>
   <v>       0.00462963 </v>
   <v>       0.00462963 </v>
   <v>       0.00925926 </v>
   <v>       0.00925926 </v>
   <v>       0.00925926 </v>
   <v>       0.00462963 </v>
   <v>       0.00925926 </v>
   <v>       0.00925926 </v>
   <v>       0.00462963 </v>
   <v>       0.00462963 </v>
   <v>       0.00925926 </v>
   <v>       0.00462963 </v>
   <v>       0.00925926 </v>
   <v>       0.00925926 </v>
   <v>       0.00925926 </v>
   <v>       0.00462963 </v>
   <v>       0.00231481 </v>
   <v>       0.00925926 </v>
   <v>       0.00925926 </v>
   <v>       0.00925926 </v>
   <v>       0.00925926 </v>
   <v>       0.00231481 </v>
   <v>       0.00925926 </v>
   <v>       0.00925926 </v>
   <v>       0.00925926 </v>
   <v>       0.00462963 </v>
   <v>       0.00925926 </v>
   <v>       0.00925926 </v>
   <v>       0.00462963 </v>
   <v>       0.00925926 </v>
   <v>       0.00462963 </v>
   <v>       0.00462963 </v>
   <v>       0.00115741 </v>
   <v>       0.00462963 </v>
   <v>       0.00462963 </v>
   <v>       0.00462963 </v>
   <v>       0.00462963 </v>
   <v>       0.00462963 </v>
   <v>       0.00462963 </v>
   <v>       0.00462963 </v>
   <v>       0.00231481 </v>
   <v>       0.00462963 </v>
   <v>       0.00925926 </v>
   <v>       0.00462963 </v>
   <v>       0.00462963 </v>
   <v>       0.00462963 </v>
   <v>       0.00925926 </v>
   <v>       0.00462963 </v>
   <v>       0.00925926 </v>
   <v>       0.00462963 </v>
   <v>       0.00231481 </v>
   <v>       0.00925926 </v>
   <v>       0.00925926 </v>
   <v>       0.00462963 </v>
   <v>       0.00925926 </v>
   <v>       0.00925926 </v>
   <v>       0.00925926 </v>
   <v>       0.00231481 </v>
   <v>       0.00925926 </v>
   <v>       0.00925926 </v>
   <v>       0.00462963 </v>
   <v>       0.00925926 </v>
   <v>       0.00462963 </v>
   <v>       0.00462963 </v>
   <v>       0.00115741 </v>
   <v>       0.00462963 </v>
   <v>       0.00462963 </v>
   <v>       0.00462963 </v>
   <v>       0.00462963 </v>
   <v>       0.00462963 </v>
   <v>       0.00231481 </v>
   <v>       0.00115741 </v>
   <v>       0.00462963 </v>
   <v>       0.00925926 </v>
   <v>       0.00462963 </v>
   <v>       0.00925926 </v>
   <v>       0.00925926 </v>
   <v>       0.00231481 </v>
   <v>       0.00925926 </v>
   <v>       0.00462963 </v>
   <v>       0.00462963 </v>
   <v>       0.00115741 </v>
   <v>       0.00462963 </v>
   <v>       0.00462963 </v>
   <v>       0.00462963 </v>
   <v>       0.00231481 </v>
   <v>       0.00462963 </v>
   <v>       0.00925926 </v>
   <v>       0.00231481 </v>
   <v>       0.00462963 </v>
   <v>       0.00115741 </v>
   <v>       0.00462963 </v>
   <v>       0.00231481 </v>
   <v>       0.00231481 </v>
   <v>       0.00057870 </v>
  </varray>
 </kpoints>
 <parameters>
  <separator name="general" >
   <i type="string" name="SYSTEM">unknown system</i>
   <i type="logical" name="LCOMPAT"> F  </i>
  </separator>
  <separator name="electronic" >
   <i type="string" name="PREC">accura</i>
   <i name="ENMAX">    520.00000000</i>
   <i name="ENAUG">    628.94500000</i>
   <i name="EDIFF">      0.00000001</i>
   <i type="int" name="IALGO">    38</i>
   <i type="int" name="IWAVPR">    11</i>
   <i type="int" name="NBANDS">     8</i>
   <i name="NELECT">      4.00000000</i>
   <i type="int" name="TURBO">     0</i>
   <i type="int" name="IRESTART">     0</i>
   <i type="int" name="NREBOOT">     0</i>
   <i type="int" name="NMIN">     0</i>
   <i name="EREF">      0.00000000</i>
   <separator name="electronic smearing" >
    <i type="int" name="ISMEAR">     0</i>
    <i name="SIGMA">      0.01000000</i>
    <i name="KSPACING">      0.50000000</i>
    <i type="logical" name="KGAMMA"> T  </i>
   </separator>
   <separator name="electronic projectors" >
    <i type="logical" name="LREAL"> F  </i>
    <v name="ROPT">      0.00000000      0.00000000</v>
    <i type="int" name="LMAXPAW">  -100</i>
    <i type="int" name="LMAXMIX">     2</i>
    <i type="logical" name="NLSPLINE"> F  </i>
   </separator>
   <separator name="electronic startup" >
    <i type="int" name="ISTART">     0</i>
    <i type="int" name="ICHARG">     2</i>
    <i type="int" name="INIWAV">     1</i>
   </separator>
   <separator name="electronic spin" >
    <i type="int" name="ISPIN">     1</i>
    <i type="logical" name="LNONCOLLINEAR"> F  </i>
    <v name="MAGMOM">      1.00000000      1.00000000</v>
    <i name="NUPDOWN">     -1.00000000</i>
    <i type="logical" name="LSORBIT"> F  </i>
    <v name="SAXIS">      0.00000000      0.00000000      1.00000000</v>
    <i type="logical" name="LSPIRAL"> F  </i>
    <v name="QSPIRAL">      0.00000000      0.00000000      0.00000000</v>
    <i type="logical" name="LZEROZ"> F  </i>
   </separator>
   <separator name="electronic exchange-correlation" >
    <i type="logical" name="LASPH"> F  </i>
    <i type="logical" name="LMETAGGA"> F  </i>
   </separator>
   <separator name="electronic convergence" >
    <i type="int" name="NELM">   100</i>
    <i type="int" name="NELMDL">    -5</i>
    <i type="int" name="NELMIN">     2</i>
    <i name="ENINI">    520.00000000</i>
    <separator name="electronic convergence detail" >
     <i type="logical" name="LDIAG"> T  </i>
     <i type="logical" name="LSUBROT"> F  </i>
     <i name="WEIMIN">      0.00100000</i>
     <i name="EBREAK">      0.00000000</i>
     <i name="DEPER">      0.30000000</i>
     <i type="int" name="NRMM">     4</i>
     <i name="TIME">      0.40000000</i>
    </separator>
   </separator>
   <separator name="electronic mixer" >
    <i name="AMIX">      0.40000000</i>
    <i name="BMIX">      1.00000000</i>
    <i name="AMIN">      0.10000000</i>
    <i name="AMIX_MAG">      1.60000000</i>
    <i name="BMIX_MAG">      1.00000000</i>
    <separator name="electronic mixer details" >
     <i type="int" name="IMIX">     4</i>
     <i type="logical" name="MIXFIRST"> F  </i>
     <i type="int" name="MAXMIX">   -45</i>
     <i name="WC">    100.00000000</i>
     <i type="int" name="INIMIX">     1</i>
     <i type="int" name="MIXPRE">     1</i>
     <i type="int" name="MREMOVE">     5</i>
    </separator>
   </separator>
   <separator name="electronic dipolcorrection" >
    <i type="logical" name="LDIPOL"> F  </i>
    <i type="logical" name="LMONO"> F  </i>
    <i type="int" name="IDIPOL">     0</i>
    <i name="EPSILON">      1.00000000</i>
    <v name="DIPOL">   -100.00000000   -100.00000000   -100.00000000</v>
    <i name="EFIELD">      0.00000000</i>
   </separator>
  </separator>
  <separator name="grids" >
   <i type="int" name="NGX">    24</i>
   <i type="int" name="NGY">    24</i>
   <i type="int" name="NGZ">    24</i>
   <i type="int" name="NGXF">    48</i>
   <i type="int" name="NGYF">    48</i>
   <i type="int" name="NGZF">    48</i>
   <i type="logical" name="ADDGRID"> F  </i>
  </separator>
  <separator name="ionic" >
   <i type="int" name="NSW">     1</i>
   <i type="int" name="IBRION">     8</i>
   <i type="int" name="MDALGO">     0</i>
   <i type="int" name="ISIF">     2</i>
   <i name="PSTRESS">      0.00000000</i>
   <i name="EDIFFG">      0.00000010</i>
   <i type="int" name="NFREE">     0</i>
   <i name="POTIM">      0.50000000</i>
   <i name="SMASS">     -3.00000000</i>
   <i name="SCALEE">      1.00000000</i>
  </separator>
  <separator name="ionic md" >
   <i name="TEBEG">      0.00010000</i>
   <i name="TEEND">      0.00010000</i>
   <i type="int" name="NBLOCK">     1</i>
   <i type="int" name="KBLOCK">     1</i>
   <i type="int" name="NPACO">   256</i>
   <i name="APACO">     16.00000000</i>
  </separator>
  <separator name="symmetry" >
   <i type="int" name="ISYM">     2</i>
   <i name="SYMPREC">      0.00000001</i>
  </separator>
  <separator name="dos" >
   <i type="int" name="LORBIT">     0</i>
   <v name="RWIGS">     -1.00000000     -1.00000000</v>
   <i type="int" name="NEDOS">   301</i>
   <i name="EMIN">     10.00000000</i>
   <i name="EMAX">    -10.00000000</i>
   <i name="EFERMI">      0.00000000</i>
  </separator>
  <separator name="writing" >
   <i type="int" name="NWRITE">     2</i>
   <i type="logical" name="LWAVE"> F  </i>
   <i type="logical" name="LDOWNSAMPLE"> F  </i>
   <i type="logical" name="LCHARG"> T  </i>
   <i type="logical" name="LPARD"> F  </i>
   <i type="logical" name="LVTOT"> F  </i>
   <i type="logical" name="LVHAR"> F  </i>
   <i type="logical" name="LELF"> F  </i>
   <i type="logical" name="LOPTICS"> F  </i>
   <v name="STM">      0.00000000      0.00000000      0.00000000      0.00000000      0.00000000      0.00000000      0.00000000</v>
  </separator>
  <separator name="performance" >
   <i type="int" name="NPAR">     8</i>
   <i type="int" name="NSIM">     4</i>
   <i type="int" name="NBLK">    -1</i>
   <i type="logical" name="LPLANE"> T  </i>
   <i type="logical" name="LSCALAPACK"> T  </i>
   <i type="logical" name="LSCAAWARE"> F  </i>
   <i type="logical" name="LSCALU"> F  </i>
   <i type="logical" name="LASYNC"> F  </i>
   <i type="logical" name="LORBITALREAL"> F  </i>
  </separator>
  <separator name="miscellaneous" >
   <i type="int" name="IDIOT">     3</i>
   <i type="int" name="ISPECIAL">     0</i>
   <i type="logical" name="LMUSIC"> F  </i>
   <v name="POMASS">      7.01000000      1.00000000</v>
   <v name="DARWINR">      0.00000000      0.00000000</v>
   <v name="DARWINV">      1.00000000      1.00000000</v>
   <i type="logical" name="LCORR"> T  </i>
  </separator>
  <i type="logical" name="GGA_COMPAT"> T  </i>
  <i type="logical" name="LBERRY"> F  </i>
  <i type="int" name="ICORELEVEL">     0</i>
  <i type="logical" name="LDAU"> F  </i>
  <i type="int" name="I_CONSTRAINED_M">     0</i>
  <separator name="electronic exchange-correlation" >
   <i type="string" name="GGA">--</i>
   <i type="int" name="VOSKOWN">     0</i>
   <i type="logical" name="LHFCALC"> F  </i>
   <i type="string" name="PRECFOCK"></i>
   <i type="logical" name="LSYMGRAD"> F  </i>
   <i type="logical" name="LHFONE"> F  </i>
   <i type="logical" name="LRHFCALC"> F  </i>
   <i type="logical" name="LTHOMAS"> F  </i>
   <i type="logical" name="LMODELHF"> F  </i>
   <i name="ENCUT4O">     -1.00000000</i>
   <i type="int" name="EXXOEP">     0</i>
   <i type="int" name="FOURORBIT">     0</i>
   <i name="AEXX">      0.00000000</i>
   <i name="HFALPHA">      0.00000000</i>
   <i name="MCALPHA">      0.00000000</i>
   <i name="ALDAX">      1.00000000</i>
   <i name="AGGAX">      1.00000000</i>
   <i name="ALDAC">      1.00000000</i>
   <i name="AGGAC">      1.00000000</i>
   <i type="int" name="NKREDX">     1</i>
   <i type="int" name="NKREDY">     1</i>
   <i type="int" name="NKREDZ">     1</i>
   <i type="logical" name="SHIFTRED"> F  </i>
   <i type="logical" name="ODDONLY"> F  </i>
   <i type="logical" name="EVENONLY"> F  </i>
   <i type="int" name="LMAXFOCK">     0</i>
   <i type="int" name="NMAXFOCKAE">     0</i>
   <i type="logical" name="LFOCKAEDFT"> F  </i>
   <i name="HFSCREEN">      0.00000000</i>
   <i name="HFSCREENC">      0.00000000</i>
   <i type="int" name="NBANDSGWLOW">     0</i>
  </separator>
  <separator name="vdW DFT" >
   <i type="logical" name="LUSE_VDW"> F  </i>
   <i name="Zab_VDW">     -0.84910000</i>
   <i name="PARAM1">      0.12340000</i>
   <i name="PARAM2">      1.00000000</i>
   <i name="PARAM3">      0.00000000</i>
  </separator>
  <separator name="model GW" >
   <i type="int" name="MODEL_GW">     0</i>
   <i name="MODEL_EPS0">      4.86232634</i>
   <i name="MODEL_ALPHA">      1.00000000</i>
  </separator>
  <separator name="linear response parameters" >
   <i type="logical" name="LEPSILON"> T  </i>
   <i type="logical" name="LRPA"> F  </i>
   <i type="logical" name="LNABLA"> F  </i>
   <i type="logical" name="LVEL"> F  </i>
   <i type="int" name="KINTER">     0</i>
   <i name="CSHIFT">      0.10000000</i>
   <i name="OMEGAMAX">     -1.00000000</i>
   <i name="DEG_THRESHOLD">      0.00200000</i>
   <i name="RTIME">     -0.10000000</i>
   <i name="WPLASMAI">      0.00000000</i>
   <v name="DFIELD">      0.00000000      0.00000000      0.00000000</v>
   <v name="WPLASMA">      0.00000000      0.00000000      0.00000000      0.00000000      0.00000000      0.00000000      0.00000000      0.00000000      0.00000000</v>
  </separator>
  <separator name="orbital magnetization" >
   <i type="logical" name="NUCIND"> F  </i>
   <v name="MAGPOS">      0.00000000      0.00000000      0.00000000</v>
   <i type="logical" name="LNICSALL"> T  </i>
   <i type="logical" name="ORBITALMAG"> F  </i>
   <i type="logical" name="LMAGBLOCH"> F  </i>
   <i type="logical" name="LCHIMAG"> F  </i>
   <i type="logical" name="LGAUGE"> T  </i>
   <i type="int" name="MAGATOM">     0</i>
   <v name="MAGDIPOL">      0.00000000      0.00000000      0.00000000</v>
   <v name="AVECCONST">      0.00000000      0.00000000      0.00000000</v>
  </separator>
  <separator name="response functions" >
   <i type="logical" name="LADDER"> F  </i>
   <i type="logical" name="LRPAFORCE"> F  </i>
   <i type="logical" name="LFXC"> F  </i>
   <i type="logical" name="LHARTREE"> T  </i>
   <i type="int" name="IBSE">     0</i>
   <v type="int" name="KPOINT">    -1     0     0     0</v>
   <i type="logical" name="LTCTE"> F  </i>
   <i type="logical" name="LTETE"> F  </i>
   <i type="logical" name="LTRIPLET"> F  </i>
   <i type="logical" name="LFXCEPS"> F  </i>
   <i type="logical" name="LFXHEG"> F  </i>
   <i type="int" name="NATURALO">     2</i>
   <i type="logical" name="L2ORDER"> F  </i>
   <i type="logical" name="LMP2LT"> F  </i>
   <i type="logical" name="LUSEW"> F  </i>
   <i name="ENCUTGW">     -2.00000000</i>
   <i name="ENCUTGWSOFT">     -2.00000000</i>
   <i name="ENCUTLF">     -1.00000000</i>
   <i type="int" name="LMAXMP2">    -1</i>
   <i name="SCISSOR">      0.00000000</i>
   <i type="int" name="NOMEGA">     0</i>
   <i type="int" name="NOMEGAR">     0</i>
   <i type="int" name="NBANDSGW">    -1</i>
   <i type="int" name="NBANDSO">    -1</i>
   <i type="int" name="NBANDSV">    -1</i>
   <i type="int" name="NELM">   100</i>
   <i type="int" name="NELMHF">     1</i>
   <i type="int" name="DIM">     3</i>
   <i type="int" name="ANTIRES">     0</i>
   <i name="OMEGAMAX">    -30.00000000</i>
   <i name="OMEGAMIN">    -30.00000000</i>
   <i name="OMEGATL">   -200.00000000</i>
   <i type="int" name="OMEGAGRID">   140</i>
   <i name="CSHIFT">     -0.10000000</i>
   <i type="logical" name="SELFENERGY"> F  </i>
   <i type="logical" name="LSPECTRAL"> F  </i>
   <i type="logical" name="LSPECTRALGW"> F  </i>
   <i type="logical" name="LSINGLES"> F  </i>
   <i type="logical" name="LFERMIGW"> F  </i>
   <i type="logical" name="ODDONLYGW"> F  </i>
   <i type="logical" name="EVENONLYGW"> F  </i>
   <i type="int" name="NKREDLFX">     1</i>
   <i type="int" name="NKREDLFY">     1</i>
   <i type="int" name="NKREDLFZ">     1</i>
   <i type="int" name="MAXMEM">  2800</i>
   <i type="int" name="TELESCOPE">     0</i>
   <i type="int" name="TAUPAR">     1</i>
   <i type="int" name="OMEGAPAR">    -1</i>
   <i name="LAMBDA">      1.00000000</i>
  </separator>
  <separator name="External order field" >
   <i name="OFIELD_KAPPA">      0.00000000</i>
   <v name="OFIELD_K">      0.00000000      0.00000000      0.00000000</v>
   <i name="OFIELD_Q6_NEAR">      0.00000000</i>
   <i name="OFIELD_Q6_FAR">      0.00000000</i>
   <i name="OFIELD_A">      0.00000000</i>
  </separator>
 </parameters>
 <atominfo>
  <atoms>       2 </atoms>
  <types>       2 </types>
  <array name="atoms" >
   <dimension dim="1">ion</dimension>
   <field type="string">element</field>
   <field type="int">atomtype</field>
   <set>
    <rc><c>Li</c><c>   1</c></rc>
    <rc><c>H </c><c>   2</c></rc>
   </set>
  </array>
  <array name="atomtypes" >
   <dimension dim="1">type</dimension>
   <field type="int">atomspertype</field>
   <field type="string">element</field>
   <field>mass</field>
   <field>valence</field>
   <field type="string">pseudopotential</field>
   <set>
    <rc><c>   1</c><c>Li</c><c>      7.01000000</c><c>      3.00000000</c><c>  PAW_PBE Li_sv 10Sep2004               </c></rc>
    <rc><c>   1</c><c>H </c><c>      1.00000000</c><c>      1.00000000</c><c>  PAW_PBE H 15Jun2001                   </c></rc>
   </set>
  </array>
 </atominfo>
 <structure name="initialpos" >
  <crystal>
   <varray name="basis" >
    <v>      -2.00861924       0.00000000       2.00861924 </v>
    <v>       0.00000000       2.00861924       2.00861924 </v>
    <v>      -2.00861924       2.00861924       0.00000000 </v>
   </varray>
   <i name="volume">     16.20775448 </i>
   <varray name="rec_basis" >
    <v>      -0.24892722      -0.24892722       0.24892722 </v>
    <v>       0.24892722       0.24892722       0.24892722 </v>
    <v>      -0.24892722       0.24892722      -0.24892722 </v>
   </varray>
  </crystal>
  <varray name="positions" >
   <v>       0.00000000       0.00000000       0.00000000 </v>
   <v>       0.49999996       0.50000004       0.49999996 </v>
  </varray>
 </structure>
 <calculation>
  <scstep>
   <time name="dav">    0.27    0.27</time>
   <time name="total">    0.28    0.29</time>
   <energy>
    <i name="alphaZ">      2.49496837 </i>
    <i name="ewald">    -93.89060656 </i>
    <i name="hartreedc">    -37.22552598 </i>
    <i name="XCdc">     14.94181681 </i>
    <i name="pawpsdc">     81.89565328 </i>
    <i name="pawaedc">    -97.30997178 </i>
    <i name="eentropy">     -0.00002661 </i>
    <i name="bandstr">    -88.78265178 </i>
    <i name="atom">    215.25981783 </i>
    <i name="e_fr_energy">     -2.61652642 </i>
    <i name="e_wo_entrp">     -2.61649981 </i>
    <i name="e_0_energy">     -2.61651311 </i>
   </energy>
  </scstep>
  <scstep>
   <time name="dav">    0.37    0.38</time>
   <time name="total">    0.37    0.38</time>
   <energy>
    <i name="e_fr_energy">     -6.33694895 </i>
    <i name="e_wo_entrp">     -6.33694895 </i>
    <i name="e_0_energy">     -6.33694895 </i>
   </energy>
  </scstep>
  <scstep>
   <time name="dav">    0.32    0.32</time>
   <time name="total">    0.32    0.32</time>
   <energy>
    <i name="e_fr_energy">     -6.36899497 </i>
    <i name="e_wo_entrp">     -6.36899497 </i>
    <i name="e_0_energy">     -6.36899497 </i>
   </energy>
  </scstep>
  <scstep>
   <time name="dav">    0.39    0.39</time>
   <time name="total">    0.39    0.40</time>
   <energy>
    <i name="e_fr_energy">     -6.36916589 </i>
    <i name="e_wo_entrp">     -6.36916589 </i>
    <i name="e_0_energy">     -6.36916589 </i>
   </energy>
  </scstep>
  <scstep>
   <time name="dav">    0.32    0.32</time>
   <time name="total">    0.35    0.35</time>
   <energy>
    <i name="e_fr_energy">     -6.36916620 </i>
    <i name="e_wo_entrp">     -6.36916620 </i>
    <i name="e_0_energy">     -6.36916620 </i>
   </energy>
  </scstep>
  <scstep>
   <time name="dav">    0.30    0.30</time>
   <time name="total">    0.34    0.34</time>
   <energy>
    <i name="e_fr_energy">     -6.18638178 </i>
    <i name="e_wo_entrp">     -6.18638178 </i>
    <i name="e_0_energy">     -6.18638178 </i>
   </energy>
  </scstep>
  <scstep>
   <time name="dav">    0.32    0.32</time>
   <time name="total">    0.36    0.36</time>
   <energy>
    <i name="e_fr_energy">     -6.12524752 </i>
    <i name="e_wo_entrp">     -6.12524752 </i>
    <i name="e_0_energy">     -6.12524752 </i>
   </energy>
  </scstep>
  <scstep>
   <time name="dav">    0.33    0.33</time>
   <time name="total">    0.37    0.37</time>
   <energy>
    <i name="e_fr_energy">     -6.12703729 </i>
    <i name="e_wo_entrp">     -6.12703729 </i>
    <i name="e_0_energy">     -6.12703729 </i>
   </energy>
  </scstep>
  <scstep>
   <time name="dav">    0.39    0.39</time>
   <time name="total">    0.43    0.43</time>
   <energy>
    <i name="e_fr_energy">     -6.12697501 </i>
    <i name="e_wo_entrp">     -6.12697501 </i>
    <i name="e_0_energy">     -6.12697501 </i>
   </energy>
  </scstep>
  <scstep>
   <time name="dav">    0.34    0.34</time>
   <time name="total">    0.38    0.38</time>
   <energy>
    <i name="e_fr_energy">     -6.12696927 </i>
    <i name="e_wo_entrp">     -6.12696927 </i>
    <i name="e_0_energy">     -6.12696927 </i>
   </energy>
  </scstep>
  <scstep>
   <time name="dav">    0.43    0.43</time>
   <time name="total">    0.47    0.47</time>
   <energy>
    <i name="e_fr_energy">     -6.12696838 </i>
    <i name="e_wo_entrp">     -6.12696838 </i>
    <i name="e_0_energy">     -6.12696838 </i>
   </energy>
  </scstep>
  <scstep>
   <time name="dav">    0.31    0.31</time>
   <time name="total">    0.35    0.35</time>
   <energy>
    <i name="e_fr_energy">     -6.12696766 </i>
    <i name="e_wo_entrp">     -6.12696766 </i>
    <i name="e_0_energy">     -6.12696766 </i>
   </energy>
  </scstep>
  <scstep>
   <time name="dav">    0.25    0.25</time>
   <time name="total">    0.28    0.29</time>
   <energy>
    <i name="e_fr_energy">     -6.12696778 </i>
    <i name="e_wo_entrp">     -6.12696778 </i>
    <i name="e_0_energy">     -6.12696778 </i>
   </energy>
  </scstep>
  <scstep>
   <time name="dav">    0.21    0.21</time>
   <time name="total">    0.24    0.25</time>
   <energy>
    <i name="e_fr_energy">     -6.12696781 </i>
    <i name="e_wo_entrp">     -6.12696781 </i>
    <i name="e_0_energy">     -6.12696781 </i>
   </energy>
  </scstep>
  <scstep>
   <time name="dav">    0.19    0.19</time>
   <time name="total">    0.20    0.20</time>
   <energy>
    <i name="alphaZ">      2.49496837 </i>
    <i name="ewald">    -93.89060656 </i>
    <i name="hartreedc">    -36.53332669 </i>
    <i name="XCdc">     15.13215270 </i>
    <i name="pawpsdc">     85.39980156 </i>
    <i name="pawaedc">   -101.07813279 </i>
    <i name="eentropy">     -0.00000000 </i>
    <i name="bandstr">    -92.91164222 </i>
    <i name="atom">    215.25981783 </i>
    <i name="e_fr_energy">     -6.12696780 </i>
    <i name="e_wo_entrp">     -6.12696780 </i>
    <i name="e_0_energy">     -6.12696780 </i>
   </energy>
  </scstep>
  <structure>
   <crystal>
    <varray name="basis" >
     <v>      -2.00861924       0.00000000       2.00861924 </v>
     <v>       0.00000000       2.00861924       2.00861924 </v>
     <v>      -2.00861924       2.00861924       0.00000000 </v>
    </varray>
    <i name="volume">     16.20775448 </i>
    <varray name="rec_basis" >
     <v>      -0.24892722      -0.24892722       0.24892722 </v>
     <v>       0.24892722       0.24892722       0.24892722 </v>
     <v>      -0.24892722       0.24892722      -0.24892722 </v>
    </varray>
   </crystal>
   <varray name="positions" >
    <v>       0.00000000       0.00000000       0.00000000 </v>
    <v>       0.49999996       0.50000004       0.49999996 </v>
   </varray>
  </structure>
  <varray name="forces" >
   <v>       0.00000016       0.00000000      -0.00000000 </v>
   <v>      -0.00000016      -0.00000000       0.00000000 </v>
  </varray>
  <varray name="stress" >
   <v>      -5.17940547       0.00000000       0.00000000 </v>
   <v>      -0.00000000      -5.17948637       0.00000000 </v>
   <v>       0.00000000      -0.00000000      -5.17948637 </v>
  </varray>
  <energy>
   <i name="e_fr_energy">     -6.12696780 </i>
   <i name="e_wo_entrp">     -6.12696780 </i>
   <i name="e_0_energy">     -0.00000000 </i>
  </energy>
  <scstep>
   <time name="total">    0.32    0.32</time>
   <energy>
    <i name="e_fr_energy">     -0.13431641 </i>
    <i name="e_wo_entrp">     -0.13431641 </i>
    <i name="e_0_energy">     -0.13431641 </i>
   </energy>
  </scstep>
  <scstep>
   <time name="total">    0.38    0.38</time>
   <energy>
    <i name="e_fr_energy">     -0.14987300 </i>
    <i name="e_wo_entrp">     -0.14987300 </i>
    <i name="e_0_energy">     -0.14987300 </i>
   </energy>
  </scstep>
  <scstep>
   <time name="total">    0.40    0.40</time>
   <energy>
    <i name="e_fr_energy">     -0.15227949 </i>
    <i name="e_wo_entrp">     -0.15227949 </i>
    <i name="e_0_energy">     -0.15227949 </i>
   </energy>
  </scstep>
  <scstep>
   <time name="total">    0.39    0.39</time>
   <energy>
    <i name="e_fr_energy">     -0.15297773 </i>
    <i name="e_wo_entrp">     -0.15297773 </i>
    <i name="e_0_energy">     -0.15297773 </i>
   </energy>
  </scstep>
  <scstep>
   <time name="total">    0.37    0.37</time>
   <energy>
    <i name="e_fr_energy">     -0.15312228 </i>
    <i name="e_wo_entrp">     -0.15312228 </i>
    <i name="e_0_energy">     -0.15312228 </i>
   </energy>
  </scstep>
  <scstep>
   <time name="total">    0.36    0.36</time>
   <energy>
    <i name="e_fr_energy">     -0.15313473 </i>
    <i name="e_wo_entrp">     -0.15313473 </i>
    <i name="e_0_energy">     -0.15313473 </i>
   </energy>
  </scstep>
  <scstep>
   <time name="total">    0.34    0.34</time>
   <energy>
    <i name="e_fr_energy">     -0.15313550 </i>
    <i name="e_wo_entrp">     -0.15313550 </i>
    <i name="e_0_energy">     -0.15313550 </i>
   </energy>
  </scstep>
  <scstep>
   <time name="total">    0.31    0.31</time>
   <energy>
    <i name="e_fr_energy">     -0.15313552 </i>
    <i name="e_wo_entrp">     -0.15313552 </i>
    <i name="e_0_energy">     -0.15313552 </i>
   </energy>
  </scstep>
  <scstep>
   <time name="total">    0.27    0.27</time>
   <energy>
    <i name="e_fr_energy">     -0.15313552 </i>
    <i name="e_wo_entrp">     -0.15313552 </i>
    <i name="e_0_energy">     -0.15313552 </i>
   </energy>
  </scstep>
  <scstep>
   <time name="total">    0.32    0.32</time>
   <energy>
    <i name="e_fr_energy">     -0.05489771 </i>
    <i name="e_wo_entrp">     -0.05489771 </i>
    <i name="e_0_energy">     -0.05489771 </i>
   </energy>
  </scstep>
  <scstep>
   <time name="total">    0.38    0.38</time>
   <energy>
    <i name="e_fr_energy">     -0.07003058 </i>
    <i name="e_wo_entrp">     -0.07003058 </i>
    <i name="e_0_energy">     -0.07003058 </i>
   </energy>
  </scstep>
  <scstep>
   <time name="total">    0.40    0.40</time>
   <energy>
    <i name="e_fr_energy">     -0.07256421 </i>
    <i name="e_wo_entrp">     -0.07256421 </i>
    <i name="e_0_energy">     -0.07256421 </i>
   </energy>
  </scstep>
  <scstep>
   <time name="total">    0.39    0.39</time>
   <energy>
    <i name="e_fr_energy">     -0.07337278 </i>
    <i name="e_wo_entrp">     -0.07337278 </i>
    <i name="e_0_energy">     -0.07337278 </i>
   </energy>
  </scstep>
  <scstep>
   <time name="total">    0.37    0.37</time>
   <energy>
    <i name="e_fr_energy">     -0.07353983 </i>
    <i name="e_wo_entrp">     -0.07353983 </i>
    <i name="e_0_energy">     -0.07353983 </i>
   </energy>
  </scstep>
  <scstep>
   <time name="total">    0.37    0.37</time>
   <energy>
    <i name="e_fr_energy">     -0.07355965 </i>
    <i name="e_wo_entrp">     -0.07355965 </i>
    <i name="e_0_energy">     -0.07355965 </i>
   </energy>
  </scstep>
  <scstep>
   <time name="total">    0.35    0.35</time>
   <energy>
    <i name="e_fr_energy">     -0.07356115 </i>
    <i name="e_wo_entrp">     -0.07356115 </i>
    <i name="e_0_energy">     -0.07356115 </i>
   </energy>
  </scstep>
  <scstep>
   <time name="total">    0.31    0.31</time>
   <energy>
    <i name="e_fr_energy">     -0.07356118 </i>
    <i name="e_wo_entrp">     -0.07356118 </i>
    <i name="e_0_energy">     -0.07356118 </i>
   </energy>
  </scstep>
  <scstep>
   <time name="total">    0.28    0.28</time>
   <energy>
    <i name="e_fr_energy">     -0.07356118 </i>
    <i name="e_wo_entrp">     -0.07356118 </i>
    <i name="e_0_energy">     -0.07356118 </i>
   </energy>
  </scstep>
  <scstep>
   <time name="total">    0.32    0.32</time>
   <energy>
    <i name="e_fr_energy">     -0.21363972 </i>
    <i name="e_wo_entrp">     -0.21363972 </i>
    <i name="e_0_energy">     -0.21363972 </i>
   </energy>
  </scstep>
  <scstep>
   <time name="total">    0.38    0.38</time>
   <energy>
    <i name="e_fr_energy">     -0.22961157 </i>
    <i name="e_wo_entrp">     -0.22961157 </i>
    <i name="e_0_energy">     -0.22961157 </i>
   </energy>
  </scstep>
  <scstep>
   <time name="total">    0.39    0.39</time>
   <energy>
    <i name="e_fr_energy">     -0.23189119 </i>
    <i name="e_wo_entrp">     -0.23189119 </i>
    <i name="e_0_energy">     -0.23189119 </i>
   </energy>
  </scstep>
  <scstep>
   <time name="total">    0.38    0.38</time>
   <energy>
    <i name="e_fr_energy">     -0.23247385 </i>
    <i name="e_wo_entrp">     -0.23247385 </i>
    <i name="e_0_energy">     -0.23247385 </i>
   </energy>
  </scstep>
  <scstep>
   <time name="total">    0.36    0.36</time>
   <energy>
    <i name="e_fr_energy">     -0.23259487 </i>
    <i name="e_wo_entrp">     -0.23259487 </i>
    <i name="e_0_energy">     -0.23259487 </i>
   </energy>
  </scstep>
  <scstep>
   <time name="total">    0.35    0.35</time>
   <energy>
    <i name="e_fr_energy">     -0.23260491 </i>
    <i name="e_wo_entrp">     -0.23260491 </i>
    <i name="e_0_energy">     -0.23260491 </i>
   </energy>
  </scstep>
  <scstep>
   <time name="total">    0.34    0.34</time>
   <energy>
    <i name="e_fr_energy">     -0.23260556 </i>
    <i name="e_wo_entrp">     -0.23260556 </i>
    <i name="e_0_energy">     -0.23260556 </i>
   </energy>
  </scstep>
  <scstep>
   <time name="total">    0.30    0.30</time>
   <energy>
    <i name="e_fr_energy">     -0.23260557 </i>
    <i name="e_wo_entrp">     -0.23260557 </i>
    <i name="e_0_energy">     -0.23260557 </i>
   </energy>
  </scstep>
  <scstep>
   <time name="total">    0.26    0.26</time>
   <energy>
    <i name="e_fr_energy">     -0.23260557 </i>
    <i name="e_wo_entrp">     -0.23260557 </i>
    <i name="e_0_energy">     -0.23260557 </i>
   </energy>
  </scstep>
  <varray name="epsilon_rpa" >
   <v>       4.41939307       0.00000000      -0.00000000 </v>
   <v>       0.00000000       4.41822878       0.00000000 </v>
   <v>      -0.00000000       0.00000000       4.41822878 </v>
  </varray>
  <kpoints>
   <generation param="Gamma">
    <v type="int" name="divisions">      12       12       12 </v>
    <v name="usershift">      0.00000000       0.00000000       0.00000000 </v>
    <v name="genvec1">      0.08333333      -0.00000000      -0.00000000 </v>
    <v name="genvec2">     -0.00000000       0.08333333       0.00000000 </v>
    <v name="genvec3">      0.00000000       0.00000000       0.08333333 </v>
    <v name="shift">      0.00000000       0.00000000       0.00000000 </v>
   </generation>
   <varray name="kpointlist" >
    <v>       0.00000000       0.00000000       0.00000000 </v>
    <v>       0.08333333      -0.00000000      -0.00000000 </v>
    <v>       0.16666667      -0.00000000      -0.00000000 </v>
    <v>       0.25000000       0.00000000       0.00000000 </v>
    <v>       0.33333333      -0.00000000      -0.00000000 </v>
    <v>       0.41666667       0.00000000       0.00000000 </v>
    <v>       0.50000000       0.00000000       0.00000000 </v>
    <v>       0.08333333       0.08333333       0.00000000 </v>
    <v>       0.16666667       0.08333333       0.00000000 </v>
    <v>       0.25000000       0.08333333       0.00000000 </v>
    <v>       0.33333333       0.08333333       0.00000000 </v>
    <v>       0.41666667       0.08333333       0.00000000 </v>
    <v>       0.50000000       0.08333333       0.00000000 </v>
    <v>      -0.41666667       0.08333333      -0.00000000 </v>
    <v>      -0.33333333       0.08333333      -0.00000000 </v>
    <v>      -0.25000000       0.08333333       0.00000000 </v>
    <v>      -0.16666667       0.08333333       0.00000000 </v>
    <v>      -0.08333333       0.08333333       0.00000000 </v>
    <v>       0.16666667       0.16666667       0.00000000 </v>
    <v>       0.25000000       0.16666667       0.00000000 </v>
    <v>       0.33333333       0.16666667       0.00000000 </v>
    <v>       0.41666667       0.16666667       0.00000000 </v>
    <v>       0.50000000       0.16666667       0.00000000 </v>
    <v>      -0.41666667       0.16666667      -0.00000000 </v>
    <v>      -0.33333333       0.16666667       0.00000000 </v>
    <v>      -0.25000000       0.16666667      -0.00000000 </v>
    <v>      -0.16666667       0.16666667       0.00000000 </v>
    <v>       0.25000000       0.25000000       0.00000000 </v>
    <v>       0.33333333       0.25000000       0.00000000 </v>
    <v>       0.41666667       0.25000000       0.00000000 </v>
    <v>       0.50000000       0.25000000       0.00000000 </v>
    <v>      -0.41666667       0.25000000       0.00000000 </v>
    <v>      -0.33333333       0.25000000      -0.00000000 </v>
    <v>      -0.25000000       0.25000000      -0.00000000 </v>
    <v>       0.33333333       0.33333333       0.00000000 </v>
    <v>       0.41666667       0.33333333       0.00000000 </v>
    <v>       0.50000000       0.33333333       0.00000000 </v>
    <v>      -0.41666667       0.33333333       0.00000000 </v>
    <v>      -0.33333333       0.33333333       0.00000000 </v>
    <v>       0.41666667       0.41666667       0.00000000 </v>
    <v>       0.50000000       0.41666667       0.00000000 </v>
    <v>      -0.41666667       0.41666667      -0.00000000 </v>
    <v>       0.50000000       0.50000000       0.00000000 </v>
    <v>       0.08333333       0.00000000       0.08333333 </v>
    <v>       0.16666667       0.00000000       0.08333333 </v>
    <v>       0.25000000      -0.00000000       0.08333333 </v>
    <v>       0.33333333       0.00000000       0.08333333 </v>
    <v>       0.41666667      -0.00000000       0.08333333 </v>
    <v>       0.50000000       0.00000000       0.08333333 </v>
    <v>      -0.41666667       0.00000000       0.08333333 </v>
    <v>      -0.33333333      -0.00000000       0.08333333 </v>
    <v>      -0.25000000       0.00000000       0.08333333 </v>
    <v>      -0.16666667      -0.00000000       0.08333333 </v>
    <v>      -0.08333333       0.00000000       0.08333333 </v>
    <v>       0.25000000       0.16666667       0.08333333 </v>
    <v>       0.33333333       0.16666667       0.08333333 </v>
    <v>       0.41666667       0.16666667       0.08333333 </v>
    <v>       0.50000000       0.16666667       0.08333333 </v>
    <v>      -0.41666667       0.16666667       0.08333333 </v>
    <v>       0.16666667       0.25000000       0.08333333 </v>
    <v>       0.33333333       0.25000000       0.08333333 </v>
    <v>       0.41666667       0.25000000       0.08333333 </v>
    <v>       0.50000000       0.25000000       0.08333333 </v>
    <v>      -0.41666667       0.25000000       0.08333333 </v>
    <v>      -0.33333333       0.25000000       0.08333333 </v>
    <v>      -0.25000000       0.25000000       0.08333333 </v>
    <v>      -0.16666667       0.25000000       0.08333333 </v>
    <v>       0.16666667       0.33333333       0.08333333 </v>
    <v>       0.25000000       0.33333333       0.08333333 </v>
    <v>       0.41666667       0.33333333       0.08333333 </v>
    <v>       0.50000000       0.33333333       0.08333333 </v>
    <v>      -0.41666667       0.33333333       0.08333333 </v>
    <v>      -0.33333333       0.33333333       0.08333333 </v>
    <v>      -0.25000000       0.33333333       0.08333333 </v>
    <v>       0.16666667       0.41666667       0.08333333 </v>
    <v>       0.25000000       0.41666667       0.08333333 </v>
    <v>       0.33333333       0.41666667       0.08333333 </v>
    <v>       0.50000000       0.41666667       0.08333333 </v>
    <v>      -0.41666667       0.41666667       0.08333333 </v>
    <v>      -0.33333333       0.41666667       0.08333333 </v>
    <v>       0.16666667       0.50000000       0.08333333 </v>
    <v>       0.25000000       0.50000000       0.08333333 </v>
    <v>       0.33333333       0.50000000       0.08333333 </v>
    <v>       0.41666667       0.50000000       0.08333333 </v>
    <v>      -0.41666667       0.50000000       0.08333333 </v>
    <v>       0.16666667      -0.41666667       0.08333333 </v>
    <v>       0.25000000      -0.41666667       0.08333333 </v>
    <v>       0.33333333      -0.41666667       0.08333333 </v>
    <v>       0.41666667      -0.41666667       0.08333333 </v>
    <v>       0.50000000      -0.41666667       0.08333333 </v>
    <v>       0.16666667      -0.33333333       0.08333333 </v>
    <v>       0.25000000      -0.33333333       0.08333333 </v>
    <v>       0.33333333      -0.33333333       0.08333333 </v>
    <v>       0.41666667      -0.33333333       0.08333333 </v>
    <v>       0.16666667      -0.25000000       0.08333333 </v>
    <v>       0.25000000      -0.25000000       0.08333333 </v>
    <v>       0.33333333      -0.25000000       0.08333333 </v>
    <v>       0.16666667      -0.16666667       0.08333333 </v>
    <v>       0.25000000      -0.16666667       0.08333333 </v>
    <v>       0.16666667      -0.08333333       0.08333333 </v>
    <v>       0.16666667       0.00000000       0.16666667 </v>
    <v>       0.25000000       0.00000000       0.16666667 </v>
    <v>       0.33333333      -0.00000000       0.16666667 </v>
    <v>       0.41666667      -0.00000000       0.16666667 </v>
    <v>       0.50000000      -0.00000000       0.16666667 </v>
    <v>      -0.41666667      -0.00000000       0.16666667 </v>
    <v>      -0.33333333       0.00000000       0.16666667 </v>
    <v>      -0.25000000      -0.00000000       0.16666667 </v>
    <v>      -0.16666667       0.00000000       0.16666667 </v>
    <v>       0.50000000       0.33333333       0.16666667 </v>
    <v>      -0.41666667       0.33333333       0.16666667 </v>
    <v>      -0.33333333       0.33333333       0.16666667 </v>
    <v>       0.25000000       0.41666667       0.16666667 </v>
    <v>      -0.41666667       0.41666667       0.16666667 </v>
    <v>      -0.33333333       0.41666667       0.16666667 </v>
    <v>      -0.25000000       0.41666667       0.16666667 </v>
    <v>       0.25000000       0.50000000       0.16666667 </v>
    <v>       0.33333333       0.50000000       0.16666667 </v>
    <v>      -0.33333333       0.50000000       0.16666667 </v>
    <v>       0.25000000      -0.41666667       0.16666667 </v>
    <v>       0.33333333      -0.41666667       0.16666667 </v>
    <v>       0.41666667      -0.41666667       0.16666667 </v>
    <v>       0.25000000      -0.33333333       0.16666667 </v>
    <v>       0.33333333      -0.33333333       0.16666667 </v>
    <v>       0.41666667      -0.33333333       0.16666667 </v>
    <v>       0.50000000      -0.33333333       0.16666667 </v>
    <v>       0.25000000      -0.25000000       0.16666667 </v>
    <v>       0.33333333      -0.25000000       0.16666667 </v>
    <v>       0.41666667      -0.25000000       0.16666667 </v>
    <v>       0.25000000      -0.16666667       0.16666667 </v>
    <v>       0.33333333      -0.16666667       0.16666667 </v>
    <v>       0.25000000      -0.08333333       0.16666667 </v>
    <v>       0.25000000       0.00000000       0.25000000 </v>
    <v>       0.33333333       0.00000000       0.25000000 </v>
    <v>       0.41666667      -0.00000000       0.25000000 </v>
    <v>       0.50000000       0.00000000       0.25000000 </v>
    <v>      -0.41666667       0.00000000       0.25000000 </v>
    <v>      -0.33333333      -0.00000000       0.25000000 </v>
    <v>      -0.25000000       0.00000000       0.25000000 </v>
    <v>      -0.25000000       0.50000000       0.25000000 </v>
    <v>       0.33333333      -0.41666667       0.25000000 </v>
    <v>       0.33333333      -0.33333333       0.25000000 </v>
    <v>       0.41666667      -0.33333333       0.25000000 </v>
    <v>       0.33333333      -0.25000000       0.25000000 </v>
    <v>       0.41666667      -0.25000000       0.25000000 </v>
    <v>       0.50000000      -0.25000000       0.25000000 </v>
    <v>       0.33333333      -0.16666667       0.25000000 </v>
    <v>       0.41666667      -0.16666667       0.25000000 </v>
    <v>       0.33333333      -0.08333333       0.25000000 </v>
    <v>       0.33333333       0.00000000       0.33333333 </v>
    <v>       0.41666667       0.00000000       0.33333333 </v>
    <v>       0.50000000       0.00000000       0.33333333 </v>
    <v>      -0.41666667       0.00000000       0.33333333 </v>
    <v>      -0.33333333       0.00000000       0.33333333 </v>
    <v>       0.41666667      -0.25000000       0.33333333 </v>
    <v>       0.41666667      -0.16666667       0.33333333 </v>
    <v>       0.50000000      -0.16666667       0.33333333 </v>
    <v>       0.41666667      -0.08333333       0.33333333 </v>
    <v>       0.41666667       0.00000000       0.41666667 </v>
    <v>       0.50000000       0.00000000       0.41666667 </v>
    <v>      -0.41666667      -0.00000000       0.41666667 </v>
    <v>       0.50000000      -0.08333333       0.41666667 </v>
    <v>       0.50000000       0.00000000       0.50000000 </v>
   </varray>
   <varray name="weights" >
    <v>       0.00057870 </v>
    <v>       0.00462963 </v>
    <v>       0.00462963 </v>
    <v>       0.00462963 </v>
    <v>       0.00462963 </v>
    <v>       0.00462963 </v>
    <v>       0.00231481 </v>
    <v>       0.00231481 </v>
    <v>       0.00925926 </v>
    <v>       0.00925926 </v>
    <v>       0.00925926 </v>
    <v>       0.00925926 </v>
    <v>       0.00925926 </v>
    <v>       0.00925926 </v>
    <v>       0.00925926 </v>
    <v>       0.00925926 </v>
    <v>       0.00925926 </v>
    <v>       0.00462963 </v>
    <v>       0.00231481 </v>
    <v>       0.00925926 </v>
    <v>       0.00925926 </v>
    <v>       0.00925926 </v>
    <v>       0.00925926 </v>
    <v>       0.00925926 </v>
    <v>       0.00925926 </v>
    <v>       0.00925926 </v>
    <v>       0.00462963 </v>
    <v>       0.00231481 </v>
    <v>       0.00925926 </v>
    <v>       0.00925926 </v>
    <v>       0.00925926 </v>
    <v>       0.00925926 </v>
    <v>       0.00925926 </v>
    <v>       0.00462963 </v>
    <v>       0.00231481 </v>
    <v>       0.00925926 </v>
    <v>       0.00925926 </v>
    <v>       0.00925926 </v>
    <v>       0.00462963 </v>
    <v>       0.00231481 </v>
    <v>       0.00925926 </v>
    <v>       0.00462963 </v>
    <v>       0.00115741 </v>
    <v>       0.00115741 </v>
    <v>       0.00462963 </v>
    <v>       0.00462963 </v>
    <v>       0.00462963 </v>
    <v>       0.00462963 </v>
    <v>       0.00462963 </v>
    <v>       0.00462963 </v>
    <v>       0.00462963 </v>
    <v>       0.00462963 </v>
    <v>       0.00462963 </v>
    <v>       0.00231481 </v>
    <v>       0.00462963 </v>
    <v>       0.00925926 </v>
    <v>       0.00925926 </v>
    <v>       0.00925926 </v>
    <v>       0.00462963 </v>
    <v>       0.00462963 </v>
    <v>       0.00462963 </v>
    <v>       0.00925926 </v>
    <v>       0.00925926 </v>
    <v>       0.00925926 </v>
    <v>       0.00925926 </v>
    <v>       0.00925926 </v>
    <v>       0.00462963 </v>
    <v>       0.00925926 </v>
    <v>       0.00462963 </v>
    <v>       0.00462963 </v>
    <v>       0.00925926 </v>
    <v>       0.00925926 </v>
    <v>       0.00925926 </v>
    <v>       0.00462963 </v>
    <v>       0.00925926 </v>
    <v>       0.00925926 </v>
    <v>       0.00462963 </v>
    <v>       0.00462963 </v>
    <v>       0.00925926 </v>
    <v>       0.00462963 </v>
    <v>       0.00925926 </v>
    <v>       0.00925926 </v>
    <v>       0.00925926 </v>
    <v>       0.00462963 </v>
    <v>       0.00231481 </v>
    <v>       0.00925926 </v>
    <v>       0.00925926 </v>
    <v>       0.00925926 </v>
    <v>       0.00925926 </v>
    <v>       0.00231481 </v>
    <v>       0.00925926 </v>
    <v>       0.00925926 </v>
    <v>       0.00925926 </v>
    <v>       0.00462963 </v>
    <v>       0.00925926 </v>
    <v>       0.00925926 </v>
    <v>       0.00462963 </v>
    <v>       0.00925926 </v>
    <v>       0.00462963 </v>
    <v>       0.00462963 </v>
    <v>       0.00115741 </v>
    <v>       0.00462963 </v>
    <v>       0.00462963 </v>
    <v>       0.00462963 </v>
    <v>       0.00462963 </v>
    <v>       0.00462963 </v>
    <v>       0.00462963 </v>
    <v>       0.00462963 </v>
    <v>       0.00231481 </v>
    <v>       0.00462963 </v>
    <v>       0.00925926 </v>
    <v>       0.00462963 </v>
    <v>       0.00462963 </v>
    <v>       0.00462963 </v>
    <v>       0.00925926 </v>
    <v>       0.00462963 </v>
    <v>       0.00925926 </v>
    <v>       0.00462963 </v>
    <v>       0.00231481 </v>
    <v>       0.00925926 </v>
    <v>       0.00925926 </v>
    <v>       0.00462963 </v>
    <v>       0.00925926 </v>
    <v>       0.00925926 </v>
    <v>       0.00925926 </v>
    <v>       0.00231481 </v>
    <v>       0.00925926 </v>
    <v>       0.00925926 </v>
    <v>       0.00462963 </v>
    <v>       0.00925926 </v>
    <v>       0.00462963 </v>
    <v>       0.00462963 </v>
    <v>       0.00115741 </v>
    <v>       0.00462963 </v>
    <v>       0.00462963 </v>
    <v>       0.00462963 </v>
    <v>       0.00462963 </v>
    <v>       0.00462963 </v>
    <v>       0.00231481 </v>
    <v>       0.00115741 </v>
    <v>       0.00462963 </v>
    <v>       0.00925926 </v>
    <v>       0.00462963 </v>
    <v>       0.00925926 </v>
    <v>       0.00925926 </v>
    <v>       0.00231481 </v>
    <v>       0.00925926 </v>
    <v>       0.00462963 </v>
    <v>       0.00462963 </v>
    <v>       0.00115741 </v>
    <v>       0.00462963 </v>
    <v>       0.00462963 </v>
    <v>       0.00462963 </v>
    <v>       0.00231481 </v>
    <v>       0.00462963 </v>
    <v>       0.00925926 </v>
    <v>       0.00231481 </v>
    <v>       0.00462963 </v>
    <v>       0.00115741 </v>
    <v>       0.00462963 </v>
    <v>       0.00231481 </v>
    <v>       0.00231481 </v>
    <v>       0.00057870 </v>
   </varray>
  </kpoints>
  <scstep>
   <time name="total">    0.33    0.33</time>
   <energy>
    <i name="e_fr_energy">     -0.13431641 </i>
    <i name="e_wo_entrp">     -0.13431641 </i>
    <i name="e_0_energy">     -0.13431641 </i>
   </energy>
  </scstep>
  <scstep>
   <time name="total">    0.44    0.44</time>
   <energy>
    <i name="e_fr_energy">     -0.14987300 </i>
    <i name="e_wo_entrp">     -0.14987300 </i>
    <i name="e_0_energy">     -0.14987300 </i>
   </energy>
  </scstep>
  <scstep>
   <time name="total">    0.44    0.44</time>
   <energy>
    <i name="e_fr_energy">     -0.15344249 </i>
    <i name="e_wo_entrp">     -0.15344249 </i>
    <i name="e_0_energy">     -0.15344249 </i>
   </energy>
  </scstep>
  <scstep>
   <time name="total">    0.43    0.43</time>
   <energy>
    <i name="e_fr_energy">     -0.16966072 </i>
    <i name="e_wo_entrp">     -0.16966072 </i>
    <i name="e_0_energy">     -0.16966072 </i>
   </energy>
  </scstep>
  <scstep>
   <time name="total">    0.47    0.47</time>
   <energy>
    <i name="e_fr_energy">     -0.17111435 </i>
    <i name="e_wo_entrp">     -0.17111435 </i>
    <i name="e_0_energy">     -0.17111435 </i>
   </energy>
  </scstep>
  <scstep>
   <time name="total">    0.51    0.51</time>
   <energy>
    <i name="e_fr_energy">     -0.17115867 </i>
    <i name="e_wo_entrp">     -0.17115867 </i>
    <i name="e_0_energy">     -0.17115867 </i>
   </energy>
  </scstep>
  <scstep>
   <time name="total">    0.51    0.51</time>
   <energy>
    <i name="e_fr_energy">     -0.17114753 </i>
    <i name="e_wo_entrp">     -0.17114753 </i>
    <i name="e_0_energy">     -0.17114753 </i>
   </energy>
  </scstep>
  <scstep>
   <time name="total">    0.52    0.52</time>
   <energy>
    <i name="e_fr_energy">     -0.17113920 </i>
    <i name="e_wo_entrp">     -0.17113920 </i>
    <i name="e_0_energy">     -0.17113920 </i>
   </energy>
  </scstep>
  <scstep>
   <time name="total">    0.52    0.52</time>
   <energy>
    <i name="e_fr_energy">     -0.17113990 </i>
    <i name="e_wo_entrp">     -0.17113990 </i>
    <i name="e_0_energy">     -0.17113990 </i>
   </energy>
  </scstep>
  <scstep>
   <time name="total">    0.51    0.51</time>
   <energy>
    <i name="e_fr_energy">     -0.17113899 </i>
    <i name="e_wo_entrp">     -0.17113899 </i>
    <i name="e_0_energy">     -0.17113899 </i>
   </energy>
  </scstep>
  <kpoints>
   <generation param="Gamma">
    <v type="int" name="divisions">      12       12       12 </v>
    <v name="usershift">      0.00000000       0.00000000       0.00000000 </v>
    <v name="genvec1">      0.08333333      -0.00000000      -0.00000000 </v>
    <v name="genvec2">     -0.00000000       0.08333333       0.00000000 </v>
    <v name="genvec3">      0.00000000       0.00000000       0.08333333 </v>
    <v name="shift">      0.00000000       0.00000000       0.00000000 </v>
   </generation>
   <varray name="kpointlist" >
    <v>       0.00000000       0.00000000       0.00000000 </v>
    <v>       0.08333333      -0.00000000      -0.00000000 </v>
    <v>       0.16666667      -0.00000000      -0.00000000 </v>
    <v>       0.25000000       0.00000000       0.00000000 </v>
    <v>       0.33333333      -0.00000000      -0.00000000 </v>
    <v>       0.41666667       0.00000000       0.00000000 </v>
    <v>       0.50000000       0.00000000       0.00000000 </v>
    <v>       0.08333333       0.08333333       0.00000000 </v>
    <v>       0.16666667       0.08333333       0.00000000 </v>
    <v>       0.25000000       0.08333333       0.00000000 </v>
    <v>       0.33333333       0.08333333       0.00000000 </v>
    <v>       0.41666667       0.08333333       0.00000000 </v>
    <v>       0.50000000       0.08333333       0.00000000 </v>
    <v>      -0.41666667       0.08333333      -0.00000000 </v>
    <v>      -0.33333333       0.08333333      -0.00000000 </v>
    <v>      -0.25000000       0.08333333       0.00000000 </v>
    <v>      -0.16666667       0.08333333       0.00000000 </v>
    <v>      -0.08333333       0.08333333       0.00000000 </v>
    <v>       0.16666667       0.16666667       0.00000000 </v>
    <v>       0.25000000       0.16666667       0.00000000 </v>
    <v>       0.33333333       0.16666667       0.00000000 </v>
    <v>       0.41666667       0.16666667       0.00000000 </v>
    <v>       0.50000000       0.16666667       0.00000000 </v>
    <v>      -0.41666667       0.16666667      -0.00000000 </v>
    <v>      -0.33333333       0.16666667       0.00000000 </v>
    <v>      -0.25000000       0.16666667      -0.00000000 </v>
    <v>      -0.16666667       0.16666667       0.00000000 </v>
    <v>       0.25000000       0.25000000       0.00000000 </v>
    <v>       0.33333333       0.25000000       0.00000000 </v>
    <v>       0.41666667       0.25000000       0.00000000 </v>
    <v>       0.50000000       0.25000000       0.00000000 </v>
    <v>      -0.41666667       0.25000000       0.00000000 </v>
    <v>      -0.33333333       0.25000000      -0.00000000 </v>
    <v>      -0.25000000       0.25000000      -0.00000000 </v>
    <v>       0.33333333       0.33333333       0.00000000 </v>
    <v>       0.41666667       0.33333333       0.00000000 </v>
    <v>       0.50000000       0.33333333       0.00000000 </v>
    <v>      -0.41666667       0.33333333       0.00000000 </v>
    <v>      -0.33333333       0.33333333       0.00000000 </v>
    <v>       0.41666667       0.41666667       0.00000000 </v>
    <v>       0.50000000       0.41666667       0.00000000 </v>
    <v>      -0.41666667       0.41666667      -0.00000000 </v>
    <v>       0.50000000       0.50000000       0.00000000 </v>
    <v>       0.00000000       0.00000000       0.08333333 </v>
    <v>       0.08333333       0.00000000       0.08333333 </v>
    <v>       0.16666667       0.00000000       0.08333333 </v>
    <v>       0.25000000      -0.00000000       0.08333333 </v>
    <v>       0.33333333       0.00000000       0.08333333 </v>
    <v>       0.41666667      -0.00000000       0.08333333 </v>
    <v>       0.50000000       0.00000000       0.08333333 </v>
    <v>      -0.41666667       0.00000000       0.08333333 </v>
    <v>      -0.33333333      -0.00000000       0.08333333 </v>
    <v>      -0.25000000       0.00000000       0.08333333 </v>
    <v>      -0.16666667      -0.00000000       0.08333333 </v>
    <v>      -0.08333333       0.00000000       0.08333333 </v>
    <v>       0.00000000       0.08333333       0.08333333 </v>
    <v>       0.16666667       0.08333333       0.08333333 </v>
    <v>       0.25000000       0.08333333       0.08333333 </v>
    <v>       0.33333333       0.08333333       0.08333333 </v>
    <v>       0.41666667       0.08333333       0.08333333 </v>
    <v>       0.50000000       0.08333333       0.08333333 </v>
    <v>      -0.41666667       0.08333333       0.08333333 </v>
    <v>      -0.33333333       0.08333333       0.08333333 </v>
    <v>      -0.25000000       0.08333333       0.08333333 </v>
    <v>      -0.16666667       0.08333333       0.08333333 </v>
    <v>      -0.08333333       0.08333333       0.08333333 </v>
    <v>       0.16666667       0.16666667       0.08333333 </v>
    <v>       0.25000000       0.16666667       0.08333333 </v>
    <v>       0.33333333       0.16666667       0.08333333 </v>
    <v>       0.41666667       0.16666667       0.08333333 </v>
    <v>       0.50000000       0.16666667       0.08333333 </v>
    <v>      -0.41666667       0.16666667       0.08333333 </v>
    <v>      -0.33333333       0.16666667       0.08333333 </v>
    <v>      -0.25000000       0.16666667       0.08333333 </v>
    <v>      -0.16666667       0.16666667       0.08333333 </v>
    <v>      -0.08333333       0.16666667       0.08333333 </v>
    <v>       0.16666667       0.25000000       0.08333333 </v>
    <v>       0.25000000       0.25000000       0.08333333 </v>
    <v>       0.33333333       0.25000000       0.08333333 </v>
    <v>       0.41666667       0.25000000       0.08333333 </v>
    <v>       0.50000000       0.25000000       0.08333333 </v>
    <v>      -0.41666667       0.25000000       0.08333333 </v>
    <v>      -0.33333333       0.25000000       0.08333333 </v>
    <v>      -0.25000000       0.25000000       0.08333333 </v>
    <v>      -0.16666667       0.25000000       0.08333333 </v>
    <v>       0.16666667       0.33333333       0.08333333 </v>
    <v>       0.25000000       0.33333333       0.08333333 </v>
    <v>       0.33333333       0.33333333       0.08333333 </v>
    <v>       0.41666667       0.33333333       0.08333333 </v>
    <v>       0.50000000       0.33333333       0.08333333 </v>
    <v>      -0.41666667       0.33333333       0.08333333 </v>
    <v>      -0.33333333       0.33333333       0.08333333 </v>
    <v>      -0.25000000       0.33333333       0.08333333 </v>
    <v>       0.16666667       0.41666667       0.08333333 </v>
    <v>       0.25000000       0.41666667       0.08333333 </v>
    <v>       0.33333333       0.41666667       0.08333333 </v>
    <v>       0.41666667       0.41666667       0.08333333 </v>
    <v>       0.50000000       0.41666667       0.08333333 </v>
    <v>      -0.41666667       0.41666667       0.08333333 </v>
    <v>      -0.33333333       0.41666667       0.08333333 </v>
    <v>       0.16666667       0.50000000       0.08333333 </v>
    <v>       0.25000000       0.50000000       0.08333333 </v>
    <v>       0.33333333       0.50000000       0.08333333 </v>
    <v>       0.41666667       0.50000000       0.08333333 </v>
    <v>       0.50000000       0.50000000       0.08333333 </v>
    <v>      -0.41666667       0.50000000       0.08333333 </v>
    <v>       0.16666667      -0.41666667       0.08333333 </v>
    <v>       0.25000000      -0.41666667       0.08333333 </v>
    <v>       0.33333333      -0.41666667       0.08333333 </v>
    <v>       0.41666667      -0.41666667       0.08333333 </v>
    <v>       0.50000000      -0.41666667       0.08333333 </v>
    <v>       0.16666667      -0.33333333       0.08333333 </v>
    <v>       0.25000000      -0.33333333       0.08333333 </v>
    <v>       0.33333333      -0.33333333       0.08333333 </v>
    <v>       0.41666667      -0.33333333       0.08333333 </v>
    <v>       0.16666667      -0.25000000       0.08333333 </v>
    <v>       0.25000000      -0.25000000       0.08333333 </v>
    <v>       0.33333333      -0.25000000       0.08333333 </v>
    <v>       0.16666667      -0.16666667       0.08333333 </v>
    <v>       0.25000000      -0.16666667       0.08333333 </v>
    <v>       0.16666667      -0.08333333       0.08333333 </v>
    <v>       0.00000000       0.00000000       0.16666667 </v>
    <v>       0.08333333      -0.00000000       0.16666667 </v>
    <v>       0.16666667       0.00000000       0.16666667 </v>
    <v>       0.25000000       0.00000000       0.16666667 </v>
    <v>       0.33333333      -0.00000000       0.16666667 </v>
    <v>       0.41666667      -0.00000000       0.16666667 </v>
    <v>       0.50000000      -0.00000000       0.16666667 </v>
    <v>      -0.41666667      -0.00000000       0.16666667 </v>
    <v>      -0.33333333       0.00000000       0.16666667 </v>
    <v>      -0.25000000      -0.00000000       0.16666667 </v>
    <v>      -0.16666667       0.00000000       0.16666667 </v>
    <v>      -0.08333333       0.00000000       0.16666667 </v>
    <v>      -0.00000000       0.08333333       0.16666667 </v>
    <v>       0.08333333       0.08333333       0.16666667 </v>
    <v>       0.25000000       0.08333333       0.16666667 </v>
    <v>       0.33333333       0.08333333       0.16666667 </v>
    <v>       0.41666667       0.08333333       0.16666667 </v>
    <v>       0.50000000       0.08333333       0.16666667 </v>
    <v>      -0.41666667       0.08333333       0.16666667 </v>
    <v>      -0.33333333       0.08333333       0.16666667 </v>
    <v>      -0.25000000       0.08333333       0.16666667 </v>
    <v>      -0.16666667       0.08333333       0.16666667 </v>
    <v>      -0.08333333       0.08333333       0.16666667 </v>
    <v>       0.00000000       0.16666667       0.16666667 </v>
    <v>       0.25000000       0.16666667       0.16666667 </v>
    <v>       0.33333333       0.16666667       0.16666667 </v>
    <v>       0.41666667       0.16666667       0.16666667 </v>
    <v>       0.50000000       0.16666667       0.16666667 </v>
    <v>      -0.41666667       0.16666667       0.16666667 </v>
    <v>      -0.33333333       0.16666667       0.16666667 </v>
    <v>      -0.25000000       0.16666667       0.16666667 </v>
    <v>      -0.16666667       0.16666667       0.16666667 </v>
    <v>      -0.08333333       0.16666667       0.16666667 </v>
    <v>       0.25000000       0.25000000       0.16666667 </v>
    <v>       0.33333333       0.25000000       0.16666667 </v>
    <v>       0.41666667       0.25000000       0.16666667 </v>
    <v>       0.50000000       0.25000000       0.16666667 </v>
    <v>      -0.41666667       0.25000000       0.16666667 </v>
    <v>      -0.33333333       0.25000000       0.16666667 </v>
    <v>      -0.25000000       0.25000000       0.16666667 </v>
    <v>      -0.16666667       0.25000000       0.16666667 </v>
    <v>      -0.08333333       0.25000000       0.16666667 </v>
    <v>       0.25000000       0.33333333       0.16666667 </v>
    <v>       0.33333333       0.33333333       0.16666667 </v>
    <v>       0.41666667       0.33333333       0.16666667 </v>
    <v>       0.50000000       0.33333333       0.16666667 </v>
    <v>      -0.41666667       0.33333333       0.16666667 </v>
    <v>      -0.33333333       0.33333333       0.16666667 </v>
    <v>      -0.25000000       0.33333333       0.16666667 </v>
    <v>      -0.16666667       0.33333333       0.16666667 </v>
    <v>       0.25000000       0.41666667       0.16666667 </v>
    <v>       0.33333333       0.41666667       0.16666667 </v>
    <v>       0.41666667       0.41666667       0.16666667 </v>
    <v>       0.50000000       0.41666667       0.16666667 </v>
    <v>      -0.41666667       0.41666667       0.16666667 </v>
    <v>      -0.33333333       0.41666667       0.16666667 </v>
    <v>      -0.25000000       0.41666667       0.16666667 </v>
    <v>       0.25000000       0.50000000       0.16666667 </v>
    <v>       0.33333333       0.50000000       0.16666667 </v>
    <v>       0.41666667       0.50000000       0.16666667 </v>
    <v>       0.50000000       0.50000000       0.16666667 </v>
    <v>      -0.41666667       0.50000000       0.16666667 </v>
    <v>      -0.33333333       0.50000000       0.16666667 </v>
    <v>       0.25000000      -0.41666667       0.16666667 </v>
    <v>       0.33333333      -0.41666667       0.16666667 </v>
    <v>       0.41666667      -0.41666667       0.16666667 </v>
    <v>       0.50000000      -0.41666667       0.16666667 </v>
    <v>      -0.41666667      -0.41666667       0.16666667 </v>
    <v>       0.25000000      -0.33333333       0.16666667 </v>
    <v>       0.33333333      -0.33333333       0.16666667 </v>
    <v>       0.41666667      -0.33333333       0.16666667 </v>
    <v>       0.50000000      -0.33333333       0.16666667 </v>
    <v>       0.25000000      -0.25000000       0.16666667 </v>
    <v>       0.33333333      -0.25000000       0.16666667 </v>
    <v>       0.41666667      -0.25000000       0.16666667 </v>
    <v>       0.25000000      -0.16666667       0.16666667 </v>
    <v>       0.33333333      -0.16666667       0.16666667 </v>
    <v>       0.25000000      -0.08333333       0.16666667 </v>
    <v>       0.00000000       0.00000000       0.25000000 </v>
    <v>       0.08333333       0.00000000       0.25000000 </v>
    <v>       0.16666667       0.00000000       0.25000000 </v>
    <v>       0.25000000       0.00000000       0.25000000 </v>
    <v>       0.33333333       0.00000000       0.25000000 </v>
    <v>       0.41666667      -0.00000000       0.25000000 </v>
    <v>       0.50000000       0.00000000       0.25000000 </v>
    <v>      -0.41666667       0.00000000       0.25000000 </v>
    <v>      -0.33333333      -0.00000000       0.25000000 </v>
    <v>      -0.25000000       0.00000000       0.25000000 </v>
    <v>      -0.16666667      -0.00000000       0.25000000 </v>
    <v>      -0.08333333       0.00000000       0.25000000 </v>
    <v>       0.00000000       0.08333333       0.25000000 </v>
    <v>       0.08333333       0.08333333       0.25000000 </v>
    <v>       0.16666667       0.08333333       0.25000000 </v>
    <v>       0.33333333       0.08333333       0.25000000 </v>
    <v>       0.41666667       0.08333333       0.25000000 </v>
    <v>       0.50000000       0.08333333       0.25000000 </v>
    <v>      -0.41666667       0.08333333       0.25000000 </v>
    <v>      -0.33333333       0.08333333       0.25000000 </v>
    <v>      -0.25000000       0.08333333       0.25000000 </v>
    <v>      -0.16666667       0.08333333       0.25000000 </v>
    <v>      -0.08333333       0.08333333       0.25000000 </v>
    <v>       0.00000000       0.16666667       0.25000000 </v>
    <v>       0.08333333       0.16666667       0.25000000 </v>
    <v>       0.33333333       0.16666667       0.25000000 </v>
    <v>       0.41666667       0.16666667       0.25000000 </v>
    <v>       0.50000000       0.16666667       0.25000000 </v>
    <v>      -0.41666667       0.16666667       0.25000000 </v>
    <v>      -0.33333333       0.16666667       0.25000000 </v>
    <v>      -0.25000000       0.16666667       0.25000000 </v>
    <v>      -0.16666667       0.16666667       0.25000000 </v>
    <v>      -0.08333333       0.16666667       0.25000000 </v>
    <v>       0.00000000       0.25000000       0.25000000 </v>
    <v>       0.33333333       0.25000000       0.25000000 </v>
    <v>       0.41666667       0.25000000       0.25000000 </v>
    <v>       0.50000000       0.25000000       0.25000000 </v>
    <v>      -0.41666667       0.25000000       0.25000000 </v>
    <v>      -0.33333333       0.25000000       0.25000000 </v>
    <v>      -0.25000000       0.25000000       0.25000000 </v>
    <v>      -0.16666667       0.25000000       0.25000000 </v>
    <v>      -0.08333333       0.25000000       0.25000000 </v>
    <v>       0.33333333       0.33333333       0.25000000 </v>
    <v>       0.41666667       0.33333333       0.25000000 </v>
    <v>       0.50000000       0.33333333       0.25000000 </v>
    <v>      -0.41666667       0.33333333       0.25000000 </v>
    <v>      -0.33333333       0.33333333       0.25000000 </v>
    <v>      -0.25000000       0.33333333       0.25000000 </v>
    <v>      -0.16666667       0.33333333       0.25000000 </v>
    <v>      -0.08333333       0.33333333       0.25000000 </v>
    <v>       0.33333333       0.41666667       0.25000000 </v>
    <v>       0.41666667       0.41666667       0.25000000 </v>
    <v>       0.50000000       0.41666667       0.25000000 </v>
    <v>      -0.41666667       0.41666667       0.25000000 </v>
    <v>      -0.33333333       0.41666667       0.25000000 </v>
    <v>      -0.25000000       0.41666667       0.25000000 </v>
    <v>      -0.16666667       0.41666667       0.25000000 </v>
    <v>       0.33333333       0.50000000       0.25000000 </v>
[...]
       <r>   -1.0170    1.0000 </r>
       <r>    4.7749    0.0000 </r>
       <r>    8.8780    0.0000 </r>
       <r>   11.5936    0.0000 </r>
       <r>   16.3536    0.0000 </r>
       <r>   18.6752    0.0000 </r>
       <r>   29.6170    0.0000 </r>
      </set>
      <set comment="kpoint 153">
       <r>  -44.1785    1.0000 </r>
       <r>   -0.6316    1.0000 </r>
       <r>    4.3894    0.0000 </r>
       <r>    7.7630    0.0000 </r>
       <r>   12.0341    0.0000 </r>
       <r>   16.2128    0.0000 </r>
       <r>   21.2162    0.0000 </r>
       <r>   28.2052    0.0000 </r>
      </set>
      <set comment="kpoint 154">
       <r>  -44.1801    1.0000 </r>
       <r>   -1.0195    1.0000 </r>
       <r>    5.0743    0.0000 </r>
       <r>    7.3148    0.0000 </r>
       <r>   12.8439    0.0000 </r>
       <r>   15.9954    0.0000 </r>
       <r>   24.0426    0.0000 </r>
       <r>   26.5435    0.0000 </r>
      </set>
      <set comment="kpoint 155">
       <r>  -44.1775    1.0000 </r>
       <r>   -0.3924    1.0000 </r>
       <r>    4.3140    0.0000 </r>
       <r>    7.2015    0.0000 </r>
       <r>   11.9093    0.0000 </r>
       <r>   16.6795    0.0000 </r>
       <r>   21.3455    0.0000 </r>
       <r>   28.4226    0.0000 </r>
      </set>
      <set comment="kpoint 156">
       <r>  -44.1777    1.0000 </r>
       <r>   -0.3730    1.0000 </r>
       <r>    4.0313    0.0000 </r>
       <r>    8.1220    0.0000 </r>
       <r>   11.4660    0.0000 </r>
       <r>   16.8979    0.0000 </r>
       <r>   18.6910    0.0000 </r>
       <r>   29.5757    0.0000 </r>
      </set>
      <set comment="kpoint 157">
       <r>  -44.1767    1.0000 </r>
       <r>   -0.1118    1.0000 </r>
       <r>    4.0601    0.0000 </r>
       <r>    7.0661    0.0000 </r>
       <r>   11.5647    0.0000 </r>
       <r>   17.5075    0.0000 </r>
       <r>   19.8130    0.0000 </r>
       <r>   28.8520    0.0000 </r>
      </set>
      <set comment="kpoint 158">
       <r>  -44.1805    1.0000 </r>
       <r>   -1.0157    1.0000 </r>
       <r>    4.7188    0.0000 </r>
       <r>    9.4587    0.0000 </r>
       <r>   11.3472    0.0000 </r>
       <r>   16.3990    0.0000 </r>
       <r>   17.3072    0.0000 </r>
       <r>   30.4060    0.0000 </r>
      </set>
      <set comment="kpoint 159">
       <r>  -44.1809    1.0000 </r>
       <r>   -1.0568    1.0000 </r>
       <r>    4.5988    0.0000 </r>
       <r>   11.0918    0.0000 </r>
       <r>   11.0918    0.0000 </r>
       <r>   14.2569    0.0000 </r>
       <r>   17.2412    0.0000 </r>
       <r>   33.5260    0.0000 </r>
      </set>
      <set comment="kpoint 160">
       <r>  -44.1779    1.0000 </r>
       <r>   -0.3209    1.0000 </r>
       <r>    3.6231    0.0000 </r>
       <r>    9.9501    0.0000 </r>
       <r>   11.0316    0.0000 </r>
       <r>   15.2304    0.0000 </r>
       <r>   17.3328    0.0000 </r>
       <r>   32.8773    0.0000 </r>
      </set>
      <set comment="kpoint 161">
       <r>  -44.1770    1.0000 </r>
       <r>   -0.1171    1.0000 </r>
       <r>    3.5532    0.0000 </r>
       <r>    8.5325    0.0000 </r>
       <r>   11.3465    0.0000 </r>
       <r>   16.2583    0.0000 </r>
       <r>   18.5414    0.0000 </r>
       <r>   30.9069    0.0000 </r>
      </set>
      <set comment="kpoint 162">
       <r>  -44.1769    1.0000 </r>
       <r>    0.0020    1.0000 </r>
       <r>    3.2990    0.0000 </r>
       <r>    9.2073    0.0000 </r>
       <r>   11.0795    0.0000 </r>
       <r>   16.1451    0.0000 </r>
       <r>   17.3176    0.0000 </r>
       <r>   31.9049    0.0000 </r>
      </set>
      <set comment="kpoint 163">
       <r>  -44.1770    1.0000 </r>
       <r>    0.0609    1.0000 </r>
       <r>    3.0449    0.0000 </r>
       <r>   10.8437    0.0000 </r>
       <r>   10.8437    0.0000 </r>
       <r>   13.9989    0.0000 </r>
       <r>   17.2438    0.0000 </r>
       <r>   34.6976    0.0000 </r>
      </set>
     </set>
    </set>
   </array>
  </eigenvalues>
  <separator name="orbital magnetization" >
   <v name="MAGDIPOLOUT">      0.00000000      0.00000000      0.00000000</v>
  </separator>
  <dos>
   <i name="efermi">      0.22350929 </i>
   <total>
    <array>
     <dimension dim="1">gridpoints</dimension>
     <dimension dim="2">spin</dimension>
     <field>energy</field>
     <field>total</field>
     <field>integrated</field>
     <set>
      <set comment="spin 1">
       <r>   -48.1824     0.0000     0.0000 </r>
       <r>   -47.8929     0.0000     0.0000 </r>
       <r>   -47.6035     0.0000     0.0000 </r>
       <r>   -47.3141     0.0000     0.0000 </r>
       <r>   -47.0247     0.0000     0.0000 </r>
       <r>   -46.7352     0.0000     0.0000 </r>
       <r>   -46.4458     0.0000     0.0000 </r>
       <r>   -46.1564     0.0000     0.0000 </r>
       <r>   -45.8670     0.0000     0.0000 </r>
       <r>   -45.5776     0.0000     0.0000 </r>
       <r>   -45.2881     0.0000     0.0000 </r>
       <r>   -44.9987     0.0000     0.0000 </r>
       <r>   -44.7093     0.0000     0.0000 </r>
       <r>   -44.4199     0.0000     0.0000 </r>
       <r>   -44.1304     6.2345     2.0000 </r>
       <r>   -43.8410     0.0000     2.0000 </r>
       <r>   -43.5516     0.0000     2.0000 </r>
       <r>   -43.2622     0.0000     2.0000 </r>
       <r>   -42.9728     0.0000     2.0000 </r>
       <r>   -42.6833     0.0000     2.0000 </r>
       <r>   -42.3939     0.0000     2.0000 </r>
       <r>   -42.1045     0.0000     2.0000 </r>
       <r>   -41.8151     0.0000     2.0000 </r>
       <r>   -41.5256     0.0000     2.0000 </r>
       <r>   -41.2362     0.0000     2.0000 </r>
       <r>   -40.9468     0.0000     2.0000 </r>
       <r>   -40.6574     0.0000     2.0000 </r>
       <r>   -40.3680     0.0000     2.0000 </r>
       <r>   -40.0785     0.0000     2.0000 </r>
       <r>   -39.7891     0.0000     2.0000 </r>
       <r>   -39.4997     0.0000     2.0000 </r>
       <r>   -39.2103     0.0000     2.0000 </r>
       <r>   -38.9208     0.0000     2.0000 </r>
       <r>   -38.6314     0.0000     2.0000 </r>
       <r>   -38.3420     0.0000     2.0000 </r>
       <r>   -38.0526     0.0000     2.0000 </r>
       <r>   -37.7632     0.0000     2.0000 </r>
       <r>   -37.4737     0.0000     2.0000 </r>
       <r>   -37.1843     0.0000     2.0000 </r>
       <r>   -36.8949     0.0000     2.0000 </r>
       <r>   -36.6055     0.0000     2.0000 </r>
       <r>   -36.3160     0.0000     2.0000 </r>
       <r>   -36.0266     0.0000     2.0000 </r>
       <r>   -35.7372     0.0000     2.0000 </r>
       <r>   -35.4478     0.0000     2.0000 </r>
       <r>   -35.1584     0.0000     2.0000 </r>
       <r>   -34.8689     0.0000     2.0000 </r>
       <r>   -34.5795     0.0000     2.0000 </r>
       <r>   -34.2901     0.0000     2.0000 </r>
       <r>   -34.0007     0.0000     2.0000 </r>
       <r>   -33.7112     0.0000     2.0000 </r>
       <r>   -33.4218     0.0000     2.0000 </r>
       <r>   -33.1324     0.0000     2.0000 </r>
       <r>   -32.8430     0.0000     2.0000 </r>
       <r>   -32.5536     0.0000     2.0000 </r>
       <r>   -32.2641     0.0000     2.0000 </r>
       <r>   -31.9747     0.0000     2.0000 </r>
       <r>   -31.6853     0.0000     2.0000 </r>
       <r>   -31.3959     0.0000     2.0000 </r>
       <r>   -31.1064     0.0000     2.0000 </r>
       <r>   -30.8170     0.0000     2.0000 </r>
       <r>   -30.5276     0.0000     2.0000 </r>
       <r>   -30.2382     0.0000     2.0000 </r>
       <r>   -29.9488     0.0000     2.0000 </r>
       <r>   -29.6593     0.0000     2.0000 </r>
       <r>   -29.3699     0.0000     2.0000 </r>
       <r>   -29.0805     0.0000     2.0000 </r>
       <r>   -28.7911     0.0000     2.0000 </r>
       <r>   -28.5016     0.0000     2.0000 </r>
       <r>   -28.2122     0.0000     2.0000 </r>
       <r>   -27.9228     0.0000     2.0000 </r>
       <r>   -27.6334     0.0000     2.0000 </r>
       <r>   -27.3440     0.0000     2.0000 </r>
       <r>   -27.0545     0.0000     2.0000 </r>
       <r>   -26.7651     0.0000     2.0000 </r>
       <r>   -26.4757     0.0000     2.0000 </r>
       <r>   -26.1863     0.0000     2.0000 </r>
       <r>   -25.8968     0.0000     2.0000 </r>
       <r>   -25.6074     0.0000     2.0000 </r>
       <r>   -25.3180     0.0000     2.0000 </r>
       <r>   -25.0286     0.0000     2.0000 </r>
       <r>   -24.7392     0.0000     2.0000 </r>
       <r>   -24.4497     0.0000     2.0000 </r>
       <r>   -24.1603     0.0000     2.0000 </r>
       <r>   -23.8709     0.0000     2.0000 </r>
       <r>   -23.5815     0.0000     2.0000 </r>
       <r>   -23.2920     0.0000     2.0000 </r>
       <r>   -23.0026     0.0000     2.0000 </r>
       <r>   -22.7132     0.0000     2.0000 </r>
       <r>   -22.4238     0.0000     2.0000 </r>
       <r>   -22.1344     0.0000     2.0000 </r>
       <r>   -21.8449     0.0000     2.0000 </r>
       <r>   -21.5555     0.0000     2.0000 </r>
       <r>   -21.2661     0.0000     2.0000 </r>
       <r>   -20.9767     0.0000     2.0000 </r>
       <r>   -20.6872     0.0000     2.0000 </r>
       <r>   -20.3978     0.0000     2.0000 </r>
       <r>   -20.1084     0.0000     2.0000 </r>
       <r>   -19.8190     0.0000     2.0000 </r>
       <r>   -19.5296     0.0000     2.0000 </r>
       <r>   -19.2401     0.0000     2.0000 </r>
       <r>   -18.9507     0.0000     2.0000 </r>
       <r>   -18.6613     0.0000     2.0000 </r>
       <r>   -18.3719     0.0000     2.0000 </r>
       <r>   -18.0824     0.0000     2.0000 </r>
       <r>   -17.7930     0.0000     2.0000 </r>
       <r>   -17.5036     0.0000     2.0000 </r>
       <r>   -17.2142     0.0000     2.0000 </r>
       <r>   -16.9248     0.0000     2.0000 </r>
       <r>   -16.6353     0.0000     2.0000 </r>
       <r>   -16.3459     0.0000     2.0000 </r>
       <r>   -16.0565     0.0000     2.0000 </r>
       <r>   -15.7671     0.0000     2.0000 </r>
       <r>   -15.4776     0.0000     2.0000 </r>
       <r>   -15.1882     0.0000     2.0000 </r>
       <r>   -14.8988     0.0000     2.0000 </r>
       <r>   -14.6094     0.0000     2.0000 </r>
       <r>   -14.3200     0.0000     2.0000 </r>
       <r>   -14.0305     0.0000     2.0000 </r>
       <r>   -13.7411     0.0000     2.0000 </r>
       <r>   -13.4517     0.0000     2.0000 </r>
       <r>   -13.1623     0.0000     2.0000 </r>
       <r>   -12.8728     0.0000     2.0000 </r>
       <r>   -12.5834     0.0000     2.0000 </r>
       <r>   -12.2940     0.0000     2.0000 </r>
       <r>   -12.0046     0.0000     2.0000 </r>
       <r>   -11.7152     0.0000     2.0000 </r>
       <r>   -11.4257     0.0000     2.0000 </r>
       <r>   -11.1363     0.0000     2.0000 </r>
       <r>   -10.8469     0.0000     2.0000 </r>
       <r>   -10.5575     0.0000     2.0000 </r>
       <r>   -10.2680     0.0000     2.0000 </r>
       <r>    -9.9786     0.0000     2.0000 </r>
       <r>    -9.6892     0.0000     2.0000 </r>
       <r>    -9.3998     0.0000     2.0000 </r>
       <r>    -9.1104     0.0000     2.0000 </r>
       <r>    -8.8209     0.0000     2.0000 </r>
       <r>    -8.5315     0.0000     2.0000 </r>
       <r>    -8.2421     0.0000     2.0000 </r>
       <r>    -7.9527     0.0000     2.0000 </r>
       <r>    -7.6632     0.0000     2.0000 </r>
       <r>    -7.3738     0.0000     2.0000 </r>
       <r>    -7.0844     0.0000     2.0000 </r>
       <r>    -6.7950     0.0000     2.0000 </r>
       <r>    -6.5056     0.0000     2.0000 </r>
       <r>    -6.2161     0.0000     2.0000 </r>
       <r>    -5.9267     0.0000     2.0000 </r>
       <r>    -5.6373     0.0000     2.0000 </r>
       <r>    -5.3479     0.0019     2.0006 </r>
       <r>    -5.0584     0.0000     2.0174 </r>
       <r>    -4.7690     0.0000     2.0683 </r>
       <r>    -4.4796     0.0960     2.1308 </r>
       <r>    -4.1902     0.0960     2.1956 </r>
       <r>    -3.9008     0.2879     2.2928 </r>
       <r>    -3.6113     0.1920     2.3553 </r>
       <r>    -3.3219     0.0960     2.4201 </r>
       <r>    -3.0325     0.0000     2.5590 </r>
       <r>    -2.7431     0.0960     2.6794 </r>
       <r>    -2.4536     0.4885     2.9018 </r>
       <r>    -2.1642     0.2213     3.0189 </r>
       <r>    -1.8748     0.0000     3.1215 </r>
       <r>    -1.5854     0.2879     3.3993 </r>
       <r>    -1.2960     0.0960     3.4826 </r>
       <r>    -1.0065     0.7219     3.6916 </r>
       <r>    -0.7171     0.0000     3.7257 </r>
       <r>    -0.4277     0.0969     3.8093 </r>
       <r>    -0.1383     0.0241     3.9549 </r>
       <r>     0.1512     0.0000     4.0000 </r>
       <r>     0.4406     0.0000     4.0000 </r>
       <r>     0.7300     0.0000     4.0000 </r>
       <r>     1.0194     0.0000     4.0000 </r>
       <r>     1.3088     0.0000     4.0000 </r>
       <r>     1.5983     0.0000     4.0000 </r>
       <r>     1.8877     0.0000     4.0000 </r>
       <r>     2.1771     0.0000     4.0000 </r>
       <r>     2.4665     0.0000     4.0000 </r>
       <r>     2.7560     0.0000     4.0000 </r>
       <r>     3.0454     0.0063     4.0018 </r>
       <r>     3.3348     0.0480     4.0174 </r>
       <r>     3.6242     0.1018     4.0468 </r>
       <r>     3.9136     0.0000     4.0590 </r>
       <r>     4.2031     0.0000     4.1285 </r>
       <r>     4.4925     0.0000     4.1840 </r>
       <r>     4.7819     0.1766     4.2421 </r>
       <r>     5.0713     0.4421     4.4347 </r>
       <r>     5.3608     0.2374     4.7227 </r>
       <r>     5.6502     0.1279     4.8437 </r>
       <r>     5.9396     0.5273     5.0519 </r>
       <r>     6.2290     0.1919     5.1771 </r>
       <r>     6.5184     0.0000     5.2882 </r>
       <r>     6.8079     0.1920     5.3438 </r>
       <r>     7.0973     0.0480     5.4410 </r>
       <r>     7.3867     0.1891     5.7457 </r>
       <r>     7.6761     0.0000     5.8183 </r>
       <r>     7.9656     0.0000     5.9016 </r>
       <r>     8.2550     0.0000     6.0961 </r>
       <r>     8.5444     0.0457     6.1787 </r>
       <r>     8.8338     0.0000     6.3183 </r>
       <r>     9.1232     0.0000     6.5405 </r>
       <r>     9.4127     0.1920     6.6655 </r>
       <r>     9.7021     0.0000     6.6933 </r>
       <r>     9.9915     0.1659     6.8061 </r>
       <r>    10.2809     0.1920     6.9803 </r>
       <r>    10.5704     0.0953     7.0704 </r>
       <r>    10.8598     0.0717     7.1191 </r>
       <r>    11.1492     0.0960     7.2720 </r>
       <r>    11.4386     0.1935     7.4252 </r>
       <r>    11.7280     0.0000     7.6331 </r>
       <r>    12.0175     0.1957     7.8217 </r>
       <r>    12.3069     0.0000     8.0706 </r>
       <r>    12.5963     0.2768     8.2433 </r>
       <r>    12.8857     0.0484     8.3994 </r>
       <r>    13.1752     0.1896     8.6070 </r>
       <r>    13.4646     0.0960     8.8090 </r>
       <r>    13.7540     0.0960     8.9803 </r>
       <r>    14.0434     0.1560     9.1181 </r>
       <r>    14.3328     0.0560     9.1898 </r>
       <r>    14.6223     0.0000     9.3287 </r>
       <r>    14.9117     0.0758     9.4479 </r>
       <r>    15.2011     0.3219     9.6001 </r>
       <r>    15.4905     0.0802     9.7038 </r>
       <r>    15.7800     0.5133     9.9124 </r>
       <r>    16.0694     0.4062    10.1453 </r>
       <r>    16.3588     0.7127    10.4806 </r>
       <r>    16.6482     0.4225    10.7693 </r>
       <r>    16.9376     0.3543    11.1430 </r>
       <r>    17.2271     0.4071    11.4639 </r>
       <r>    17.5165     0.0431    11.8203 </r>
       <r>    17.8059     0.0001    11.9375 </r>
       <r>    18.0953     0.0480    12.0660 </r>
       <r>    18.3848     0.0000    12.1146 </r>
       <r>    18.6742     0.0440    12.2662 </r>
       <r>    18.9636     0.0000    12.3368 </r>
       <r>    19.2530     0.0960    12.4294 </r>
       <r>    19.5424     0.0640    12.4479 </r>
       <r>    19.8319     0.0478    12.4618 </r>
       <r>    20.1213     0.0995    12.6017 </r>
       <r>    20.4107     0.1170    12.6901 </r>
       <r>    20.7001     0.0000    12.7650 </r>
       <r>    20.9896     0.0000    12.8484 </r>
       <r>    21.2790     0.3839    12.9595 </r>
       <r>    21.5684     0.5662    13.1650 </r>
       <r>    21.8578     0.0960    13.3762 </r>
       <r>    22.1472     0.1492    13.5397 </r>
       <r>    22.4367     0.1373    13.6381 </r>
       <r>    22.7261     0.0000    13.8322 </r>
       <r>    23.0155     0.0709    13.9360 </r>
       <r>    23.3049     0.0960    14.1609 </r>
       <r>    23.5944     0.0960    14.2165 </r>
       <r>    23.8838     0.1288    14.3370 </r>
       <r>    24.1732     0.1198    14.5659 </r>
       <r>    24.4626     0.1919    14.7604 </r>
       <r>    24.7520     0.0000    14.8507 </r>
       <r>    25.0415     0.2878    15.0173 </r>
       <r>    25.3309     0.0096    15.1035 </r>
       <r>    25.6203     0.0959    15.2535 </r>
       <r>    25.9097     0.0000    15.2535 </r>
       <r>    26.1992     0.0000    15.2813 </r>
       <r>    26.4886     0.0000    15.4757 </r>
       <r>    26.7780     0.0000    15.4965 </r>
       <r>    27.0674     0.0000    15.5521 </r>
       <r>    27.3568     0.0000    15.5799 </r>
       <r>    27.6463     0.0000    15.6632 </r>
       <r>    27.9357     0.0960    15.7187 </r>
       <r>    28.2251     0.0957    15.7465 </r>
       <r>    28.5145     0.0000    15.7743 </r>
       <r>    28.8040     0.0000    15.7743 </r>
       <r>    29.0934     0.0000    15.7882 </r>
       <r>    29.3828     0.0000    15.7882 </r>
       <r>    29.6722     0.0960    15.8715 </r>
       <r>    29.9616     0.0000    15.8785 </r>
       <r>    30.2511     0.0000    15.8785 </r>
       <r>    30.5405     0.0000    15.9063 </r>
       <r>    30.8299     0.0960    15.9340 </r>
       <r>    31.1193     0.0000    15.9479 </r>
       <r>    31.4088     0.0000    15.9479 </r>
       <r>    31.6982     0.0000    15.9479 </r>
       <r>    31.9876     0.0000    15.9618 </r>
       <r>    32.2770     0.0000    15.9618 </r>
       <r>    32.5664     0.0000    15.9618 </r>
       <r>    32.8559     0.0001    15.9618 </r>
       <r>    33.1453     0.0000    15.9896 </r>
       <r>    33.4347     0.0000    15.9896 </r>
       <r>    33.7241     0.0000    15.9965 </r>
       <r>    34.0136     0.0000    15.9965 </r>
       <r>    34.3030     0.0000    15.9965 </r>
       <r>    34.5924     0.0000    15.9965 </r>
       <r>    34.8818     0.0000    16.0000 </r>
       <r>    35.1712     0.0000    16.0000 </r>
       <r>    35.4607     0.0000    16.0000 </r>
       <r>    35.7501     0.0000    16.0000 </r>
       <r>    36.0395     0.0000    16.0000 </r>
       <r>    36.3289     0.0000    16.0000 </r>
       <r>    36.6184     0.0000    16.0000 </r>
       <r>    36.9078     0.0000    16.0000 </r>
       <r>    37.1972     0.0000    16.0000 </r>
       <r>    37.4866     0.0000    16.0000 </r>
       <r>    37.7760     0.0000    16.0000 </r>
       <r>    38.0655     0.0000    16.0000 </r>
       <r>    38.3549     0.0000    16.0000 </r>
       <r>    38.6443     0.0000    16.0000 </r>
      </set>
     </set>
    </array>
   </total>
  </dos>
 </calculation>
 <structure name="finalpos" >
  <crystal>
   <varray name="basis" >
    <v>      -2.00861924       0.00000000       2.00861924 </v>
    <v>       0.00000000       2.00861924       2.00861924 </v>
    <v>      -2.00861924       2.00861924       0.00000000 </v>
   </varray>
   <i name="volume">     16.20775448 </i>
   <varray name="rec_basis" >
    <v>      -0.24892722      -0.24892722       0.24892722 </v>
    <v>       0.24892722       0.24892722       0.24892722 </v>
    <v>      -0.24892722       0.24892722      -0.24892722 </v>
   </varray>
  </crystal>
  <varray name="positions" >
   <v>       0.00000000       0.00000000       0.00000000 </v>
   <v>       0.49999996       0.50000004       0.49999996 </v>
  </varray>
 </structure>
</modeling>
