
     Program PWSCF v.7.1 starts on  3Jan2024 at 14:44:25 

     This program is part of the open-source Quantum ESPRESSO suite
     for quantum simulation of materials; please cite
         "P. Giannozzi et al., J. Phys.:Condens. Matter 21 395502 (2009);
         "P. Giannozzi et al., J. Phys.:Condens. Matter 29 465901 (2017);
         "P. Giannozzi et al., J. Chem. Phys. 152 154105 (2020);
          URL http://www.quantum-espresso.org", 
     in publications or presentations arising from this work. More details at
     http://www.quantum-espresso.org/quote

     Parallel version (MPI), running on     8 processors

     MPI processes distributed on     1 nodes
     123271 MiB available memory on the printing compute node when the environment starts
 
     Reading input from pw_mp-23037_nscf_k3000_E130.in
Warning: card &IONS ignored
Warning: card / ignored
Warning: card &CELL ignored
Warning: card / ignored

     Current dimensions of program PWSCF are:
     Max number of different atomic species (ntypx) = 10
     Max number of k-points (npk) =  40000
     Max angular momentum in pseudopotentials (lmaxx) =  4

     Atomic positions and unit cell read from directory:
     out/mp-23037.save/
 
 
     R & G space division:  proc/nbgrp/npool/nimage =       8
     Subspace diagonalization in iterative solution of the eigenvalue problem:
     a serial algorithm will be used

 
     Parallelization info
     --------------------
     sticks:   dense  smooth     PW     G-vecs:    dense   smooth      PW
     Min         594     594    163                30970    30970    4409
     Max         596     596    164                30971    30971    4410
     Sum        4765    4765   1305               247761   247761   35273
 
     Using Slab Decomposition
 


     bravais-lattice index     =            1
     lattice parameter (alat)  =      10.7334  a.u.
     unit-cell volume          =    1236.5336 (a.u.)^3
     number of atoms/cell      =            5
     number of atomic types    =            3
     number of electrons       =        44.00
     number of Kohn-Sham states=           44
     kinetic-energy cutoff     =     130.0000  Ry
     charge density cutoff     =     520.0000  Ry
     Exchange-correlation= PBE
                           (   1   4   3   4   0   0   0)

     celldm(1)=  10.733350  celldm(2)=   0.000000  celldm(3)=   0.000000
     celldm(4)=   0.000000  celldm(5)=   0.000000  celldm(6)=   0.000000

     crystal axes: (cart. coord. in units of alat)
               a(1) = (   1.000000   0.000000   0.000000 )  
               a(2) = (   0.000000   1.000000   0.000000 )  
               a(3) = (   0.000000   0.000000   1.000000 )  

     reciprocal axes: (cart. coord. in units 2 pi/alat)
               b(1) = (  1.000000  0.000000  0.000000 )  
               b(2) = (  0.000000  1.000000  0.000000 )  
               b(3) = (  0.000000  0.000000  1.000000 )  


     PseudoPot. # 1 for Cl read from file:
     /usr/scratch4/magr4985/MG/devEb/pseudo/SG15/Cl.upf
     MD5 check sum: d09d09b0a9f35bc416b5a5b3d9ab34ee
     Pseudo is Norm-conserving, Zval =  7.0
     Generated using ONCVPSP code by D. R. Hamann
     Using radial grid of  602 points,  4 beta functions with: 
                l(1) =   0
                l(2) =   0
                l(3) =   1
                l(4) =   1

     PseudoPot. # 2 for Cs read from file:
     /usr/scratch4/magr4985/MG/devEb/pseudo/SG15/Cs.upf
     MD5 check sum: 1338a448a724a31fb6a2dbac20c1c7e6
     Pseudo is Norm-conserving, Zval =  9.0
     Generated using ONCVPSP code by D. R. Hamann
     Using radial grid of  602 points,  6 beta functions with: 
                l(1) =   0
                l(2) =   0
                l(3) =   1
                l(4) =   1
                l(5) =   2
                l(6) =   2

     PseudoPot. # 3 for Pb read from file:
     /usr/scratch4/magr4985/MG/devEb/pseudo/SG15/Pb.upf
     MD5 check sum: 18da7c9819a8d2a15024df9e07e1e14a
     Pseudo is Norm-conserving, Zval = 14.0
     Generated using ONCVPSP code by D. R. Hamann
     Using radial grid of  602 points,  8 beta functions with: 
                l(1) =   0
                l(2) =   0
                l(3) =   1
                l(4) =   1
                l(5) =   2
                l(6) =   2
                l(7) =   3
                l(8) =   3

     atomic species   valence    mass     pseudopotential
        Cl             7.00    35.45300     Cl( 1.00)
        Cs             9.00   132.90550     Cs( 1.00)
        Pb            14.00   207.20000     Pb( 1.00)

     48 Sym. Ops., with inversion, found



   Cartesian axes

     site n.     atom                  positions (alat units)
         1           Cs  tau(   1) = (   0.0000000   0.0000000   0.0000000  )
         2           Pb  tau(   2) = (   0.5000000   0.5000000   0.5000000  )
         3           Cl  tau(   3) = (   0.0000000   0.5000000   0.5000000  )
         4           Cl  tau(   4) = (   0.5000000   0.0000000   0.5000000  )
         5           Cl  tau(   5) = (   0.5000000   0.5000000   0.0000000  )

     number of k points=    35  Gaussian smearing, width (Ry)=  0.0005
                       cart. coord. in units 2pi/alat
        k(    1) = (   0.0000000   0.0000000   0.0000000), wk =   0.0039062
        k(    2) = (   0.0000000   0.0000000   0.1250000), wk =   0.0234375
        k(    3) = (   0.0000000   0.0000000   0.2500000), wk =   0.0234375
        k(    4) = (   0.0000000   0.0000000   0.3750000), wk =   0.0234375
        k(    5) = (   0.0000000   0.0000000  -0.5000000), wk =   0.0117188
        k(    6) = (   0.0000000   0.1250000   0.1250000), wk =   0.0468750
        k(    7) = (   0.0000000   0.1250000   0.2500000), wk =   0.0937500
        k(    8) = (   0.0000000   0.1250000   0.3750000), wk =   0.0937500
        k(    9) = (   0.0000000   0.1250000  -0.5000000), wk =   0.0468750
        k(   10) = (   0.0000000   0.2500000   0.2500000), wk =   0.0468750
        k(   11) = (   0.0000000   0.2500000   0.3750000), wk =   0.0937500
        k(   12) = (   0.0000000   0.2500000  -0.5000000), wk =   0.0468750
        k(   13) = (   0.0000000   0.3750000   0.3750000), wk =   0.0468750
        k(   14) = (   0.0000000   0.3750000  -0.5000000), wk =   0.0468750
        k(   15) = (   0.0000000  -0.5000000  -0.5000000), wk =   0.0117188
        k(   16) = (   0.1250000   0.1250000   0.1250000), wk =   0.0312500
        k(   17) = (   0.1250000   0.1250000   0.2500000), wk =   0.0937500
        k(   18) = (   0.1250000   0.1250000   0.3750000), wk =   0.0937500
        k(   19) = (   0.1250000   0.1250000  -0.5000000), wk =   0.0468750
        k(   20) = (   0.1250000   0.2500000   0.2500000), wk =   0.0937500
        k(   21) = (   0.1250000   0.2500000   0.3750000), wk =   0.1875000
        k(   22) = (   0.1250000   0.2500000  -0.5000000), wk =   0.0937500
        k(   23) = (   0.1250000   0.3750000   0.3750000), wk =   0.0937500
        k(   24) = (   0.1250000   0.3750000  -0.5000000), wk =   0.0937500
        k(   25) = (   0.1250000  -0.5000000  -0.5000000), wk =   0.0234375
        k(   26) = (   0.2500000   0.2500000   0.2500000), wk =   0.0312500
        k(   27) = (   0.2500000   0.2500000   0.3750000), wk =   0.0937500
        k(   28) = (   0.2500000   0.2500000  -0.5000000), wk =   0.0468750
        k(   29) = (   0.2500000   0.3750000   0.3750000), wk =   0.0937500
        k(   30) = (   0.2500000   0.3750000  -0.5000000), wk =   0.0937500
        k(   31) = (   0.2500000  -0.5000000  -0.5000000), wk =   0.0234375
        k(   32) = (   0.3750000   0.3750000   0.3750000), wk =   0.0312500
        k(   33) = (   0.3750000   0.3750000  -0.5000000), wk =   0.0468750
        k(   34) = (   0.3750000  -0.5000000  -0.5000000), wk =   0.0234375
        k(   35) = (  -0.5000000  -0.5000000  -0.5000000), wk =   0.0039062

     Dense  grid:   247761 G-vectors     FFT dimensions: (  80,  80,  80)

     Estimated max dynamical RAM per process >     132.46 MB

     Estimated total dynamical RAM >       1.03 GB

     The potential is recalculated from file :
     out/mp-23037.save/charge-density

     Starting wfcs are random

     Band Structure Calculation
     Davidson diagonalization with overlap

     ethr =  5.00E-06,  avg # of iterations = 30.9

     total cpu time spent up to now is       60.6 secs

     End of band structure calculation

          k = 0.0000 0.0000 0.0000 ( 31103 PWs)   bands (ev):

   -17.4398 -12.9101 -12.9101 -12.7228 -12.7228 -12.7228 -11.0474 -10.2923
   -10.2923  -4.2298  -4.2298  -4.2298  -2.7928  -0.5660  -0.5660  -0.5660
     1.3944   1.3944   1.3944   1.4814   1.4814   1.4814   7.2805   8.3090
     8.3090   9.2201   9.2201   9.2201   9.8238   9.8238   9.8238  12.3010
    12.3010  12.3010  14.3161  14.3161  14.3161  14.7175  14.7175  15.5432
    16.4808  16.4808  16.4808  16.6304

          k = 0.0000 0.0000 0.1250 ( 31047 PWs)   bands (ev):

   -17.4396 -12.9101 -12.8983 -12.7230 -12.7230 -12.7228 -11.0305 -10.3299
   -10.2920  -4.2284  -4.2273  -4.2273  -2.9802  -0.5555  -0.5555  -0.2439
     1.3789   1.3810   1.3810   1.4672   1.4672   1.4785   7.4204   8.4053
     8.4133   9.2249   9.2249   9.2700   9.4198   9.8808   9.8808  12.0781
    12.3071  12.3071  13.7310  14.2828  14.2828  14.3934  14.7096  15.8540
    15.8866  16.2861  16.2861  16.7078

          k = 0.0000 0.0000 0.2500 ( 30995 PWs)   bands (ev):

   -17.4390 -12.9100 -12.8695 -12.7234 -12.7234 -12.7228 -10.9785 -10.4325
   -10.2914  -4.2251  -4.2213  -4.2213  -3.3127  -0.5295  -0.5295   0.3940
     1.3421   1.3474   1.3474   1.4336   1.4336   1.5472   7.7268   8.4584
     8.6870   8.7718   9.1946   9.1946   9.4105  10.1119  10.1119  11.6075
    12.2083  12.2083  12.6511  13.6732  14.2863  14.2863  14.4751  15.2904
    15.9516  15.9516  16.5015  16.5396

          k = 0.0000 0.0000 0.3750 ( 30927 PWs)   bands (ev):

   -17.4384 -12.9100 -12.8400 -12.7238 -12.7238 -12.7228 -10.8928 -10.5695
   -10.2907  -4.2218  -4.2153  -4.2153  -3.5595  -0.5026  -0.5026   0.7880
     1.3062   1.3123   1.3123   1.4012   1.4012   1.8970   7.2666   8.4228
     9.0038   9.1367   9.1367   9.1742   9.5992  10.5032  10.5032  11.1600
    11.5789  11.8878  11.8878  13.0098  13.8823  14.4323  14.4323  15.2605
    15.6809  15.6809  16.3013  16.9344

          k = 0.0000 0.0000-0.5000 ( 31006 PWs)   bands (ev):

   -17.4381 -12.9099 -12.8275 -12.7240 -12.7240 -12.7228 -10.8195 -10.6644
   -10.2905  -4.2205  -4.2128  -4.2128  -3.6469  -0.4912  -0.4912   0.8611
     1.2915   1.2974   1.2974   1.3881   1.3881   2.1798   6.8359   8.6109
     9.1098   9.1098   9.1534   9.5248   9.7060  10.7829  10.7829  10.9594
    10.9908  11.6193  11.6193  12.7382  13.6019  14.5436  14.5437  15.3170
    15.5621  15.5621  16.1799  17.0364

          k = 0.0000 0.1250 0.1250 ( 31001 PWs)   bands (ev):

   -17.4393 -12.9042 -12.8923 -12.7231 -12.7230 -12.7230 -11.0141 -10.3470
   -10.3112  -4.2316  -4.2249  -4.2222  -3.1488  -0.5440  -0.3736  -0.1137
     1.3101   1.3680   1.4069   1.4516   1.4588   1.4988   7.5490   8.4951
     8.4982   9.1133   9.1936   9.2871   9.3502   9.8047   9.9237  11.8964
    12.2366  12.4147  13.6673  13.8096  14.1153  14.2966  14.5895  15.8538
    15.8965  16.1485  16.2398  16.8426

          k = 0.0000 0.1250 0.2500 ( 30971 PWs)   bands (ev):

   -17.4387 -12.9020 -12.8653 -12.7236 -12.7234 -12.7230 -10.9639 -10.4390
   -10.3181  -4.2313  -4.2192  -4.2177  -3.4594  -0.5157  -0.2829   0.4274
     1.2315   1.3356   1.4013   1.4149   1.4769   1.5723   7.8061   8.3908
     8.7154   8.8508   9.0328   9.1416   9.4991  10.0748  10.1050  11.5833
    11.9194  12.3921  12.8290  13.6847  13.7829  14.0253  14.6818  15.0999
    15.8073  15.8552  16.7913  16.8241

          k = 0.0000 0.1250 0.3750 ( 30939 PWs)   bands (ev):

   -17.4381 -12.9016 -12.8357 -12.7240 -12.7238 -12.7229 -10.8808 -10.5714
   -10.3185  -4.2275  -4.2166  -4.2134  -3.6960  -0.4863  -0.2441   0.7747
     1.1937   1.3012   1.3795   1.3893   1.4646   1.9386   7.2061   8.4943
     8.8067   9.0778   9.0965   9.2439   9.6730  10.3661  10.4408  11.3144
    11.3708  12.0357  12.0779  13.0805  13.7883  14.2654  14.3308  15.1355
    15.5867  15.7990  16.5041  16.5522

          k = 0.0000 0.1250-0.5000 ( 30960 PWs)   bands (ev):

   -17.4379 -12.9015 -12.8231 -12.7242 -12.7240 -12.7229 -10.8085 -10.6647
   -10.3184  -4.2243  -4.2178  -4.2110  -3.7806  -0.4737  -0.2294   0.8301
     1.1879   1.2863   1.3653   1.3845   1.4542   2.2266   6.7673   8.7289
     8.7554   9.0494   9.2349   9.5198   9.7685  10.4601  10.6749  10.8370
    11.5004  11.6406  11.7861  12.8213  13.7507  14.0970  14.4620  15.4508
    15.5150  15.6758  16.3482  16.3871

          k = 0.0000 0.2500 0.2500 ( 30950 PWs)   bands (ev):

   -17.4382 -12.8904 -12.8468 -12.7240 -12.7234 -12.7234 -10.9190 -10.4788
   -10.3691  -4.2369  -4.2180  -4.2140  -3.7424  -0.4813   0.1406   0.5741
     1.1294   1.3062   1.3698   1.4003   1.5836   1.6886   7.8916   8.0192
     8.5254   9.0040   9.0407   9.1486   9.6761  10.1480  10.1846  11.4782
    11.5357  12.7528  12.8055  13.1540  13.5106  13.6090  14.8116  15.0805
    15.3556  15.6834  16.5704  16.7051

          k = 0.0000 0.2500 0.3750 ( 30948 PWs)   bands (ev):

   -17.4376 -12.8861 -12.8201 -12.7244 -12.7238 -12.7234 -10.8438 -10.5800
   -10.3903  -4.2372  -4.2236  -4.2088  -3.9655  -0.4453   0.3158   0.7380
     1.1262   1.2743   1.3258   1.3824   1.6108   2.1035   7.0607   7.8984
     8.8096   8.9484   9.2380   9.4928   9.8463  10.2355  10.2770  11.1050
    11.5770  12.1602  12.5771  12.9598  13.2785  13.8435  14.5039  15.3509
    15.4407  15.6367  16.0458  16.7268

          k = 0.0000 0.2500-0.5000 ( 30948 PWs)   bands (ev):

   -17.4374 -12.8851 -12.8080 -12.7246 -12.7240 -12.7234 -10.7744 -10.6654
   -10.3941  -4.2335  -4.2297  -4.2067  -4.0464  -0.4297   0.3576   0.7517
     1.1601   1.2597   1.3084   1.3694   1.6155   2.3960   6.6054   7.8638
     8.9117   9.0531   9.4593   9.4690   9.9266  10.2633  10.6142  10.6174
    11.7018  11.9183  12.2872  12.7689  13.3233  14.1845  14.2083  15.2091
    15.8159  15.8946  16.1875  16.2840

          k = 0.0000 0.3750 0.3750 ( 30932 PWs)   bands (ev):

   -17.4371 -12.8769 -12.7972 -12.7248 -12.7238 -12.7238 -10.7810 -10.6111
   -10.4667  -4.2434  -4.2343  -4.2042  -4.1818  -0.4017   0.6958   0.7719
     1.1258   1.2466   1.2704   1.3556   1.7069   2.4680   6.8847   6.9627
     8.8322   9.1276   9.4129   9.9599   9.9977  10.0214  10.1949  11.0467
    11.7103  11.8187  12.7434  12.8276  13.2854  13.4407  14.6356  15.2674
    15.5881  15.6669  15.9225  15.9891

          k = 0.0000 0.3750-0.5000 ( 30890 PWs)   bands (ev):

   -17.4369 -12.8745 -12.7860 -12.7250 -12.7240 -12.7238 -10.7173 -10.6660
   -10.4943  -4.2620  -4.2420  -4.2415  -4.2023  -0.3828   0.6784   0.9025
     1.1706   1.2334   1.2485   1.3254   1.7357   2.7312   6.4482   6.8693
     8.7873   9.3636   9.4394   9.8222  10.0966  10.1885  10.5262  10.6995
    11.5739  11.7857  12.6213  12.7442  13.1516  13.8742  14.5014  14.9759
    15.5246  15.7382  16.0217  16.5147

          k = 0.0000-0.5000-0.5000 ( 30888 PWs)   bands (ev):

   -17.4367 -12.8715 -12.7753 -12.7252 -12.7240 -12.7240 -10.6663 -10.6663
   -10.5636  -4.3404  -4.2463  -4.2463  -4.2005  -0.3623   0.6500   1.1786
     1.1786   1.2226   1.2226   1.2268   1.7805   2.9748   6.3843   6.3843
     8.7397   9.3198   9.6089  10.0325  10.1709  10.1709  10.7601  10.7601
    11.0113  11.8320  12.5652  12.5652  13.7122  13.7122  14.4807  14.7954
    15.2486  15.4406  16.2688  17.1797

          k = 0.1250 0.1250 0.1250 ( 30986 PWs)   bands (ev):

   -17.4391 -12.8922 -12.8922 -12.7231 -12.7231 -12.7231 -10.9984 -10.3466
   -10.3466  -4.2302  -4.2302  -4.2159  -3.3039  -0.3618  -0.3618   0.0010
     1.2965   1.2965   1.4203   1.4485   1.4938   1.4938   7.6634   8.5619
     8.5619   9.0541   9.0958   9.0958   9.6302   9.6302   9.9636  11.7359
    12.3804  12.3804  13.4014  13.7347  13.7347  14.3922  14.3922  15.6886
    15.9485  15.9486  16.4743  16.7802

          k = 0.1250 0.1250 0.2500 ( 30973 PWs)   bands (ev):

   -17.4385 -12.8922 -12.8627 -12.7236 -12.7236 -12.7231 -10.9500 -10.4432
   -10.3458  -4.2325  -4.2268  -4.2111  -3.5975  -0.3327  -0.2168   0.4599
     1.2036   1.2622   1.4307   1.4577   1.4925   1.5826   7.8524   8.3249
     8.6690   8.8854   9.0100   9.0245   9.6285  10.0134  10.1417  11.4783
    12.1336  12.2076  12.9111  13.5302  13.6265  13.8340  14.6950  15.0412
    15.7831  15.7841  16.5059  16.9326

          k = 0.1250 0.1250 0.3750 ( 30971 PWs)   bands (ev):

   -17.4379 -12.8921 -12.8325 -12.7240 -12.7240 -12.7231 -10.8696 -10.5729
   -10.3450  -4.2304  -4.2234  -4.2107  -3.8257  -0.3022  -0.1610   0.7659
     1.1321   1.2693   1.4015   1.4425   1.4930   1.9730   7.1399   8.5153
     8.6476   8.8427   9.1951   9.2986   9.7708  10.3580  10.3833  11.1545
    11.6062  11.9144  12.2437  13.2318  13.6449  14.0635  14.3136  15.1537
    15.5278  15.7316  16.2980  16.5319

          k = 0.1250 0.1250-0.5000 ( 30956 PWs)   bands (ev):

   -17.4377 -12.8921 -12.8197 -12.7242 -12.7242 -12.7231 -10.7984 -10.6648
   -10.3447  -4.2282  -4.2220  -4.2118  -3.9080  -0.2892  -0.1414   0.8136
     1.1053   1.2972   1.3670   1.4350   1.4914   2.2689   6.6962   8.6198
     8.7105   8.8182   9.3161   9.5403   9.8434  10.5356  10.5479  10.7066
    11.6620  11.7609  11.8090  12.9934  13.8145  13.8647  14.3858  15.4145
    15.4478  15.8317  15.9864  16.1772

          k = 0.1250 0.2500 0.2500 ( 30927 PWs)   bands (ev):

   -17.4380 -12.8778 -12.8468 -12.7240 -12.7236 -12.7236 -10.9072 -10.4783
   -10.3981  -4.2379  -4.2287  -4.2092  -3.8686  -0.2552   0.1552   0.5920
     1.1158   1.2084   1.4337   1.4861   1.5801   1.6911   7.8621   7.9203
     8.4306   8.7991   9.1372   9.1923   9.8240  10.0982  10.2443  11.2788
    11.8621  12.4638  12.8949  13.0691  13.2714  13.7989  14.7667  14.8434
    15.5582  15.7836  16.1347  16.7657

          k = 0.1250 0.2500 0.3750 ( 30951 PWs)   bands (ev):

   -17.4374 -12.8739 -12.8193 -12.7244 -12.7240 -12.7235 -10.8349 -10.5804
   -10.4140  -4.2397  -4.2306  -4.2111  -4.0855  -0.2142   0.3400   0.7418
     1.0647   1.1968   1.4095   1.4729   1.6125   2.1288   6.9856   7.8102
     8.4803   8.9039   9.3623   9.4923   9.9806  10.2293  10.3171  11.0276
    11.7484  12.0794  12.4599  13.1320  13.3107  13.8146  14.3598  15.3789
    15.5033  15.5854  16.0111  16.4703

          k = 0.1250 0.2500-0.5000 ( 30934 PWs)   bands (ev):

   -17.4372 -12.8732 -12.8068 -12.7246 -12.7242 -12.7235 -10.7673 -10.6652
   -10.4161  -4.2377  -4.2336  -4.2120  -4.1649  -0.1972   0.3861   0.7603
     1.0523   1.2183   1.3908   1.4615   1.6206   2.4310   6.5296   7.7705
     8.4742   9.0667   9.5444   9.5526  10.0144  10.2522  10.5115  10.7200
    11.7899  11.9224  12.1751  13.1134  13.2725  14.0460  14.2312  15.2581
    15.7167  15.7671  15.9835  16.2689

          k = 0.1250 0.3750 0.3750 ( 30946 PWs)   bands (ev):

   -17.4369 -12.8637 -12.7972 -12.7248 -12.7240 -12.7240 -10.7756 -10.6104
   -10.4862  -4.2982  -4.2467  -4.2387  -4.2115  -0.1644   0.7136   0.7800
     1.0397   1.1543   1.3966   1.4618   1.7078   2.4973   6.8030   6.8850
     8.3569   9.1731   9.5343   9.7868  10.0101  10.2037  10.2550  11.0430
    11.7910  11.8672  12.6950  12.7353  13.4795  13.6260  14.3350  15.4765
    15.6272  15.6924  15.9320  15.9900

          k = 0.1250 0.3750-0.5000 ( 30922 PWs)   bands (ev):

   -17.4367 -12.8613 -12.7860 -12.7250 -12.7241 -12.7240 -10.7144 -10.6655
   -10.5107  -4.3756  -4.2466  -4.2456  -4.2118  -0.1434   0.7020   0.8975
     1.0431   1.1710   1.3906   1.4400   1.7372   2.7669   6.3687   6.7881
     8.3081   9.3942   9.5409   9.8311  10.0527  10.0835  10.5452  10.9189
    11.5474  11.9481  12.5384  12.7427  13.4267  14.0721  14.1163  15.1361
    15.6184  15.6947  16.1121  16.6274

          k = 0.1250-0.5000-0.5000 ( 30916 PWs)   bands (ev):

   -17.4365 -12.8580 -12.7753 -12.7252 -12.7241 -12.7241 -10.6656 -10.6656
   -10.5771  -4.4532  -4.2506  -4.2506  -4.2117  -0.1208   0.6786   1.0433
     1.0433   1.2275   1.3901   1.3901   1.7819   3.0153   6.3033   6.3033
     8.2466   9.5272   9.5868   9.9854   9.9935   9.9935  10.9560  11.0101
    11.0101  11.9737  12.5752  12.5752  13.9748  13.9815  13.9815  14.7747
    15.4561  15.6437  16.3463  16.9538

          k = 0.2500 0.2500 0.2500 ( 30946 PWs)   bands (ev):

   -17.4375 -12.8467 -12.8467 -12.7240 -12.7240 -12.7240 -10.8704 -10.4771
   -10.4771  -4.2405  -4.2405  -4.2123  -4.1226   0.1927   0.1927   0.6565
     1.0858   1.0858   1.5646   1.5646   1.5841   1.8041   7.7245   7.7245
     7.7983   8.7809   9.3449   9.3449  10.0802  10.0802  10.3260  11.1006
    12.1802  12.1802  12.8881  12.9024  12.9024  14.4162  14.4261  14.4261
    15.7689  15.8824  15.8824  16.9401

          k = 0.2500 0.2500 0.3750 ( 30961 PWs)   bands (ev):

   -17.4369 -12.8467 -12.8146 -12.7244 -12.7244 -12.7240 -10.8072 -10.5838
   -10.4759  -4.3333  -4.2463  -4.2430  -4.2184   0.2340   0.4650   0.7498
     0.9946   1.0897   1.5549   1.5596   1.6359   2.2648   6.8140   7.5657
     7.6881   8.9814   9.5448   9.5869  10.1590  10.1651  10.2738  11.0585
    11.9320  12.0780  12.5041  12.9753  13.3222  14.0024  14.2420  15.1359
    15.5720  15.9149  15.9658  16.6606

          k = 0.2500 0.2500-0.5000 ( 30930 PWs)   bands (ev):

   -17.4367 -12.8466 -12.8010 -12.7246 -12.7246 -12.7240 -10.7448 -10.6647
   -10.4754  -4.4099  -4.2470  -4.2440  -4.2239   0.2526   0.5358   0.7703
     0.9601   1.1217   1.5302   1.5559   1.6540   2.5767   6.3522   7.5072
     7.6483   9.1346   9.5927   9.7714  10.0517  10.0722  10.4483  11.0136
    11.7503  12.0924  12.3366  13.0538  13.5372  13.7883  14.3391  15.4246
    15.5274  15.8708  16.0220  16.3603

          k = 0.2500 0.3750 0.3750 ( 30964 PWs)   bands (ev):

   -17.4365 -12.8310 -12.7972 -12.7248 -12.7244 -12.7244 -10.7585 -10.6089
   -10.5387  -4.5380  -4.2547  -4.2513  -4.2294   0.3796   0.7555   0.8032
     0.9544   1.0465   1.5774   1.5994   1.7108   2.6278   6.6158   6.7041
     7.4742   9.1395   9.6892   9.6930  10.0005  10.1102  10.4109  11.2424
    11.8308  12.1055  12.6792  12.7373  13.6185  13.7315  14.4873  15.1692
    15.6400  16.0734  16.2541  16.4798

          k = 0.2500 0.3750-0.5000 ( 30948 PWs)   bands (ev):

   -17.4363 -12.8286 -12.7855 -12.7250 -12.7246 -12.7244 -10.7050 -10.6642
   -10.5536  -4.6141  -4.2568  -4.2557  -4.2344   0.4118   0.7584   0.8850
     0.9328   1.1110   1.5751   1.5922   1.7415   2.9052   6.1811   6.5996
     7.4116   9.2726   9.6043   9.8508   9.8726  10.0437  10.6179  11.3027
    11.6331  12.1603  12.6211  12.7861  13.5902  13.9319  14.5169  15.1126
    15.8368  16.0265  16.3126  16.4637

          k = 0.2500-0.5000-0.5000 ( 30956 PWs)   bands (ev):

   -17.4361 -12.8247 -12.7752 -12.7252 -12.7246 -12.7246 -10.6640 -10.6640
   -10.6110  -4.6902  -4.2608  -4.2608  -4.2384   0.4487   0.7478   0.9325
     0.9325   1.2291   1.5816   1.5816   1.7852   3.1611   6.1116   6.1116
     7.3428   9.3797   9.6205   9.7491   9.7491  10.1392  10.8323  11.4276
    11.4276  12.1607  12.7223  12.7223  13.5096  14.4458  14.5870  14.5870
    16.1620  16.1700  16.2022  16.3705

          k = 0.3750 0.3750 0.3750 ( 30961 PWs)   bands (ev):

   -17.4360 -12.7971 -12.7971 -12.7248 -12.7248 -12.7248 -10.7267 -10.6074
   -10.6074  -4.7404  -4.2628  -4.2628  -4.2480   0.7945   0.8391   0.8391
     0.9617   0.9617   1.6891   1.6891   1.7278   2.9497   6.4400   6.4400
     6.6121   9.1455   9.6707   9.6707   9.7368  10.3960  10.3960  11.5307
    12.0070  12.0070  12.8117  12.8117  13.4704  13.9665  15.1207  15.1207
    15.4670  16.1707  16.2856  16.2856

          k = 0.3750 0.3750-0.5000 ( 30942 PWs)   bands (ev):

   -17.4358 -12.7971 -12.7827 -12.7250 -12.7250 -12.7248 -10.6870 -10.6629
   -10.6068  -4.8162  -4.2669  -4.2661  -4.2562   0.8086   0.8712   0.8740
     0.9112   1.1210   1.7010   1.7079   1.7560   3.2116   5.9983   6.3698
     6.4961   9.1811   9.5656   9.6641   9.6716  10.3616  10.6261  11.6439
    11.8222  12.1151  12.8563  12.9087  13.3395  14.2831  14.9835  15.4478
    15.5844  15.8021  16.1932  16.3229

          k = 0.3750-0.5000-0.5000 ( 30884 PWs)   bands (ev):

   -17.4356 -12.7900 -12.7752 -12.7252 -12.7250 -12.7250 -10.6623 -10.6623
   -10.6465  -4.8921  -4.2710  -4.2710  -4.2645   0.8173   0.8675   0.8675
     1.0074   1.2307   1.7319   1.7319   1.7886   3.4640   5.9235   5.9235
     6.3670   9.1526   9.5611   9.5792   9.5792  10.4693  10.7200  11.7917
    11.7917  12.0933  12.9873  12.9873  13.2235  14.5896  15.2069  15.2069
    15.7240  15.7807  15.9787  15.9787

          k =-0.5000-0.5000-0.5000 ( 30976 PWs)   bands (ev):

   -17.4354 -12.7752 -12.7752 -12.7252 -12.7252 -12.7252 -10.6616 -10.6616
   -10.6616  -4.9680  -4.2752  -4.2752  -4.2752   0.8462   0.8462   0.8462
     1.2314   1.2314   1.7900   1.7900   1.7900   3.7185   5.8462   5.8462
     5.8462   9.0646   9.5186   9.5186   9.5186  10.6763  10.6763  11.9501
    11.9502  11.9502  13.1272  13.1272  13.1272  14.8251  15.4804  15.4805
    15.4805  15.6289  15.6289  15.6289

     the Fermi energy is     4.2130 ev
     (compare with:     4.2129 eV, computed in scf)

     Writing all to output data dir out/mp-23037.save/
 
     init_run     :      0.17s CPU      0.22s WALL (       1 calls)
     electrons    :     59.34s CPU     60.13s WALL (       1 calls)

     Called by init_run:
     wfcinit      :      0.00s CPU      0.00s WALL (       1 calls)
     potinit      :      0.06s CPU      0.07s WALL (       1 calls)
     hinit0       :      0.04s CPU      0.06s WALL (       1 calls)

     Called by electrons:
     c_bands      :     59.34s CPU     60.13s WALL (       1 calls)
     v_of_rho     :      0.05s CPU      0.05s WALL (       1 calls)

     Called by c_bands:
     init_us_2    :      0.08s CPU      0.09s WALL (      35 calls)
     init_us_2:cp :      0.08s CPU      0.09s WALL (      35 calls)
     cegterg      :     55.62s CPU     56.30s WALL (      72 calls)

     Called by *egterg:
     cdiaghg      :      2.80s CPU      2.89s WALL (    1116 calls)
     h_psi        :     40.96s CPU     41.59s WALL (    1188 calls)
     g_psi        :      0.55s CPU      0.55s WALL (    1081 calls)

     Called by h_psi:
     h_psi:calbec :      2.59s CPU      2.62s WALL (    1188 calls)
     vloc_psi     :     35.53s CPU     36.00s WALL (    1188 calls)
     add_vuspsi   :      2.54s CPU      2.55s WALL (    1188 calls)

     General routines
     calbec       :      2.59s CPU      2.61s WALL (    1188 calls)
     fft          :      0.01s CPU      0.04s WALL (      10 calls)
     fftw         :     31.13s CPU     31.54s WALL (   55628 calls)
 
     Parallel routines
 
     PWSCF        :   1m 0.52s CPU   1m 2.17s WALL

 
   This run was terminated on:  14:45:27   3Jan2024            

=------------------------------------------------------------------------------=
   JOB DONE.
=------------------------------------------------------------------------------=
