
     Program PWSCF v.7.1 starts on  3Jan2024 at 14:31:36 

     This program is part of the open-source Quantum ESPRESSO suite
     for quantum simulation of materials; please cite
         "P. Giannozzi et al., J. Phys.:Condens. Matter 21 395502 (2009);
         "P. Giannozzi et al., J. Phys.:Condens. Matter 29 465901 (2017);
         "P. Giannozzi et al., J. Chem. Phys. 152 154105 (2020);
          URL http://www.quantum-espresso.org", 
     in publications or presentations arising from this work. More details at
     http://www.quantum-espresso.org/quote

     Parallel version (MPI), running on     8 processors

     MPI processes distributed on     1 nodes
     121739 MiB available memory on the printing compute node when the environment starts
 
     Reading input from pw_mp-2490_nscf_k3000_E130.in
Warning: card &IONS ignored
Warning: card / ignored
Warning: card &CELL ignored
Warning: card / ignored

     Current dimensions of program PWSCF are:
     Max number of different atomic species (ntypx) = 10
     Max number of k-points (npk) =  40000
     Max angular momentum in pseudopotentials (lmaxx) =  4

     Atomic positions and unit cell read from directory:
     out/mp-2490.save/
     Atomic positions from file used, from input discarded
 
 
     R & G space division:  proc/nbgrp/npool/nimage =       8
     Subspace diagonalization in iterative solution of the eigenvalue problem:
     a serial algorithm will be used

 
     Parallelization info
     --------------------
     sticks:   dense  smooth     PW     G-vecs:    dense   smooth      PW
     Min         237     237     68                 6845     6845    1048
     Max         238     238     69                 6847     6847    1051
     Sum        1903    1903    547                54769    54769    8393
 
     Using Slab Decomposition
 


     bravais-lattice index     =            2
     lattice parameter (alat)  =      10.3021  a.u.
     unit-cell volume          =     273.3471 (a.u.)^3
     number of atoms/cell      =            2
     number of atomic types    =            2
     number of electrons       =        18.00
     number of Kohn-Sham states=           18
     kinetic-energy cutoff     =     130.0000  Ry
     charge density cutoff     =     520.0000  Ry
     Exchange-correlation= PBE
                           (   1   4   3   4   0   0   0)

     celldm(1)=  10.302077  celldm(2)=   0.000000  celldm(3)=   0.000000
     celldm(4)=   0.000000  celldm(5)=   0.000000  celldm(6)=   0.000000

     crystal axes: (cart. coord. in units of alat)
               a(1) = (  -0.500000   0.000000   0.500000 )  
               a(2) = (   0.000000   0.500000   0.500000 )  
               a(3) = (  -0.500000   0.500000   0.000000 )  

     reciprocal axes: (cart. coord. in units 2 pi/alat)
               b(1) = ( -1.000000 -1.000000  1.000000 )  
               b(2) = (  1.000000  1.000000  1.000000 )  
               b(3) = ( -1.000000  1.000000 -1.000000 )  


     PseudoPot. # 1 for Ga read from file:
     /usr/scratch4/magr4985/MG/devEb/pseudo/SG15/Ga.upf
     MD5 check sum: e59e05528b6bde9b2cf5d4427c1b4355
     Pseudo is Norm-conserving, Zval = 13.0
     Generated using ONCVPSP code by D. R. Hamann
     Using radial grid of  602 points,  6 beta functions with: 
                l(1) =   0
                l(2) =   0
                l(3) =   1
                l(4) =   1
                l(5) =   2
                l(6) =   2

     PseudoPot. # 2 for P  read from file:
     /usr/scratch4/magr4985/MG/devEb/pseudo/SG15/P.upf
     MD5 check sum: db4c1ff9730a9c3aae4012f169f0bf25
     Pseudo is Norm-conserving, Zval =  5.0
     Generated using ONCVPSP code by D. R. Hamann
     Using radial grid of  602 points,  4 beta functions with: 
                l(1) =   0
                l(2) =   0
                l(3) =   1
                l(4) =   1

     atomic species   valence    mass     pseudopotential
        Ga            13.00    69.72300     Ga( 1.00)
        P              5.00    30.97380     P ( 1.00)

     24 Sym. Ops. (no inversion) found



   Cartesian axes

     site n.     atom                  positions (alat units)
         1           Ga  tau(   1) = (   0.0000000   0.0000000   0.0000000  )
         2           P   tau(   2) = (  -0.2500000   0.2500000   0.2500001  )

     number of k points=    72  Gaussian smearing, width (Ry)=  0.0005
                       cart. coord. in units 2pi/alat
        k(    1) = (   0.0000000   0.0000000   0.0000000), wk =   0.0011574
        k(    2) = (  -0.0833333   0.0833333  -0.0833333), wk =   0.0092593
        k(    3) = (  -0.1666667   0.1666667  -0.1666667), wk =   0.0092593
        k(    4) = (  -0.2500000   0.2500000  -0.2500000), wk =   0.0092593
        k(    5) = (  -0.3333333   0.3333333  -0.3333333), wk =   0.0092593
        k(    6) = (  -0.4166667   0.4166667  -0.4166667), wk =   0.0092593
        k(    7) = (   0.5000000  -0.5000000   0.5000000), wk =   0.0046296
        k(    8) = (   0.0000000   0.1666667   0.0000000), wk =   0.0069444
        k(    9) = (  -0.0833333   0.2500000  -0.0833333), wk =   0.0277778
        k(   10) = (  -0.1666667   0.3333333  -0.1666667), wk =   0.0277778
        k(   11) = (  -0.2500000   0.4166667  -0.2500000), wk =   0.0277778
        k(   12) = (  -0.3333333   0.5000000  -0.3333333), wk =   0.0277778
        k(   13) = (   0.5833333  -0.4166667   0.5833333), wk =   0.0277778
        k(   14) = (   0.5000000  -0.3333333   0.5000000), wk =   0.0277778
        k(   15) = (   0.4166667  -0.2500000   0.4166667), wk =   0.0277778
        k(   16) = (   0.3333333  -0.1666667   0.3333333), wk =   0.0277778
        k(   17) = (   0.2500000  -0.0833333   0.2500000), wk =   0.0277778
        k(   18) = (   0.1666667  -0.0000000   0.1666667), wk =   0.0138889
        k(   19) = (   0.0000000   0.3333333   0.0000000), wk =   0.0069444
        k(   20) = (  -0.0833333   0.4166667  -0.0833333), wk =   0.0277778
        k(   21) = (  -0.1666667   0.5000000  -0.1666667), wk =   0.0277778
        k(   22) = (  -0.2500000   0.5833333  -0.2500000), wk =   0.0277778
        k(   23) = (   0.6666667  -0.3333333   0.6666667), wk =   0.0277778
        k(   24) = (   0.5833333  -0.2500000   0.5833333), wk =   0.0277778
        k(   25) = (   0.5000000  -0.1666667   0.5000000), wk =   0.0277778
        k(   26) = (   0.4166667  -0.0833333   0.4166667), wk =   0.0277778
        k(   27) = (   0.3333333   0.0000000   0.3333333), wk =   0.0138889
        k(   28) = (   0.0000000   0.5000000   0.0000000), wk =   0.0069444
        k(   29) = (  -0.0833333   0.5833333  -0.0833333), wk =   0.0277778
        k(   30) = (  -0.1666667   0.6666667  -0.1666667), wk =   0.0277778
        k(   31) = (   0.7500000  -0.2500000   0.7500000), wk =   0.0277778
        k(   32) = (   0.6666667  -0.1666667   0.6666667), wk =   0.0277778
        k(   33) = (   0.5833333  -0.0833333   0.5833333), wk =   0.0277778
        k(   34) = (   0.5000000   0.0000000   0.5000000), wk =   0.0138889
        k(   35) = (   0.0000000   0.6666667   0.0000000), wk =   0.0069444
        k(   36) = (  -0.0833333   0.7500000  -0.0833333), wk =   0.0277778
        k(   37) = (   0.8333333  -0.1666667   0.8333333), wk =   0.0277778
        k(   38) = (   0.7500000  -0.0833333   0.7500000), wk =   0.0277778
        k(   39) = (   0.6666667  -0.0000000   0.6666667), wk =   0.0138889
        k(   40) = (   0.0000000   0.8333333   0.0000000), wk =   0.0069444
        k(   41) = (   0.9166667  -0.0833333   0.9166667), wk =   0.0277778
        k(   42) = (   0.8333333   0.0000000   0.8333333), wk =   0.0138889
        k(   43) = (   0.0000000  -1.0000000   0.0000000), wk =   0.0034722
        k(   44) = (  -0.1666667   0.3333333   0.0000000), wk =   0.0277778
        k(   45) = (  -0.2500000   0.4166667  -0.0833333), wk =   0.0555556
        k(   46) = (  -0.3333333   0.5000000  -0.1666667), wk =   0.0555556
        k(   47) = (   0.5833333  -0.4166667   0.7500000), wk =   0.0555556
        k(   48) = (   0.5000000  -0.3333333   0.6666667), wk =   0.0277778
        k(   49) = (  -0.1666667   0.5000000   0.0000000), wk =   0.0277778
        k(   50) = (  -0.2500000   0.5833333  -0.0833333), wk =   0.0555556
        k(   51) = (   0.6666667  -0.3333333   0.8333333), wk =   0.0555556
        k(   52) = (   0.5833333  -0.2500000   0.7500000), wk =   0.0555556
        k(   53) = (   0.5000000  -0.1666667   0.6666667), wk =   0.0555556
        k(   54) = (   0.4166667  -0.0833333   0.5833333), wk =   0.0555556
        k(   55) = (   0.3333333   0.0000000   0.5000000), wk =   0.0277778
        k(   56) = (  -0.1666667   0.6666667   0.0000000), wk =   0.0277778
        k(   57) = (   0.7500000  -0.2500000   0.9166667), wk =   0.0555556
        k(   58) = (   0.6666667  -0.1666667   0.8333333), wk =   0.0555556
        k(   59) = (   0.5833333  -0.0833333   0.7500000), wk =   0.0555556
        k(   60) = (   0.5000000   0.0000000   0.6666667), wk =   0.0277778
        k(   61) = (   0.8333333  -0.1666667   1.0000000), wk =   0.0277778
        k(   62) = (   0.7500000  -0.0833333   0.9166667), wk =   0.0555556
        k(   63) = (   0.6666667  -0.0000000   0.8333333), wk =   0.0277778
        k(   64) = (  -0.1666667  -1.0000000  -0.0000000), wk =   0.0138889
        k(   65) = (   0.6666667  -0.3333333   1.0000000), wk =   0.0277778
        k(   66) = (   0.5833333  -0.2500000   0.9166667), wk =   0.0555556
        k(   67) = (   0.5000000  -0.1666667   0.8333333), wk =   0.0277778
        k(   68) = (   0.6666667  -0.1666667   1.0000000), wk =   0.0277778
        k(   69) = (   0.5833333  -0.0833333   0.9166667), wk =   0.0555556
        k(   70) = (   0.5000000   0.0000000   0.8333333), wk =   0.0277778
        k(   71) = (  -0.3333333  -1.0000000   0.0000000), wk =   0.0138889
        k(   72) = (  -0.5000000  -1.0000000   0.0000000), wk =   0.0069444

     Dense  grid:    54769 G-vectors     FFT dimensions: (  54,  54,  54)

     Estimated max dynamical RAM per process >      24.67 MB

     Estimated total dynamical RAM >     197.38 MB

     The potential is recalculated from file :
     out/mp-2490.save/charge-density

     Starting wfcs are random

     Band Structure Calculation
     Davidson diagonalization with overlap

     ethr =  5.00E-06,  avg # of iterations = 23.4

     total cpu time spent up to now is       14.9 secs

     End of band structure calculation

          k = 0.0000 0.0000 0.0000 (  6855 PWs)   bands (ev):

    -6.8865  -6.8865  -6.8865  -6.7866  -6.7866  -4.8314   7.6552   7.6552
     7.6552   9.4729  11.5539  11.5539  11.5539  16.4684  17.4037  17.4037
    20.1191  20.1191

          k =-0.0833 0.0833-0.0833 (  6831 PWs)   bands (ev):

    -6.8929  -6.8843  -6.8843  -6.7866  -6.7866  -4.7409   6.7546   7.5454
     7.5454   9.9672  11.7232  11.7232  11.7518  16.9160  17.0548  17.0548
    19.7276  20.7747

          k =-0.1667 0.1667-0.1667 (  6861 PWs)   bands (ev):

    -6.9095  -6.8786  -6.8786  -6.7865  -6.7865  -4.4758   5.2693   7.2857
     7.2857  10.0693  12.1014  12.1014  12.6863  16.6020  16.6020  17.7207
    19.4611  22.1949

          k =-0.2500 0.2500-0.2500 (  6838 PWs)   bands (ev):

    -6.9305  -6.8718  -6.8718  -6.7853  -6.7853  -4.0567   3.7824   6.9948
     6.9948   9.8133  12.4076  12.4076  14.0049  16.6182  16.6182  17.5919
    20.7494  23.8746

          k =-0.3333 0.3333-0.3333 (  6814 PWs)   bands (ev):

    -6.9499  -6.8660  -6.8660  -6.7830  -6.7830  -3.5304   2.4527   6.7512
     6.7512   9.5559  12.4774  12.4774  15.2563  17.2819  17.2819  17.3622
    22.4518  24.1483

          k =-0.4167 0.4167-0.4167 (  6838 PWs)   bands (ev):

    -6.9634  -6.8627  -6.8627  -6.7804  -6.7804  -3.0135   1.4405   6.5940
     6.5941   9.3871  12.4185  12.4185  15.8755  17.8842  18.4151  18.4151
    22.1255  22.3760

          k = 0.5000-0.5000 0.5000 (  6850 PWs)   bands (ev):

    -6.9682  -6.8617  -6.8617  -6.7792  -6.7792  -2.7696   1.0296   6.5401
     6.5401   9.3293  12.3817  12.3817  15.9466  18.5392  19.3116  19.3116
    21.2389  21.2389

          k = 0.0000 0.1667 0.0000 (  6827 PWs)   bands (ev):

    -6.8972  -6.8823  -6.8823  -6.7883  -6.7851  -4.7108   6.7854   7.3306
     7.3306  10.2696  11.2595  12.0108  12.0108  16.4433  17.0769  17.5128
    20.3663  20.3663

          k =-0.0833 0.2500-0.0833 (  6845 PWs)   bands (ev):

    -6.9107  -6.8777  -6.8767  -6.7900  -6.7837  -4.5040   5.6440   7.0140
     7.1320  10.5602  11.3294  12.4849  12.6671  15.8705  17.3663  17.8882
    19.9129  21.2039

          k =-0.1667 0.3333-0.1667 (  6833 PWs)   bands (ev):

    -6.9289  -6.8720  -6.8696  -6.7906  -6.7821  -4.1354   4.2276   6.7116
     6.8327  10.3909  11.7940  12.8746  13.4916  15.9163  17.3056  18.2559
    20.4051  22.7067

          k =-0.2500 0.4167-0.2500 (  6834 PWs)   bands (ev):

    -6.9473  -6.8665  -6.8635  -6.7892  -6.7801  -3.6403   2.8758   6.4902
     6.4940  10.1468  12.1096  12.9735  14.3113  16.7402  17.8121  17.9604
    21.9720  23.7929

          k =-0.3333 0.5000-0.3333 (  6841 PWs)   bands (ev):

    -6.9616  -6.8626  -6.8598  -6.7859  -6.7785  -3.1037   1.7585   6.2045
     6.3803   9.9594  12.1663  12.8520  15.3121  17.4243  18.3935  18.7967
    21.8697  22.2393

          k = 0.5833-0.4167 0.5833 (  6837 PWs)   bands (ev):

    -6.9686  -6.8608  -6.8586  -6.7824  -6.7787  -2.7349   1.1205   6.0082
     6.3913   9.8679  12.1942  12.6928  16.0259  17.8740  19.3093  19.4255
    20.7344  21.3615

          k = 0.5000-0.3333 0.5000 (  6847 PWs)   bands (ev):

    -6.9669  -6.8607  -6.8597  -6.7812  -6.7805  -2.8198   1.2606   5.9285
     6.5185   9.8842  12.3068  12.5898  16.0094  18.0073  18.1300  19.7814
    20.5608  22.6556

          k = 0.4167-0.2500 0.4167 (  6839 PWs)   bands (ev):

    -6.9568  -6.8630  -6.8625  -6.7850  -6.7808  -3.2789   2.0961   5.9783
     6.7448  10.0070  12.4854  12.5307  15.2517  16.8800  17.7644  18.9276
    21.6415  23.6961

          k = 0.3333-0.1667 0.3333 (  6832 PWs)   bands (ev):

    -6.9403  -6.8688  -6.8664  -6.7880  -6.7824  -3.8166   3.3094   6.1641
     7.0376  10.2177  12.4010  12.5573  14.1722  16.0815  17.5760  18.2324
    21.3149  23.6210

          k = 0.2500-0.0833 0.2500 (  6829 PWs)   bands (ev):

    -6.9209  -6.8759  -6.8724  -6.7889  -6.7840  -4.2752   4.6826   6.4906
     7.3375  10.4422  12.0973  12.1748  13.3147  15.9362  17.0300  18.3252
    19.9972  21.9555

          k = 0.1667-0.0000 0.1667 (  6827 PWs)   bands (ev):

    -6.9033  -6.8818  -6.8790  -6.7881  -6.7853  -4.5922   5.9727   6.9873
     7.5444  10.3755  11.6955  11.7790  12.5318  16.3579  17.0389  17.5630
    19.9282  20.6595

          k = 0.0000 0.3333 0.0000 (  6855 PWs)   bands (ev):

    -6.9233  -6.8708  -6.8708  -6.7939  -6.7812  -4.3577   5.3989   6.6567
     6.6567  10.4404  11.4545  13.0785  13.0785  15.2585  17.8357  18.5306
    21.1034  21.1034

          k =-0.0833 0.4167-0.0833 (  6855 PWs)   bands (ev):

    -6.9390  -6.8643  -6.8631  -6.7970  -6.7788  -4.0467   4.4090   6.3041
     6.3305  10.3802  11.5972  13.4842  13.6238  15.5155  17.9564  19.3489
    20.9048  22.0645

          k =-0.1667 0.5000-0.1667 (  6839 PWs)   bands (ev):

    -6.9539  -6.8597  -6.8563  -6.7976  -6.7767  -3.5972   3.2176   5.8641
     6.1012  10.4642  11.9187  13.4370  13.8564  16.7344  18.3570  19.3101
    21.8389  23.3561

          k =-0.2500 0.5833-0.2500 (  6847 PWs)   bands (ev):

    -6.9655  -6.8573  -6.8520  -6.7951  -6.7757  -3.0720   2.1157   5.4323
     5.9994  10.4206  12.2855  13.7588  13.8545  17.9398  19.1873  19.2168
    21.8070  22.2632

          k = 0.6667-0.3333 0.6667 (  6845 PWs)   bands (ev):

    -6.9716  -6.8566  -6.8505  -6.7907  -6.7770  -2.6283   1.3466   5.0952
     6.0348  10.3973  12.3426  13.5322  14.9628  18.0327  19.3274  19.9330
    20.8144  21.6632

          k = 0.5833-0.2500 0.5833 (  6839 PWs)   bands (ev):

    -6.9712  -6.8572  -6.8516  -6.7862  -6.7807  -2.5520   1.2296   4.8963
     6.2011  10.4684  12.3946  13.3147  15.8279  17.7420  17.9900  19.6595
    21.5820  23.0147

          k = 0.5000-0.1667 0.5000 (  6843 PWs)   bands (ev):

    -6.9642  -6.8586  -6.8553  -6.7856  -6.7833  -2.9126   1.8327   4.8680
     6.4765  10.6306  12.5487  13.1210  15.0841  16.6718  18.4509  20.0729
    20.9311  24.0389

          k = 0.4167-0.0833 0.4167 (  6835 PWs)   bands (ev):

    -6.9519  -6.8616  -6.8614  -6.7892  -6.7823  -3.4347   2.8321   5.0579
     6.8172  10.8296  12.7152  12.8521  13.9402  15.8108  18.9201  19.5818
    20.9918  22.9652

          k = 0.3333 0.0000 0.3333 (  6817 PWs)   bands (ev):

    -6.9365  -6.8694  -6.8659  -6.7902  -6.7826  -3.9166   3.8769   5.5754
     7.1447  10.8836  12.3973  12.4383  13.5175  15.6000  17.8934  19.3098
    20.3690  22.7463

          k = 0.0000 0.5000 0.0000 (  6843 PWs)   bands (ev):

    -6.9539  -6.8547  -6.8547  -6.8027  -6.7758  -3.7957   3.9827   5.9769
     5.9769   9.8464  11.3805  14.4096  14.4096  15.4495  18.3551  20.3630
    22.2840  22.2840

          k =-0.0833 0.5833-0.0833 (  6850 PWs)   bands (ev):

    -6.9672  -6.8482  -6.8469  -6.8059  -6.7733  -3.4018   3.1549   5.5456
     5.7224   9.8738  11.1950  14.4830  14.9149  16.6600  18.7486  20.8927
    22.4113  23.1456

          k =-0.1667 0.6667-0.1667 (  6843 PWs)   bands (ev):

    -6.9762  -6.8462  -6.8418  -6.8054  -6.7724  -2.9133   2.2604   4.9574
     5.6019  10.0521  11.6337  14.2600  14.9586  18.1679  19.4634  20.5647
    22.2424  22.3573

          k = 0.7500-0.2500 0.7500 (  6840 PWs)   bands (ev):

    -6.9797  -6.8476  -6.8398  -6.8013  -6.7740  -2.4484   1.5321   4.4273
     5.6281  10.1232  12.5890  14.2474  14.7259  18.4903  19.4026  20.8294
    21.3838  21.9511

          k = 0.6667-0.1667 0.6667 (  6839 PWs)   bands (ev):

    -6.9781  -6.8506  -6.8410  -6.7954  -6.7784  -2.2509   1.2615   4.0756
     5.7971  10.2702  13.2098  14.4154  14.8979  17.3030  18.0261  21.1211
    22.1747  23.3090

          k = 0.5833-0.0833 0.5833 (  6842 PWs)   bands (ev):

    -6.9720  -6.8540  -6.8454  -6.7895  -6.7838  -2.4856   1.6027   3.9807
     6.0881  10.5328  13.3748  14.0498  14.9845  16.7309  17.2184  21.2198
    22.5290  23.9336

          k = 0.5000 0.0000 0.5000 (  6841 PWs)   bands (ev):

    -6.9629  -6.8574  -6.8529  -6.7879  -6.7848  -2.9557   2.2515   4.2673
     6.4561  10.8287  13.3614  13.5125  13.9420  15.9624  18.7275  20.9459
    21.2809  22.5362

          k = 0.0000 0.6667 0.0000 (  6863 PWs)   bands (ev):

    -6.9804  -6.8382  -6.8382  -6.8122  -6.7703  -3.0690   2.6258   5.4361
     5.4361   9.4229  10.5766  15.8577  15.8577  16.7450  19.0224  22.1037
    23.1068  23.1068

          k =-0.0833 0.7500-0.0833 (  6857 PWs)   bands (ev):

    -6.9889  -6.8340  -6.8322  -6.8141  -6.7689  -2.6397   1.9636   5.0051
     5.2836   9.5488  10.4552  15.8952  16.2669  18.1039  19.5639  21.5153
    22.2242  23.3581

          k = 0.8333-0.1667 0.8333 (  6863 PWs)   bands (ev):

    -6.9910  -6.8360  -6.8300  -6.8112  -6.7701  -2.2116   1.4106   4.3522
     5.2820   9.7207  11.2024  15.6597  16.1184  18.7337  19.5436  20.8880
    21.9023  23.2173

          k = 0.7500-0.0833 0.7500 (  6844 PWs)   bands (ev):

    -6.9874  -6.8414  -6.8314  -6.8052  -6.7743  -1.9805   1.1701   3.8099
     5.4309   9.8827  12.4829  15.5065  15.6936  17.3727  18.2825  22.0513
    23.1713  23.2065

          k = 0.6667-0.0000 0.6667 (  6845 PWs)   bands (ev):

    -6.9803  -6.8480  -6.8368  -6.7974  -6.7797  -2.1098   1.3224   3.6187
     5.7132  10.1715  13.6219  15.0082  15.3460  16.2882  17.2177  22.7019
    23.4244  23.6941

          k = 0.0000 0.8333 0.0000 (  6854 PWs)   bands (ev):

    -6.9981  -6.8258  -6.8258  -6.8196  -6.7664  -2.2944   1.4618   5.0941
     5.0941   9.2555   9.8558  17.3217  17.3217  18.1406  19.6975  21.6159
    21.6159  22.8613

          k = 0.9167-0.0833 0.9167 (  6851 PWs)   bands (ev):

    -7.0006  -6.8265  -6.8234  -6.8182  -6.7665  -1.9789   1.0775   4.7285
     5.0557   9.4403   9.9715  17.2877  17.5036  18.8658  19.7461  20.7476
    21.2852  23.3736

          k = 0.8333 0.0000 0.8333 (  6864 PWs)   bands (ev):

    -6.9962  -6.8324  -6.8253  -6.8132  -6.7696  -1.8532   1.0015   4.1445
     5.1723   9.6009  11.0442  16.7336  16.8584  17.9589  18.8747  21.4332
    22.3471  24.2488

          k = 0.0000-1.0000 0.0000 (  6838 PWs)   bands (ev):

    -7.0043  -6.8223  -6.8212  -6.8212  -6.7649  -1.8730   0.9083   4.9775
     4.9775   9.3157   9.4861  18.2437  18.2437  18.8390  20.0258  20.5810
    20.5810  22.6474

          k =-0.1667 0.3333 0.0000 (  6855 PWs)   bands (ev):

    -6.9256  -6.8723  -6.8697  -6.7924  -6.7818  -4.2451   4.8189   6.2916
     7.0310  10.8126  11.3899  12.8714  13.2489  15.5920  17.4827  18.7416
    20.2989  21.5428

          k =-0.2500 0.4167-0.0833 (  6836 PWs)   bands (ev):

    -6.9421  -6.8662  -6.8630  -6.7932  -6.7800  -3.8354   3.6632   5.7563
     6.7830  10.8191  11.8008  13.2205  13.5185  15.9563  17.9952  19.1229
    20.9082  23.0467

          k =-0.3333 0.5000-0.1667 (  6837 PWs)   bands (ev):

    -6.9570  -6.8616  -6.8575  -6.7915  -6.7788  -3.3212   2.4793   5.4495
     6.4823  10.6670  12.0900  13.2900  14.1342  16.7739  18.6126  19.2973
    21.4404  23.4769

          k = 0.5833-0.4167 0.7500 (  6851 PWs)   bands (ev):

    -6.9672  -6.8593  -6.8540  -6.7879  -6.7787  -2.8177   1.5369   5.2950
     6.2519  10.5430  12.0526  13.2789  15.1893  17.5808  18.6726  19.9317
    20.6746  22.6559

          k = 0.5000-0.3333 0.6667 (  6860 PWs)   bands (ev):

    -6.9709  -6.8587  -6.8529  -6.7856  -6.7794  -2.5812   1.1492   5.2494
     6.1659  10.4983  12.0086  13.2544  15.9454  17.5425  18.8799  19.8961
    20.5320  22.5326

          k =-0.1667 0.5000 0.0000 (  6847 PWs)   bands (ev):

    -6.9534  -6.8576  -6.8553  -6.8001  -6.7764  -3.6940   3.6378   5.6092
     6.2075  10.4099  11.5931  13.4979  14.3069  16.1245  18.4133  20.1837
    21.2114  22.9735

          k =-0.2500 0.5833-0.0833 (  6839 PWs)   bands (ev):

    -6.9653  -6.8542  -6.8486  -6.8004  -6.7752  -3.2220   2.6938   5.0781
     5.9448  10.6502  11.8905  13.2488  14.7219  17.0305  19.3881  20.1209
    21.5734  23.3025

          k = 0.6667-0.3333 0.8333 (  6844 PWs)   bands (ev):

    -6.9729  -6.8535  -6.8444  -6.7976  -6.7757  -2.7158   1.8069   4.7047
     5.7476  10.7107  12.3782  13.4309  14.7904  17.8228  19.6367  20.2364
    21.0578  22.7170

          k = 0.5833-0.2500 0.7500 (  6847 PWs)   bands (ev):

    -6.9755  -6.8543  -6.8431  -6.7934  -6.7782  -2.3765   1.2824   4.4558
     5.7269  10.7866  12.3487  14.0742  15.1613  17.0886  19.5244  20.3297
    20.9413  23.1625

          k = 0.5000-0.1667 0.6667 (  6847 PWs)   bands (ev):

    -6.9730  -6.8556  -6.8448  -6.7910  -6.7805  -2.4620   1.4161   4.3539
     5.8869  10.9494  12.2941  14.0078  15.3359  16.7992  18.4393  20.4609
    21.8240  23.6503

          k = 0.4167-0.0833 0.5833 (  6843 PWs)   bands (ev):

    -6.9659  -6.8575  -6.8493  -6.7926  -6.7802  -2.8937   2.1018   4.4637
     6.1812  11.1542  12.3170  13.4010  14.6319  16.5962  18.9031  20.6536
    21.1723  23.2643

          k = 0.3333 0.0000 0.5000 (  6828 PWs)   bands (ev):

    -6.9552  -6.8606  -6.8561  -6.7940  -6.7794  -3.4011   2.9501   4.9026
     6.5271  11.2314  12.0377  13.0642  14.0523  16.0434  19.3245  19.9246
    20.9067  22.8072

          k =-0.1667 0.6667 0.0000 (  6853 PWs)   bands (ev):

    -6.9780  -6.8431  -6.8393  -6.8087  -6.7715  -2.9865   2.4749   5.0871
     5.4743  10.0048  10.9791  14.5063  15.8282  17.3610  19.4819  21.1432
    22.4387  23.2243

          k = 0.7500-0.2500 0.9167 (  6845 PWs)   bands (ev):

    -6.9835  -6.8430  -6.8346  -6.8073  -6.7720  -2.5152   1.7951   4.5429
     5.2735  10.3028  11.4528  14.2272  16.1324  18.0230  20.0963  20.5450
    22.1440  22.7831

          k = 0.6667-0.1667 0.8333 (  6834 PWs)   bands (ev):

    -6.9837  -6.8460  -6.8333  -6.8028  -6.7749  -2.1434   1.3208   4.0480
     5.2772  10.4388  12.5483  14.0513  15.9034  17.3073  19.7170  20.8066
    22.2477  23.1675

          k = 0.5833-0.0833 0.7500 (  6844 PWs)   bands (ev):

    -6.9800  -6.8501  -6.8354  -6.7974  -6.7793  -2.1086   1.2942   3.7750
     5.4666  10.6597  13.2511  14.1894  15.5400  16.3722  18.3227  22.0496
    22.4241  24.2670

          k = 0.5000 0.0000 0.6667 (  6848 PWs)   bands (ev):

    -6.9736  -6.8540  -6.8410  -6.7935  -6.7817  -2.4340   1.6680   3.8716
     5.7940  10.9719  13.2974  13.3720  15.5814  16.3527  17.7542  22.1084
    22.3755  23.3097

          k = 0.8333-0.1667 1.0000 (  6859 PWs)   bands (ev):

    -6.9943  -6.8318  -6.8279  -6.8146  -6.7684  -2.2441   1.4470   4.7865
     4.9735   9.8218  10.3375  15.8340  17.2639  18.3363  20.1131  20.7500
    21.7588  23.6316

          k = 0.7500-0.0833 0.9167 (  6850 PWs)   bands (ev):

    -6.9933  -6.8358  -6.8269  -6.8107  -6.7707  -1.9333   1.1252   4.2343
     4.9333  10.1030  11.1355  15.5331  16.7292  18.1920  19.7656  20.8759
    22.0748  24.2079

          k = 0.6667-0.0000 0.8333 (  6838 PWs)   bands (ev):

    -6.9876  -6.8429  -6.8290  -6.8048  -6.7751  -1.8828   1.1209   3.7756
     5.1262  10.3229  12.4901  15.1142  15.4965  17.5459  18.6828  21.8978
    22.9894  24.0973

          k =-0.1667-1.0000-0.0000 (  6852 PWs)   bands (ev):

    -7.0000  -6.8274  -6.8250  -6.8156  -6.7674  -1.8507   0.9548   4.7250
     4.7619   9.8469  10.0216  17.0648  17.2143  19.0711  19.6146  20.9577
    21.0262  23.8222

          k = 0.6667-0.3333 1.0000 (  6829 PWs)   bands (ev):

    -6.9734  -6.8520  -6.8410  -6.8007  -6.7758  -2.7566   2.0994   4.4260
     5.6154  11.2836  11.9782  12.8936  15.7409  17.0134  19.4477  20.8879
    21.8934  22.9805

          k = 0.5833-0.2500 0.9167 (  6837 PWs)   bands (ev):

    -6.9781  -6.8518  -6.8360  -6.7987  -6.7777  -2.3112   1.5271   4.0754
     5.3084  11.5273  12.3003  13.1784  16.0321  16.7698  19.0435  21.4483
    22.1038  23.3832

          k = 0.5000-0.1667 0.8333 (  6836 PWs)   bands (ev):

    -6.9796  -6.8520  -6.8343  -6.7973  -6.7789  -2.1074   1.2674   3.9740
     5.1880  11.5691  12.2201  14.0088  15.4915  16.4856  20.0830  20.4110
    21.9919  24.3265

          k = 0.6667-0.1667 1.0000 (  6846 PWs)   bands (ev):

    -6.9861  -6.8441  -6.8298  -6.8057  -6.7739  -2.1169   1.3853   4.2182
     4.8257  11.1470  11.5411  13.8956  16.5316  17.6606  19.6741  21.3599
    22.1448  23.4917

          k = 0.5833-0.0833 0.9167 (  6824 PWs)   bands (ev):

    -6.9850  -6.8472  -6.8283  -6.8024  -6.7769  -1.8859   1.1733   3.9282
     4.6824  11.4530  12.5440  13.7258  15.0722  18.0046  19.9836  20.8080
    22.5011  23.8864

          k = 0.5000 0.0000 0.8333 (  6822 PWs)   bands (ev):

    -6.9820  -6.8500  -6.8303  -6.7997  -6.7788  -1.9750   1.2655   3.8118
     4.8949  11.6755  12.9360  13.2876  15.0195  17.5367  19.1046  21.7995
    22.6395  23.6519

          k =-0.3333-1.0000 0.0000 (  6848 PWs)   bands (ev):

    -6.9905  -6.8407  -6.8264  -6.8071  -6.7735  -1.8050   1.0576   4.2861
     4.4001  11.1398  11.3103  15.2170  15.2368  19.1911  19.5150  21.2299
    21.4184  24.6733

          k =-0.5000-1.0000 0.0000 (  6844 PWs)   bands (ev):

    -6.9851  -6.8480  -6.8267  -6.8018  -6.7779  -1.7816   1.1150   4.0860
     4.2424  12.3635  12.5246  13.7650  13.8149  19.2357  19.5061  21.3602
    21.5073  24.3242

     the Fermi energy is     8.8345 ev
     (compare with:     8.8434 eV, computed in scf)

     Writing all to output data dir out/mp-2490.save/
 
     init_run     :      0.09s CPU      0.11s WALL (       1 calls)
     electrons    :     13.37s CPU     14.66s WALL (       1 calls)

     Called by init_run:
     wfcinit      :      0.00s CPU      0.00s WALL (       1 calls)
     potinit      :      0.02s CPU      0.02s WALL (       1 calls)
     hinit0       :      0.01s CPU      0.02s WALL (       1 calls)

     Called by electrons:
     c_bands      :     13.37s CPU     14.64s WALL (       1 calls)
     v_of_rho     :      0.01s CPU      0.01s WALL (       1 calls)

     Called by c_bands:
     init_us_2    :      0.02s CPU      0.02s WALL (      72 calls)
     init_us_2:cp :      0.02s CPU      0.02s WALL (      72 calls)
     cegterg      :     12.53s CPU     12.85s WALL (     126 calls)

     Called by *egterg:
     cdiaghg      :      0.83s CPU      0.86s WALL (    1758 calls)
     h_psi        :     10.87s CPU     11.15s WALL (    1884 calls)
     g_psi        :      0.11s CPU      0.11s WALL (    1686 calls)

     Called by h_psi:
     h_psi:calbec :      0.26s CPU      0.27s WALL (    1884 calls)
     vloc_psi     :     10.35s CPU     10.61s WALL (    1884 calls)
     add_vuspsi   :      0.20s CPU      0.21s WALL (    1884 calls)

     General routines
     calbec       :      0.26s CPU      0.26s WALL (    1884 calls)
     fft          :      0.01s CPU      0.01s WALL (      10 calls)
     fftw         :      9.21s CPU      9.44s WALL (   47672 calls)
 
     Parallel routines
 
     PWSCF        :     13.78s CPU     15.28s WALL

 
   This run was terminated on:  14:31:51   3Jan2024            

=------------------------------------------------------------------------------=
   JOB DONE.
=------------------------------------------------------------------------------=
