
     Program PWSCF v.7.1 starts on  3Jan2024 at 14:27: 1 

     This program is part of the open-source Quantum ESPRESSO suite
     for quantum simulation of materials; please cite
         "P. Giannozzi et al., J. Phys.:Condens. Matter 21 395502 (2009);
         "P. Giannozzi et al., J. Phys.:Condens. Matter 29 465901 (2017);
         "P. Giannozzi et al., J. Chem. Phys. 152 154105 (2020);
          URL http://www.quantum-espresso.org", 
     in publications or presentations arising from this work. More details at
     http://www.quantum-espresso.org/quote

     Parallel version (MPI), running on     8 processors

     MPI processes distributed on     1 nodes
     248425 MiB available memory on the printing compute node when the environment starts
 
     Reading input from pw_mp-661_scf_k3000_E65.in
Warning: card &CELL ignored
Warning: card / ignored

     Current dimensions of program PWSCF are:
     Max number of different atomic species (ntypx) = 10
     Max number of k-points (npk) =  40000
     Max angular momentum in pseudopotentials (lmaxx) =  4
 
     R & G space division:  proc/nbgrp/npool/nimage =       8
     Subspace diagonalization in iterative solution of the eigenvalue problem:
     a serial algorithm will be used

 
     Parallelization info
     --------------------
     sticks:   dense  smooth     PW     G-vecs:    dense   smooth      PW
     Min          79      79     23                 2537     2537     413
     Max          80      80     24                 2540     2540     418
     Sum         637     637    187                20305    20305    3321
 
     Using Slab Decomposition
 


     bravais-lattice index     =            4
     lattice parameter (alat)  =       5.9122  a.u.
     unit-cell volume          =     286.9883 (a.u.)^3
     number of atoms/cell      =            4
     number of atomic types    =            2
     number of electrons       =        32.00
     number of Kohn-Sham states=           32
     kinetic-energy cutoff     =      65.0000  Ry
     charge density cutoff     =     260.0000  Ry
     scf convergence threshold =      1.0E-10
     mixing beta               =       0.7000
     number of iterations used =            8  plain     mixing
     Exchange-correlation= PBE
                           (   1   4   3   4   0   0   0)

     celldm(1)=   5.912174  celldm(2)=   0.000000  celldm(3)=   1.603584
     celldm(4)=   0.000000  celldm(5)=   0.000000  celldm(6)=   0.000000

     crystal axes: (cart. coord. in units of alat)
               a(1) = (   1.000000   0.000000   0.000000 )  
               a(2) = (  -0.500000   0.866025   0.000000 )  
               a(3) = (   0.000000   0.000000   1.603584 )  

     reciprocal axes: (cart. coord. in units 2 pi/alat)
               b(1) = (  1.000000  0.577350  0.000000 )  
               b(2) = (  0.000000  1.154701  0.000000 )  
               b(3) = (  0.000000  0.000000  0.623603 )  


     PseudoPot. # 1 for Al read from file:
     /usr/scratch4/magr4985/MG/devEb/pseudo/SG15/Al.upf
     MD5 check sum: 61098d588df6d88baccfd5e59f8f1e90
     Pseudo is Norm-conserving, Zval = 11.0
     Generated using ONCVPSP code by D. R. Hamann
     Using radial grid of  602 points,  4 beta functions with: 
                l(1) =   0
                l(2) =   0
                l(3) =   1
                l(4) =   1

     PseudoPot. # 2 for N  read from file:
     /usr/scratch4/magr4985/MG/devEb/pseudo/SG15/N.upf
     MD5 check sum: 505747f69e3b1670e9a20de136ca1593
     Pseudo is Norm-conserving, Zval =  5.0
     Generated using ONCVPSP code by D. R. Hamann
     Using radial grid of  602 points,  4 beta functions with: 
                l(1) =   0
                l(2) =   0
                l(3) =   1
                l(4) =   1

     atomic species   valence    mass     pseudopotential
        Al            11.00    26.98150     Al( 1.00)
        N              5.00    14.00670     N ( 1.00)

     12 Sym. Ops. (no inversion) found ( 6 have fractional translation)



   Cartesian axes

     site n.     atom                  positions (alat units)
         1           Al  tau(   1) = (   0.0000000   0.5773502   0.8006489  )
         2           Al  tau(   2) = (   0.5000000   0.2886752   1.6024411  )
         3           N   tau(   3) = (   0.0000000   0.5773502   1.4122977  )
         4           N   tau(   4) = (   0.5000000   0.2886752   0.6105055  )

     number of k points=    56  Gaussian smearing, width (Ry)=  0.0005
                       cart. coord. in units 2pi/alat
        k(    1) = (   0.0000000   0.0000000   0.0000000), wk =   0.0033333
        k(    2) = (   0.0000000   0.0000000   0.1039338), wk =   0.0066667
        k(    3) = (   0.0000000   0.0000000   0.2078677), wk =   0.0066667
        k(    4) = (   0.0000000   0.0000000  -0.3118015), wk =   0.0033333
        k(    5) = (   0.0000000   0.1154701   0.0000000), wk =   0.0200000
        k(    6) = (   0.0000000   0.1154701   0.1039338), wk =   0.0400000
        k(    7) = (   0.0000000   0.1154701   0.2078677), wk =   0.0400000
        k(    8) = (   0.0000000   0.1154701  -0.3118015), wk =   0.0200000
        k(    9) = (   0.0000000   0.2309401   0.0000000), wk =   0.0200000
        k(   10) = (   0.0000000   0.2309401   0.1039338), wk =   0.0400000
        k(   11) = (   0.0000000   0.2309401   0.2078677), wk =   0.0400000
        k(   12) = (   0.0000000   0.2309401  -0.3118015), wk =   0.0200000
        k(   13) = (   0.0000000   0.3464102   0.0000000), wk =   0.0200000
        k(   14) = (   0.0000000   0.3464102   0.1039338), wk =   0.0400000
        k(   15) = (   0.0000000   0.3464102   0.2078677), wk =   0.0400000
        k(   16) = (   0.0000000   0.3464102  -0.3118015), wk =   0.0200000
        k(   17) = (   0.0000000   0.4618802   0.0000000), wk =   0.0200000
        k(   18) = (   0.0000000   0.4618802   0.1039338), wk =   0.0400000
        k(   19) = (   0.0000000   0.4618802   0.2078677), wk =   0.0400000
        k(   20) = (   0.0000000   0.4618802  -0.3118015), wk =   0.0200000
        k(   21) = (   0.0000000  -0.5773503   0.0000000), wk =   0.0100000
        k(   22) = (   0.0000000  -0.5773503   0.1039338), wk =   0.0200000
        k(   23) = (   0.0000000  -0.5773503   0.2078677), wk =   0.0200000
        k(   24) = (   0.0000000  -0.5773503  -0.3118015), wk =   0.0100000
        k(   25) = (   0.1000000   0.1732051   0.0000000), wk =   0.0200000
        k(   26) = (   0.1000000   0.1732051   0.1039338), wk =   0.0400000
        k(   27) = (   0.1000000   0.1732051   0.2078677), wk =   0.0400000
        k(   28) = (   0.1000000   0.1732051  -0.3118015), wk =   0.0200000
        k(   29) = (   0.1000000   0.2886751   0.0000000), wk =   0.0400000
        k(   30) = (   0.1000000   0.2886751   0.1039338), wk =   0.0800000
        k(   31) = (   0.1000000   0.2886751   0.2078677), wk =   0.0800000
        k(   32) = (   0.1000000   0.2886751  -0.3118015), wk =   0.0400000
        k(   33) = (   0.1000000   0.4041452   0.0000000), wk =   0.0400000
        k(   34) = (   0.1000000   0.4041452   0.1039338), wk =   0.0800000
        k(   35) = (   0.1000000   0.4041452   0.2078677), wk =   0.0800000
        k(   36) = (   0.1000000   0.4041452  -0.3118015), wk =   0.0400000
        k(   37) = (   0.1000000   0.5196152   0.0000000), wk =   0.0400000
        k(   38) = (   0.1000000   0.5196152   0.1039338), wk =   0.0800000
        k(   39) = (   0.1000000   0.5196152   0.2078677), wk =   0.0800000
        k(   40) = (   0.1000000   0.5196152  -0.3118015), wk =   0.0400000
        k(   41) = (   0.2000000   0.3464102   0.0000000), wk =   0.0200000
        k(   42) = (   0.2000000   0.3464102   0.1039338), wk =   0.0400000
        k(   43) = (   0.2000000   0.3464102   0.2078677), wk =   0.0400000
        k(   44) = (   0.2000000   0.3464102  -0.3118015), wk =   0.0200000
        k(   45) = (   0.2000000   0.4618802   0.0000000), wk =   0.0400000
        k(   46) = (   0.2000000   0.4618802   0.1039338), wk =   0.0800000
        k(   47) = (   0.2000000   0.4618802   0.2078677), wk =   0.0800000
        k(   48) = (   0.2000000   0.4618802  -0.3118015), wk =   0.0400000
        k(   49) = (   0.2000000   0.5773503   0.0000000), wk =   0.0200000
        k(   50) = (   0.2000000   0.5773503   0.1039338), wk =   0.0400000
        k(   51) = (   0.2000000   0.5773503   0.2078677), wk =   0.0400000
        k(   52) = (   0.2000000   0.5773503  -0.3118015), wk =   0.0200000
        k(   53) = (   0.3000000   0.5196152   0.0000000), wk =   0.0200000
        k(   54) = (   0.3000000   0.5196152   0.1039338), wk =   0.0400000
        k(   55) = (   0.3000000   0.5196152   0.2078677), wk =   0.0400000
        k(   56) = (   0.3000000   0.5196152  -0.3118015), wk =   0.0200000

     Dense  grid:    20305 G-vectors     FFT dimensions: (  32,  32,  50)

     Estimated max dynamical RAM per process >      11.68 MB

     Estimated total dynamical RAM >      93.41 MB

     Initial potential from superposition of free atoms

     starting charge      31.8318, renormalised to      32.0000
     Starting wfcs are random

     total cpu time spent up to now is        0.4 secs

     Self-consistent Calculation

     iteration #  1     ecut=    65.00 Ry     beta= 0.70
     ParO style diagonalization
     ethr =  5.00E-06,  avg # of iterations = 16.1

     total cpu time spent up to now is        6.5 secs

     total energy              =    -316.55489860 Ry
     estimated scf accuracy    <       1.16553030 Ry

     iteration #  2     ecut=    65.00 Ry     beta= 0.70
     ParO style diagonalization
     ethr =  3.64E-03,  avg # of iterations =  4.5

     total cpu time spent up to now is        8.5 secs

     total energy              =    -316.87284094 Ry
     estimated scf accuracy    <       0.87590736 Ry

     iteration #  3     ecut=    65.00 Ry     beta= 0.70
     ParO style diagonalization
     ethr =  2.74E-03,  avg # of iterations =  3.4

     total cpu time spent up to now is        9.9 secs

     total energy              =    -317.03846430 Ry
     estimated scf accuracy    <       0.00386390 Ry

     iteration #  4     ecut=    65.00 Ry     beta= 0.70
     ParO style diagonalization
     ethr =  1.21E-05,  avg # of iterations =  4.6

     total cpu time spent up to now is       11.8 secs

     total energy              =    -317.03862246 Ry
     estimated scf accuracy    <       0.00011488 Ry

     iteration #  5     ecut=    65.00 Ry     beta= 0.70
     ParO style diagonalization
     ethr =  3.59E-07,  avg # of iterations =  3.1

     total cpu time spent up to now is       13.1 secs

     total energy              =    -317.03862880 Ry
     estimated scf accuracy    <       0.00000086 Ry

     iteration #  6     ecut=    65.00 Ry     beta= 0.70
     ParO style diagonalization
     ethr =  2.69E-09,  avg # of iterations =  4.4

     total cpu time spent up to now is       15.0 secs

     total energy              =    -317.03862888 Ry
     estimated scf accuracy    <       0.00000010 Ry

     iteration #  7     ecut=    65.00 Ry     beta= 0.70
     ParO style diagonalization
     ethr =  3.02E-10,  avg # of iterations =  3.4

     total cpu time spent up to now is       16.4 secs

     total energy              =    -317.03862889 Ry
     estimated scf accuracy    <          4.3E-10 Ry

     iteration #  8     ecut=    65.00 Ry     beta= 0.70
     ParO style diagonalization
     ethr =  1.35E-12,  avg # of iterations =  4.7

     total cpu time spent up to now is       18.3 secs

     End of self-consistent calculation

          k = 0.0000 0.0000 0.0000 (  2551 PWs)   bands (ev):

   -91.4175 -91.4165 -52.9474 -52.9375 -52.9237 -52.9237 -52.9220 -52.9220
    -5.7784  -3.6829   3.3613   8.4322   8.4322   9.0791   9.0791   9.2745
    13.3372  15.8178  19.7282  20.3537  20.3537  22.2069  22.2945  22.2945
    23.7677  23.7677  23.9849  26.5679  26.5679  28.5348  31.3725  31.9530

          k = 0.0000 0.0000 0.1039 (  2532 PWs)   bands (ev):

   -91.4170 -91.4166 -52.9467 -52.9381 -52.9236 -52.9236 -52.9221 -52.9221
    -5.6741  -3.8840   3.7243   8.4728   8.4728   8.6749   9.0339   9.0339
    13.8344  15.8800  19.5588  20.3242  20.3242  21.4267  21.9191  21.9191
    24.2260  24.2260  24.7059  27.2307  27.2307  28.5263  31.1069  31.1069

          k = 0.0000 0.0000 0.2079 (  2556 PWs)   bands (ev):

   -91.4173 -91.4170 -52.9449 -52.9399 -52.9233 -52.9233 -52.9224 -52.9224
    -5.3719  -4.3638   4.6784   7.3952   8.5862   8.5862   8.9099   8.9099
    14.7882  15.9291  19.2881  20.2719  20.3754  20.3754  21.2314  21.2314
    25.4267  25.4267  25.8674  28.0992  28.4148  28.4148  29.7021  29.7021

          k = 0.0000 0.0000-0.3118 (  2556 PWs)   bands (ev):

   -91.4171 -91.4171 -52.9424 -52.9424 -52.9228 -52.9228 -52.9228 -52.9228
    -4.9090  -4.9090   5.9762   5.9762   8.7458   8.7458   8.7458   8.7458
    15.5987  15.5987  19.4593  19.4593  20.6711  20.6711  20.6711  20.6711
    27.0774  27.0774  27.0812  27.0812  27.0812  27.0812  31.1498  31.1498

          k = 0.0000 0.1155 0.0000 (  2563 PWs)   bands (ev):

   -91.4177 -91.4166 -52.9471 -52.9376 -52.9243 -52.9239 -52.9226 -52.9221
    -5.6532  -3.6124   3.5108   7.8573   8.2707   8.5094   9.0554   9.2188
    13.9128  16.3249  19.2337  19.5662  20.7107  21.8528  22.2517  22.3648
    22.7784  23.3553  25.4700  27.1244  27.6244  29.7737  31.2942  31.7995

          k = 0.0000 0.1155 0.1039 (  2546 PWs)   bands (ev):

   -91.4174 -91.4165 -52.9465 -52.9383 -52.9242 -52.9238 -52.9227 -52.9222
    -5.5506  -3.8054   3.8519   7.9021   8.2053   8.3192   8.9979   8.9983
    14.2868  16.3771  18.9880  19.5815  20.6576  21.3366  21.8338  22.0740
    23.5570  23.8367  25.9723  27.3985  28.1827  29.6077  30.7318  30.9207

          k = 0.0000 0.1155 0.2079 (  2541 PWs)   bands (ev):

   -91.4172 -91.4167 -52.9448 -52.9400 -52.9239 -52.9235 -52.9230 -52.9226
    -5.2539  -4.2694   4.7452   7.1843   8.1278   8.4536   8.6832   8.8457
    15.0938  16.3619  18.6576  19.4134  20.6840  20.6994  21.3825  21.4802
    24.7536  25.0833  26.9671  27.6482  28.5972  29.1494  30.0373  30.0832

          k = 0.0000 0.1155-0.3118 (  2552 PWs)   bands (ev):

   -91.4171 -91.4171 -52.9424 -52.9424 -52.9234 -52.9234 -52.9230 -52.9230
    -4.8006  -4.8005   5.9397   5.9397   8.3861   8.3861   8.6449   8.6449
    15.9027  15.9027  18.8635  18.8635  20.8779  20.8779  20.9618  20.9618
    26.1727  26.1727  26.7971  26.7971  28.4213  28.4213  30.9168  30.9168

          k = 0.0000 0.2309 0.0000 (  2557 PWs)   bands (ev):

   -91.4177 -91.4163 -52.9463 -52.9381 -52.9259 -52.9244 -52.9244 -52.9225
    -5.2940  -3.4284   3.9476   6.5640   7.4080   7.9191   8.9486   9.0169
    14.9489  16.9988  17.9148  18.9127  21.2125  21.3387  21.4096  21.9935
    23.3312  23.9534  26.2652  29.3853  29.7189  29.9613  31.5852  31.9599

          k = 0.0000 0.2309 0.1039 (  2539 PWs)   bands (ev):

   -91.4173 -91.4163 -52.9458 -52.9387 -52.9258 -52.9244 -52.9243 -52.9226
    -5.1970  -3.5969   4.2002   6.6531   7.2033   7.9796   8.8697   8.8850
    15.0504  17.0337  17.8253  18.9401  20.8101  21.3140  21.5603  22.1659
    23.4613  24.0835  26.5833  29.1357  29.8887  30.0070  30.7984  31.9593

          k = 0.0000 0.2309 0.2079 (  2554 PWs)   bands (ev):

   -91.4173 -91.4167 -52.9444 -52.9403 -52.9254 -52.9246 -52.9239 -52.9230
    -4.9181  -4.0107   4.8417   6.3944   7.2426   8.1498   8.4488   8.6617
    15.4048  16.7023  18.0003  18.9073  20.5065  21.3606  21.3850  22.0373
    24.1251  24.9348  26.5018  28.4738  29.1723  30.2693  31.4899  31.6403

          k = 0.0000 0.2309-0.3118 (  2558 PWs)   bands (ev):

   -91.4170 -91.4170 -52.9423 -52.9423 -52.9250 -52.9250 -52.9234 -52.9234
    -4.4963  -4.4963   5.6424   5.6424   7.8141   7.8141   8.3963   8.3963
    16.0139  16.0139  18.5161  18.5161  20.8204  20.8204  21.6480  21.6480
    25.3359  25.3359  26.5183  26.5183  30.2250  30.2250  31.3588  31.3588

          k = 0.0000 0.3464 0.0000 (  2559 PWs)   bands (ev):

   -91.4174 -91.4163 -52.9452 -52.9388 -52.9279 -52.9265 -52.9251 -52.9229
    -4.7578  -3.2204   4.6272   5.2250   6.3044   7.5596   8.6059   8.7849
    15.4918  16.3159  17.0820  19.4366  20.7755  20.8057  21.1688  23.1318
    24.1305  25.3757  26.5541  28.8178  31.7197  32.0280  32.1418  33.2685

          k = 0.0000 0.3464 0.1039 (  2551 PWs)   bands (ev):

   -91.4171 -91.4164 -52.9448 -52.9393 -52.9278 -52.9265 -52.9249 -52.9230
    -4.6721  -3.3466   4.5100   5.5545   6.1900   7.6290   8.6233   8.6869
    15.1957  16.2297  17.5437  19.4114  20.3138  21.0163  21.5051  23.0845
    23.8970  25.4290  26.6653  29.0022  30.6505  31.9148  32.5450  33.0165

          k = 0.0000 0.3464 0.2079 (  2542 PWs)   bands (ev):

   -91.4168 -91.4165 -52.9438 -52.9407 -52.9274 -52.9266 -52.9245 -52.9234
    -4.4283  -3.6696   4.5593   5.3483   6.7670   7.8265   8.3897   8.4331
    15.0124  15.9525  18.1187  19.2592  20.2802  21.2711  21.5582  22.7999
    24.0175  25.8837  26.1609  28.7414  29.8220  31.6965  33.1299  33.5021

          k = 0.0000 0.3464-0.3118 (  2546 PWs)   bands (ev):

   -91.4167 -91.4167 -52.9423 -52.9423 -52.9269 -52.9269 -52.9240 -52.9240
    -4.0683  -4.0682   4.8736   4.8736   7.6927   7.6927   8.1159   8.1159
    15.3735  15.3735  18.7662  18.7662  20.6956  20.6956  22.2267  22.2267
    24.9775  24.9775  27.0271  27.0271  31.0001  31.0001  33.5095  33.5095

          k = 0.0000 0.4619 0.0000 (  2533 PWs)   bands (ev):

   -91.4165 -91.4163 -52.9440 -52.9396 -52.9296 -52.9282 -52.9256 -52.9233
    -4.1731  -3.1291   4.2483   5.3967   5.5288   7.3056   7.9812   8.6462
    15.2377  15.3994  17.2421  19.4386  20.3114  21.1319  21.6289  24.1896
    24.3213  27.2020  27.2416  28.2383  32.3413  32.5842  33.3936  33.6683

          k = 0.0000 0.4619 0.1039 (  2540 PWs)   bands (ev):

   -91.4167 -91.4163 -52.9438 -52.9401 -52.9294 -52.9282 -52.9254 -52.9234
    -4.1066  -3.2007   4.0535   5.0710   6.0365   7.3802   8.1814   8.5358
    14.7959  15.4101  17.8825  19.0780  20.6013  20.9059  21.5543  23.9912
    24.1743  27.2855  27.2894  28.9127  31.4144  31.7558  33.5305  33.7485

          k = 0.0000 0.4619 0.2079 (  2534 PWs)   bands (ev):

   -91.4165 -91.4163 -52.9433 -52.9411 -52.9289 -52.9282 -52.9250 -52.9238
    -3.9216  -3.3966   3.9141   4.5168   6.9575   7.5928   8.2540   8.2998
    14.4389  15.3023  18.2281  19.0849  20.4579  21.2517  21.3809  23.3718
    24.4123  26.5305  27.6503  29.7778  30.3802  31.6445  33.7321  33.9718

          k = 0.0000 0.4619-0.3118 (  2524 PWs)   bands (ev):

   -91.4163 -91.4163 -52.9423 -52.9423 -52.9284 -52.9284 -52.9244 -52.9244
    -3.6621  -3.6621   4.0783   4.0783   7.8390   7.8390   7.9066   7.9066
    14.7706  14.7706  18.6204  18.6204  20.8145  20.8145  22.4110  22.4111
    25.2793  25.2793  28.4612  28.4612  31.5293  31.5293  34.3698  34.3698

          k = 0.0000-0.5774 0.0000 (  2530 PWs)   bands (ev):

   -91.4163 -91.4163 -52.9434 -52.9401 -52.9302 -52.9289 -52.9258 -52.9234
    -3.8516  -3.1719   3.8965   5.1512   5.9748   7.2155   7.5277   8.5924
    15.0662  15.0722  17.3232  19.4466  20.1414  21.2210  22.0092  24.2099
    24.5689  27.8681  28.0499  28.4837  31.9846  32.4480  33.1571  33.2100

          k = 0.0000-0.5774 0.1039 (  2536 PWs)   bands (ev):

   -91.4164 -91.4164 -52.9433 -52.9405 -52.9300 -52.9288 -52.9256 -52.9236
    -3.8014  -3.2095   3.7533   4.7925   6.3577   7.2912   7.8592   8.4782
    14.5883  15.1300  18.0481  18.9214  20.4500  21.3321  21.3505  24.3042
    24.3379  27.7929  28.5965  28.9586  31.4679  31.6360  33.2308  33.3831

          k = 0.0000-0.5774 0.2079 (  2546 PWs)   bands (ev):

   -91.4165 -91.4165 -52.9430 -52.9414 -52.9295 -52.9288 -52.9252 -52.9240
    -3.6659  -3.3204   3.6153   4.1855   7.1634   7.5083   8.1877   8.2055
    14.2039  15.0658  18.2556  18.9497  20.4187  21.2884  21.3240  23.5366
    24.7300  26.8700  28.9491  30.5694  30.7644  31.4506  33.0681  33.4030

          k = 0.0000-0.5774-0.3118 (  2536 PWs)   bands (ev):

   -91.4164 -91.4164 -52.9423 -52.9423 -52.9290 -52.9290 -52.9246 -52.9246
    -3.4872  -3.4872   3.7494   3.7494   7.8302   7.8302   7.9259   7.9259
    14.5446  14.5446  18.4745  18.4745  20.8755  20.8755  22.4255  22.4255
    25.5777  25.5777  29.5876  29.5876  31.7687  31.7687  33.3687  33.3687

          k = 0.1000 0.1732 0.0000 (  2553 PWs)   bands (ev):

   -91.4175 -91.4163 -52.9466 -52.9379 -52.9253 -52.9245 -52.9236 -52.9224
    -5.4107  -3.4847   3.8042   7.1272   7.3749   8.2502   8.8752   9.0906
    14.7130  17.0761  18.3935  18.6525  21.1203  21.3326  21.5551  22.4558
    23.0599  23.4208  26.9359  27.5329  29.5118  30.4600  31.4075  31.4204

          k = 0.1000 0.1732 0.1039 (  2555 PWs)   bands (ev):

   -91.4175 -91.4165 -52.9460 -52.9385 -52.9252 -52.9244 -52.9237 -52.9226
    -5.3118  -3.6616   4.0920   7.2341   7.2401   8.1432   8.8018   8.9624
    14.9168  17.1049  18.1487  18.7390  20.8952  21.2375  21.6230  22.5049
    22.9162  23.9665  27.5127  27.5251  29.7737  30.0287  30.4251  31.4621

          k = 0.1000 0.1732 0.2079 (  2548 PWs)   bands (ev):

   -91.4173 -91.4166 -52.9445 -52.9402 -52.9249 -52.9243 -52.9237 -52.9229
    -5.0267  -4.0926   4.8341   6.6747   7.5385   8.1049   8.6069   8.6151
    15.4495  16.8469  18.0368  18.8042  20.5717  21.1439  21.4724  21.8898
    24.1484  24.8741  27.1684  27.9475  28.9526  29.8407  31.0199  31.1366

          k = 0.1000 0.1732-0.3118 (  2548 PWs)   bands (ev):

   -91.4170 -91.4170 -52.9424 -52.9424 -52.9245 -52.9245 -52.9234 -52.9234
    -4.5939  -4.5939   5.7800   5.7800   7.9612   7.9612   8.4203   8.4203
    16.1563  16.1563  18.4493  18.4494  20.8109  20.8109  21.4834  21.4834
    25.6629  25.6629  26.3608  26.3608  30.0384  30.0384  30.9673  30.9673

          k = 0.1000 0.2887 0.0000 (  2547 PWs)   bands (ev):

   -91.4173 -91.4162 -52.9456 -52.9385 -52.9270 -52.9260 -52.9247 -52.9230
    -4.9608  -3.2861   4.3653   5.9032   6.4733   7.7110   8.6256   8.7906
    15.6359  17.0399  17.3367  18.6801  20.3951  20.8583  21.6389  22.8508
    23.8125  24.5058  27.3618  29.3448  29.6367  31.1519  32.1535  33.1922

          k = 0.1000 0.2887 0.1039 (  2547 PWs)   bands (ev):

   -91.4173 -91.4163 -52.9452 -52.9391 -52.9269 -52.9259 -52.9246 -52.9231
    -4.8704  -3.4295   4.4758   6.0164   6.4664   7.6459   8.5063   8.8069
    15.5276  16.8855  17.5758  18.7441  20.3200  21.0944  21.5266  22.8896
    23.5110  24.8266  27.2954  29.3131  29.8142  30.5096  32.0937  33.1440

          k = 0.1000 0.2887 0.2079 (  2547 PWs)   bands (ev):

   -91.4170 -91.4166 -52.9440 -52.9405 -52.9265 -52.9259 -52.9244 -52.9235
    -4.6116  -3.7900   4.7867   5.7575   6.9473   7.6795   8.2348   8.5760
    15.5279  16.4457  18.0894  18.8302  20.2854  21.0822  21.6062  22.4992
    23.9367  25.3348  26.8063  27.9196  30.2041  31.2437  32.2605  33.1003

          k = 0.1000 0.2887-0.3118 (  2550 PWs)   bands (ev):

   -91.4168 -91.4168 -52.9423 -52.9423 -52.9261 -52.9261 -52.9239 -52.9239
    -4.2253  -4.2253   5.2480   5.2480   7.6252   7.6252   8.1251   8.1251
    15.8883  15.8884  18.6255  18.6255  20.5309  20.5309  22.0643  22.0643
    25.0317  25.0317  26.7097  26.7097  31.1487  31.1487  32.5892  32.5893

          k = 0.1000 0.4041 0.0000 (  2542 PWs)   bands (ev):

   -91.4170 -91.4161 -52.9444 -52.9393 -52.9288 -52.9276 -52.9256 -52.9235
    -4.3893  -3.1334   4.7462   5.1314   5.7528   7.1704   8.2722   8.4028
    15.6905  15.9706  17.3012  19.3038  20.0683  21.1171  21.3188  23.7357
    24.6727  25.6173  27.6897  28.8098  31.4804  31.7472  33.2575  33.8093

          k = 0.1000 0.4041 0.1039 (  2537 PWs)   bands (ev):

   -91.4168 -91.4162 -52.9442 -52.9398 -52.9286 -52.9275 -52.9254 -52.9236
    -4.3143  -3.2274   4.4362   5.2654   6.0098   7.1794   8.2146   8.4899
    15.2925  16.0745  17.6268  19.2645  20.0741  20.9410  21.5049  23.5418
    24.5261  25.6842  27.6283  29.2359  30.4792  32.0319  32.8808  34.0385

          k = 0.1000 0.4041 0.2079 (  2538 PWs)   bands (ev):

   -91.4167 -91.4163 -52.9435 -52.9410 -52.9281 -52.9275 -52.9251 -52.9240
    -4.1033  -3.4767   4.2984   4.8790   6.7948   7.4101   7.9027   8.5275
    15.0263  15.8573  18.1058  19.3522  19.9905  20.8128  21.7265  23.1025
    24.5950  25.5608  27.4628  28.6869  30.7128  32.0603  33.2559  34.3308

          k = 0.1000 0.4041-0.3118 (  2546 PWs)   bands (ev):

   -91.4166 -91.4166 -52.9423 -52.9423 -52.9277 -52.9277 -52.9245 -52.9245
    -3.7996  -3.7996   4.4772   4.4772   7.3804   7.3804   8.0941   8.0941
    15.3162  15.3162  18.7792  18.7792  20.4070  20.4070  22.4083  22.4083
    25.0497  25.0497  27.7795  27.7795  31.6030  31.6030  34.2087  34.2087

          k = 0.1000 0.5196 0.0000 (  2535 PWs)   bands (ev):

   -91.4165 -91.4163 -52.9434 -52.9401 -52.9299 -52.9286 -52.9261 -52.9238
    -3.8858  -3.1428   4.0812   5.2878   5.9073   6.8679   7.6451   8.2667
    15.0775  15.6632  17.5513  19.3614  20.0005  21.1806  21.9333  24.1423
    24.6511  27.1513  28.2383  28.4508  31.5538  32.2411  33.4534  33.6325

          k = 0.1000 0.5196 0.1039 (  2532 PWs)   bands (ev):

   -91.4164 -91.4162 -52.9433 -52.9405 -52.9296 -52.9285 -52.9259 -52.9239
    -3.8328  -3.1864   3.9386   4.9257   6.2511   7.0129   7.8814   8.2027
    14.8040  15.7003  17.9993  18.9555  20.0460  21.1688  21.7876  24.0018
    24.6599  27.0100  28.1413  29.2690  30.8559  31.8700  33.2618  33.9901

          k = 0.1000 0.5196 0.2079 (  2535 PWs)   bands (ev):

   -91.4164 -91.4163 -52.9430 -52.9414 -52.9292 -52.9285 -52.9255 -52.9243
    -3.6888  -3.3121   3.8005   4.3461   6.7498   7.5288   7.6963   8.4064
    14.5814  15.5387  18.2627  19.1253  19.6504  21.0014  21.9724  23.5093
    24.8726  26.3751  28.2231  29.7353  30.9864  31.7142  33.3272  33.9889

          k = 0.1000 0.5196-0.3118 (  2534 PWs)   bands (ev):

   -91.4164 -91.4164 -52.9423 -52.9423 -52.9287 -52.9287 -52.9249 -52.9249
    -3.4961  -3.4961   3.9282   3.9282   7.2066   7.2066   8.2045   8.2045
    14.9453  14.9453  18.6184  18.6184  20.3698  20.3698  22.6711  22.6711
    25.5189  25.5189  28.8070  28.8070  31.7966  31.7966  33.7688  33.7688

          k = 0.2000 0.3464 0.0000 (  2537 PWs)   bands (ev):

   -91.4170 -91.4160 -52.9446 -52.9392 -52.9280 -52.9276 -52.9255 -52.9238
    -4.4687  -3.1382   5.0106   5.3467   5.5262   7.1598   8.0588   8.3924
    15.9499  16.5045  17.7044  18.6937  19.9494  20.7199  21.4870  23.7070
    24.5244  25.1373  28.6192  29.6665  29.9240  30.8213  33.5614  33.8286

          k = 0.2000 0.3464 0.1039 (  2542 PWs)   bands (ev):

   -91.4170 -91.4162 -52.9443 -52.9397 -52.9278 -52.9275 -52.9254 -52.9240
    -4.3909  -3.2406   4.7142   5.2813   6.1261   6.9851   7.9224   8.5643
    15.9819  16.2280  17.8232  18.7850  20.1767  20.6299  21.3797  23.8805
    23.9302  25.4868  28.0852  29.3730  30.5289  30.6750  33.1392  34.2449

          k = 0.2000 0.3464 0.2079 (  2532 PWs)   bands (ev):

   -91.4167 -91.4163 -52.9435 -52.9409 -52.9275 -52.9273 -52.9251 -52.9243
    -4.1712  -3.5094   4.5834   5.0454   6.8922   7.0069   7.6594   8.5951
    15.8471  15.9498  18.1904  18.8912  20.3925  20.4673  21.4350  23.0160
    24.3866  25.5687  27.7746  27.8537  31.3759  32.1358  32.7178  34.4682

          k = 0.2000 0.3464-0.3118 (  2540 PWs)   bands (ev):

   -91.4166 -91.4166 -52.9423 -52.9423 -52.9273 -52.9273 -52.9248 -52.9248
    -3.8525  -3.8525   4.7385   4.7385   7.0806   7.0806   8.1138   8.1138
    15.8076  15.8076  18.6674  18.6674  20.3527  20.3527  22.1521  22.1521
    24.9672  24.9672  27.6318  27.6318  31.8432  31.8432  34.0633  34.0633

          k = 0.2000 0.4619 0.0000 (  2532 PWs)   bands (ev):

   -91.4166 -91.4161 -52.9434 -52.9401 -52.9290 -52.9283 -52.9265 -52.9245
    -3.9355  -3.1015   4.5662   5.3390   5.8113   6.4483   7.6367   7.8308
    15.0267  16.8135  17.9887  19.0885  19.9258  21.1663  21.4475  23.7687
    25.1045  25.8021  28.8025  29.5749  30.4363  31.5151  33.3206  33.6139

          k = 0.2000 0.4619 0.1039 (  2529 PWs)   bands (ev):

   -91.4165 -91.4161 -52.9433 -52.9405 -52.9288 -52.9282 -52.9263 -52.9247
    -3.8786  -3.1540   4.4405   4.9648   6.1597   6.5817   7.4550   8.1577
    15.1658  16.6703  17.8281  18.9822  20.1655  20.7780  21.6461  23.9495
    24.8719  25.7571  28.3673  29.1478  30.6537  32.1029  32.9516  34.3163

          k = 0.2000 0.4619 0.2079 (  2534 PWs)   bands (ev):

   -91.4165 -91.4162 -52.9430 -52.9414 -52.9284 -52.9280 -52.9260 -52.9251
    -3.7229  -3.3017   4.2581   4.5912   6.1804   6.9277   7.5828   8.5010
    15.3949  16.2127  17.9454  18.7188  20.2513  20.6094  21.8829  23.5015
    24.9042  25.5570  27.9061  28.6569  31.5795  32.1805  33.5852  34.3683

          k = 0.2000 0.4619-0.3118 (  2532 PWs)   bands (ev):

   -91.4163 -91.4163 -52.9423 -52.9423 -52.9281 -52.9281 -52.9256 -52.9256
    -3.5105  -3.5105   4.3072   4.3072   6.4898   6.4898   8.2999   8.2999
    15.7091  15.7091  18.3450  18.3450  20.4346  20.4346  22.4844  22.4844
    25.2440  25.2440  28.2370  28.2370  31.9362  31.9362  34.2538  34.2538

          k = 0.2000 0.5774 0.0000 (  2514 PWs)   bands (ev):

   -91.4161 -91.4161 -52.9427 -52.9407 -52.9295 -52.9283 -52.9270 -52.9248
    -3.6288  -3.1758   4.2568   5.4214   6.0398   6.3355   7.3679   7.5139
    14.6728  16.7804  18.2285  19.1676  20.0144  21.0275  22.1522  23.6130
    24.7699  27.2124  27.7386  29.7098  30.0824  31.7553  34.2358  34.2398

          k = 0.2000 0.5774 0.1039 (  2524 PWs)   bands (ev):

   -91.4163 -91.4161 -52.9427 -52.9410 -52.9293 -52.9282 -52.9269 -52.9250
    -3.5909  -3.1963   4.1731   5.0629   5.7929   6.9654   7.2373   7.8379
    14.8430  16.7446  18.0355  18.7603  20.1730  20.9381  22.1456  23.8449
    24.9300  26.9499  27.0856  29.4723  30.3751  32.1542  34.1685  34.1929

          k = 0.2000 0.5774 0.2079 (  2538 PWs)   bands (ev):

   -91.4164 -91.4164 -52.9426 -52.9416 -52.9288 -52.9282 -52.9264 -52.9254
    -3.4914  -3.2608   4.0530   4.4991   5.8801   6.7742   7.8102   8.3693
    15.1690  16.3835  18.0059  18.2363  20.2324  20.7352  22.3352  23.6879
    25.2785  25.8475  27.2480  28.8541  31.4949  32.1339  34.2048  34.4325

          k = 0.2000 0.5774-0.3118 (  2538 PWs)   bands (ev):

   -91.4164 -91.4164 -52.9423 -52.9423 -52.9283 -52.9283 -52.9259 -52.9259
    -3.3674  -3.3674   4.1324   4.1324   6.2608   6.2608   8.3906   8.3906
    15.6674  15.6674  18.1500  18.1501  20.3960  20.3960  22.8694  22.8694
    25.5261  25.5261  28.0041  28.0041  32.0151  32.0151  34.5655  34.5655

          k = 0.3000 0.5196 0.0000 (  2500 PWs)   bands (ev):

   -91.4160 -91.4159 -52.9423 -52.9411 -52.9288 -52.9283 -52.9275 -52.9256
    -3.5186  -3.1995   4.5319   5.3546   5.7830   6.5243   7.0078   7.2862
    14.4552  17.4661  18.6172  18.9869  20.2964  20.8586  22.0929  23.4958
    24.3529  26.9193  28.4997  28.6270  31.1032  31.5212  33.5161  34.4493

          k = 0.3000 0.5196 0.1039 (  2522 PWs)   bands (ev):

   -91.4163 -91.4161 -52.9424 -52.9413 -52.9286 -52.9281 -52.9274 -52.9257
    -3.4884  -3.2104   4.5817   4.9648   5.4750   6.7541   7.1134   7.7191
    14.8114  17.3619  18.1015  18.5769  20.6136  20.7512  22.1280  23.9544
    24.5428  26.3946  27.5684  28.3374  31.4056  32.2723  33.8542  34.8374

          k = 0.3000 0.5196 0.2079 (  2546 PWs)   bands (ev):

   -91.4166 -91.4163 -52.9424 -52.9418 -52.9282 -52.9278 -52.9271 -52.9262
    -3.4111  -3.2487   4.5367   4.5450   5.3198   6.2491   7.9428   8.3214
    15.6206  16.8373  17.6408  17.7829  20.7575  20.8799  22.2785  24.1169
    24.7037  25.4609  27.2081  28.0430  31.9132  32.4809  34.6975  34.8017

          k = 0.3000 0.5196-0.3118 (  2548 PWs)   bands (ev):

   -91.4164 -91.4164 -52.9423 -52.9423 -52.9278 -52.9278 -52.9267 -52.9267
    -3.3201  -3.3201   4.4109   4.4109   5.6905   5.6905   8.4505   8.4505
    16.3044  16.3044  17.4433  17.4433  20.8691  20.8691  22.8879  22.8879
    25.1925  25.1925  27.6355  27.6355  32.2681  32.2681  34.8947  34.8947

     the Fermi energy is    11.2502 ev

!    total energy              =    -317.03862889 Ry
     estimated scf accuracy    <          4.9E-11 Ry
     smearing contrib. (-TS)   =      -0.00000000 Ry
     internal energy E=F+TS    =    -317.03862889 Ry

     The total energy is F=E-TS. E is the sum of the following terms:
     one-electron contribution =    -171.85436119 Ry
     hartree contribution      =      78.80689737 Ry
     xc contribution           =     -41.91127097 Ry
     ewald contribution        =    -182.07989410 Ry

     convergence has been achieved in   8 iterations

     Writing all to output data dir out/mp-661.save/
 
     init_run     :      0.35s CPU      0.39s WALL (       1 calls)
     electrons    :     16.74s CPU     17.93s WALL (       1 calls)

     Called by init_run:
     wfcinit      :      0.30s CPU      0.33s WALL (       1 calls)
     potinit      :      0.02s CPU      0.02s WALL (       1 calls)
     hinit0       :      0.01s CPU      0.02s WALL (       1 calls)

     Called by electrons:
     c_bands      :     15.72s CPU     16.86s WALL (       8 calls)
     sum_band     :      0.99s CPU      1.04s WALL (       8 calls)
     v_of_rho     :      0.03s CPU      0.03s WALL (       9 calls)
     mix_rho      :      0.00s CPU      0.00s WALL (       8 calls)

     Called by c_bands:
     init_us_2    :      0.07s CPU      0.08s WALL (     952 calls)
     init_us_2:cp :      0.07s CPU      0.07s WALL (     952 calls)
     paro_k       :     15.50s CPU     16.51s WALL (     448 calls)

     Called by paro_*:
     h_psi        :     10.06s CPU     10.79s WALL (    8137 calls)
     g_psi        :      0.28s CPU      0.29s WALL (   92884 calls)

     Called by h_psi:
     h_psi:calbec :      0.42s CPU      0.44s WALL (    8137 calls)
     vloc_psi     :      9.24s CPU      9.92s WALL (    8137 calls)
     add_vuspsi   :      0.31s CPU      0.34s WALL (    8137 calls)

     General routines
     calbec       :      0.40s CPU      0.42s WALL (    8137 calls)
     fft          :      0.01s CPU      0.02s WALL (      89 calls)
     ffts         :      0.00s CPU      0.00s WALL (       8 calls)
     fftw         :      8.86s CPU      9.49s WALL (  174086 calls)
 
     Parallel routines
 
     PWSCF        :     17.20s CPU     18.56s WALL

 
   This run was terminated on:  14:27:19   3Jan2024            

=------------------------------------------------------------------------------=
   JOB DONE.
=------------------------------------------------------------------------------=
