
     Program PWSCF v.7.1 starts on  8Apr2024 at 15:12:32 

     This program is part of the open-source Quantum ESPRESSO suite
     for quantum simulation of materials; please cite
         "P. Giannozzi et al., J. Phys.:Condens. Matter 21 395502 (2009);
         "P. Giannozzi et al., J. Phys.:Condens. Matter 29 465901 (2017);
         "P. Giannozzi et al., J. Chem. Phys. 152 154105 (2020);
          URL http://www.quantum-espresso.org", 
     in publications or presentations arising from this work. More details at
     http://www.quantum-espresso.org/quote

     Parallel version (MPI), running on    16 processors

     MPI processes distributed on     1 nodes
     241459 MiB available memory on the printing compute node when the environment starts
 
     Reading input from pw_mp-611517_scf_k3000_E65.in
Warning: card &CELL ignored
Warning: card / ignored

     Current dimensions of program PWSCF are:
     Max number of different atomic species (ntypx) = 10
     Max number of k-points (npk) =  40000
     Max angular momentum in pseudopotentials (lmaxx) =  4
 
     R & G space division:  proc/nbgrp/npool/nimage =      16
     Subspace diagonalization in iterative solution of the eigenvalue problem:
     a serial algorithm will be used

 
     Parallelization info
     --------------------
     sticks:   dense  smooth     PW     G-vecs:    dense   smooth      PW
     Min          84      84     24                 2039     2039     322
     Max          85      85     25                 2043     2043     323
     Sum        1345    1345    397                32647    32647    5161
 
     Using Slab Decomposition
 


     bravais-lattice index     =            2
     lattice parameter (alat)  =      12.2699  a.u.
     unit-cell volume          =     461.8062 (a.u.)^3
     number of atoms/cell      =            1
     number of atomic types    =            1
     number of electrons       =        18.00
     number of Kohn-Sham states=           18
     kinetic-energy cutoff     =      65.0000  Ry
     charge density cutoff     =     260.0000  Ry
     scf convergence threshold =      1.0E-10
     mixing beta               =       0.7000
     number of iterations used =            8  plain     mixing
     Exchange-correlation= PBE
                           (   1   4   3   4   0   0   0)

     celldm(1)=  12.269869  celldm(2)=   0.000000  celldm(3)=   0.000000
     celldm(4)=   0.000000  celldm(5)=   0.000000  celldm(6)=   0.000000

     crystal axes: (cart. coord. in units of alat)
               a(1) = (  -0.500000   0.000000   0.500000 )  
               a(2) = (   0.000000   0.500000   0.500000 )  
               a(3) = (  -0.500000   0.500000   0.000000 )  

     reciprocal axes: (cart. coord. in units 2 pi/alat)
               b(1) = ( -1.000000 -1.000000  1.000000 )  
               b(2) = (  1.000000  1.000000  1.000000 )  
               b(3) = ( -1.000000  1.000000 -1.000000 )  


     PseudoPot. # 1 for Xe read from file:
     /usr/scratch4/magr4826/Promotion/Python/Code/devEb/pseudo/SG15/Xe.upf
     MD5 check sum: cc9f462402d923a4ee0779e880a8f0fc
     Pseudo is Norm-conserving, Zval = 18.0
     Generated using ONCVPSP code by D. R. Hamann
     Using radial grid of  602 points,  6 beta functions with: 
                l(1) =   0
                l(2) =   0
                l(3) =   1
                l(4) =   1
                l(5) =   2
                l(6) =   2

     atomic species   valence    mass     pseudopotential
        Xe            18.00   131.29300     Xe( 1.00)

     48 Sym. Ops., with inversion, found



   Cartesian axes

     site n.     atom                  positions (alat units)
         1           Xe  tau(   1) = (   0.0000000   0.0000000   0.0000000  )

     number of k points=   104  Gaussian smearing, width (Ry)=  0.0005

     Number of k-points >= 100: set verbosity='high' to print them.

     Dense  grid:    32647 G-vectors     FFT dimensions: (  45,  45,  45)

     Estimated max dynamical RAM per process >      10.33 MB

     Estimated total dynamical RAM >     165.25 MB

     Initial potential from superposition of free atoms

     starting charge      17.9847, renormalised to      18.0000
     Starting wfcs are random

     total cpu time spent up to now is        0.9 secs

     Self-consistent Calculation

     iteration #  1     ecut=    65.00 Ry     beta= 0.70
     Davidson diagonalization with overlap
     c_bands:  1 eigenvalues not converged
     c_bands:  1 eigenvalues not converged
     c_bands:  1 eigenvalues not converged
     c_bands:  1 eigenvalues not converged
     c_bands:  1 eigenvalues not converged
     c_bands:  1 eigenvalues not converged
     c_bands:  2 eigenvalues not converged
     c_bands:  1 eigenvalues not converged
     c_bands:  1 eigenvalues not converged
     c_bands:  1 eigenvalues not converged
     c_bands:  2 eigenvalues not converged
     c_bands:  1 eigenvalues not converged
     c_bands:  1 eigenvalues not converged
     c_bands:  2 eigenvalues not converged
     c_bands:  1 eigenvalues not converged
     c_bands:  2 eigenvalues not converged
     c_bands:  1 eigenvalues not converged
     c_bands:  2 eigenvalues not converged
     c_bands:  1 eigenvalues not converged
     c_bands:  1 eigenvalues not converged
     c_bands:  1 eigenvalues not converged
     c_bands:  1 eigenvalues not converged
     c_bands:  1 eigenvalues not converged
     c_bands:  1 eigenvalues not converged
     c_bands:  1 eigenvalues not converged
     c_bands:  1 eigenvalues not converged
     c_bands:  1 eigenvalues not converged
     c_bands:  1 eigenvalues not converged
     c_bands:  1 eigenvalues not converged
     ethr =  5.00E-06,  avg # of iterations = 18.0

     total cpu time spent up to now is        7.1 secs

     total energy              =    -231.79675200 Ry
     estimated scf accuracy    <       0.00019349 Ry

     iteration #  2     ecut=    65.00 Ry     beta= 0.70
     Davidson diagonalization with overlap
     c_bands:  1 eigenvalues not converged
     ethr =  1.07E-06,  avg # of iterations =  5.2

     total cpu time spent up to now is        8.6 secs

     total energy              =    -231.79681549 Ry
     estimated scf accuracy    <       0.00001664 Ry

     iteration #  3     ecut=    65.00 Ry     beta= 0.70
     Davidson diagonalization with overlap
     ethr =  9.24E-08,  avg # of iterations =  3.7

     total cpu time spent up to now is       12.8 secs

     total energy              =    -231.79682004 Ry
     estimated scf accuracy    <       0.00000006 Ry

     iteration #  4     ecut=    65.00 Ry     beta= 0.70
     Davidson diagonalization with overlap
     ethr =  3.47E-10,  avg # of iterations =  7.7

     total cpu time spent up to now is       16.3 secs

     total energy              =    -231.79682014 Ry
     estimated scf accuracy    <          9.5E-09 Ry

     iteration #  5     ecut=    65.00 Ry     beta= 0.70
     Davidson diagonalization with overlap
     ethr =  5.28E-11,  avg # of iterations =  4.5

     total cpu time spent up to now is       18.1 secs

     total energy              =    -231.79682014 Ry
     estimated scf accuracy    <          1.3E-09 Ry

     iteration #  6     ecut=    65.00 Ry     beta= 0.70
     Davidson diagonalization with overlap
     ethr =  7.45E-12,  avg # of iterations =  5.4

     total cpu time spent up to now is       20.2 secs

     End of self-consistent calculation

     Number of k-points >= 100: set verbosity='high' to print the bands.

     the Fermi energy is     0.4979 ev

!    total energy              =    -231.79682014 Ry
     estimated scf accuracy    <          6.3E-13 Ry
     smearing contrib. (-TS)   =      -0.00000000 Ry
     internal energy E=F+TS    =    -231.79682014 Ry

     The total energy is F=E-TS. E is the sum of the following terms:
     one-electron contribution =    -165.69005731 Ry
     hartree contribution      =      76.61090632 Ry
     xc contribution           =     -21.64910965 Ry
     ewald contribution        =    -121.06855951 Ry

     convergence has been achieved in   6 iterations

     Writing all to output data dir out/mp-611517.save/
 
     init_run     :      0.36s CPU      0.78s WALL (       1 calls)
     electrons    :     11.10s CPU     19.61s WALL (       1 calls)

     Called by init_run:
     wfcinit      :      0.32s CPU      0.64s WALL (       1 calls)
     potinit      :      0.00s CPU      0.07s WALL (       1 calls)
     hinit0       :      0.01s CPU      0.03s WALL (       1 calls)

     Called by electrons:
     c_bands      :     10.25s CPU     18.32s WALL (       6 calls)
     sum_band     :      0.83s CPU      0.86s WALL (       6 calls)
     v_of_rho     :      0.02s CPU      0.02s WALL (       7 calls)
     mix_rho      :      0.00s CPU      0.00s WALL (       6 calls)

     Called by c_bands:
     init_us_2    :      0.05s CPU      0.05s WALL (    1352 calls)
     init_us_2:cp :      0.05s CPU      0.05s WALL (    1352 calls)
     cegterg      :     10.06s CPU     10.35s WALL (     624 calls)

     Called by *egterg:
     cdiaghg      :      1.54s CPU      1.59s WALL (    5246 calls)
     h_psi        :      8.19s CPU      8.42s WALL (    5350 calls)
     g_psi        :      0.03s CPU      0.03s WALL (    4622 calls)

     Called by h_psi:
     h_psi:calbec :      0.11s CPU      0.12s WALL (    5350 calls)
     vloc_psi     :      7.99s CPU      8.22s WALL (    5350 calls)
     add_vuspsi   :      0.05s CPU      0.06s WALL (    5350 calls)

     General routines
     calbec       :      0.11s CPU      0.11s WALL (    5350 calls)
     fft          :      0.01s CPU      0.03s WALL (      69 calls)
     ffts         :      0.00s CPU      0.00s WALL (       6 calls)
     fftw         :      8.32s CPU      8.56s WALL (  121512 calls)
 
     Parallel routines
 
     PWSCF        :     11.72s CPU     21.30s WALL

 
   This run was terminated on:  15:12:53   8Apr2024            

=------------------------------------------------------------------------------=
   JOB DONE.
=------------------------------------------------------------------------------=
