
     Program PWSCF v.7.1 starts on  3Jan2024 at 14:31:30 

     This program is part of the open-source Quantum ESPRESSO suite
     for quantum simulation of materials; please cite
         "P. Giannozzi et al., J. Phys.:Condens. Matter 21 395502 (2009);
         "P. Giannozzi et al., J. Phys.:Condens. Matter 29 465901 (2017);
         "P. Giannozzi et al., J. Chem. Phys. 152 154105 (2020);
          URL http://www.quantum-espresso.org", 
     in publications or presentations arising from this work. More details at
     http://www.quantum-espresso.org/quote

     Parallel version (MPI), running on     8 processors

     MPI processes distributed on     1 nodes
     246239 MiB available memory on the printing compute node when the environment starts
 
     Reading input from pw_mp-23167_scf_k3000_E65.in
Warning: card &CELL ignored
Warning: card / ignored

     Current dimensions of program PWSCF are:
     Max number of different atomic species (ntypx) = 10
     Max number of k-points (npk) =  40000
     Max angular momentum in pseudopotentials (lmaxx) =  4
 
     R & G space division:  proc/nbgrp/npool/nimage =       8
     Subspace diagonalization in iterative solution of the eigenvalue problem:
     a serial algorithm will be used

 
     Parallelization info
     --------------------
     sticks:   dense  smooth     PW     G-vecs:    dense   smooth      PW
     Min         136     136     40                 3383     3383     546
     Max         138     138     41                 3386     3386     549
     Sum        1093    1093    325                27081    27081    4385
 
     Using Slab Decomposition
 


     bravais-lattice index     =            1
     lattice parameter (alat)  =       7.2518  a.u.
     unit-cell volume          =     381.3560 (a.u.)^3
     number of atoms/cell      =            2
     number of atomic types    =            2
     number of electrons       =        20.00
     number of Kohn-Sham states=           20
     kinetic-energy cutoff     =      65.0000  Ry
     charge density cutoff     =     260.0000  Ry
     scf convergence threshold =      1.0E-10
     mixing beta               =       0.7000
     number of iterations used =            8  plain     mixing
     Exchange-correlation= PBE
                           (   1   4   3   4   0   0   0)

     celldm(1)=   7.251762  celldm(2)=   0.000000  celldm(3)=   0.000000
     celldm(4)=   0.000000  celldm(5)=   0.000000  celldm(6)=   0.000000

     crystal axes: (cart. coord. in units of alat)
               a(1) = (   1.000000   0.000000   0.000000 )  
               a(2) = (   0.000000   1.000000   0.000000 )  
               a(3) = (   0.000000   0.000000   1.000000 )  

     reciprocal axes: (cart. coord. in units 2 pi/alat)
               b(1) = (  1.000000  0.000000  0.000000 )  
               b(2) = (  0.000000  1.000000  0.000000 )  
               b(3) = (  0.000000  0.000000  1.000000 )  


     PseudoPot. # 1 for Cl read from file:
     /usr/scratch4/magr4985/MG/devEb/pseudo/SG15/Cl.upf
     MD5 check sum: d09d09b0a9f35bc416b5a5b3d9ab34ee
     Pseudo is Norm-conserving, Zval =  7.0
     Generated using ONCVPSP code by D. R. Hamann
     Using radial grid of  602 points,  4 beta functions with: 
                l(1) =   0
                l(2) =   0
                l(3) =   1
                l(4) =   1

     PseudoPot. # 2 for Tl read from file:
     /usr/scratch4/magr4985/MG/devEb/pseudo/SG15/Tl.upf
     MD5 check sum: 9df9092a7c7b421465112b12ba899e4a
     Pseudo is Norm-conserving, Zval = 13.0
     Generated using ONCVPSP code by D. R. Hamann
     Using radial grid of  602 points,  8 beta functions with: 
                l(1) =   0
                l(2) =   0
                l(3) =   1
                l(4) =   1
                l(5) =   2
                l(6) =   2
                l(7) =   3
                l(8) =   3

     atomic species   valence    mass     pseudopotential
        Cl             7.00    35.45300     Cl( 1.00)
        Tl            13.00   204.38330     Tl( 1.00)

     48 Sym. Ops., with inversion, found



   Cartesian axes

     site n.     atom                  positions (alat units)
         1           Tl  tau(   1) = (   0.0000000   0.0000000   0.0000000  )
         2           Cl  tau(   2) = (   0.5000000   0.5000000   0.5000000  )

     number of k points=    84  Gaussian smearing, width (Ry)=  0.0005
                       cart. coord. in units 2pi/alat
        k(    1) = (   0.0000000   0.0000000   0.0000000), wk =   0.0011574
        k(    2) = (   0.0000000   0.0000000   0.0833333), wk =   0.0069444
        k(    3) = (   0.0000000   0.0000000   0.1666667), wk =   0.0069444
        k(    4) = (   0.0000000   0.0000000   0.2500000), wk =   0.0069444
        k(    5) = (   0.0000000   0.0000000   0.3333333), wk =   0.0069444
        k(    6) = (   0.0000000   0.0000000   0.4166667), wk =   0.0069444
        k(    7) = (   0.0000000   0.0000000  -0.5000000), wk =   0.0034722
        k(    8) = (   0.0000000   0.0833333   0.0833333), wk =   0.0138889
        k(    9) = (   0.0000000   0.0833333   0.1666667), wk =   0.0277778
        k(   10) = (   0.0000000   0.0833333   0.2500000), wk =   0.0277778
        k(   11) = (   0.0000000   0.0833333   0.3333333), wk =   0.0277778
        k(   12) = (   0.0000000   0.0833333   0.4166667), wk =   0.0277778
        k(   13) = (   0.0000000   0.0833333  -0.5000000), wk =   0.0138889
        k(   14) = (   0.0000000   0.1666667   0.1666667), wk =   0.0138889
        k(   15) = (   0.0000000   0.1666667   0.2500000), wk =   0.0277778
        k(   16) = (   0.0000000   0.1666667   0.3333333), wk =   0.0277778
        k(   17) = (   0.0000000   0.1666667   0.4166667), wk =   0.0277778
        k(   18) = (   0.0000000   0.1666667  -0.5000000), wk =   0.0138889
        k(   19) = (   0.0000000   0.2500000   0.2500000), wk =   0.0138889
        k(   20) = (   0.0000000   0.2500000   0.3333333), wk =   0.0277778
        k(   21) = (   0.0000000   0.2500000   0.4166667), wk =   0.0277778
        k(   22) = (   0.0000000   0.2500000  -0.5000000), wk =   0.0138889
        k(   23) = (   0.0000000   0.3333333   0.3333333), wk =   0.0138889
        k(   24) = (   0.0000000   0.3333333   0.4166667), wk =   0.0277778
        k(   25) = (   0.0000000   0.3333333  -0.5000000), wk =   0.0138889
        k(   26) = (   0.0000000   0.4166667   0.4166667), wk =   0.0138889
        k(   27) = (   0.0000000   0.4166667  -0.5000000), wk =   0.0138889
        k(   28) = (   0.0000000  -0.5000000  -0.5000000), wk =   0.0034722
        k(   29) = (   0.0833333   0.0833333   0.0833333), wk =   0.0092593
        k(   30) = (   0.0833333   0.0833333   0.1666667), wk =   0.0277778
        k(   31) = (   0.0833333   0.0833333   0.2500000), wk =   0.0277778
        k(   32) = (   0.0833333   0.0833333   0.3333333), wk =   0.0277778
        k(   33) = (   0.0833333   0.0833333   0.4166667), wk =   0.0277778
        k(   34) = (   0.0833333   0.0833333  -0.5000000), wk =   0.0138889
        k(   35) = (   0.0833333   0.1666667   0.1666667), wk =   0.0277778
        k(   36) = (   0.0833333   0.1666667   0.2500000), wk =   0.0555556
        k(   37) = (   0.0833333   0.1666667   0.3333333), wk =   0.0555556
        k(   38) = (   0.0833333   0.1666667   0.4166667), wk =   0.0555556
        k(   39) = (   0.0833333   0.1666667  -0.5000000), wk =   0.0277778
        k(   40) = (   0.0833333   0.2500000   0.2500000), wk =   0.0277778
        k(   41) = (   0.0833333   0.2500000   0.3333333), wk =   0.0555556
        k(   42) = (   0.0833333   0.2500000   0.4166667), wk =   0.0555556
        k(   43) = (   0.0833333   0.2500000  -0.5000000), wk =   0.0277778
        k(   44) = (   0.0833333   0.3333333   0.3333333), wk =   0.0277778
        k(   45) = (   0.0833333   0.3333333   0.4166667), wk =   0.0555556
        k(   46) = (   0.0833333   0.3333333  -0.5000000), wk =   0.0277778
        k(   47) = (   0.0833333   0.4166667   0.4166667), wk =   0.0277778
        k(   48) = (   0.0833333   0.4166667  -0.5000000), wk =   0.0277778
        k(   49) = (   0.0833333  -0.5000000  -0.5000000), wk =   0.0069444
        k(   50) = (   0.1666667   0.1666667   0.1666667), wk =   0.0092593
        k(   51) = (   0.1666667   0.1666667   0.2500000), wk =   0.0277778
        k(   52) = (   0.1666667   0.1666667   0.3333333), wk =   0.0277778
        k(   53) = (   0.1666667   0.1666667   0.4166667), wk =   0.0277778
        k(   54) = (   0.1666667   0.1666667  -0.5000000), wk =   0.0138889
        k(   55) = (   0.1666667   0.2500000   0.2500000), wk =   0.0277778
        k(   56) = (   0.1666667   0.2500000   0.3333333), wk =   0.0555556
        k(   57) = (   0.1666667   0.2500000   0.4166667), wk =   0.0555556
        k(   58) = (   0.1666667   0.2500000  -0.5000000), wk =   0.0277778
        k(   59) = (   0.1666667   0.3333333   0.3333333), wk =   0.0277778
        k(   60) = (   0.1666667   0.3333333   0.4166667), wk =   0.0555556
        k(   61) = (   0.1666667   0.3333333  -0.5000000), wk =   0.0277778
        k(   62) = (   0.1666667   0.4166667   0.4166667), wk =   0.0277778
        k(   63) = (   0.1666667   0.4166667  -0.5000000), wk =   0.0277778
        k(   64) = (   0.1666667  -0.5000000  -0.5000000), wk =   0.0069444
        k(   65) = (   0.2500000   0.2500000   0.2500000), wk =   0.0092593
        k(   66) = (   0.2500000   0.2500000   0.3333333), wk =   0.0277778
        k(   67) = (   0.2500000   0.2500000   0.4166667), wk =   0.0277778
        k(   68) = (   0.2500000   0.2500000  -0.5000000), wk =   0.0138889
        k(   69) = (   0.2500000   0.3333333   0.3333333), wk =   0.0277778
        k(   70) = (   0.2500000   0.3333333   0.4166667), wk =   0.0555556
        k(   71) = (   0.2500000   0.3333333  -0.5000000), wk =   0.0277778
        k(   72) = (   0.2500000   0.4166667   0.4166667), wk =   0.0277778
        k(   73) = (   0.2500000   0.4166667  -0.5000000), wk =   0.0277778
        k(   74) = (   0.2500000  -0.5000000  -0.5000000), wk =   0.0069444
        k(   75) = (   0.3333333   0.3333333   0.3333333), wk =   0.0092593
        k(   76) = (   0.3333333   0.3333333   0.4166667), wk =   0.0277778
        k(   77) = (   0.3333333   0.3333333  -0.5000000), wk =   0.0138889
        k(   78) = (   0.3333333   0.4166667   0.4166667), wk =   0.0277778
        k(   79) = (   0.3333333   0.4166667  -0.5000000), wk =   0.0277778
        k(   80) = (   0.3333333  -0.5000000  -0.5000000), wk =   0.0069444
        k(   81) = (   0.4166667   0.4166667   0.4166667), wk =   0.0092593
        k(   82) = (   0.4166667   0.4166667  -0.5000000), wk =   0.0138889
        k(   83) = (   0.4166667  -0.5000000  -0.5000000), wk =   0.0069444
        k(   84) = (  -0.5000000  -0.5000000  -0.5000000), wk =   0.0011574

     Dense  grid:    27081 G-vectors     FFT dimensions: (  40,  40,  40)

     Estimated max dynamical RAM per process >      20.05 MB

     Estimated total dynamical RAM >     160.41 MB

     Initial potential from superposition of free atoms

     starting charge      19.8836, renormalised to      20.0000

     negative rho (up, down):  2.222E-07 0.000E+00
     Starting wfcs are random

     total cpu time spent up to now is        0.5 secs

     Self-consistent Calculation

     iteration #  1     ecut=    65.00 Ry     beta= 0.70
     Davidson diagonalization with overlap
     c_bands:  1 eigenvalues not converged
     c_bands:  2 eigenvalues not converged
     c_bands:  1 eigenvalues not converged
     c_bands:  1 eigenvalues not converged
     c_bands:  1 eigenvalues not converged
     c_bands:  3 eigenvalues not converged
     c_bands:  1 eigenvalues not converged
     c_bands:  1 eigenvalues not converged
     c_bands:  1 eigenvalues not converged
     c_bands:  1 eigenvalues not converged
     c_bands:  1 eigenvalues not converged
     c_bands:  1 eigenvalues not converged
     c_bands:  1 eigenvalues not converged
     c_bands:  1 eigenvalues not converged
     c_bands:  3 eigenvalues not converged
     c_bands:  2 eigenvalues not converged
     c_bands:  1 eigenvalues not converged
     c_bands:  1 eigenvalues not converged
     c_bands:  1 eigenvalues not converged
     c_bands:  1 eigenvalues not converged
     c_bands:  1 eigenvalues not converged
     c_bands:  1 eigenvalues not converged
     c_bands:  1 eigenvalues not converged
     c_bands:  2 eigenvalues not converged
     c_bands:  1 eigenvalues not converged
     c_bands:  1 eigenvalues not converged
     c_bands:  1 eigenvalues not converged
     c_bands:  1 eigenvalues not converged
     c_bands:  1 eigenvalues not converged
     c_bands:  2 eigenvalues not converged
     c_bands:  2 eigenvalues not converged
     c_bands:  2 eigenvalues not converged
     c_bands:  1 eigenvalues not converged
     c_bands:  2 eigenvalues not converged
     c_bands:  2 eigenvalues not converged
     c_bands:  1 eigenvalues not converged
     c_bands:  4 eigenvalues not converged
     c_bands:  3 eigenvalues not converged
     c_bands:  1 eigenvalues not converged
     c_bands:  4 eigenvalues not converged
     c_bands:  4 eigenvalues not converged
     c_bands:  3 eigenvalues not converged
     c_bands:  4 eigenvalues not converged
     c_bands:  2 eigenvalues not converged
     c_bands:  3 eigenvalues not converged
     c_bands:  4 eigenvalues not converged
     c_bands:  4 eigenvalues not converged
     c_bands:  2 eigenvalues not converged
     ethr =  5.00E-06,  avg # of iterations = 19.2

     total cpu time spent up to now is        7.4 secs

     total energy              =    -126.21690393 Ry
     estimated scf accuracy    <       0.09174624 Ry

     iteration #  2     ecut=    65.00 Ry     beta= 0.70
     Davidson diagonalization with overlap
     ethr =  4.59E-04,  avg # of iterations =  4.0

     total cpu time spent up to now is        9.2 secs

     total energy              =    -126.24208519 Ry
     estimated scf accuracy    <       0.05594106 Ry

     iteration #  3     ecut=    65.00 Ry     beta= 0.70
     Davidson diagonalization with overlap
     ethr =  2.80E-04,  avg # of iterations =  2.4

     total cpu time spent up to now is       10.7 secs

     total energy              =    -126.25447004 Ry
     estimated scf accuracy    <       0.00058163 Ry

     iteration #  4     ecut=    65.00 Ry     beta= 0.70
     Davidson diagonalization with overlap
     ethr =  2.91E-06,  avg # of iterations =  6.2

     total cpu time spent up to now is       12.8 secs

     total energy              =    -126.25457658 Ry
     estimated scf accuracy    <       0.00002551 Ry

     iteration #  5     ecut=    65.00 Ry     beta= 0.70
     Davidson diagonalization with overlap
     ethr =  1.28E-07,  avg # of iterations =  5.0

     total cpu time spent up to now is       14.7 secs

     total energy              =    -126.25457984 Ry
     estimated scf accuracy    <       0.00000190 Ry

     iteration #  6     ecut=    65.00 Ry     beta= 0.70
     Davidson diagonalization with overlap
     c_bands:  1 eigenvalues not converged
     ethr =  9.48E-09,  avg # of iterations =  6.2

     total cpu time spent up to now is       16.9 secs

     total energy              =    -126.25458036 Ry
     estimated scf accuracy    <       0.00000061 Ry

     iteration #  7     ecut=    65.00 Ry     beta= 0.70
     Davidson diagonalization with overlap
     c_bands:  1 eigenvalues not converged
     ethr =  3.07E-09,  avg # of iterations =  2.5

     total cpu time spent up to now is       19.2 secs

     total energy              =    -126.25458043 Ry
     estimated scf accuracy    <       0.00000001 Ry

     iteration #  8     ecut=    65.00 Ry     beta= 0.70
     Davidson diagonalization with overlap
     c_bands:  1 eigenvalues not converged
     ethr =  5.73E-11,  avg # of iterations =  6.6

     total cpu time spent up to now is       21.9 secs

     total energy              =    -126.25458043 Ry
     estimated scf accuracy    <          5.4E-09 Ry

     iteration #  9     ecut=    65.00 Ry     beta= 0.70
     Davidson diagonalization with overlap
     ethr =  2.72E-11,  avg # of iterations =  1.7

     total cpu time spent up to now is       23.2 secs

     total energy              =    -126.25458043 Ry
     estimated scf accuracy    <          5.2E-10 Ry

     iteration # 10     ecut=    65.00 Ry     beta= 0.70
     Davidson diagonalization with overlap
     ethr =  2.59E-12,  avg # of iterations =  3.7

     total cpu time spent up to now is       24.8 secs

     End of self-consistent calculation

          k = 0.0000 0.0000 0.0000 (  3407 PWs)   bands (ev):

    -8.0657  -4.2559  -4.2559  -4.0124  -4.0124  -4.0124   1.1293   4.1635
     4.1635   4.1635  13.4854  13.4854  13.4854  13.5841  13.5841  18.1758
    20.0163  20.0163  20.0163  22.2399

          k = 0.0000 0.0000 0.0833 (  3371 PWs)   bands (ev):

    -8.0500  -4.2549  -4.2441  -4.0179  -4.0179  -4.0119   1.0644   4.1902
     4.1902   4.2198  12.5172  13.4049  13.4049  13.6274  14.3554  18.5828
    19.8984  19.8984  20.0137  21.1315

          k = 0.0000 0.0000 0.1667 (  3367 PWs)   bands (ev):

    -8.0063  -4.2523  -4.2122  -4.0327  -4.0327  -4.0106   0.8923   4.2646
     4.2646   4.3883  11.3293  13.1832  13.1832  13.7549  15.1962  19.4833
    19.7829  19.7829  19.9401  20.0060

          k = 0.0000 0.0000 0.2500 (  3415 PWs)   bands (ev):

    -7.9449  -4.2488  -4.1698  -4.0528  -4.0528  -4.0088   0.6679   4.3695
     4.3695   4.6666  10.1232  12.8791  12.8791  13.9572  16.2212  18.8959
    19.8883  19.8883  19.9950  20.3773

          k = 0.0000 0.0000 0.3333 (  3382 PWs)   bands (ev):

    -7.8815  -4.2452  -4.1288  -4.0726  -4.0726  -4.0069   0.4544   4.4785
     4.4785   5.0421   9.0222  12.5758  12.5758  14.2101  17.4316  18.0363
    19.9843  20.2507  20.2507  21.0156

          k = 0.0000 0.0000 0.4167 (  3378 PWs)   bands (ev):

    -7.8337  -4.2426  -4.0999  -4.0871  -4.0871  -4.0056   0.3043   4.5612
     4.5612   5.4542   8.1516  12.3550  12.3550  14.4516  17.4288  18.7189
    19.9760  20.8413  20.8413  21.3588

          k = 0.0000 0.0000-0.5000 (  3394 PWs)   bands (ev):

    -7.8159  -4.2417  -4.0923  -4.0923  -4.0896  -4.0051   0.2506   4.5922
     4.5922   5.6763   7.7728  12.2745  12.2745  14.5608  17.1973  19.5580
    19.9726  21.0808  21.5966  21.5966

          k = 0.0000 0.0833 0.0833 (  3367 PWs)   bands (ev):

    -8.0347  -4.2486  -4.2375  -4.0229  -4.0183  -4.0163   1.0156   4.0575
     4.2156   4.4147  12.4403  12.5719  13.3396  14.0024  14.7440  18.7091
    19.5148  19.8912  20.3482  21.4604

          k = 0.0000 0.0833 0.1667 (  3363 PWs)   bands (ev):

    -7.9925  -4.2440  -4.2074  -4.0363  -4.0321  -4.0156   0.8795   4.0078
     4.2861   4.6553  11.2975  12.5012  13.1557  14.1600  15.4985  18.7612
    19.2171  20.1133  20.5807  20.7747

          k = 0.0000 0.0833 0.2500 (  3392 PWs)   bands (ev):

    -7.9332  -4.2401  -4.1647  -4.0544  -4.0519  -4.0136   0.6905   4.0667
     4.3853   4.9126  10.1232  12.4049  12.8952  14.2896  16.4401  18.6936
    19.1376  19.5199  20.7256  21.3890

          k = 0.0000 0.0833 0.3333 (  3388 PWs)   bands (ev):

    -7.8721  -4.2365  -4.1233  -4.0719  -4.0715  -4.0116   0.5012   4.2027
     4.4881   5.1807   9.0826  12.2521  12.6279  14.4421  17.5416  18.2835
    19.2434  19.5084  20.8706  21.9169

          k = 0.0000 0.0833 0.4167 (  3389 PWs)   bands (ev):

    -7.8260  -4.2338  -4.0941  -4.0857  -4.0844  -4.0101   0.3638   4.3417
     4.5660   5.4349   8.3047  12.1121  12.4297  14.5984  17.7281  18.7603
    19.4148  20.0072  21.0799  21.3402

          k = 0.0000 0.0833-0.5000 (  3384 PWs)   bands (ev):

    -7.8089  -4.2328  -4.0909  -4.0893  -4.0833  -4.0095   0.3139   4.4002
     4.5951   5.5591   7.9939  12.0560  12.3568  14.6704  17.5469  19.4032
    19.4970  20.3259  21.1454  21.2572

          k = 0.0000 0.1667 0.1667 (  3381 PWs)   bands (ev):

    -7.9542  -4.2297  -4.1859  -4.0459  -4.0329  -4.0269   0.8341   3.7759
     4.3457   4.9352  10.9311  11.8361  13.0709  14.5275  16.1630  18.1301
    18.7263  20.8501  21.0344  21.2553

          k = 0.0000 0.1667 0.2500 (  3373 PWs)   bands (ev):

    -7.9009  -4.2213  -4.1463  -4.0583  -4.0496  -4.0266   0.7476   3.6816
     4.4289   5.1419  10.0614  11.7020  12.9337  14.7710  16.9575  17.9234
    18.4830  20.2300  21.1358  21.7442

          k = 0.0000 0.1667 0.3333 (  3375 PWs)   bands (ev):

    -7.8461  -4.2160  -4.1048  -4.0696  -4.0682  -4.0242   0.6360   3.7388
     4.5146   5.2455   9.2486  11.6577  12.7748  14.8792  17.6203  18.4073
    18.4850  19.5538  20.9166  21.1938

          k = 0.0000 0.1667 0.4167 (  3376 PWs)   bands (ev):

    -7.8050  -4.2127  -4.0819  -4.0792  -4.0727  -4.0223   0.5415   3.8808
     4.5789   5.2431   8.7095  11.6124  12.6470  14.9142  18.0190  18.6425
    19.1644  19.2840  20.5568  20.7341

          k = 0.0000 0.1667-0.5000 (  3374 PWs)   bands (ev):

    -7.7897  -4.2115  -4.0869  -4.0806  -4.0632  -4.0216   0.5047   3.9621
     4.6029   5.2150   8.5240  11.5912  12.5980  14.9239  18.1956  18.7516
    19.2011  19.3119  20.3664  21.3329

          k = 0.0000 0.2500 0.2500 (  3353 PWs)   bands (ev):

    -7.8559  -4.2056  -4.1116  -4.0626  -4.0493  -4.0414   0.8086   3.4069
     4.4894   5.2006   9.8121  11.2838  12.9712  15.1316  17.4154  17.6756
    18.0619  20.6555  20.8723  21.3864

          k = 0.0000 0.2500 0.3333 (  3370 PWs)   bands (ev):

    -7.8101  -4.1961  -4.0721  -4.0650  -4.0640  -4.0411   0.8381   3.3183
     4.5509   5.0668   9.4713  11.1618  12.9873  15.2061  17.4387  17.9117
    18.5250  20.0616  20.2395  21.0707

          k = 0.0000 0.2500 0.4167 (  3379 PWs)   bands (ev):

    -7.7760  -4.1907  -4.0767  -4.0672  -4.0407  -4.0388   0.8323   3.3988
     4.5967   4.8181   9.2440  11.1420  12.9833  15.1116  17.8017  17.9923
    19.0143  19.6182  19.7938  20.9046

          k = 0.0000 0.2500-0.5000 (  3370 PWs)   bands (ev):

    -7.7634  -4.1890  -4.0814  -4.0674  -4.0380  -4.0296   0.8237   3.4793
     4.6136   4.6746   9.1720  11.1401  12.9782  15.0595  18.0921  18.0990
    18.8428  19.3244  19.7611  21.6282

          k = 0.0000 0.3333 0.3333 (  3387 PWs)   bands (ev):

    -7.7738  -4.1826  -4.0618  -4.0599  -4.0559  -4.0324   1.0578   3.0529
     4.5876   4.6823   9.6724  10.8878  13.2138  15.1569  17.4724  17.5842
    19.0763  19.4046  19.6156  22.0360

          k = 0.0000 0.3333 0.4167 (  3372 PWs)   bands (ev):

    -7.7469  -4.1750  -4.0715  -4.0553  -4.0547  -4.0018   1.2163   3.0104
     4.2357   4.6146   9.7869  10.8120  13.3877  14.9203  17.5289  17.6372
    18.6799  19.2347  19.9710  21.9409

          k = 0.0000 0.3333-0.5000 (  3368 PWs)   bands (ev):

    -7.7369  -4.1726  -4.0759  -4.0542  -4.0526  -3.9904   1.2681   3.0714
     3.9995   4.6245   9.8181  10.8121  13.4527  14.8079  17.6094  17.6953
    18.3267  19.1786  20.3919  21.9933

          k = 0.0000 0.4167 0.4167 (  3381 PWs)   bands (ev):

    -7.7254  -4.1661  -4.0685  -4.0665  -4.0446  -3.9710   1.6205   2.8011
     3.6260   4.6277  10.2048  10.6446  13.7561  14.5488  17.3003  17.4805
    17.9151  19.9113  20.2113  22.5772

          k = 0.0000 0.4167-0.5000 (  3372 PWs)   bands (ev):

    -7.7175  -4.1633  -4.0719  -4.0661  -4.0406  -3.9594   1.8229   2.8034
     3.2723   4.6326  10.3437  10.6230  13.9159  14.3716  17.3079  17.4089
    17.5357  20.0905  20.7112  22.3340

          k = 0.0000-0.5000-0.5000 (  3388 PWs)   bands (ev):

    -7.7103  -4.1603  -4.0704  -4.0704  -4.0359  -3.9477   2.3214   2.7103
     2.7103   4.6355  10.5621  10.5621  14.1343  14.1590  17.2062  17.2062
    17.3078  20.8041  20.8041  22.4234

          k = 0.0833 0.0833 0.0833 (  3362 PWs)   bands (ev):

    -8.0200  -4.2366  -4.2366  -4.0230  -4.0219  -4.0219   0.9787   4.0860
     4.0860   4.5849  12.4251  12.5424  12.5424  14.7008  14.7008  18.9360
    19.4122  19.4122  20.8820  21.6482

          k = 0.0833 0.0833 0.1667 (  3374 PWs)   bands (ev):

    -7.9790  -4.2340  -4.2041  -4.0372  -4.0342  -4.0206   0.8717   3.9775
     4.1652   4.8260  11.3009  12.4409  12.5587  14.6159  15.5904  18.7012
    19.2645  19.6963  20.8347  21.4543

          k = 0.0833 0.0833 0.2500 (  3377 PWs)   bands (ev):

    -7.9216  -4.2305  -4.1606  -4.0579  -4.0494  -4.0185   0.7140   3.9856
     4.2773   5.0529  10.1537  12.2562  12.5950  14.5801  16.5905  18.4158
    19.0264  20.1012  20.3017  21.8856

          k = 0.0833 0.0833 0.3333 (  3379 PWs)   bands (ev):

    -7.8625  -4.2269  -4.1185  -4.0784  -4.0639  -4.0163   0.5479   4.0988
     4.3943   5.2490   9.1627  12.0286  12.5709  14.6352  17.7244  18.4103
    18.5185  20.2533  20.4518  21.4418

          k = 0.0833 0.0833 0.4167 (  3388 PWs)   bands (ev):

    -7.8181  -4.2243  -4.0933  -4.0888  -4.0741  -4.0147   0.4233   4.2440
     4.4835   5.3973   8.4545  11.8424  12.5213  14.7351  18.0613  18.5467
    18.8596  20.3578  20.9789  21.0069

          k = 0.0833 0.0833-0.5000 (  3378 PWs)   bands (ev):

    -7.8016  -4.2233  -4.0988  -4.0783  -4.0777  -4.0141   0.3774   4.3121
     4.5170   5.4581   8.1870  11.7711  12.4973  14.7861  17.8845  18.7716
    19.1271  20.8326  21.1058  21.2084

          k = 0.0833 0.1667 0.1667 (  3382 PWs)   bands (ev):

    -7.9417  -4.2170  -4.1851  -4.0468  -4.0335  -4.0329   0.8407   3.8091
     4.1772   5.0547  11.0268  11.7784  12.4812  14.9766  16.0162  18.4961
    18.8595  20.1047  21.4373  21.4966

          k = 0.0833 0.1667 0.2500 (  3368 PWs)   bands (ev):

    -7.8897  -4.2092  -4.1445  -4.0636  -4.0468  -4.0311   0.7748   3.7022
     4.2741   5.2081  10.1657  11.6253  12.4970  15.0320  16.8382  18.0696
    18.9095  20.1601  20.8529  21.6498

          k = 0.0833 0.1667 0.3333 (  3374 PWs)   bands (ev):

    -7.8363  -4.2045  -4.1021  -4.0825  -4.0569  -4.0289   0.6828   3.7385
     4.3821   5.2539   9.3623  11.4934  12.5744  15.0356  17.6704  17.9778
    19.1303  19.7265  20.3085  21.5409

          k = 0.0833 0.1667 0.4167 (  3381 PWs)   bands (ev):

    -7.7963  -4.2014  -4.0969  -4.0721  -4.0625  -4.0272   0.6010   3.8671
     4.4657   5.2025   8.8362  11.3549  12.6556  15.0500  17.7915  18.4371
    19.0306  20.0027  20.1394  21.4776

          k = 0.0833 0.1667-0.5000 (  3384 PWs)   bands (ev):

    -7.7815  -4.2003  -4.1023  -4.0659  -4.0599  -4.0265   0.5684   3.9450
     4.4974   5.1540   8.6562  11.2968  12.6878  15.0590  17.9266  18.3557
    18.8814  20.2462  20.7469  21.3923

          k = 0.0833 0.2500 0.2500 (  3374 PWs)   bands (ev):

    -7.8453  -4.1922  -4.1111  -4.0713  -4.0479  -4.0424   0.8441   3.4467
     4.3450   5.2171   9.9519  11.1850  12.5223  15.3213  17.1377  17.9315
    18.7445  19.8012  21.4790  21.5449

          k = 0.0833 0.2500 0.3333 (  3377 PWs)   bands (ev):

    -7.8001  -4.1828  -4.0833  -4.0717  -4.0536  -4.0428   0.8860   3.3532
     4.4269   5.0569   9.5772  11.0191  12.6431  15.3482  17.3873  17.9815
    19.1159  19.1984  20.8685  21.4955

          k = 0.0833 0.2500 0.4167 (  3378 PWs)   bands (ev):

    -7.7664  -4.1776  -4.0950  -4.0568  -4.0452  -4.0369   0.8916   3.4220
     4.4901   4.8019   9.3143  10.9179  12.8134  15.2588  17.3885  18.0411
    19.0954  19.7707  20.4651  21.1907

          k = 0.0833 0.2500-0.5000 (  3378 PWs)   bands (ev):

    -7.7539  -4.1759  -4.0997  -4.0553  -4.0456  -4.0266   0.8873   3.4963
     4.5147   4.6586   9.2290  10.8750  12.8974  15.2046  17.4520  17.8452
    19.5252  19.6639  20.3273  21.6814

          k = 0.0833 0.3333 0.3333 (  3380 PWs)   bands (ev):

    -7.7634  -4.1687  -4.0832  -4.0641  -4.0455  -4.0313   1.1095   3.0992
     4.4785   4.6812   9.7108  10.7505  12.7859  15.3168  17.4260  17.8493
    18.6410  19.4787  20.6751  22.1384

          k = 0.0833 0.3333 0.4167 (  3372 PWs)   bands (ev):

    -7.7362  -4.1610  -4.0885  -4.0646  -4.0467  -4.0010   1.2750   3.0535
     4.2458   4.5223   9.7676  10.6291  12.9895  15.0823  17.3714  17.6281
    18.8355  19.8544  20.3822  22.0154

          k = 0.0833 0.3333-0.5000 (  3378 PWs)   bands (ev):

    -7.7261  -4.1585  -4.0920  -4.0619  -4.0483  -3.9895   1.3308   3.1089
     4.0187   4.5366   9.7859  10.5890  13.1044  14.9444  17.3935  17.4475
    19.1250  19.6490  20.6435  22.0364

          k = 0.0833 0.4167 0.4167 (  3381 PWs)   bands (ev):

    -7.7139  -4.1518  -4.0821  -4.0748  -4.0454  -3.9706   1.6792   2.8522
     3.6572   4.5449  10.0961  10.4814  13.1655  14.7319  17.3520  17.3867
    18.6532  20.2422  20.4470  22.6413

          k = 0.0833 0.4167-0.5000 (  3370 PWs)   bands (ev):

    -7.7056  -4.1488  -4.0831  -4.0743  -4.0457  -3.9590   1.8827   2.8524
     3.3137   4.5535  10.2186  10.4364  13.2583  14.5518  17.3006  17.3496
    18.5180  20.3408  20.9290  22.3653

          k = 0.0833-0.5000-0.5000 (  3368 PWs)   bands (ev):

    -7.6981  -4.1458  -4.0789  -4.0789  -4.0455  -3.9474   2.3759   2.7631
     2.7631   4.5597  10.3899  10.3899  13.3147  14.3762  17.3086  17.3086
    18.2373  21.0162  21.0162  22.4500

          k = 0.1667 0.1667 0.1667 (  3380 PWs)   bands (ev):

    -7.9071  -4.1828  -4.1828  -4.0494  -4.0494  -4.0346   0.8522   3.9019
     3.9019   5.2083  11.1612  11.6075  11.6075  15.7308  15.7308  19.1708
    19.1708  19.4106  21.3852  21.7540

          k = 0.1667 0.1667 0.2500 (  3373 PWs)   bands (ev):

    -7.8588  -4.1795  -4.1368  -4.0718  -4.0525  -4.0356   0.8488   3.7107
     4.0345   5.2621  10.3917  11.3470  11.7988  15.5106  16.5545  18.6831
    19.5336  19.5576  20.9419  21.2673

          k = 0.1667 0.1667 0.3333 (  3380 PWs)   bands (ev):

    -7.8095  -4.1760  -4.0941  -4.0925  -4.0535  -4.0373   0.8187   3.6721
     4.1747   5.1938   9.6252  11.0616  12.2221  15.4146  17.1268  18.4702
    19.2295  19.7049  21.0277  21.0394

          k = 0.1667 0.1667 0.4167 (  3383 PWs)   bands (ev):

    -7.7726  -4.1732  -4.1105  -4.0632  -4.0509  -4.0387   0.7784   3.7568
     4.2831   5.0447   9.1393  10.8403  12.5753  15.4025  17.1455  18.1395
    19.5395  19.9817  21.1083  21.4842

          k = 0.1667 0.1667-0.5000 (  3378 PWs)   bands (ev):

    -7.7589  -4.1721  -4.1166  -4.0533  -4.0518  -4.0367   0.7597   3.8240
     4.3241   4.9553   8.9757  10.7571  12.7171  15.4088  17.0885  17.9524
    19.4327  21.1055  21.1302  21.5656

          k = 0.1667 0.2500 0.2500 (  3370 PWs)   bands (ev):

    -7.8160  -4.1561  -4.1100  -4.0829  -4.0654  -4.0355   0.9450   3.5586
     4.0333   5.1917  10.3108  10.9112  11.6384  15.7857  16.6619  18.6159
    19.3467  19.6058  21.3572  21.8437

          k = 0.1667 0.2500 0.3333 (  3376 PWs)   bands (ev):

    -7.7723  -4.1477  -4.1012  -4.0767  -4.0597  -4.0381   1.0263   3.4445
     4.1458   4.9900   9.8157  10.6300  11.9688  15.7547  16.9880  18.0106
    19.2963  20.1202  21.2537  21.8920

          k = 0.1667 0.2500 0.4167 (  3375 PWs)   bands (ev):

    -7.7398  -4.1433  -4.1170  -4.0681  -4.0439  -4.0317   1.0680   3.4734
     4.2448   4.7285   9.4615  10.3934  12.3774  15.6802  16.8798  17.6627
    19.8906  20.7052  20.8787  22.0051

          k = 0.1667 0.2500-0.5000 (  3370 PWs)   bands (ev):

    -7.7278  -4.1414  -4.1234  -4.0636  -4.0483  -4.0201   1.0779   3.5283
     4.2835   4.5897   9.3440  10.3004  12.5610  15.6311  16.7538  17.5675
    20.2712  20.8364  21.1842  21.8348

          k = 0.1667 0.3333 0.3333 (  3375 PWs)   bands (ev):

    -7.7346  -4.1320  -4.1059  -4.0852  -4.0410  -4.0292   1.2625   3.2303
     4.2159   4.6498   9.7516  10.3842  11.9642  15.7272  17.2296  17.5187
    19.4052  20.3306  21.7377  22.4376

          k = 0.1667 0.3333 0.4167 (  3376 PWs)   bands (ev):

    -7.7066  -4.1247  -4.1143  -4.0855  -4.0478  -3.9988   1.4495   3.1741
     4.2576   4.2919   9.6653  10.1622  12.1622  15.4936  17.1837  17.4557
    19.8731  20.7233  21.3879  22.2686

          k = 0.1667 0.3333-0.5000 (  3370 PWs)   bands (ev):

    -7.6963  -4.1207  -4.1204  -4.0823  -4.0524  -3.9871   1.5175   3.2123
     4.0601   4.3139   9.6608  10.0408  12.2803  15.3626  17.1282  17.4500
    20.4549  20.6218  21.3123  22.1592

          k = 0.1667 0.4167 0.4167 (  3369 PWs)   bands (ev):

    -7.6820  -4.1152  -4.1079  -4.0972  -4.0570  -3.9694   1.8530   2.9974
     3.7394   4.3311   9.7724  10.0549  12.0388  15.2066  17.4082  17.4926
    20.0219  21.0722  21.1080  22.8335

          k = 0.1667 0.4167-0.5000 (  3372 PWs)   bands (ev):

    -7.6729  -4.1103  -4.1097  -4.0963  -4.0635  -3.9580   2.0597   2.9915
     3.4278   4.3488   9.8700   9.9533  12.0102  15.0887  17.4719  17.5083
    20.1334  21.0007  21.5314  22.4519

          k = 0.1667-0.5000-0.5000 (  3392 PWs)   bands (ev):

    -7.6643  -4.1062  -4.1018  -4.1018  -4.0722  -3.9467   2.5365   2.9134
     2.9134   4.3630   9.9428   9.9428  11.8971  14.9898  17.5640  17.5640
    19.9646  21.6093  21.6093  22.5240

          k = 0.2500 0.2500 0.2500 (  3377 PWs)   bands (ev):

    -7.7753  -4.1101  -4.1101  -4.0875  -4.0875  -4.0343   1.0919   3.7205
     3.7205   5.0607  10.5300  10.5300  11.0332  16.4005  16.4005  17.8781
    20.4069  20.4069  20.7880  22.1958

          k = 0.2500 0.2500 0.3333 (  3377 PWs)   bands (ev):

    -7.7338  -4.1203  -4.0991  -4.0961  -4.0543  -4.0392   1.2454   3.5192
     3.8951   4.8253   9.9671  10.1422  11.4227  16.3028  16.7716  17.3946
    20.3308  21.1228  21.4180  21.9223

          k = 0.2500 0.2500 0.4167 (  3371 PWs)   bands (ev):

    -7.7029  -4.1353  -4.0997  -4.0910  -4.0481  -4.0198   1.3552   3.4753
     4.0327   4.5524   9.5585   9.8534  11.8203  16.2907  16.4543  17.4947
    20.8342  21.3170  21.6571  22.1870

          k = 0.2500 0.2500-0.5000 (  3380 PWs)   bands (ev):

    -7.6915  -4.1413  -4.0995  -4.0870  -4.0537  -4.0071   1.3927   3.5006
     4.0856   4.4128   9.4213   9.7464  11.9807  16.2770  16.2960  17.5275
    21.2250  21.6963  21.8079  22.0680

          k = 0.2500 0.3333 0.3333 (  3369 PWs)   bands (ev):

    -7.6946  -4.1294  -4.1130  -4.0765  -4.0485  -4.0271   1.5066   3.4225
     3.9026   4.5553   9.6569   9.8985  11.2421  16.3189  17.0725  17.1596
    20.7801  21.2711  22.2980  22.5551

          k = 0.2500 0.3333 0.4167 (  3366 PWs)   bands (ev):

    -7.6654  -4.1426  -4.1135  -4.0704  -4.0623  -3.9954   1.7326   3.3426
     4.0060   4.2405   9.4219   9.6143  11.2872  16.1073  17.0459  17.5407
    21.1243  21.6407  22.2144  22.8115

          k = 0.2500 0.3333-0.5000 (  3366 PWs)   bands (ev):

    -7.6546  -4.1482  -4.1100  -4.0704  -4.0690  -3.9830   1.8229   3.3506
     4.0514   4.0733   9.4131   9.4245  11.3233  16.0269  17.0512  17.6514
    21.6801  21.8075  22.1355  22.3388

          k = 0.2500 0.4167 0.4167 (  3366 PWs)   bands (ev):

    -7.6374  -4.1418  -4.1272  -4.0818  -4.0585  -3.9680   2.1336   3.2120
     3.8357   4.0635   9.3003   9.5025  10.9044  15.9642  17.5451  17.6894
    21.3711  21.8603  22.2236  23.1410

          k = 0.2500 0.4167-0.5000 (  3376 PWs)   bands (ev):

    -7.6271  -4.1426  -4.1265  -4.0936  -4.0555  -3.9567   2.3444   3.1960
     3.5807   4.0926   9.3377   9.3882  10.7653  15.9269  17.6594  17.8096
    21.8189  21.8389  22.3397  22.5714

          k = 0.2500-0.5000-0.5000 (  3396 PWs)   bands (ev):

    -7.6169  -4.1325  -4.1325  -4.1102  -4.0520  -3.9457   2.7908   3.1362
     3.1362   4.1150   9.3678   9.3678  10.5221  15.9051  17.8811  17.8811
    21.7474  22.4310  22.4310  22.6308

          k = 0.3333 0.3333 0.3333 (  3368 PWs)   bands (ev):

    -7.6537  -4.1400  -4.1400  -4.0659  -4.0252  -4.0252   1.8123   3.6337
     3.6337   4.3682   9.4207   9.4207  10.7768  16.6838  17.1884  17.1884
    21.7796  22.1310  22.1310  22.9798

          k = 0.3333 0.3333 0.4167 (  3366 PWs)   bands (ev):

    -7.6231  -4.1594  -4.1402  -4.0870  -4.0239  -3.9875   2.1031   3.4793
     3.8041   4.1185   9.0694   9.2111  10.5174  16.6772  17.2481  17.7041
    22.0018  22.3569  22.6957  23.0288

          k = 0.3333 0.3333-0.5000 (  3366 PWs)   bands (ev):

    -7.6118  -4.1665  -4.1365  -4.0987  -4.0234  -3.9738   2.2329   3.4474
     3.8707   3.9766   8.9393   9.1365  10.4287  16.6825  17.2767  17.9023
    22.3965  22.5355  22.6647  22.8677

          k = 0.3333 0.4167 0.4167 (  3362 PWs)   bands (ev):

    -7.5915  -4.1662  -4.1565  -4.1143  -4.0050  -3.9667   2.4985   3.4512
     3.8176   3.8813   8.8389   8.9657   9.9433  16.8763  17.7581  17.8993
    22.3353  22.5243  22.9770  23.4335

          k = 0.3333 0.4167-0.5000 (  3368 PWs)   bands (ev):

    -7.5798  -4.1702  -4.1556  -4.1296  -4.0021  -3.9551   2.7137   3.4202
     3.7063   3.8609   8.7674   8.9013   9.7086  16.9286  17.8786  18.1071
    22.5546  22.6910  23.0239  23.0909

          k = 0.3333-0.5000-0.5000 (  3360 PWs)   bands (ev):

    -7.5680  -4.1626  -4.1626  -4.1501  -3.9979  -3.9447   3.1034   3.3860
     3.3860   3.8869   8.8107   8.8107   9.3616  16.9873  18.1871  18.1871
    22.7452  22.7621  23.0514  23.1751

          k = 0.4167 0.4167 0.4167 (  3373 PWs)   bands (ev):

    -7.5571  -4.1775  -4.1775  -4.1455  -3.9658  -3.9658   2.8895   3.6478
     3.6478   3.8099   8.5712   8.5712   9.2382  17.6059  18.0655  18.0655
    22.7826  22.9514  22.9514  23.4681

          k = 0.4167 0.4167-0.5000 (  3372 PWs)   bands (ev):

    -7.5443  -4.1852  -4.1766  -4.1621  -3.9655  -3.9515   3.1154   3.5806
     3.7101   3.7257   8.4244   8.5370   8.9285  17.7964  18.1298  18.3310
    22.7702  22.9614  23.1440  23.3809

          k = 0.4167-0.5000-0.5000 (  3380 PWs)   bands (ev):

    -7.5310  -4.1842  -4.1842  -4.1806  -3.9582  -3.9440   3.3909   3.5927
     3.5927   3.7303   8.4007   8.4007   8.5493  18.0136  18.4159  18.4159
    22.7572  22.8337  23.2568  23.5095

          k =-0.5000-0.5000-0.5000 (  3328 PWs)   bands (ev):

    -7.5173  -4.1921  -4.1921  -4.1921  -3.9437  -3.9437   3.5150   3.6750
     3.6750   3.6750   8.2477   8.2477   8.2477  18.5025  18.5025  18.5025
    22.6654  22.8683  22.8683  23.5877

     the Fermi energy is     5.7748 ev

!    total energy              =    -126.25458043 Ry
     estimated scf accuracy    <          2.8E-11 Ry
     smearing contrib. (-TS)   =      -0.00000000 Ry
     internal energy E=F+TS    =    -126.25458043 Ry

     The total energy is F=E-TS. E is the sum of the following terms:
     one-electron contribution =     -26.42717120 Ry
     hartree contribution      =      24.26578895 Ry
     xc contribution           =     -18.67285839 Ry
     ewald contribution        =    -105.42033979 Ry

     convergence has been achieved in  10 iterations

     Writing all to output data dir out/mp-23167.save/
 
     init_run     :      0.46s CPU      0.49s WALL (       1 calls)
     electrons    :     21.98s CPU     24.27s WALL (       1 calls)

     Called by init_run:
     wfcinit      :      0.41s CPU      0.43s WALL (       1 calls)
     potinit      :      0.01s CPU      0.02s WALL (       1 calls)
     hinit0       :      0.01s CPU      0.02s WALL (       1 calls)

     Called by electrons:
     c_bands      :     20.09s CPU     22.26s WALL (      10 calls)
     sum_band     :      1.84s CPU      1.92s WALL (      10 calls)
     v_of_rho     :      0.04s CPU      0.04s WALL (      11 calls)
     mix_rho      :      0.01s CPU      0.01s WALL (      10 calls)

     Called by c_bands:
     init_us_2    :      0.36s CPU      0.38s WALL (    1764 calls)
     init_us_2:cp :      0.35s CPU      0.38s WALL (    1764 calls)
     cegterg      :     18.14s CPU     18.85s WALL (     840 calls)

     Called by *egterg:
     cdiaghg      :      3.07s CPU      3.20s WALL (    5670 calls)
     h_psi        :     13.03s CPU     13.58s WALL (    5754 calls)
     g_psi        :      0.15s CPU      0.15s WALL (    4830 calls)

     Called by h_psi:
     h_psi:calbec :      0.56s CPU      0.59s WALL (    5754 calls)
     vloc_psi     :     11.90s CPU     12.41s WALL (    5754 calls)
     add_vuspsi   :      0.47s CPU      0.49s WALL (    5754 calls)

     General routines
     calbec       :      0.54s CPU      0.57s WALL (    5754 calls)
     fft          :      0.02s CPU      0.02s WALL (     109 calls)
     ffts         :      0.00s CPU      0.00s WALL (      10 calls)
     fftw         :     11.97s CPU     12.49s WALL (  151920 calls)
 
     Parallel routines
 
     PWSCF        :     22.59s CPU     25.26s WALL

 
   This run was terminated on:  14:31:56   3Jan2024            

=------------------------------------------------------------------------------=
   JOB DONE.
=------------------------------------------------------------------------------=
