 vasp.5.4.4.18Apr17-6-g9f103f2a35 (build Aug 24 2017 11:22:49) complex          
  
 executed on             LinuxIFC date 2023.12.25  13:07:30
 running on    8 total cores
 distrk:  each k-point on    8 cores,    1 groups
 distr:  one band on NCORES_PER_BAND=   1 cores,    8 groups


--------------------------------------------------------------------------------------------------------


 INCAR:
 POTCAR:    PAW_PBE Sr_sv 07Sep2000               
 POTCAR:    PAW_PBE O 08Apr2002                   

 ----------------------------------------------------------------------------- 
|                                                                             |
|           W    W    AA    RRRRR   N    N  II  N    N   GGGG   !!!           |
|           W    W   A  A   R    R  NN   N  II  NN   N  G    G  !!!           |
|           W    W  A    A  R    R  N N  N  II  N N  N  G       !!!           |
|           W WW W  AAAAAA  RRRRR   N  N N  II  N  N N  G  GGG   !            |
|           WW  WW  A    A  R   R   N   NN  II  N   NN  G    G                |
|           W    W  A    A  R    R  N    N  II  N    N   GGGG   !!!           |
|                                                                             |
|      For optimal performance we recommend to set                            |
|        NCORE= 4 - approx SQRT( number of cores)                             |
|      NCORE specifies how many cores store one orbital (NPAR=cpu/NCORE).     |
|      This setting can  greatly improve the performance of VASP for DFT.     |
|      The default,   NCORE=1            might be grossly inefficient         |
|      on modern multi-core architectures or massively parallel machines.     |
|      Do your own testing !!!!                                               |
|      Unfortunately you need to use the default for GW and RPA calculations. |
|      (for HF NCORE is supported but not extensively tested yet)             |
|                                                                             |
 ----------------------------------------------------------------------------- 

 POTCAR:    PAW_PBE Sr_sv 07Sep2000               
   VRHFIN =Sr: 4s4p5s                                                           
   LEXCH  = PE                                                                  
   EATOM  =   843.0319 eV,   61.9611 Ry                                         
                                                                                
   TITEL  = PAW_PBE Sr_sv 07Sep2000                                             
   LULTRA =        F    use ultrasoft PP ?                                      
   IUNSCR =        1    unscreen: 0-lin 1-nonlin 2-no                           
   RPACOR =    2.200    partial core radius                                     
   POMASS =   87.620; ZVAL   =   10.000    mass and valenz                      
   RCORE  =    2.500    outmost cutoff radius                                   
   RWIGS  =    4.040; RWIGS  =    2.138    wigner-seitz radius (au A)           
   ENMAX  =  229.353; ENMIN  =  172.014 eV                                      
   RCLOC  =    2.201    cutoff for local pot                                    
   LCOR   =        T    correct aug charges                                     
   LPAW   =        T    paw PP                                                  
   EAUG   =  366.804                                                            
   DEXC   =    0.000                                                            
   RMAX   =    2.547    core radius for proj-oper                               
   RAUG   =    1.300    factor for augmentation sphere                          
   RDEP   =    2.562    radius for radial grids                                 
   RDEPT  =    2.128    core radius for aug-charge                              
                                                                                
   Atomic configuration                                                         
   10 entries                                                                   
     n  l   j            E        occ.                                          
     1  0  0.50    -15934.8930   2.0000                                         
     2  0  0.50     -2157.6250   2.0000                                         
     2  1  1.50     -1917.0034   6.0000                                         
     3  0  0.50      -333.7288   2.0000                                         
     3  1  1.50      -256.0992   6.0000                                         
     3  2  2.50      -127.9971  10.0000                                         
     4  0  0.50       -40.8953   2.0000                                         
     5  0  0.50        -3.5257   1.9990                                         
     4  1  1.50       -22.8179   6.0000                                         
     4  2  1.50        -1.2815   0.0010                                         
   Description                                                                  
     l       E           TYP  RCUT    TYP  RCUT                                 
     0    -40.8953213     23  2.480                                             
     0     -3.5257161     23  2.480                                             
     1    -22.8178632     23  2.500                                             
     1    -24.1784458     23  2.500                                             
     2     -1.2814598     23  2.500                                             
     2      0.2279365     23  2.500                                             
  local pseudopotential read in
  partial core-charges read in
  partial kinetic energy density read in
  atomic valenz-charges read in
  non local Contribution for L=           0  read in
    real space projection operators read in
  non local Contribution for L=           0  read in
    real space projection operators read in
  non local Contribution for L=           1  read in
    real space projection operators read in
  non local Contribution for L=           1  read in
    real space projection operators read in
  non local Contribution for L=           2  read in
    real space projection operators read in
  non local Contribution for L=           2  read in
    real space projection operators read in
    PAW grid and wavefunctions read in
 
   number of l-projection  operators is LMAX  =           6
   number of lm-projection operators is LMMAX =          18
 
 POTCAR:    PAW_PBE O 08Apr2002                   
   VRHFIN =O: s2p4                                                              
   LEXCH  = PE                                                                  
   EATOM  =   432.3788 eV,   31.7789 Ry                                         
                                                                                
   TITEL  = PAW_PBE O 08Apr2002                                                 
   LULTRA =        F    use ultrasoft PP ?                                      
   IUNSCR =        1    unscreen: 0-lin 1-nonlin 2-no                           
   RPACOR =    1.200    partial core radius                                     
   POMASS =   16.000; ZVAL   =    6.000    mass and valenz                      
   RCORE  =    1.520    outmost cutoff radius                                   
   RWIGS  =    1.550; RWIGS  =    0.820    wigner-seitz radius (au A)           
   ENMAX  =  400.000; ENMIN  =  300.000 eV                                      
   ICORE  =        2    local potential                                         
   LCOR   =        T    correct aug charges                                     
   LPAW   =        T    paw PP                                                  
   EAUG   =  605.392                                                            
   DEXC   =    0.000                                                            
   RMAX   =    1.553    core radius for proj-oper                               
   RAUG   =    1.300    factor for augmentation sphere                          
   RDEP   =    1.550    radius for radial grids                                 
   RDEPT  =    1.329    core radius for aug-charge                              
                                                                                
   Atomic configuration                                                         
    4 entries                                                                   
     n  l   j            E        occ.                                          
     1  0  0.50      -514.6923   2.0000                                         
     2  0  0.50       -23.9615   2.0000                                         
     2  1  0.50        -9.0305   4.0000                                         
     3  2  1.50        -9.5241   0.0000                                         
   Description                                                                  
     l       E           TYP  RCUT    TYP  RCUT                                 
     0    -23.9615318     23  1.200                                             
     0     -9.5240782     23  1.200                                             
     1     -9.0304911     23  1.520                                             
     1      8.1634956     23  1.520                                             
     2     -9.5240782      7  1.500                                             
  local pseudopotential read in
  partial core-charges read in
  partial kinetic energy density read in
  kinetic energy density of atom read in
  atomic valenz-charges read in
  non local Contribution for L=           0  read in
    real space projection operators read in
  non local Contribution for L=           0  read in
    real space projection operators read in
  non local Contribution for L=           1  read in
    real space projection operators read in
  non local Contribution for L=           1  read in
    real space projection operators read in
    PAW grid and wavefunctions read in
 
   number of l-projection  operators is LMAX  =           4
   number of lm-projection operators is LMMAX =           8
 
  PAW_PBE Sr_sv 07Sep2000               :
 energy of atom  1       EATOM= -843.0319
 kinetic energy error for atom=    0.0010 (will be added to EATOM!!)
  PAW_PBE O 08Apr2002                   :
 energy of atom  2       EATOM= -432.3788
 kinetic energy error for atom=    0.0208 (will be added to EATOM!!)
 
 
 POSCAR: Sr1 O1                                  
  positions in direct lattice
  No initial velocities read in
 exchange correlation table for  LEXCH =        8
   RHO(1)=    0.500       N(1)  =     2000
   RHO(2)=  100.500       N(2)  =     4000
 


--------------------------------------------------------------------------------------------------------


 ion  position               nearest neighbor table
   1  0.500  0.500  0.500-   2 2.58   2 2.58   2 2.58   2 2.58   2 2.58   2 2.58
   2  0.000  0.000  0.000-   1 2.58   1 2.58   1 2.58   1 2.58   1 2.58   1 2.58
 
  LATTYP: Found a face centered cubic cell.
 ALAT       =     5.1675689807
  
  Lattice vectors:
  
 A1 = (  -2.5837844903,   0.0000000000,   2.5837844903)
 A2 = (   0.0000000000,   2.5837844903,   2.5837844903)
 A3 = (  -2.5837844903,   2.5837844903,   0.0000000000)


Analysis of symmetry for initial positions (statically):
=====================================================================
 Subroutine PRICEL returns:
 Original cell was already a primitive cell.
 

 Routine SETGRP: Setting up the symmetry group for a 
 face centered cubic supercell.


 Subroutine GETGRP returns: Found  8 space group operations
 (whereof  8 operations were pure point group operations)
 out of a pool of 48 trial point group operations.


The static configuration has the point symmetry C_4v.


Analysis of symmetry for dynamics (positions and initial velocities):
=====================================================================
 Subroutine PRICEL returns:
 Original cell was already a primitive cell.
 

 Routine SETGRP: Setting up the symmetry group for a 
 face centered cubic supercell.


 Subroutine GETGRP returns: Found  8 space group operations
 (whereof  8 operations were pure point group operations)
 out of a pool of 48 trial point group operations.


The dynamic configuration has the point symmetry C_4v.


 Subroutine INISYM returns: Found  8 space group operations
 (whereof  8 operations are pure point group operations),
 and found     1 'primitive' translations

 
 
 KPOINTS: pymatgen with grid density = 3000 / numb

Automatic generation of k-mesh.
Space group operators:
 irot       det(A)        alpha          n_x          n_y          n_z        tau_x        tau_y        tau_z
    1     1.000000     0.000000     1.000000     0.000000     0.000000     0.000000     0.000000     0.000000
    2     1.000000    90.000000    -1.000000     0.000000    -0.000000     0.000000     0.000000     0.000000
    3    -1.000000   180.000000     0.000000    -0.000000    -1.000000     0.000000     0.000000     0.000000
    4    -1.000000   180.000000     0.000000     0.707107     0.707107     0.000000     0.000000     0.000000
    5    -1.000000   180.000000     0.000000    -1.000000    -0.000000     0.000000     0.000000     0.000000
    6     1.000000    90.000000     1.000000     0.000000     0.000000     0.000000     0.000000     0.000000
    7     1.000000   180.000000     1.000000     0.000000     0.000000     0.000000     0.000000     0.000000
    8    -1.000000   180.000000    -0.000000    -0.707107     0.707107     0.000000     0.000000     0.000000
 
 Subroutine IBZKPT returns following result:
 ===========================================
 
 Found    163 irreducible k-points:
 
 Following reciprocal coordinates:
            Coordinates               Weight
  0.000000  0.000000  0.000000      1.000000
  0.083333  0.000000  0.000000      8.000000
  0.166667  0.000000  0.000000      8.000000
  0.250000 -0.000000 -0.000000      8.000000
  0.333333 -0.000000 -0.000000      8.000000
  0.416667  0.000000  0.000000      8.000000
  0.500000 -0.000000 -0.000000      4.000000
  0.083333  0.083333 -0.000000      4.000000
  0.166667  0.083333 -0.000000     16.000000
  0.250000  0.083333  0.000000     16.000000
  0.333333  0.083333 -0.000000     16.000000
  0.416667  0.083333  0.000000     16.000000
  0.500000  0.083333  0.000000     16.000000
 -0.416667  0.083333 -0.000000     16.000000
 -0.333333  0.083333  0.000000     16.000000
 -0.250000  0.083333  0.000000     16.000000
 -0.166667  0.083333 -0.000000     16.000000
 -0.083333  0.083333 -0.000000      8.000000
  0.166667  0.166667 -0.000000      4.000000
  0.250000  0.166667 -0.000000     16.000000
  0.333333  0.166667  0.000000     16.000000
  0.416667  0.166667 -0.000000     16.000000
  0.500000  0.166667 -0.000000     16.000000
 -0.416667  0.166667  0.000000     16.000000
 -0.333333  0.166667 -0.000000     16.000000
 -0.250000  0.166667 -0.000000     16.000000
 -0.166667  0.166667 -0.000000      8.000000
  0.250000  0.250000 -0.000000      4.000000
  0.333333  0.250000 -0.000000     16.000000
  0.416667  0.250000 -0.000000     16.000000
  0.500000  0.250000  0.000000     16.000000
 -0.416667  0.250000 -0.000000     16.000000
 -0.333333  0.250000 -0.000000     16.000000
 -0.250000  0.250000 -0.000000      8.000000
  0.333333  0.333333 -0.000000      4.000000
  0.416667  0.333333 -0.000000     16.000000
  0.500000  0.333333 -0.000000     16.000000
 -0.416667  0.333333 -0.000000     16.000000
 -0.333333  0.333333  0.000000      8.000000
  0.416667  0.416667 -0.000000      4.000000
  0.500000  0.416667 -0.000000     16.000000
 -0.416667  0.416667 -0.000000      8.000000
  0.500000  0.500000 -0.000000      2.000000
  0.083333  0.000000  0.083333      2.000000
  0.166667 -0.000000  0.083333      8.000000
  0.250000  0.000000  0.083333      8.000000
  0.333333  0.000000  0.083333      8.000000
  0.416667  0.000000  0.083333      8.000000
  0.500000  0.000000  0.083333      8.000000
 -0.416667 -0.000000  0.083333      8.000000
 -0.333333 -0.000000  0.083333      8.000000
 -0.250000  0.000000  0.083333      8.000000
 -0.166667 -0.000000  0.083333      8.000000
 -0.083333 -0.000000  0.083333      4.000000
  0.250000  0.166667  0.083333      8.000000
  0.333333  0.166667  0.083333     16.000000
  0.416667  0.166667  0.083333     16.000000
  0.500000  0.166667  0.083333     16.000000
 -0.416667  0.166667  0.083333      8.000000
  0.166667  0.250000  0.083333      8.000000
  0.333333  0.250000  0.083333      8.000000
  0.416667  0.250000  0.083333     16.000000
  0.500000  0.250000  0.083333     16.000000
 -0.416667  0.250000  0.083333     16.000000
 -0.333333  0.250000  0.083333     16.000000
 -0.250000  0.250000  0.083333     16.000000
 -0.166667  0.250000  0.083333      8.000000
  0.166667  0.333333  0.083333     16.000000
  0.250000  0.333333  0.083333      8.000000
  0.416667  0.333333  0.083333      8.000000
  0.500000  0.333333  0.083333     16.000000
 -0.416667  0.333333  0.083333     16.000000
 -0.333333  0.333333  0.083333     16.000000
 -0.250000  0.333333  0.083333      8.000000
  0.166667  0.416667  0.083333     16.000000
  0.250000  0.416667  0.083333     16.000000
  0.333333  0.416667  0.083333      8.000000
  0.500000  0.416667  0.083333      8.000000
 -0.416667  0.416667  0.083333     16.000000
 -0.333333  0.416667  0.083333      8.000000
  0.166667  0.500000  0.083333     16.000000
  0.250000  0.500000  0.083333     16.000000
  0.333333  0.500000  0.083333     16.000000
  0.416667  0.500000  0.083333      8.000000
 -0.416667  0.500000  0.083333      4.000000
  0.166667 -0.416667  0.083333     16.000000
  0.250000 -0.416667  0.083333     16.000000
  0.333333 -0.416667  0.083333     16.000000
  0.416667 -0.416667  0.083333     16.000000
  0.500000 -0.416667  0.083333      4.000000
  0.166667 -0.333333  0.083333     16.000000
  0.250000 -0.333333  0.083333     16.000000
  0.333333 -0.333333  0.083333     16.000000
  0.416667 -0.333333  0.083333      8.000000
  0.166667 -0.250000  0.083333     16.000000
  0.250000 -0.250000  0.083333     16.000000
  0.333333 -0.250000  0.083333      8.000000
  0.166667 -0.166667  0.083333     16.000000
  0.250000 -0.166667  0.083333      8.000000
  0.166667 -0.083333  0.083333      8.000000
  0.166667 -0.000000  0.166667      2.000000
  0.250000  0.000000  0.166667      8.000000
  0.333333  0.000000  0.166667      8.000000
  0.416667  0.000000  0.166667      8.000000
  0.500000  0.000000  0.166667      8.000000
 -0.416667  0.000000  0.166667      8.000000
 -0.333333 -0.000000  0.166667      8.000000
 -0.250000 -0.000000  0.166667      8.000000
 -0.166667 -0.000000  0.166667      4.000000
  0.500000  0.333333  0.166667      8.000000
 -0.416667  0.333333  0.166667     16.000000
 -0.333333  0.333333  0.166667      8.000000
  0.250000  0.416667  0.166667      8.000000
 -0.416667  0.416667  0.166667      8.000000
 -0.333333  0.416667  0.166667     16.000000
 -0.250000  0.416667  0.166667      8.000000
  0.250000  0.500000  0.166667     16.000000
  0.333333  0.500000  0.166667      8.000000
 -0.333333  0.500000  0.166667      4.000000
  0.250000 -0.416667  0.166667     16.000000
  0.333333 -0.416667  0.166667     16.000000
  0.416667 -0.416667  0.166667      8.000000
  0.250000 -0.333333  0.166667     16.000000
  0.333333 -0.333333  0.166667     16.000000
  0.416667 -0.333333  0.166667     16.000000
  0.500000 -0.333333  0.166667      4.000000
  0.250000 -0.250000  0.166667     16.000000
  0.333333 -0.250000  0.166667     16.000000
  0.416667 -0.250000  0.166667      8.000000
  0.250000 -0.166667  0.166667     16.000000
  0.333333 -0.166667  0.166667      8.000000
  0.250000 -0.083333  0.166667      8.000000
  0.250000  0.000000  0.250000      2.000000
  0.333333 -0.000000  0.250000      8.000000
  0.416667 -0.000000  0.250000      8.000000
  0.500000 -0.000000  0.250000      8.000000
 -0.416667  0.000000  0.250000      8.000000
 -0.333333  0.000000  0.250000      8.000000
 -0.250000  0.000000  0.250000      4.000000
 -0.250000  0.500000  0.250000      2.000000
  0.333333 -0.416667  0.250000      8.000000
  0.333333 -0.333333  0.250000     16.000000
  0.416667 -0.333333  0.250000      8.000000
  0.333333 -0.250000  0.250000     16.000000
  0.416667 -0.250000  0.250000     16.000000
  0.500000 -0.250000  0.250000      4.000000
  0.333333 -0.166667  0.250000     16.000000
  0.416667 -0.166667  0.250000      8.000000
  0.333333 -0.083333  0.250000      8.000000
  0.333333 -0.000000  0.333333      2.000000
  0.416667 -0.000000  0.333333      8.000000
  0.500000  0.000000  0.333333      8.000000
 -0.416667 -0.000000  0.333333      8.000000
 -0.333333 -0.000000  0.333333      4.000000
  0.416667 -0.250000  0.333333      8.000000
  0.416667 -0.166667  0.333333     16.000000
  0.500000 -0.166667  0.333333      4.000000
  0.416667 -0.083333  0.333333      8.000000
  0.416667 -0.000000  0.416667      2.000000
  0.500000  0.000000  0.416667      8.000000
 -0.416667 -0.000000  0.416667      4.000000
  0.500000 -0.083333  0.416667      4.000000
  0.500000  0.000000  0.500000      1.000000
 
 Following cartesian coordinates:
            Coordinates               Weight
  0.000000  0.000000  0.000000      1.000000
 -0.016126 -0.016126  0.016126      8.000000
 -0.032252 -0.032252  0.032252      8.000000
 -0.048379 -0.048379  0.048379      8.000000
 -0.064505 -0.064505  0.064505      8.000000
 -0.080631 -0.080631  0.080631      8.000000
 -0.096757 -0.096757  0.096757      4.000000
  0.000000  0.000000  0.032252      4.000000
 -0.016126 -0.016126  0.048379     16.000000
 -0.032252 -0.032252  0.064505     16.000000
 -0.048379 -0.048379  0.080631     16.000000
 -0.064505 -0.064505  0.096757     16.000000
 -0.080631 -0.080631  0.112884     16.000000
  0.096757  0.096757 -0.064505     16.000000
  0.080631  0.080631 -0.048379     16.000000
  0.064505  0.064505 -0.032252     16.000000
  0.048379  0.048379 -0.016126     16.000000
  0.032252  0.032252  0.000000      8.000000
 -0.000000 -0.000000  0.064505      4.000000
 -0.016126 -0.016126  0.080631     16.000000
 -0.032252 -0.032252  0.096757     16.000000
 -0.048379 -0.048379  0.112884     16.000000
 -0.064505 -0.064505  0.129010     16.000000
  0.112884  0.112884 -0.048379     16.000000
  0.096757  0.096757 -0.032252     16.000000
  0.080631  0.080631 -0.016126     16.000000
  0.064505  0.064505  0.000000      8.000000
 -0.000000 -0.000000  0.096757      4.000000
 -0.016126 -0.016126  0.112884     16.000000
 -0.032252 -0.032252  0.129010     16.000000
 -0.048379 -0.048379  0.145136     16.000000
  0.129010  0.129010 -0.032252     16.000000
  0.112884  0.112884 -0.016126     16.000000
  0.096757  0.096757  0.000000      8.000000
  0.000000  0.000000  0.129010      4.000000
 -0.016126 -0.016126  0.145136     16.000000
 -0.032252 -0.032252  0.161262     16.000000
  0.145136  0.145136 -0.016126     16.000000
  0.129010  0.129010  0.000000      8.000000
 -0.000000 -0.000000  0.161262      4.000000
 -0.016126 -0.016126  0.177388     16.000000
  0.161262  0.161262  0.000000      8.000000
 -0.000000 -0.000000  0.193515      2.000000
 -0.032252  0.000000  0.000000      2.000000
 -0.048379 -0.016126  0.016126      8.000000
 -0.064505 -0.032252  0.032252      8.000000
 -0.080631 -0.048379  0.048379      8.000000
 -0.096757 -0.064505  0.064505      8.000000
 -0.112884 -0.080631  0.080631      8.000000
  0.064505  0.096757 -0.096757      8.000000
  0.048379  0.080631 -0.080631      8.000000
  0.032252  0.064505 -0.064505      8.000000
  0.016126  0.048379 -0.048379      8.000000
 -0.000000  0.032252 -0.032252      4.000000
 -0.032252  0.000000  0.064505      8.000000
 -0.048379 -0.016126  0.080631     16.000000
 -0.064505 -0.032252  0.096757     16.000000
 -0.080631 -0.048379  0.112884     16.000000
  0.096757  0.129010 -0.064505      8.000000
  0.000000  0.032252  0.064505      8.000000
 -0.032252 -0.000000  0.096757      8.000000
 -0.048379 -0.016126  0.112884     16.000000
 -0.064505 -0.032252  0.129010     16.000000
  0.112884  0.145136 -0.048379     16.000000
  0.096757  0.129010 -0.032252     16.000000
  0.080631  0.112884 -0.016126     16.000000
  0.064505  0.096757  0.000000      8.000000
  0.016126  0.048379  0.080631     16.000000
  0.000000  0.032252  0.096757      8.000000
 -0.032252 -0.000000  0.129010      8.000000
 -0.048379 -0.016126  0.145136     16.000000
  0.129010  0.161262 -0.032252     16.000000
  0.112884  0.145136 -0.016126     16.000000
  0.096757  0.129010  0.000000      8.000000
  0.032252  0.064505  0.096757     16.000000
  0.016126  0.048379  0.112884     16.000000
  0.000000  0.032252  0.129010      8.000000
 -0.032252 -0.000000  0.161262      8.000000
  0.145136  0.177388 -0.016126     16.000000
  0.129010  0.161262  0.000000      8.000000
  0.048379  0.080631  0.112884     16.000000
  0.032252  0.064505  0.129010     16.000000
  0.016126  0.048379  0.145136     16.000000
  0.000000  0.032252  0.161262      8.000000
  0.161262  0.193515  0.000000      4.000000
 -0.129010 -0.096757 -0.064505     16.000000
 -0.145136 -0.112884 -0.048379     16.000000
 -0.161262 -0.129010 -0.032252     16.000000
 -0.177388 -0.145136 -0.016126     16.000000
 -0.193515 -0.161262 -0.000000      4.000000
 -0.112884 -0.080631 -0.048379     16.000000
 -0.129010 -0.096757 -0.032252     16.000000
 -0.145136 -0.112884 -0.016126     16.000000
 -0.161262 -0.129010  0.000000      8.000000
 -0.096757 -0.064505 -0.032252     16.000000
 -0.112884 -0.080631 -0.016126     16.000000
 -0.129010 -0.096757  0.000000      8.000000
 -0.080631 -0.048379 -0.016126     16.000000
 -0.096757 -0.064505  0.000000      8.000000
 -0.064505 -0.032252  0.000000      8.000000
 -0.064505  0.000000 -0.000000      2.000000
 -0.080631 -0.016126  0.016126      8.000000
 -0.096757 -0.032252  0.032252      8.000000
 -0.112884 -0.048379  0.048379      8.000000
 -0.129010 -0.064505  0.064505      8.000000
  0.048379  0.112884 -0.112884      8.000000
  0.032252  0.096757 -0.096757      8.000000
  0.016126  0.080631 -0.080631      8.000000
  0.000000  0.064505 -0.064505      4.000000
 -0.064505  0.000000  0.129010      8.000000
  0.112884  0.177388 -0.048379     16.000000
  0.096757  0.161262 -0.032252      8.000000
 -0.000000  0.064505  0.096757      8.000000
  0.129010  0.193515 -0.032252      8.000000
  0.112884  0.177388 -0.016126     16.000000
  0.096757  0.161262 -0.000000      8.000000
  0.016126  0.080631  0.112884     16.000000
 -0.000000  0.064505  0.129010      8.000000
  0.129010  0.193515  0.000000      4.000000
 -0.161262 -0.096757 -0.064505     16.000000
 -0.177388 -0.112884 -0.048379     16.000000
 -0.193515 -0.129010 -0.032252      8.000000
 -0.145136 -0.080631 -0.048379     16.000000
 -0.161262 -0.096757 -0.032252     16.000000
 -0.177388 -0.112884 -0.016126     16.000000
 -0.193515 -0.129010  0.000000      4.000000
 -0.129010 -0.064505 -0.032252     16.000000
 -0.145136 -0.080631 -0.016126     16.000000
 -0.161262 -0.096757  0.000000      8.000000
 -0.112884 -0.048379 -0.016126     16.000000
 -0.129010 -0.064505 -0.000000      8.000000
 -0.096757 -0.032252  0.000000      8.000000
 -0.096757  0.000000 -0.000000      2.000000
 -0.112884 -0.016126  0.016126      8.000000
 -0.129010 -0.032252  0.032252      8.000000
 -0.145136 -0.048379  0.048379      8.000000
  0.032252  0.129010 -0.129010      8.000000
  0.016126  0.112884 -0.112884      8.000000
  0.000000  0.096757 -0.096757      4.000000
  0.096757  0.193515  0.000000      2.000000
 -0.193515 -0.096757 -0.064505      8.000000
 -0.177388 -0.080631 -0.048379     16.000000
 -0.193515 -0.096757 -0.032252      8.000000
 -0.161262 -0.064505 -0.032252     16.000000
 -0.177388 -0.080631 -0.016126     16.000000
 -0.193515 -0.096757  0.000000      4.000000
 -0.145136 -0.048379 -0.016126     16.000000
 -0.161262 -0.064505 -0.000000      8.000000
 -0.129010 -0.032252  0.000000      8.000000
 -0.129010  0.000000  0.000000      2.000000
 -0.145136 -0.016126  0.016126      8.000000
 -0.161262 -0.032252  0.032252      8.000000
  0.016126  0.145136 -0.145136      8.000000
  0.000000  0.129010 -0.129010      4.000000
 -0.193515 -0.064505 -0.032252      8.000000
 -0.177388 -0.048379 -0.016126     16.000000
 -0.193515 -0.064505 -0.000000      4.000000
 -0.161262 -0.032252  0.000000      8.000000
 -0.161262  0.000000 -0.000000      2.000000
 -0.177388 -0.016126  0.016126      8.000000
  0.000000  0.161262 -0.161262      4.000000
 -0.193515 -0.032252  0.000000      4.000000
 -0.193515  0.000000 -0.000000      1.000000
 
 
 Subroutine IBZKPT_HF returns following result:
 ==============================================
 
 Found   1728 k-points in 1st BZ
 the following   1728 k-points will be used (e.g. in the exchange kernel)
 Following reciprocal coordinates:   # in IRBZ
  0.000000  0.000000  0.000000    0.00057870   1 t-inv F
  0.083333  0.000000  0.000000    0.00057870   2 t-inv F
  0.166667  0.000000  0.000000    0.00057870   3 t-inv F
  0.250000 -0.000000 -0.000000    0.00057870   4 t-inv F
  0.333333 -0.000000 -0.000000    0.00057870   5 t-inv F
  0.416667  0.000000  0.000000    0.00057870   6 t-inv F
  0.500000 -0.000000 -0.000000    0.00057870   7 t-inv F
  0.083333  0.083333 -0.000000    0.00057870   8 t-inv F
  0.166667  0.083333 -0.000000    0.00057870   9 t-inv F
  0.250000  0.083333  0.000000    0.00057870  10 t-inv F
  0.333333  0.083333 -0.000000    0.00057870  11 t-inv F
  0.416667  0.083333  0.000000    0.00057870  12 t-inv F
  0.500000  0.083333  0.000000    0.00057870  13 t-inv F
 -0.416667  0.083333 -0.000000    0.00057870  14 t-inv F
 -0.333333  0.083333  0.000000    0.00057870  15 t-inv F
 -0.250000  0.083333  0.000000    0.00057870  16 t-inv F
 -0.166667  0.083333 -0.000000    0.00057870  17 t-inv F
 -0.083333  0.083333 -0.000000    0.00057870  18 t-inv F
  0.166667  0.166667 -0.000000    0.00057870  19 t-inv F
  0.250000  0.166667 -0.000000    0.00057870  20 t-inv F
  0.333333  0.166667  0.000000    0.00057870  21 t-inv F
  0.416667  0.166667 -0.000000    0.00057870  22 t-inv F
  0.500000  0.166667 -0.000000    0.00057870  23 t-inv F
 -0.416667  0.166667  0.000000    0.00057870  24 t-inv F
 -0.333333  0.166667 -0.000000    0.00057870  25 t-inv F
 -0.250000  0.166667 -0.000000    0.00057870  26 t-inv F
 -0.166667  0.166667 -0.000000    0.00057870  27 t-inv F
  0.250000  0.250000 -0.000000    0.00057870  28 t-inv F
  0.333333  0.250000 -0.000000    0.00057870  29 t-inv F
  0.416667  0.250000 -0.000000    0.00057870  30 t-inv F
  0.500000  0.250000  0.000000    0.00057870  31 t-inv F
 -0.416667  0.250000 -0.000000    0.00057870  32 t-inv F
 -0.333333  0.250000 -0.000000    0.00057870  33 t-inv F
 -0.250000  0.250000 -0.000000    0.00057870  34 t-inv F
  0.333333  0.333333 -0.000000    0.00057870  35 t-inv F
  0.416667  0.333333 -0.000000    0.00057870  36 t-inv F
  0.500000  0.333333 -0.000000    0.00057870  37 t-inv F
 -0.416667  0.333333 -0.000000    0.00057870  38 t-inv F
 -0.333333  0.333333  0.000000    0.00057870  39 t-inv F
  0.416667  0.416667 -0.000000    0.00057870  40 t-inv F
  0.500000  0.416667 -0.000000    0.00057870  41 t-inv F
 -0.416667  0.416667 -0.000000    0.00057870  42 t-inv F
  0.500000  0.500000 -0.000000    0.00057870  43 t-inv F
  0.083333  0.000000  0.083333    0.00057870  44 t-inv F
  0.166667 -0.000000  0.083333    0.00057870  45 t-inv F
  0.250000  0.000000  0.083333    0.00057870  46 t-inv F
  0.333333  0.000000  0.083333    0.00057870  47 t-inv F
  0.416667  0.000000  0.083333    0.00057870  48 t-inv F
  0.500000  0.000000  0.083333    0.00057870  49 t-inv F
 -0.416667 -0.000000  0.083333    0.00057870  50 t-inv F
 -0.333333 -0.000000  0.083333    0.00057870  51 t-inv F
 -0.250000  0.000000  0.083333    0.00057870  52 t-inv F
 -0.166667 -0.000000  0.083333    0.00057870  53 t-inv F
 -0.083333 -0.000000  0.083333    0.00057870  54 t-inv F
  0.250000  0.166667  0.083333    0.00057870  55 t-inv F
  0.333333  0.166667  0.083333    0.00057870  56 t-inv F
  0.416667  0.166667  0.083333    0.00057870  57 t-inv F
  0.500000  0.166667  0.083333    0.00057870  58 t-inv F
 -0.416667  0.166667  0.083333    0.00057870  59 t-inv F
  0.166667  0.250000  0.083333    0.00057870  60 t-inv F
  0.333333  0.250000  0.083333    0.00057870  61 t-inv F
  0.416667  0.250000  0.083333    0.00057870  62 t-inv F
  0.500000  0.250000  0.083333    0.00057870  63 t-inv F
 -0.416667  0.250000  0.083333    0.00057870  64 t-inv F
 -0.333333  0.250000  0.083333    0.00057870  65 t-inv F
 -0.250000  0.250000  0.083333    0.00057870  66 t-inv F
 -0.166667  0.250000  0.083333    0.00057870  67 t-inv F
  0.166667  0.333333  0.083333    0.00057870  68 t-inv F
  0.250000  0.333333  0.083333    0.00057870  69 t-inv F
  0.416667  0.333333  0.083333    0.00057870  70 t-inv F
  0.500000  0.333333  0.083333    0.00057870  71 t-inv F
 -0.416667  0.333333  0.083333    0.00057870  72 t-inv F
 -0.333333  0.333333  0.083333    0.00057870  73 t-inv F
 -0.250000  0.333333  0.083333    0.00057870  74 t-inv F
  0.166667  0.416667  0.083333    0.00057870  75 t-inv F
  0.250000  0.416667  0.083333    0.00057870  76 t-inv F
  0.333333  0.416667  0.083333    0.00057870  77 t-inv F
  0.500000  0.416667  0.083333    0.00057870  78 t-inv F
 -0.416667  0.416667  0.083333    0.00057870  79 t-inv F
 -0.333333  0.416667  0.083333    0.00057870  80 t-inv F
  0.166667  0.500000  0.083333    0.00057870  81 t-inv F
  0.250000  0.500000  0.083333    0.00057870  82 t-inv F
  0.333333  0.500000  0.083333    0.00057870  83 t-inv F
  0.416667  0.500000  0.083333    0.00057870  84 t-inv F
 -0.416667  0.500000  0.083333    0.00057870  85 t-inv F
  0.166667 -0.416667  0.083333    0.00057870  86 t-inv F
  0.250000 -0.416667  0.083333    0.00057870  87 t-inv F
  0.333333 -0.416667  0.083333    0.00057870  88 t-inv F
  0.416667 -0.416667  0.083333    0.00057870  89 t-inv F
  0.500000 -0.416667  0.083333    0.00057870  90 t-inv F
  0.166667 -0.333333  0.083333    0.00057870  91 t-inv F
  0.250000 -0.333333  0.083333    0.00057870  92 t-inv F
  0.333333 -0.333333  0.083333    0.00057870  93 t-inv F
  0.416667 -0.333333  0.083333    0.00057870  94 t-inv F
  0.166667 -0.250000  0.083333    0.00057870  95 t-inv F
  0.250000 -0.250000  0.083333    0.00057870  96 t-inv F
  0.333333 -0.250000  0.083333    0.00057870  97 t-inv F
  0.166667 -0.166667  0.083333    0.00057870  98 t-inv F
  0.250000 -0.166667  0.083333    0.00057870  99 t-inv F
  0.166667 -0.083333  0.083333    0.00057870 100 t-inv F
  0.166667 -0.000000  0.166667    0.00057870 101 t-inv F
  0.250000  0.000000  0.166667    0.00057870 102 t-inv F
  0.333333  0.000000  0.166667    0.00057870 103 t-inv F
  0.416667  0.000000  0.166667    0.00057870 104 t-inv F
  0.500000  0.000000  0.166667    0.00057870 105 t-inv F
 -0.416667  0.000000  0.166667    0.00057870 106 t-inv F
 -0.333333 -0.000000  0.166667    0.00057870 107 t-inv F
 -0.250000 -0.000000  0.166667    0.00057870 108 t-inv F
 -0.166667 -0.000000  0.166667    0.00057870 109 t-inv F
  0.500000  0.333333  0.166667    0.00057870 110 t-inv F
 -0.416667  0.333333  0.166667    0.00057870 111 t-inv F
 -0.333333  0.333333  0.166667    0.00057870 112 t-inv F
  0.250000  0.416667  0.166667    0.00057870 113 t-inv F
 -0.416667  0.416667  0.166667    0.00057870 114 t-inv F
 -0.333333  0.416667  0.166667    0.00057870 115 t-inv F
 -0.250000  0.416667  0.166667    0.00057870 116 t-inv F
  0.250000  0.500000  0.166667    0.00057870 117 t-inv F
  0.333333  0.500000  0.166667    0.00057870 118 t-inv F
 -0.333333  0.500000  0.166667    0.00057870 119 t-inv F
  0.250000 -0.416667  0.166667    0.00057870 120 t-inv F
  0.333333 -0.416667  0.166667    0.00057870 121 t-inv F
  0.416667 -0.416667  0.166667    0.00057870 122 t-inv F
  0.250000 -0.333333  0.166667    0.00057870 123 t-inv F
  0.333333 -0.333333  0.166667    0.00057870 124 t-inv F
  0.416667 -0.333333  0.166667    0.00057870 125 t-inv F
  0.500000 -0.333333  0.166667    0.00057870 126 t-inv F
  0.250000 -0.250000  0.166667    0.00057870 127 t-inv F
  0.333333 -0.250000  0.166667    0.00057870 128 t-inv F
  0.416667 -0.250000  0.166667    0.00057870 129 t-inv F
  0.250000 -0.166667  0.166667    0.00057870 130 t-inv F
  0.333333 -0.166667  0.166667    0.00057870 131 t-inv F
  0.250000 -0.083333  0.166667    0.00057870 132 t-inv F
  0.250000  0.000000  0.250000    0.00057870 133 t-inv F
  0.333333 -0.000000  0.250000    0.00057870 134 t-inv F
  0.416667 -0.000000  0.250000    0.00057870 135 t-inv F
  0.500000 -0.000000  0.250000    0.00057870 136 t-inv F
 -0.416667  0.000000  0.250000    0.00057870 137 t-inv F
 -0.333333  0.000000  0.250000    0.00057870 138 t-inv F
 -0.250000  0.000000  0.250000    0.00057870 139 t-inv F
 -0.250000  0.500000  0.250000    0.00057870 140 t-inv F
  0.333333 -0.416667  0.250000    0.00057870 141 t-inv F
  0.333333 -0.333333  0.250000    0.00057870 142 t-inv F
  0.416667 -0.333333  0.250000    0.00057870 143 t-inv F
  0.333333 -0.250000  0.250000    0.00057870 144 t-inv F
  0.416667 -0.250000  0.250000    0.00057870 145 t-inv F
  0.500000 -0.250000  0.250000    0.00057870 146 t-inv F
  0.333333 -0.166667  0.250000    0.00057870 147 t-inv F
  0.416667 -0.166667  0.250000    0.00057870 148 t-inv F
  0.333333 -0.083333  0.250000    0.00057870 149 t-inv F
  0.333333 -0.000000  0.333333    0.00057870 150 t-inv F
  0.416667 -0.000000  0.333333    0.00057870 151 t-inv F
  0.500000  0.000000  0.333333    0.00057870 152 t-inv F
 -0.416667 -0.000000  0.333333    0.00057870 153 t-inv F
 -0.333333 -0.000000  0.333333    0.00057870 154 t-inv F
  0.416667 -0.250000  0.333333    0.00057870 155 t-inv F
  0.416667 -0.166667  0.333333    0.00057870 156 t-inv F
  0.500000 -0.166667  0.333333    0.00057870 157 t-inv F
  0.416667 -0.083333  0.333333    0.00057870 158 t-inv F
  0.416667 -0.000000  0.416667    0.00057870 159 t-inv F
  0.500000  0.000000  0.416667    0.00057870 160 t-inv F
 -0.416667 -0.000000  0.416667    0.00057870 161 t-inv F
  0.500000 -0.083333  0.416667    0.00057870 162 t-inv F
  0.500000  0.000000  0.500000    0.00057870 163 t-inv F
  0.000000 -0.083333 -0.000000    0.00057870   2 t-inv F
  0.083333  0.083333  0.083333    0.00057870   2 t-inv F
 -0.000000 -0.000000  0.083333    0.00057870   2 t-inv F
  0.000000 -0.166667 -0.000000    0.00057870   3 t-inv F
  0.166667  0.166667  0.166667    0.00057870   3 t-inv F
 -0.000000 -0.000000  0.166667    0.00057870   3 t-inv F
 -0.000000 -0.250000  0.000000    0.00057870   4 t-inv F
  0.250000  0.250000  0.250000    0.00057870   4 t-inv F
  0.000000  0.000000  0.250000    0.00057870   4 t-inv F
 -0.000000 -0.333333 -0.000000    0.00057870   5 t-inv F
  0.333333  0.333333  0.333333    0.00057870   5 t-inv F
 -0.000000  0.000000  0.333333    0.00057870   5 t-inv F
  0.000000 -0.416667 -0.000000    0.00057870   6 t-inv F
  0.416667  0.416667  0.416667    0.00057870   6 t-inv F
 -0.000000 -0.000000  0.416667    0.00057870   6 t-inv F
 -0.000000 -0.500000  0.000000    0.00057870   7 t-inv F
  0.500000  0.500000  0.500000    0.00057870   7 t-inv F
  0.000000  0.000000  0.500000    0.00057870   7 t-inv F
 -0.000000 -0.083333 -0.083333    0.00057870   8 t-inv F
 -0.083333 -0.083333 -0.000000    0.00057870   8 t-inv F
  0.000000  0.083333  0.083333    0.00057870   8 t-inv F
 -0.000000 -0.166667 -0.083333    0.00057870   9 t-inv F
 -0.083333 -0.166667 -0.000000    0.00057870   9 t-inv F
  0.083333 -0.083333 -0.083333    0.00057870   9 t-inv F
  0.166667  0.166667  0.083333    0.00057870   9 t-inv F
  0.083333  0.166667  0.166667    0.00057870   9 t-inv F
 -0.083333 -0.083333  0.083333    0.00057870   9 t-inv F
 -0.000000  0.083333  0.166667    0.00057870   9 t-inv F
  0.000000 -0.250000 -0.083333    0.00057870  10 t-inv F
 -0.083333 -0.250000  0.000000    0.00057870  10 t-inv F
  0.166667 -0.083333 -0.083333    0.00057870  10 t-inv F
  0.250000  0.250000  0.166667    0.00057870  10 t-inv F
  0.166667  0.250000  0.250000    0.00057870  10 t-inv F
 -0.083333 -0.083333  0.166667    0.00057870  10 t-inv F
  0.000000  0.083333  0.250000    0.00057870  10 t-inv F
 -0.000000 -0.333333 -0.083333    0.00057870  11 t-inv F
 -0.083333 -0.333333 -0.000000    0.00057870  11 t-inv F
  0.250000 -0.083333 -0.083333    0.00057870  11 t-inv F
  0.333333  0.333333  0.250000    0.00057870  11 t-inv F
  0.250000  0.333333  0.333333    0.00057870  11 t-inv F
 -0.083333 -0.083333  0.250000    0.00057870  11 t-inv F
 -0.000000  0.083333  0.333333    0.00057870  11 t-inv F
  0.000000 -0.416667 -0.083333    0.00057870  12 t-inv F
 -0.083333 -0.416667  0.000000    0.00057870  12 t-inv F
  0.333333 -0.083333 -0.083333    0.00057870  12 t-inv F
  0.416667  0.416667  0.333333    0.00057870  12 t-inv F
  0.333333  0.416667  0.416667    0.00057870  12 t-inv F
 -0.083333 -0.083333  0.333333    0.00057870  12 t-inv F
  0.000000  0.083333  0.416667    0.00057870  12 t-inv F
  0.000000 -0.500000 -0.083333    0.00057870  13 t-inv F
 -0.083333 -0.500000  0.000000    0.00057870  13 t-inv F
  0.416667 -0.083333 -0.083333    0.00057870  13 t-inv F
  0.500000  0.500000  0.416667    0.00057870  13 t-inv F
  0.416667  0.500000  0.500000    0.00057870  13 t-inv F
 -0.083333 -0.083333  0.416667    0.00057870  13 t-inv F
  0.000000  0.083333  0.500000    0.00057870  13 t-inv F
 -0.000000  0.416667 -0.083333    0.00057870  14 t-inv F
 -0.083333  0.416667 -0.000000    0.00057870  14 t-inv F
 -0.500000 -0.083333 -0.083333    0.00057870  14 t-inv F
 -0.416667 -0.416667 -0.500000    0.00057870  14 t-inv F
 -0.500000 -0.416667 -0.416667    0.00057870  14 t-inv F
 -0.083333 -0.083333 -0.500000    0.00057870  14 t-inv F
 -0.000000  0.083333 -0.416667    0.00057870  14 t-inv F
  0.000000  0.333333 -0.083333    0.00057870  15 t-inv F
 -0.083333  0.333333  0.000000    0.00057870  15 t-inv F
 -0.416667 -0.083333 -0.083333    0.00057870  15 t-inv F
 -0.333333 -0.333333 -0.416667    0.00057870  15 t-inv F
 -0.416667 -0.333333 -0.333333    0.00057870  15 t-inv F
 -0.083333 -0.083333 -0.416667    0.00057870  15 t-inv F
  0.000000  0.083333 -0.333333    0.00057870  15 t-inv F
  0.000000  0.250000 -0.083333    0.00057870  16 t-inv F
 -0.083333  0.250000  0.000000    0.00057870  16 t-inv F
 -0.333333 -0.083333 -0.083333    0.00057870  16 t-inv F
 -0.250000 -0.250000 -0.333333    0.00057870  16 t-inv F
 -0.333333 -0.250000 -0.250000    0.00057870  16 t-inv F
 -0.083333 -0.083333 -0.333333    0.00057870  16 t-inv F
  0.000000  0.083333 -0.250000    0.00057870  16 t-inv F
 -0.000000  0.166667 -0.083333    0.00057870  17 t-inv F
 -0.083333  0.166667 -0.000000    0.00057870  17 t-inv F
 -0.250000 -0.083333 -0.083333    0.00057870  17 t-inv F
 -0.166667 -0.166667 -0.250000    0.00057870  17 t-inv F
 -0.250000 -0.166667 -0.166667    0.00057870  17 t-inv F
 -0.083333 -0.083333 -0.250000    0.00057870  17 t-inv F
 -0.000000  0.083333 -0.166667    0.00057870  17 t-inv F
 -0.000000  0.083333 -0.083333    0.00057870  18 t-inv F
 -0.166667 -0.083333 -0.083333    0.00057870  18 t-inv F
 -0.083333 -0.083333 -0.166667    0.00057870  18 t-inv F
 -0.000000 -0.166667 -0.166667    0.00057870  19 t-inv F
 -0.166667 -0.166667 -0.000000    0.00057870  19 t-inv F
  0.000000  0.166667  0.166667    0.00057870  19 t-inv F
 -0.000000 -0.250000 -0.166667    0.00057870  20 t-inv F
 -0.166667 -0.250000 -0.000000    0.00057870  20 t-inv F
  0.083333 -0.166667 -0.166667    0.00057870  20 t-inv F
  0.250000  0.250000  0.083333    0.00057870  20 t-inv F
  0.083333  0.250000  0.250000    0.00057870  20 t-inv F
 -0.166667 -0.166667  0.083333    0.00057870  20 t-inv F
 -0.000000  0.166667  0.250000    0.00057870  20 t-inv F
  0.000000 -0.333333 -0.166667    0.00057870  21 t-inv F
 -0.166667 -0.333333  0.000000    0.00057870  21 t-inv F
  0.166667 -0.166667 -0.166667    0.00057870  21 t-inv F
  0.333333  0.333333  0.166667    0.00057870  21 t-inv F
  0.166667  0.333333  0.333333    0.00057870  21 t-inv F
 -0.166667 -0.166667  0.166667    0.00057870  21 t-inv F
  0.000000  0.166667  0.333333    0.00057870  21 t-inv F
 -0.000000 -0.416667 -0.166667    0.00057870  22 t-inv F
 -0.166667 -0.416667 -0.000000    0.00057870  22 t-inv F
  0.250000 -0.166667 -0.166667    0.00057870  22 t-inv F
  0.416667  0.416667  0.250000    0.00057870  22 t-inv F
  0.250000  0.416667  0.416667    0.00057870  22 t-inv F
 -0.166667 -0.166667  0.250000    0.00057870  22 t-inv F
 -0.000000  0.166667  0.416667    0.00057870  22 t-inv F
 -0.000000 -0.500000 -0.166667    0.00057870  23 t-inv F
 -0.166667 -0.500000 -0.000000    0.00057870  23 t-inv F
  0.333333 -0.166667 -0.166667    0.00057870  23 t-inv F
  0.500000  0.500000  0.333333    0.00057870  23 t-inv F
  0.333333  0.500000  0.500000    0.00057870  23 t-inv F
 -0.166667 -0.166667  0.333333    0.00057870  23 t-inv F
 -0.000000  0.166667  0.500000    0.00057870  23 t-inv F
  0.000000  0.416667 -0.166667    0.00057870  24 t-inv F
 -0.166667  0.416667  0.000000    0.00057870  24 t-inv F
 -0.583333 -0.166667 -0.166667    0.00057870  24 t-inv F
 -0.416667 -0.416667 -0.583333    0.00057870  24 t-inv F
 -0.583333 -0.416667 -0.416667    0.00057870  24 t-inv F
 -0.166667 -0.166667 -0.583333    0.00057870  24 t-inv F
  0.000000  0.166667 -0.416667    0.00057870  24 t-inv F
 -0.000000  0.333333 -0.166667    0.00057870  25 t-inv F
 -0.166667  0.333333 -0.000000    0.00057870  25 t-inv F
 -0.500000 -0.166667 -0.166667    0.00057870  25 t-inv F
 -0.333333 -0.333333 -0.500000    0.00057870  25 t-inv F
 -0.500000 -0.333333 -0.333333    0.00057870  25 t-inv F
 -0.166667 -0.166667 -0.500000    0.00057870  25 t-inv F
 -0.000000  0.166667 -0.333333    0.00057870  25 t-inv F
 -0.000000  0.250000 -0.166667    0.00057870  26 t-inv F
 -0.166667  0.250000 -0.000000    0.00057870  26 t-inv F
 -0.416667 -0.166667 -0.166667    0.00057870  26 t-inv F
 -0.250000 -0.250000 -0.416667    0.00057870  26 t-inv F
 -0.416667 -0.250000 -0.250000    0.00057870  26 t-inv F
 -0.166667 -0.166667 -0.416667    0.00057870  26 t-inv F
 -0.000000  0.166667 -0.250000    0.00057870  26 t-inv F
 -0.000000  0.166667 -0.166667    0.00057870  27 t-inv F
 -0.333333 -0.166667 -0.166667    0.00057870  27 t-inv F
 -0.166667 -0.166667 -0.333333    0.00057870  27 t-inv F
 -0.000000 -0.250000 -0.250000    0.00057870  28 t-inv F
 -0.250000 -0.250000 -0.000000    0.00057870  28 t-inv F
  0.000000  0.250000  0.250000    0.00057870  28 t-inv F
 -0.000000 -0.333333 -0.250000    0.00057870  29 t-inv F
 -0.250000 -0.333333 -0.000000    0.00057870  29 t-inv F
  0.083333 -0.250000 -0.250000    0.00057870  29 t-inv F
  0.333333  0.333333  0.083333    0.00057870  29 t-inv F
  0.083333  0.333333  0.333333    0.00057870  29 t-inv F
 -0.250000 -0.250000  0.083333    0.00057870  29 t-inv F
 -0.000000  0.250000  0.333333    0.00057870  29 t-inv F
 -0.000000 -0.416667 -0.250000    0.00057870  30 t-inv F
 -0.250000 -0.416667 -0.000000    0.00057870  30 t-inv F
  0.166667 -0.250000 -0.250000    0.00057870  30 t-inv F
  0.416667  0.416667  0.166667    0.00057870  30 t-inv F
  0.166667  0.416667  0.416667    0.00057870  30 t-inv F
 -0.250000 -0.250000  0.166667    0.00057870  30 t-inv F
 -0.000000  0.250000  0.416667    0.00057870  30 t-inv F
  0.000000 -0.500000 -0.250000    0.00057870  31 t-inv F
 -0.250000 -0.500000  0.000000    0.00057870  31 t-inv F
  0.250000 -0.250000 -0.250000    0.00057870  31 t-inv F
  0.500000  0.500000  0.250000    0.00057870  31 t-inv F
  0.250000  0.500000  0.500000    0.00057870  31 t-inv F
 -0.250000 -0.250000  0.250000    0.00057870  31 t-inv F
  0.000000  0.250000  0.500000    0.00057870  31 t-inv F
 -0.000000  0.416667 -0.250000    0.00057870  32 t-inv F
 -0.250000  0.416667 -0.000000    0.00057870  32 t-inv F
 -0.666667 -0.250000 -0.250000    0.00057870  32 t-inv F
 -0.416667 -0.416667 -0.666667    0.00057870  32 t-inv F
 -0.666667 -0.416667 -0.416667    0.00057870  32 t-inv F
 -0.250000 -0.250000 -0.666667    0.00057870  32 t-inv F
 -0.000000  0.250000 -0.416667    0.00057870  32 t-inv F
 -0.000000  0.333333 -0.250000    0.00057870  33 t-inv F
 -0.250000  0.333333 -0.000000    0.00057870  33 t-inv F
 -0.583333 -0.250000 -0.250000    0.00057870  33 t-inv F
 -0.333333 -0.333333 -0.583333    0.00057870  33 t-inv F
 -0.583333 -0.333333 -0.333333    0.00057870  33 t-inv F
 -0.250000 -0.250000 -0.583333    0.00057870  33 t-inv F
 -0.000000  0.250000 -0.333333    0.00057870  33 t-inv F
 -0.000000  0.250000 -0.250000    0.00057870  34 t-inv F
 -0.500000 -0.250000 -0.250000    0.00057870  34 t-inv F
 -0.250000 -0.250000 -0.500000    0.00057870  34 t-inv F
 -0.000000 -0.333333 -0.333333    0.00057870  35 t-inv F
 -0.333333 -0.333333 -0.000000    0.00057870  35 t-inv F
 -0.000000  0.333333  0.333333    0.00057870  35 t-inv F
 -0.000000 -0.416667 -0.333333    0.00057870  36 t-inv F
 -0.333333 -0.416667 -0.000000    0.00057870  36 t-inv F
  0.083333 -0.333333 -0.333333    0.00057870  36 t-inv F
  0.416667  0.416667  0.083333    0.00057870  36 t-inv F
  0.083333  0.416667  0.416667    0.00057870  36 t-inv F
 -0.333333 -0.333333  0.083333    0.00057870  36 t-inv F
 -0.000000  0.333333  0.416667    0.00057870  36 t-inv F
 -0.000000 -0.500000 -0.333333    0.00057870  37 t-inv F
 -0.333333 -0.500000 -0.000000    0.00057870  37 t-inv F
  0.166667 -0.333333 -0.333333    0.00057870  37 t-inv F
  0.500000  0.500000  0.166667    0.00057870  37 t-inv F
  0.166667  0.500000  0.500000    0.00057870  37 t-inv F
 -0.333333 -0.333333  0.166667    0.00057870  37 t-inv F
 -0.000000  0.333333  0.500000    0.00057870  37 t-inv F
 -0.000000  0.416667 -0.333333    0.00057870  38 t-inv F
 -0.333333  0.416667 -0.000000    0.00057870  38 t-inv F
 -0.750000 -0.333333 -0.333333    0.00057870  38 t-inv F
 -0.416667 -0.416667 -0.750000    0.00057870  38 t-inv F
 -0.750000 -0.416667 -0.416667    0.00057870  38 t-inv F
 -0.333333 -0.333333 -0.750000    0.00057870  38 t-inv F
 -0.000000  0.333333 -0.416667    0.00057870  38 t-inv F
  0.000000  0.333333 -0.333333    0.00057870  39 t-inv F
 -0.666667 -0.333333 -0.333333    0.00057870  39 t-inv F
 -0.333333 -0.333333 -0.666667    0.00057870  39 t-inv F
 -0.000000 -0.416667 -0.416667    0.00057870  40 t-inv F
 -0.416667 -0.416667 -0.000000    0.00057870  40 t-inv F
  0.000000  0.416667  0.416667    0.00057870  40 t-inv F
 -0.000000 -0.500000 -0.416667    0.00057870  41 t-inv F
 -0.416667 -0.500000 -0.000000    0.00057870  41 t-inv F
  0.083333 -0.416667 -0.416667    0.00057870  41 t-inv F
  0.500000  0.500000  0.083333    0.00057870  41 t-inv F
  0.083333  0.500000  0.500000    0.00057870  41 t-inv F
 -0.416667 -0.416667  0.083333    0.00057870  41 t-inv F
 -0.000000  0.416667  0.500000    0.00057870  41 t-inv F
 -0.000000  0.416667 -0.416667    0.00057870  42 t-inv F
 -0.833333 -0.416667 -0.416667    0.00057870  42 t-inv F
 -0.416667 -0.416667 -0.833333    0.00057870  42 t-inv F
 -0.000000 -0.500000 -0.500000    0.00057870  43 t-inv F
  0.083333 -0.083333  0.083333    0.00057870  45 t-inv F
  0.166667  0.083333  0.166667    0.00057870  45 t-inv F
  0.083333  0.000000  0.166667    0.00057870  45 t-inv F
  0.083333 -0.166667  0.083333    0.00057870  46 t-inv F
  0.250000  0.166667  0.250000    0.00057870  46 t-inv F
  0.083333 -0.000000  0.250000    0.00057870  46 t-inv F
  0.083333 -0.250000  0.083333    0.00057870  47 t-inv F
  0.333333  0.250000  0.333333    0.00057870  47 t-inv F
  0.083333 -0.000000  0.333333    0.00057870  47 t-inv F
  0.083333 -0.333333  0.083333    0.00057870  48 t-inv F
  0.416667  0.333333  0.416667    0.00057870  48 t-inv F
  0.083333 -0.000000  0.416667    0.00057870  48 t-inv F
  0.083333 -0.416667  0.083333    0.00057870  49 t-inv F
  0.500000  0.416667  0.500000    0.00057870  49 t-inv F
  0.083333 -0.000000  0.500000    0.00057870  49 t-inv F
  0.083333  0.500000  0.083333    0.00057870  50 t-inv F
 -0.416667 -0.500000 -0.416667    0.00057870  50 t-inv F
  0.083333  0.000000 -0.416667    0.00057870  50 t-inv F
  0.083333  0.416667  0.083333    0.00057870  51 t-inv F
 -0.333333 -0.416667 -0.333333    0.00057870  51 t-inv F
  0.083333  0.000000 -0.333333    0.00057870  51 t-inv F
  0.083333  0.333333  0.083333    0.00057870  52 t-inv F
 -0.250000 -0.333333 -0.250000    0.00057870  52 t-inv F
  0.083333 -0.000000 -0.250000    0.00057870  52 t-inv F
  0.083333  0.250000  0.083333    0.00057870  53 t-inv F
 -0.166667 -0.250000 -0.166667    0.00057870  53 t-inv F
  0.083333  0.000000 -0.166667    0.00057870  53 t-inv F
  0.083333  0.166667  0.083333    0.00057870  54 t-inv F
 -0.083333 -0.166667 -0.083333    0.00057870  54 t-inv F
  0.083333  0.000000 -0.083333    0.00057870  54 t-inv F
  0.083333 -0.166667 -0.083333    0.00057870  55 t-inv F
 -0.083333 -0.166667  0.083333    0.00057870  55 t-inv F
  0.083333  0.166667  0.250000    0.00057870  55 t-inv F
  0.083333 -0.250000 -0.083333    0.00057870  56 t-inv F
 -0.083333 -0.250000  0.083333    0.00057870  56 t-inv F
  0.166667 -0.166667 -0.083333    0.00057870  56 t-inv F
  0.333333  0.250000  0.166667    0.00057870  56 t-inv F
  0.166667  0.250000  0.333333    0.00057870  56 t-inv F
 -0.083333 -0.166667  0.166667    0.00057870  56 t-inv F
  0.083333  0.166667  0.333333    0.00057870  56 t-inv F
  0.083333 -0.333333 -0.083333    0.00057870  57 t-inv F
 -0.083333 -0.333333  0.083333    0.00057870  57 t-inv F
  0.250000 -0.166667 -0.083333    0.00057870  57 t-inv F
  0.416667  0.333333  0.250000    0.00057870  57 t-inv F
  0.250000  0.333333  0.416667    0.00057870  57 t-inv F
 -0.083333 -0.166667  0.250000    0.00057870  57 t-inv F
  0.083333  0.166667  0.416667    0.00057870  57 t-inv F
  0.083333 -0.416667 -0.083333    0.00057870  58 t-inv F
 -0.083333 -0.416667  0.083333    0.00057870  58 t-inv F
  0.333333 -0.166667 -0.083333    0.00057870  58 t-inv F
  0.500000  0.416667  0.333333    0.00057870  58 t-inv F
  0.333333  0.416667  0.500000    0.00057870  58 t-inv F
 -0.083333 -0.166667  0.333333    0.00057870  58 t-inv F
  0.083333  0.166667  0.500000    0.00057870  58 t-inv F
  0.083333  0.500000 -0.083333    0.00057870  59 t-inv F
 -0.083333  0.500000  0.083333    0.00057870  59 t-inv F
 -0.583333 -0.166667 -0.083333    0.00057870  59 t-inv F
 -0.416667 -0.500000 -0.583333    0.00057870  59 t-inv F
 -0.583333 -0.500000 -0.416667    0.00057870  59 t-inv F
 -0.083333 -0.166667 -0.583333    0.00057870  59 t-inv F
  0.083333  0.166667 -0.416667    0.00057870  59 t-inv F
  0.083333 -0.083333 -0.166667    0.00057870  60 t-inv F
 -0.166667 -0.083333  0.083333    0.00057870  60 t-inv F
 -0.083333 -0.250000 -0.166667    0.00057870  60 t-inv F
  0.166667  0.083333 -0.083333    0.00057870  60 t-inv F
 -0.083333  0.083333  0.166667    0.00057870  60 t-inv F
 -0.166667 -0.250000 -0.083333    0.00057870  60 t-inv F
  0.083333  0.250000  0.166667    0.00057870  60 t-inv F
  0.083333 -0.250000 -0.166667    0.00057870  61 t-inv F
 -0.166667 -0.250000  0.083333    0.00057870  61 t-inv F
  0.083333  0.250000  0.333333    0.00057870  61 t-inv F
  0.083333 -0.333333 -0.166667    0.00057870  62 t-inv F
 -0.166667 -0.333333  0.083333    0.00057870  62 t-inv F
  0.166667 -0.250000 -0.166667    0.00057870  62 t-inv F
  0.416667  0.333333  0.166667    0.00057870  62 t-inv F
  0.166667  0.333333  0.416667    0.00057870  62 t-inv F
 -0.166667 -0.250000  0.166667    0.00057870  62 t-inv F
  0.083333  0.250000  0.416667    0.00057870  62 t-inv F
  0.083333 -0.416667 -0.166667    0.00057870  63 t-inv F
 -0.166667 -0.416667  0.083333    0.00057870  63 t-inv F
  0.250000 -0.250000 -0.166667    0.00057870  63 t-inv F
  0.500000  0.416667  0.250000    0.00057870  63 t-inv F
  0.250000  0.416667  0.500000    0.00057870  63 t-inv F
 -0.166667 -0.250000  0.250000    0.00057870  63 t-inv F
  0.083333  0.250000  0.500000    0.00057870  63 t-inv F
  0.083333  0.500000 -0.166667    0.00057870  64 t-inv F
 -0.166667  0.500000  0.083333    0.00057870  64 t-inv F
 -0.666667 -0.250000 -0.166667    0.00057870  64 t-inv F
 -0.416667 -0.500000 -0.666667    0.00057870  64 t-inv F
 -0.666667 -0.500000 -0.416667    0.00057870  64 t-inv F
 -0.166667 -0.250000 -0.666667    0.00057870  64 t-inv F
  0.083333  0.250000 -0.416667    0.00057870  64 t-inv F
  0.083333  0.416667 -0.166667    0.00057870  65 t-inv F
 -0.166667  0.416667  0.083333    0.00057870  65 t-inv F
 -0.583333 -0.250000 -0.166667    0.00057870  65 t-inv F
 -0.333333 -0.416667 -0.583333    0.00057870  65 t-inv F
 -0.583333 -0.416667 -0.333333    0.00057870  65 t-inv F
 -0.166667 -0.250000 -0.583333    0.00057870  65 t-inv F
  0.083333  0.250000 -0.333333    0.00057870  65 t-inv F
  0.083333  0.333333 -0.166667    0.00057870  66 t-inv F
 -0.166667  0.333333  0.083333    0.00057870  66 t-inv F
 -0.500000 -0.250000 -0.166667    0.00057870  66 t-inv F
 -0.250000 -0.333333 -0.500000    0.00057870  66 t-inv F
 -0.500000 -0.333333 -0.250000    0.00057870  66 t-inv F
 -0.166667 -0.250000 -0.500000    0.00057870  66 t-inv F
  0.083333  0.250000 -0.250000    0.00057870  66 t-inv F
  0.083333  0.250000 -0.166667    0.00057870  67 t-inv F
 -0.416667 -0.250000 -0.166667    0.00057870  67 t-inv F
 -0.166667 -0.250000 -0.416667    0.00057870  67 t-inv F
  0.083333 -0.083333 -0.250000    0.00057870  68 t-inv F
 -0.250000 -0.083333  0.083333    0.00057870  68 t-inv F
 -0.166667 -0.333333 -0.250000    0.00057870  68 t-inv F
  0.166667  0.083333 -0.166667    0.00057870  68 t-inv F
 -0.166667  0.083333  0.166667    0.00057870  68 t-inv F
 -0.250000 -0.333333 -0.166667    0.00057870  68 t-inv F
  0.083333  0.333333  0.166667    0.00057870  68 t-inv F
  0.083333 -0.166667 -0.250000    0.00057870  69 t-inv F
 -0.250000 -0.166667  0.083333    0.00057870  69 t-inv F
 -0.083333 -0.333333 -0.250000    0.00057870  69 t-inv F
  0.250000  0.166667 -0.083333    0.00057870  69 t-inv F
 -0.083333  0.166667  0.250000    0.00057870  69 t-inv F
 -0.250000 -0.333333 -0.083333    0.00057870  69 t-inv F
  0.083333  0.333333  0.250000    0.00057870  69 t-inv F
  0.083333 -0.333333 -0.250000    0.00057870  70 t-inv F
 -0.250000 -0.333333  0.083333    0.00057870  70 t-inv F
  0.083333  0.333333  0.416667    0.00057870  70 t-inv F
  0.083333 -0.416667 -0.250000    0.00057870  71 t-inv F
 -0.250000 -0.416667  0.083333    0.00057870  71 t-inv F
  0.166667 -0.333333 -0.250000    0.00057870  71 t-inv F
  0.500000  0.416667  0.166667    0.00057870  71 t-inv F
  0.166667  0.416667  0.500000    0.00057870  71 t-inv F
 -0.250000 -0.333333  0.166667    0.00057870  71 t-inv F
  0.083333  0.333333  0.500000    0.00057870  71 t-inv F
  0.083333  0.500000 -0.250000    0.00057870  72 t-inv F
 -0.250000  0.500000  0.083333    0.00057870  72 t-inv F
 -0.750000 -0.333333 -0.250000    0.00057870  72 t-inv F
 -0.416667 -0.500000 -0.750000    0.00057870  72 t-inv F
 -0.750000 -0.500000 -0.416667    0.00057870  72 t-inv F
 -0.250000 -0.333333 -0.750000    0.00057870  72 t-inv F
  0.083333  0.333333 -0.416667    0.00057870  72 t-inv F
  0.083333  0.416667 -0.250000    0.00057870  73 t-inv F
 -0.250000  0.416667  0.083333    0.00057870  73 t-inv F
 -0.666667 -0.333333 -0.250000    0.00057870  73 t-inv F
 -0.333333 -0.416667 -0.666667    0.00057870  73 t-inv F
 -0.666667 -0.416667 -0.333333    0.00057870  73 t-inv F
 -0.250000 -0.333333 -0.666667    0.00057870  73 t-inv F
  0.083333  0.333333 -0.333333    0.00057870  73 t-inv F
  0.083333  0.333333 -0.250000    0.00057870  74 t-inv F
 -0.583333 -0.333333 -0.250000    0.00057870  74 t-inv F
 -0.250000 -0.333333 -0.583333    0.00057870  74 t-inv F
  0.083333 -0.083333 -0.333333    0.00057870  75 t-inv F
 -0.333333 -0.083333  0.083333    0.00057870  75 t-inv F
 -0.250000 -0.416667 -0.333333    0.00057870  75 t-inv F
  0.166667  0.083333 -0.250000    0.00057870  75 t-inv F
 -0.250000  0.083333  0.166667    0.00057870  75 t-inv F
 -0.333333 -0.416667 -0.250000    0.00057870  75 t-inv F
  0.083333  0.416667  0.166667    0.00057870  75 t-inv F
  0.083333 -0.166667 -0.333333    0.00057870  76 t-inv F
 -0.333333 -0.166667  0.083333    0.00057870  76 t-inv F
 -0.166667 -0.416667 -0.333333    0.00057870  76 t-inv F
  0.250000  0.166667 -0.166667    0.00057870  76 t-inv F
 -0.166667  0.166667  0.250000    0.00057870  76 t-inv F
 -0.333333 -0.416667 -0.166667    0.00057870  76 t-inv F
  0.083333  0.416667  0.250000    0.00057870  76 t-inv F
  0.083333 -0.250000 -0.333333    0.00057870  77 t-inv F
 -0.333333 -0.250000  0.083333    0.00057870  77 t-inv F
 -0.083333 -0.416667 -0.333333    0.00057870  77 t-inv F
  0.333333  0.250000 -0.083333    0.00057870  77 t-inv F
 -0.083333  0.250000  0.333333    0.00057870  77 t-inv F
 -0.333333 -0.416667 -0.083333    0.00057870  77 t-inv F
  0.083333  0.416667  0.333333    0.00057870  77 t-inv F
  0.083333 -0.416667 -0.333333    0.00057870  78 t-inv F
 -0.333333 -0.416667  0.083333    0.00057870  78 t-inv F
  0.083333  0.416667  0.500000    0.00057870  78 t-inv F
  0.083333  0.500000 -0.333333    0.00057870  79 t-inv F
 -0.333333  0.500000  0.083333    0.00057870  79 t-inv F
 -0.833333 -0.416667 -0.333333    0.00057870  79 t-inv F
 -0.416667 -0.500000 -0.833333    0.00057870  79 t-inv F
 -0.833333 -0.500000 -0.416667    0.00057870  79 t-inv F
 -0.333333 -0.416667 -0.833333    0.00057870  79 t-inv F
  0.083333  0.416667 -0.416667    0.00057870  79 t-inv F
  0.083333  0.416667 -0.333333    0.00057870  80 t-inv F
 -0.750000 -0.416667 -0.333333    0.00057870  80 t-inv F
 -0.333333 -0.416667 -0.750000    0.00057870  80 t-inv F
  0.083333 -0.083333 -0.416667    0.00057870  81 t-inv F
 -0.416667 -0.083333  0.083333    0.00057870  81 t-inv F
 -0.333333 -0.500000 -0.416667    0.00057870  81 t-inv F
  0.166667  0.083333 -0.333333    0.00057870  81 t-inv F
 -0.333333  0.083333  0.166667    0.00057870  81 t-inv F
 -0.416667 -0.500000 -0.333333    0.00057870  81 t-inv F
  0.083333  0.500000  0.166667    0.00057870  81 t-inv F
  0.083333 -0.166667 -0.416667    0.00057870  82 t-inv F
 -0.416667 -0.166667  0.083333    0.00057870  82 t-inv F
 -0.250000 -0.500000 -0.416667    0.00057870  82 t-inv F
  0.250000  0.166667 -0.250000    0.00057870  82 t-inv F
 -0.250000  0.166667  0.250000    0.00057870  82 t-inv F
 -0.416667 -0.500000 -0.250000    0.00057870  82 t-inv F
  0.083333  0.500000  0.250000    0.00057870  82 t-inv F
  0.083333 -0.250000 -0.416667    0.00057870  83 t-inv F
 -0.416667 -0.250000  0.083333    0.00057870  83 t-inv F
 -0.166667 -0.500000 -0.416667    0.00057870  83 t-inv F
  0.333333  0.250000 -0.166667    0.00057870  83 t-inv F
 -0.166667  0.250000  0.333333    0.00057870  83 t-inv F
 -0.416667 -0.500000 -0.166667    0.00057870  83 t-inv F
  0.083333  0.500000  0.333333    0.00057870  83 t-inv F
  0.083333 -0.333333 -0.416667    0.00057870  84 t-inv F
 -0.416667 -0.333333  0.083333    0.00057870  84 t-inv F
 -0.083333 -0.500000 -0.416667    0.00057870  84 t-inv F
  0.416667  0.333333 -0.083333    0.00057870  84 t-inv F
 -0.083333  0.333333  0.416667    0.00057870  84 t-inv F
 -0.416667 -0.500000 -0.083333    0.00057870  84 t-inv F
  0.083333  0.500000  0.416667    0.00057870  84 t-inv F
  0.083333  0.500000 -0.416667    0.00057870  85 t-inv F
  0.083333 -0.083333  0.500000    0.00057870  86 t-inv F
  0.500000 -0.083333  0.083333    0.00057870  86 t-inv F
  0.583333  0.416667  0.500000    0.00057870  86 t-inv F
  0.166667  0.083333  0.583333    0.00057870  86 t-inv F
  0.583333  0.083333  0.166667    0.00057870  86 t-inv F
  0.500000  0.416667  0.583333    0.00057870  86 t-inv F
  0.083333 -0.416667  0.166667    0.00057870  86 t-inv F
  0.083333 -0.166667  0.500000    0.00057870  87 t-inv F
  0.500000 -0.166667  0.083333    0.00057870  87 t-inv F
  0.666667  0.416667  0.500000    0.00057870  87 t-inv F
  0.250000  0.166667  0.666667    0.00057870  87 t-inv F
  0.666667  0.166667  0.250000    0.00057870  87 t-inv F
  0.500000  0.416667  0.666667    0.00057870  87 t-inv F
  0.083333 -0.416667  0.250000    0.00057870  87 t-inv F
  0.083333 -0.250000  0.500000    0.00057870  88 t-inv F
  0.500000 -0.250000  0.083333    0.00057870  88 t-inv F
  0.750000  0.416667  0.500000    0.00057870  88 t-inv F
  0.333333  0.250000  0.750000    0.00057870  88 t-inv F
  0.750000  0.250000  0.333333    0.00057870  88 t-inv F
  0.500000  0.416667  0.750000    0.00057870  88 t-inv F
  0.083333 -0.416667  0.333333    0.00057870  88 t-inv F
  0.083333 -0.333333  0.500000    0.00057870  89 t-inv F
  0.500000 -0.333333  0.083333    0.00057870  89 t-inv F
  0.833333  0.416667  0.500000    0.00057870  89 t-inv F
  0.416667  0.333333  0.833333    0.00057870  89 t-inv F
  0.833333  0.333333  0.416667    0.00057870  89 t-inv F
  0.500000  0.416667  0.833333    0.00057870  89 t-inv F
  0.083333 -0.416667  0.416667    0.00057870  89 t-inv F
  0.083333 -0.416667  0.500000    0.00057870  90 t-inv F
  0.916667  0.416667  0.500000    0.00057870  90 t-inv F
  0.500000  0.416667  0.916667    0.00057870  90 t-inv F
  0.083333 -0.083333  0.416667    0.00057870  91 t-inv F
  0.416667 -0.083333  0.083333    0.00057870  91 t-inv F
  0.500000  0.333333  0.416667    0.00057870  91 t-inv F
  0.166667  0.083333  0.500000    0.00057870  91 t-inv F
  0.500000  0.083333  0.166667    0.00057870  91 t-inv F
  0.416667  0.333333  0.500000    0.00057870  91 t-inv F
  0.083333 -0.333333  0.166667    0.00057870  91 t-inv F
  0.083333 -0.166667  0.416667    0.00057870  92 t-inv F
  0.416667 -0.166667  0.083333    0.00057870  92 t-inv F
  0.583333  0.333333  0.416667    0.00057870  92 t-inv F
  0.250000  0.166667  0.583333    0.00057870  92 t-inv F
  0.583333  0.166667  0.250000    0.00057870  92 t-inv F
  0.416667  0.333333  0.583333    0.00057870  92 t-inv F
  0.083333 -0.333333  0.250000    0.00057870  92 t-inv F
  0.083333 -0.250000  0.416667    0.00057870  93 t-inv F
  0.416667 -0.250000  0.083333    0.00057870  93 t-inv F
  0.666667  0.333333  0.416667    0.00057870  93 t-inv F
  0.333333  0.250000  0.666667    0.00057870  93 t-inv F
  0.666667  0.250000  0.333333    0.00057870  93 t-inv F
  0.416667  0.333333  0.666667    0.00057870  93 t-inv F
  0.083333 -0.333333  0.333333    0.00057870  93 t-inv F
  0.083333 -0.333333  0.416667    0.00057870  94 t-inv F
  0.750000  0.333333  0.416667    0.00057870  94 t-inv F
  0.416667  0.333333  0.750000    0.00057870  94 t-inv F
  0.083333 -0.083333  0.333333    0.00057870  95 t-inv F
  0.333333 -0.083333  0.083333    0.00057870  95 t-inv F
  0.416667  0.250000  0.333333    0.00057870  95 t-inv F
  0.166667  0.083333  0.416667    0.00057870  95 t-inv F
  0.416667  0.083333  0.166667    0.00057870  95 t-inv F
  0.333333  0.250000  0.416667    0.00057870  95 t-inv F
  0.083333 -0.250000  0.166667    0.00057870  95 t-inv F
  0.083333 -0.166667  0.333333    0.00057870  96 t-inv F
  0.333333 -0.166667  0.083333    0.00057870  96 t-inv F
  0.500000  0.250000  0.333333    0.00057870  96 t-inv F
  0.250000  0.166667  0.500000    0.00057870  96 t-inv F
  0.500000  0.166667  0.250000    0.00057870  96 t-inv F
  0.333333  0.250000  0.500000    0.00057870  96 t-inv F
  0.083333 -0.250000  0.250000    0.00057870  96 t-inv F
  0.083333 -0.250000  0.333333    0.00057870  97 t-inv F
  0.583333  0.250000  0.333333    0.00057870  97 t-inv F
  0.333333  0.250000  0.583333    0.00057870  97 t-inv F
  0.083333 -0.083333  0.250000    0.00057870  98 t-inv F
  0.250000 -0.083333  0.083333    0.00057870  98 t-inv F
  0.333333  0.166667  0.250000    0.00057870  98 t-inv F
  0.166667  0.083333  0.333333    0.00057870  98 t-inv F
  0.333333  0.083333  0.166667    0.00057870  98 t-inv F
  0.250000  0.166667  0.333333    0.00057870  98 t-inv F
  0.083333 -0.166667  0.166667    0.00057870  98 t-inv F
  0.083333 -0.166667  0.250000    0.00057870  99 t-inv F
  0.416667  0.166667  0.250000    0.00057870  99 t-inv F
  0.250000  0.166667  0.416667    0.00057870  99 t-inv F
  0.083333 -0.083333  0.166667    0.00057870 100 t-inv F
  0.250000  0.083333  0.166667    0.00057870 100 t-inv F
  0.166667  0.083333  0.250000    0.00057870 100 t-inv F
  0.166667 -0.083333  0.166667    0.00057870 102 t-inv F
  0.250000  0.083333  0.250000    0.00057870 102 t-inv F
  0.166667 -0.000000  0.250000    0.00057870 102 t-inv F
  0.166667 -0.166667  0.166667    0.00057870 103 t-inv F
  0.333333  0.166667  0.333333    0.00057870 103 t-inv F
  0.166667 -0.000000  0.333333    0.00057870 103 t-inv F
  0.166667 -0.250000  0.166667    0.00057870 104 t-inv F
  0.416667  0.250000  0.416667    0.00057870 104 t-inv F
  0.166667 -0.000000  0.416667    0.00057870 104 t-inv F
  0.166667 -0.333333  0.166667    0.00057870 105 t-inv F
  0.500000  0.333333  0.500000    0.00057870 105 t-inv F
  0.166667 -0.000000  0.500000    0.00057870 105 t-inv F
  0.166667  0.583333  0.166667    0.00057870 106 t-inv F
 -0.416667 -0.583333 -0.416667    0.00057870 106 t-inv F
  0.166667 -0.000000 -0.416667    0.00057870 106 t-inv F
  0.166667  0.500000  0.166667    0.00057870 107 t-inv F
 -0.333333 -0.500000 -0.333333    0.00057870 107 t-inv F
  0.166667  0.000000 -0.333333    0.00057870 107 t-inv F
  0.166667  0.416667  0.166667    0.00057870 108 t-inv F
 -0.250000 -0.416667 -0.250000    0.00057870 108 t-inv F
  0.166667  0.000000 -0.250000    0.00057870 108 t-inv F
  0.166667  0.333333  0.166667    0.00057870 109 t-inv F
 -0.166667 -0.333333 -0.166667    0.00057870 109 t-inv F
  0.166667  0.000000 -0.166667    0.00057870 109 t-inv F
  0.166667 -0.333333 -0.166667    0.00057870 110 t-inv F
 -0.166667 -0.333333  0.166667    0.00057870 110 t-inv F
  0.166667  0.333333  0.500000    0.00057870 110 t-inv F
  0.166667  0.583333 -0.166667    0.00057870 111 t-inv F
 -0.166667  0.583333  0.166667    0.00057870 111 t-inv F
 -0.750000 -0.333333 -0.166667    0.00057870 111 t-inv F
 -0.416667 -0.583333 -0.750000    0.00057870 111 t-inv F
 -0.750000 -0.583333 -0.416667    0.00057870 111 t-inv F
 -0.166667 -0.333333 -0.750000    0.00057870 111 t-inv F
  0.166667  0.333333 -0.416667    0.00057870 111 t-inv F
  0.166667  0.500000 -0.166667    0.00057870 112 t-inv F
 -0.166667  0.500000  0.166667    0.00057870 112 t-inv F
 -0.666667 -0.333333 -0.166667    0.00057870 112 t-inv F
 -0.333333 -0.500000 -0.666667    0.00057870 112 t-inv F
 -0.666667 -0.500000 -0.333333    0.00057870 112 t-inv F
 -0.166667 -0.333333 -0.666667    0.00057870 112 t-inv F
  0.166667  0.333333 -0.333333    0.00057870 112 t-inv F
  0.166667 -0.083333 -0.250000    0.00057870 113 t-inv F
 -0.250000 -0.083333  0.166667    0.00057870 113 t-inv F
 -0.166667 -0.416667 -0.250000    0.00057870 113 t-inv F
  0.250000  0.083333 -0.166667    0.00057870 113 t-inv F
 -0.166667  0.083333  0.250000    0.00057870 113 t-inv F
 -0.250000 -0.416667 -0.166667    0.00057870 113 t-inv F
  0.166667  0.416667  0.250000    0.00057870 113 t-inv F
  0.166667  0.583333 -0.250000    0.00057870 114 t-inv F
 -0.250000  0.583333  0.166667    0.00057870 114 t-inv F
 -0.833333 -0.583333 -0.416667    0.00057870 114 t-inv F
  0.166667  0.500000 -0.250000    0.00057870 115 t-inv F
 -0.250000  0.500000  0.166667    0.00057870 115 t-inv F
 -0.750000 -0.416667 -0.250000    0.00057870 115 t-inv F
 -0.333333 -0.500000 -0.750000    0.00057870 115 t-inv F
 -0.750000 -0.500000 -0.333333    0.00057870 115 t-inv F
 -0.250000 -0.416667 -0.750000    0.00057870 115 t-inv F
  0.166667  0.416667 -0.333333    0.00057870 115 t-inv F
  0.166667  0.416667 -0.250000    0.00057870 116 t-inv F
 -0.666667 -0.416667 -0.250000    0.00057870 116 t-inv F
 -0.250000 -0.416667 -0.666667    0.00057870 116 t-inv F
  0.166667 -0.083333 -0.333333    0.00057870 117 t-inv F
 -0.333333 -0.083333  0.166667    0.00057870 117 t-inv F
 -0.250000 -0.500000 -0.333333    0.00057870 117 t-inv F
  0.250000  0.083333 -0.250000    0.00057870 117 t-inv F
 -0.250000  0.083333  0.250000    0.00057870 117 t-inv F
 -0.333333 -0.500000 -0.250000    0.00057870 117 t-inv F
  0.166667  0.500000  0.250000    0.00057870 117 t-inv F
  0.166667 -0.166667 -0.333333    0.00057870 118 t-inv F
 -0.333333 -0.166667  0.166667    0.00057870 118 t-inv F
 -0.166667 -0.500000 -0.333333    0.00057870 118 t-inv F
  0.333333  0.166667 -0.166667    0.00057870 118 t-inv F
 -0.166667  0.166667  0.333333    0.00057870 118 t-inv F
 -0.333333 -0.500000 -0.166667    0.00057870 118 t-inv F
  0.166667  0.500000  0.333333    0.00057870 118 t-inv F
  0.166667  0.500000 -0.333333    0.00057870 119 t-inv F
  0.166667 -0.083333  0.583333    0.00057870 120 t-inv F
  0.583333 -0.083333  0.166667    0.00057870 120 t-inv F
  0.666667  0.416667  0.583333    0.00057870 120 t-inv F
  0.250000  0.083333  0.666667    0.00057870 120 t-inv F
  0.666667  0.083333  0.250000    0.00057870 120 t-inv F
  0.583333  0.416667  0.666667    0.00057870 120 t-inv F
  0.166667 -0.416667  0.250000    0.00057870 120 t-inv F
  0.166667 -0.166667  0.583333    0.00057870 121 t-inv F
  0.583333 -0.166667  0.166667    0.00057870 121 t-inv F
  0.750000  0.416667  0.583333    0.00057870 121 t-inv F
  0.333333  0.166667  0.750000    0.00057870 121 t-inv F
  0.750000  0.166667  0.333333    0.00057870 121 t-inv F
  0.583333  0.416667  0.750000    0.00057870 121 t-inv F
  0.166667 -0.416667  0.333333    0.00057870 121 t-inv F
  0.166667 -0.250000  0.583333    0.00057870 122 t-inv F
  0.583333 -0.250000  0.166667    0.00057870 122 t-inv F
  0.833333  0.416667  0.583333    0.00057870 122 t-inv F
  0.416667  0.250000  0.833333    0.00057870 122 t-inv F
  0.833333  0.250000  0.416667    0.00057870 122 t-inv F
  0.583333  0.416667  0.833333    0.00057870 122 t-inv F
  0.166667 -0.416667  0.416667    0.00057870 122 t-inv F
  0.166667 -0.083333  0.500000    0.00057870 123 t-inv F
  0.500000 -0.083333  0.166667    0.00057870 123 t-inv F
  0.583333  0.333333  0.500000    0.00057870 123 t-inv F
  0.250000  0.083333  0.583333    0.00057870 123 t-inv F
  0.583333  0.083333  0.250000    0.00057870 123 t-inv F
  0.500000  0.333333  0.583333    0.00057870 123 t-inv F
  0.166667 -0.333333  0.250000    0.00057870 123 t-inv F
  0.166667 -0.166667  0.500000    0.00057870 124 t-inv F
  0.500000 -0.166667  0.166667    0.00057870 124 t-inv F
  0.666667  0.333333  0.500000    0.00057870 124 t-inv F
  0.333333  0.166667  0.666667    0.00057870 124 t-inv F
  0.666667  0.166667  0.333333    0.00057870 124 t-inv F
  0.500000  0.333333  0.666667    0.00057870 124 t-inv F
  0.166667 -0.333333  0.333333    0.00057870 124 t-inv F
  0.166667 -0.250000  0.500000    0.00057870 125 t-inv F
  0.500000 -0.250000  0.166667    0.00057870 125 t-inv F
  0.750000  0.333333  0.500000    0.00057870 125 t-inv F
  0.416667  0.250000  0.750000    0.00057870 125 t-inv F
  0.750000  0.250000  0.416667    0.00057870 125 t-inv F
  0.500000  0.333333  0.750000    0.00057870 125 t-inv F
  0.166667 -0.333333  0.416667    0.00057870 125 t-inv F
  0.166667 -0.333333  0.500000    0.00057870 126 t-inv F
  0.833333  0.333333  0.500000    0.00057870 126 t-inv F
  0.500000  0.333333  0.833333    0.00057870 126 t-inv F
  0.166667 -0.083333  0.416667    0.00057870 127 t-inv F
  0.416667 -0.083333  0.166667    0.00057870 127 t-inv F
  0.500000  0.250000  0.416667    0.00057870 127 t-inv F
  0.250000  0.083333  0.500000    0.00057870 127 t-inv F
  0.500000  0.083333  0.250000    0.00057870 127 t-inv F
  0.416667  0.250000  0.500000    0.00057870 127 t-inv F
  0.166667 -0.250000  0.250000    0.00057870 127 t-inv F
  0.166667 -0.166667  0.416667    0.00057870 128 t-inv F
  0.416667 -0.166667  0.166667    0.00057870 128 t-inv F
  0.583333  0.250000  0.416667    0.00057870 128 t-inv F
  0.333333  0.166667  0.583333    0.00057870 128 t-inv F
  0.583333  0.166667  0.333333    0.00057870 128 t-inv F
  0.416667  0.250000  0.583333    0.00057870 128 t-inv F
  0.166667 -0.250000  0.333333    0.00057870 128 t-inv F
  0.166667 -0.250000  0.416667    0.00057870 129 t-inv F
  0.666667  0.250000  0.416667    0.00057870 129 t-inv F
  0.416667  0.250000  0.666667    0.00057870 129 t-inv F
  0.166667 -0.083333  0.333333    0.00057870 130 t-inv F
  0.333333 -0.083333  0.166667    0.00057870 130 t-inv F
  0.416667  0.166667  0.333333    0.00057870 130 t-inv F
  0.250000  0.083333  0.416667    0.00057870 130 t-inv F
  0.416667  0.083333  0.250000    0.00057870 130 t-inv F
  0.333333  0.166667  0.416667    0.00057870 130 t-inv F
  0.166667 -0.166667  0.250000    0.00057870 130 t-inv F
  0.166667 -0.166667  0.333333    0.00057870 131 t-inv F
  0.500000  0.166667  0.333333    0.00057870 131 t-inv F
  0.333333  0.166667  0.500000    0.00057870 131 t-inv F
  0.166667 -0.083333  0.250000    0.00057870 132 t-inv F
  0.333333  0.083333  0.250000    0.00057870 132 t-inv F
  0.250000  0.083333  0.333333    0.00057870 132 t-inv F
  0.250000 -0.083333  0.250000    0.00057870 134 t-inv F
  0.333333  0.083333  0.333333    0.00057870 134 t-inv F
  0.250000  0.000000  0.333333    0.00057870 134 t-inv F
  0.250000 -0.166667  0.250000    0.00057870 135 t-inv F
  0.416667  0.166667  0.416667    0.00057870 135 t-inv F
  0.250000  0.000000  0.416667    0.00057870 135 t-inv F
  0.250000 -0.250000  0.250000    0.00057870 136 t-inv F
  0.500000  0.250000  0.500000    0.00057870 136 t-inv F
  0.250000  0.000000  0.500000    0.00057870 136 t-inv F
  0.250000  0.666667  0.250000    0.00057870 137 t-inv F
 -0.416667 -0.666667 -0.416667    0.00057870 137 t-inv F
  0.250000 -0.000000 -0.416667    0.00057870 137 t-inv F
  0.250000  0.583333  0.250000    0.00057870 138 t-inv F
 -0.333333 -0.583333 -0.333333    0.00057870 138 t-inv F
  0.250000 -0.000000 -0.333333    0.00057870 138 t-inv F
  0.250000  0.500000  0.250000    0.00057870 139 t-inv F
 -0.250000 -0.500000 -0.250000    0.00057870 139 t-inv F
  0.250000 -0.000000 -0.250000    0.00057870 139 t-inv F
  0.250000  0.500000 -0.250000    0.00057870 140 t-inv F
  0.250000 -0.083333  0.666667    0.00057870 141 t-inv F
  0.666667 -0.083333  0.250000    0.00057870 141 t-inv F
  0.750000  0.416667  0.666667    0.00057870 141 t-inv F
  0.333333  0.083333  0.750000    0.00057870 141 t-inv F
  0.750000  0.083333  0.333333    0.00057870 141 t-inv F
  0.666667  0.416667  0.750000    0.00057870 141 t-inv F
  0.250000 -0.416667  0.333333    0.00057870 141 t-inv F
  0.250000 -0.083333  0.583333    0.00057870 142 t-inv F
  0.583333 -0.083333  0.250000    0.00057870 142 t-inv F
  0.666667  0.333333  0.583333    0.00057870 142 t-inv F
  0.333333  0.083333  0.666667    0.00057870 142 t-inv F
  0.666667  0.083333  0.333333    0.00057870 142 t-inv F
  0.583333  0.333333  0.666667    0.00057870 142 t-inv F
  0.250000 -0.333333  0.333333    0.00057870 142 t-inv F
  0.250000 -0.166667  0.583333    0.00057870 143 t-inv F
  0.583333 -0.166667  0.250000    0.00057870 143 t-inv F
  0.750000  0.333333  0.583333    0.00057870 143 t-inv F
  0.416667  0.166667  0.750000    0.00057870 143 t-inv F
  0.750000  0.166667  0.416667    0.00057870 143 t-inv F
  0.583333  0.333333  0.750000    0.00057870 143 t-inv F
  0.250000 -0.333333  0.416667    0.00057870 143 t-inv F
  0.250000 -0.083333  0.500000    0.00057870 144 t-inv F
  0.500000 -0.083333  0.250000    0.00057870 144 t-inv F
  0.583333  0.250000  0.500000    0.00057870 144 t-inv F
  0.333333  0.083333  0.583333    0.00057870 144 t-inv F
  0.583333  0.083333  0.333333    0.00057870 144 t-inv F
  0.500000  0.250000  0.583333    0.00057870 144 t-inv F
  0.250000 -0.250000  0.333333    0.00057870 144 t-inv F
  0.250000 -0.166667  0.500000    0.00057870 145 t-inv F
  0.500000 -0.166667  0.250000    0.00057870 145 t-inv F
  0.666667  0.250000  0.500000    0.00057870 145 t-inv F
  0.416667  0.166667  0.666667    0.00057870 145 t-inv F
  0.666667  0.166667  0.416667    0.00057870 145 t-inv F
  0.500000  0.250000  0.666667    0.00057870 145 t-inv F
  0.250000 -0.250000  0.416667    0.00057870 145 t-inv F
  0.250000 -0.250000  0.500000    0.00057870 146 t-inv F
  0.750000  0.250000  0.500000    0.00057870 146 t-inv F
  0.500000  0.250000  0.750000    0.00057870 146 t-inv F
  0.250000 -0.083333  0.416667    0.00057870 147 t-inv F
  0.416667 -0.083333  0.250000    0.00057870 147 t-inv F
  0.500000  0.166667  0.416667    0.00057870 147 t-inv F
[...]
      5       0.0001      0.00000
      6       0.0002      0.00000
      7       0.0002      0.00000
      8       0.0002      0.00000
      9       0.0000      0.00000
     10       0.0001      0.00000
     11      -0.0001      0.00000
     12       0.0000      0.00000
     13       0.0000      0.00000
     14       0.0000      0.00000
     15       0.0001      0.00000
     16       0.0000      0.00000

 k-point 465 :       0.7500    0.2500    0.5000
  band No.  band energies     occupation 
      1      -0.0001      0.00000
      2       0.0001      0.00000
      3      -0.0000      0.00000
      4      -0.0001      0.00000
      5       0.0001      0.00000
      6       0.0002      0.00000
      7       0.0002      0.00000
      8       0.0002      0.00000
      9       0.0000      0.00000
     10       0.0000      0.00000
     11      -0.0000      0.00000
     12      -0.0001      0.00000
     13       0.0000      0.00000
     14       0.0000      0.00000
     15      -0.0000      0.00000
     16       0.0002      0.00000

 k-point 466 :      -0.1667    0.2500   -0.5000
  band No.  band energies     occupation 
      1      -0.0001      0.00000
      2       0.0001      0.00000
      3      -0.0001      0.00000
      4      -0.0001      0.00000
      5       0.0001      0.00000
      6       0.0002      0.00000
      7       0.0002      0.00000
      8       0.0002      0.00000
      9       0.0000      0.00000
     10       0.0000      0.00000
     11      -0.0000      0.00000
     12      -0.0001      0.00000
     13       0.0000      0.00000
     14       0.0000      0.00000
     15       0.0000      0.00000
     16       0.0001      0.00000

 k-point 467 :      -0.0833    0.2500   -0.5000
  band No.  band energies     occupation 
      1      -0.0001      0.00000
      2       0.0001      0.00000
      3      -0.0001      0.00000
      4      -0.0001      0.00000
      5       0.0001      0.00000
      6       0.0002      0.00000
      7       0.0002      0.00000
      8       0.0002      0.00000
      9       0.0000      0.00000
     10       0.0000      0.00000
     11      -0.0000      0.00000
     12      -0.0000      0.00000
     13       0.0000      0.00000
     14       0.0000      0.00000
     15      -0.0000      0.00000
     16       0.0001      0.00000

 k-point 468 :      -0.0000    0.3333    0.5000
  band No.  band energies     occupation 
      1      -0.0001      0.00000
      2       0.0001      0.00000
      3      -0.0001      0.00000
      4      -0.0001      0.00000
      5       0.0001      0.00000
      6       0.0002      0.00000
      7       0.0002      0.00000
      8       0.0002      0.00000
      9       0.0000      0.00000
     10       0.0000      0.00000
     11       0.0000      0.00000
     12      -0.0000      0.00000
     13      -0.0000      0.00000
     14      -0.0000      0.00000
     15       0.0000      0.00000
     16       0.0000      0.00000

 k-point 469 :       0.0833    0.3333    0.5000
  band No.  band energies     occupation 
      1      -0.0001      0.00000
      2       0.0001      0.00000
      3      -0.0001      0.00000
      4      -0.0001      0.00000
      5       0.0001      0.00000
      6       0.0002      0.00000
      7       0.0002      0.00000
      8       0.0002      0.00000
      9       0.0000      0.00000
     10       0.0001      0.00000
     11       0.0000      0.00000
     12      -0.0000      0.00000
     13      -0.0000      0.00000
     14       0.0000      0.00000
     15       0.0000      0.00000
     16       0.0000      0.00000

 k-point 470 :       0.1667    0.3333    0.5000
  band No.  band energies     occupation 
      1      -0.0001      0.00000
      2       0.0001      0.00000
      3      -0.0001      0.00000
      4      -0.0001      0.00000
      5       0.0001      0.00000
      6       0.0002      0.00000
      7       0.0002      0.00000
      8       0.0002      0.00000
      9       0.0000      0.00000
     10       0.0001      0.00000
     11       0.0000      0.00000
     12      -0.0001      0.00000
     13       0.0000      0.00000
     14       0.0000      0.00000
     15       0.0000      0.00000
     16       0.0000      0.00000

 k-point 471 :       0.8333    0.3333    0.5000
  band No.  band energies     occupation 
      1      -0.0001      0.00000
      2       0.0001      0.00000
      3      -0.0001      0.00000
      4      -0.0001      0.00000
      5       0.0001      0.00000
      6       0.0002      0.00000
      7       0.0002      0.00000
      8       0.0002      0.00000
      9       0.0000      0.00000
     10       0.0000      0.00000
     11      -0.0000      0.00000
     12      -0.0000      0.00000
     13      -0.0001      0.00000
     14      -0.0000      0.00000
     15       0.0001      0.00000
     16       0.0001      0.00000

 k-point 472 :      -0.0833    0.3333   -0.5000
  band No.  band energies     occupation 
      1      -0.0001      0.00000
      2       0.0001      0.00000
      3      -0.0001      0.00000
      4      -0.0001      0.00000
      5       0.0001      0.00000
      6       0.0002      0.00000
      7       0.0002      0.00000
      8       0.0002      0.00000
      9       0.0000      0.00000
     10       0.0000      0.00000
     11       0.0000      0.00000
     12      -0.0000      0.00000
     13      -0.0000      0.00000
     14       0.0000      0.00000
     15      -0.0000      0.00000
     16       0.0001      0.00000

 k-point 473 :      -0.0000    0.4167    0.5000
  band No.  band energies     occupation 
      1      -0.0001      0.00000
      2       0.0001      0.00000
      3      -0.0000      0.00000
      4      -0.0001      0.00000
      5       0.0000      0.00000
      6       0.0002      0.00000
      7       0.0002      0.00000
      8       0.0002      0.00000
      9      -0.0000      0.00000
     10       0.0000      0.00000
     11       0.0001      0.00000
     12      -0.0000      0.00000
     13      -0.0000      0.00000
     14      -0.0000      0.00000
     15      -0.0000      0.00000
     16       0.0004      0.00000

 k-point 474 :       0.0833    0.4167    0.5000
  band No.  band energies     occupation 
      1      -0.0001      0.00000
      2       0.0001      0.00000
      3      -0.0001      0.00000
      4      -0.0001      0.00000
      5       0.0000      0.00000
      6       0.0002      0.00000
      7       0.0003      0.00000
      8       0.0002      0.00000
      9      -0.0000      0.00000
     10       0.0000      0.00000
     11       0.0000      0.00000
     12      -0.0000      0.00000
     13      -0.0000      0.00000
     14       0.0000      0.00000
     15      -0.0000      0.00000
     16       0.0000      0.00000

 k-point 475 :       0.9167    0.4167    0.5000
  band No.  band energies     occupation 
      1      -0.0001      0.00000
      2       0.0002      0.00000
      3      -0.0001      0.00000
      4      -0.0001      0.00000
      5       0.0000      0.00000
      6       0.0002      0.00000
      7       0.0002      0.00000
      8       0.0003      0.00000
      9       0.0000      0.00000
     10       0.0000      0.00000
     11       0.0000      0.00000
     12      -0.0000      0.00000
     13      -0.0001      0.00000
     14       0.0000      0.00000
     15      -0.0000      0.00000
     16       0.0002      0.00000

 k-point 476 :      -0.0000   -0.5000   -0.5000
  band No.  band energies     occupation 
      1      -0.0001      0.00000
      2       0.0002      0.00000
      3      -0.0001      0.00000
      4      -0.0001      0.00000
      5      -0.0001      0.00000
      6       0.0002      0.00000
      7       0.0002      0.00000
      8       0.0002      0.00000
      9      -0.0000      0.00000
     10       0.0000      0.00000
     11      -0.0000      0.00000
     12       0.0001      0.00000
     13      -0.0001      0.00000
     14      -0.0001      0.00000
     15      -0.0000      0.00000
     16       0.0001      0.00000


------------------------ aborting loop because EDIFF is reached ----------------------------------------


    FORLOC:  cpu time    0.0019: real time    0.0019
    FORNL :  cpu time    0.2281: real time    0.2281
    STRESS:  cpu time    1.9359: real time    1.9414
    FORCOR:  cpu time    0.0136: real time    0.0136
    OFIELD:  cpu time    0.0001: real time    0.0001
    FORLOC:  cpu time    0.0036: real time    0.0036
    FORNL :  cpu time    0.2346: real time    0.2347
    STRESS:  cpu time    1.9724: real time    1.9757
    FORCOR:  cpu time    0.0109: real time    0.0109
    OFIELD:  cpu time    0.0001: real time    0.0001
    FORLOC:  cpu time    0.0034: real time    0.0034
    FORNL :  cpu time    0.2291: real time    0.2292
    STRESS:  cpu time    1.9292: real time    1.9316
    FORCOR:  cpu time    0.0257: real time    0.0257
    OFIELD:  cpu time    0.0001: real time    0.0001
    FORLOC:  cpu time    0.0028: real time    0.0028
    FORNL :  cpu time    0.2267: real time    0.2328
    STRESS:  cpu time    1.9468: real time    1.9503
    FORCOR:  cpu time    0.0134: real time    0.0134
    OFIELD:  cpu time    0.0001: real time    0.0001

 INTERNAL STRAIN TENSOR  FOR ION    2  DIRECTION 2   (eV/Angst):
 -----------------------------------------------------------------------------
     0.00004 -0.00128  0.00000
    -0.00129 -0.00002  0.00000
     0.00000  0.00000  0.00026


 POSITION                   FORCE-CONSTANT FOR ION    2 DIRECTION 2 (eV/Angst/Angst)
 -----------------------------------------------------------------------------------
     -2.58378      2.58378      2.58378         0.000014      2.104541     -0.000000
      0.00000      0.00000      0.00000        -0.000014     -2.104541      0.000000
 -----------------------------------------------------------------------------------
    total drift:                                0.000000      0.000000      0.000000


 BORN EFFECTIVE CHARGE FOR ION    2 DIRECTION 2 :   0.000  -2.449   0.000
                   rigid augmentation           :  -0.000  -0.621  -0.000
                   ionic contribution           :  -0.000   6.000  -0.000
                   Berry contribution           :   0.000  -7.828   0.000


--------------------------------------------------------------------------------------------------------


  LATTYP: Found a face centered cubic cell.
 ALAT       =     5.1675689807
  
  Lattice vectors:
  
 A1 = (  -2.5837844903,   0.0000000000,   2.5837844903)
 A2 = (   0.0000000000,   2.5837844903,   2.5837844903)
 A3 = (  -2.5837844903,   2.5837844903,   0.0000000000)


Analysis of symmetry for initial positions (statically):
=====================================================================
 Subroutine PRICEL returns:
 Original cell was already a primitive cell.
 

 Routine SETGRP: Setting up the symmetry group for a 
 face centered cubic supercell.


 Subroutine GETGRP returns: Found  8 space group operations
 (whereof  8 operations were pure point group operations)
 out of a pool of 48 trial point group operations.


The static configuration has the point symmetry C_4v.


Analysis of symmetry for dynamics (positions and initial velocities):
=====================================================================
 Subroutine PRICEL returns:
 Original cell was already a primitive cell.
 

 Routine SETGRP: Setting up the symmetry group for a 
 face centered cubic supercell.


 Subroutine GETGRP returns: Found  8 space group operations
 (whereof  8 operations were pure point group operations)
 out of a pool of 48 trial point group operations.


The dynamic configuration has the point symmetry C_4v.


 Subroutine INISYM returns: Found  8 space group operations
 (whereof  8 operations are pure point group operations),
 and found     1 'primitive' translations



--------------------------------------------------------------------------------------------------------




 MACROSCOPIC STATIC DIELECTRIC TENSOR (including local field effects in DFT)
 ------------------------------------------------------
           3.807885    -0.000000     0.000000
          -0.000000     3.808098    -0.000000
           0.000000    -0.000000     3.808098
 ------------------------------------------------------


 PIEZOELECTRIC TENSOR  for field in x, y, z        (e  Angst)
          XX          YY          ZZ          XY          YZ          ZX
  --------------------------------------------------------------------------------
  x     0.00004     0.00001     0.00001    -0.00000     0.00000    -0.00000
  y     0.00000     0.00004    -0.00006     0.00029    -0.00000     0.00000
  z    -0.00000     0.00000     0.00001     0.00000     0.00000    -0.00006

 PIEZOELECTRIC TENSOR  for field in x, y, z        (C/m^2)
          XX          YY          ZZ          XY          YZ          ZX
  --------------------------------------------------------------------------------
  x     0.00002     0.00000     0.00000    -0.00000    -0.00000     0.00000
  y    -0.00000    -0.00000    -0.00000     0.00005     0.00000    -0.00000
  z     0.00000     0.00000     0.00000    -0.00000    -0.00000     0.00005
 
 BORN EFFECTIVE CHARGES (in e, cummulative output)
 -------------------------------------------------
 ion    1
    1     2.44872    -0.00000    -0.00000
    2    -0.00005     2.44886    -0.00000
    3     0.00001    -0.00000     2.44881
 ion    2
    1    -2.44872     0.00000     0.00000
    2     0.00005    -2.44886     0.00000
    3    -0.00001     0.00000    -2.44881

 INTERNAL STRAIN TENSOR FOR ION    1 for displacements in x,y,z  (eV/Angst):
          X           Y           Z          XY          YZ          ZX
  --------------------------------------------------------------------------------
  x    -0.00037     0.00032     0.00032     0.00000    -0.00000    -0.00000
  y     0.00000     0.00000    -0.00000    -0.00227    -0.00000     0.00000
  z    -0.00000     0.00000     0.00000     0.00000     0.00000    -0.00228

 INTERNAL STRAIN TENSOR FOR ION    2 for displacements in x,y,z  (eV/Angst):
          X           Y           Z          XY          YZ          ZX
  --------------------------------------------------------------------------------
  x     0.00111    -0.00068    -0.00068     0.00000     0.00000    -0.00000
  y     0.00000     0.00000     0.00000    -0.00129    -0.00000     0.00000
  z    -0.00000    -0.00000    -0.00000     0.00000     0.00000    -0.00128


--------------------------------------------------------------------------------------------------------


 
 SECOND DERIVATIVES (NOT SYMMETRIZED)
 ------------------------------------
               1X          1Y          1Z          2X          2Y          2Z 
  1X    -2.104902    0.000000   -0.000000    2.104902   -0.000000    0.000000
  1Y     0.000000   -2.104878    0.000000   -0.000000    2.104878   -0.000000
  1Z    -0.000000    0.000000   -2.104878    0.000000   -0.000000    2.104878
  2X     2.104460   -0.000000    0.000000   -2.104460    0.000000   -0.000000
  2Y    -0.000000    2.104541   -0.000000    0.000000   -2.104541    0.000000
  2Z     0.000000   -0.000000    2.104541   -0.000000    0.000000   -2.104541
 
 
 Eigenvectors and eigenvalues of the dynamical matrix
 ----------------------------------------------------
 
 
   1 f  =    6.165878 THz    38.741354 2PiTHz  205.671544 cm-1    25.500031 meV
             X         Y         Z           dx          dy          dz
     -2.583784  2.583784  2.583784    -0.000000    0.070876   -0.386533  
      0.000000  0.000000  0.000000     0.000000   -0.165847    0.904469  
 
   2 f  =    6.165878 THz    38.741354 2PiTHz  205.671544 cm-1    25.500031 meV
             X         Y         Z           dx          dy          dz
     -2.583784  2.583784  2.583784    -0.000000    0.386533    0.070876  
      0.000000  0.000000  0.000000     0.000000   -0.904469   -0.165847  
 
   3 f  =    6.165784 THz    38.740765 2PiTHz  205.668418 cm-1    25.499643 meV
             X         Y         Z           dx          dy          dz
     -2.583784  2.583784  2.583784    -0.392986   -0.000000    0.000000  
      0.000000  0.000000  0.000000     0.919545    0.000000   -0.000000  
 
   4 f/i=    0.000179 THz     0.001123 2PiTHz    0.005962 cm-1     0.000739 meV
             X         Y         Z           dx          dy          dz
     -2.583784  2.583784  2.583784     0.000000   -0.919436   -0.014334  
      0.000000  0.000000  0.000000     0.000000   -0.392930   -0.006126  
 
   5 f/i=    0.000179 THz     0.001123 2PiTHz    0.005962 cm-1     0.000739 meV
             X         Y         Z           dx          dy          dz
     -2.583784  2.583784  2.583784    -0.000000    0.014334   -0.919436  
      0.000000  0.000000  0.000000    -0.000000    0.006126   -0.392930  
 
   6 f/i=    0.000234 THz     0.001469 2PiTHz    0.007801 cm-1     0.000967 meV
             X         Y         Z           dx          dy          dz
     -2.583784  2.583784  2.583784     0.919545    0.000000   -0.000000  
      0.000000  0.000000  0.000000     0.392986    0.000000   -0.000000  
 


--------------------------------------------------------------------------------------------------------




 MACROSCOPIC STATIC DIELECTRIC TENSOR IONIC CONTRIBUTION
 ------------------------------------------------------
          14.943716    -0.000321     0.000067
          -0.000321    14.945289    -0.000000
           0.000067    -0.000000    14.944641
 ------------------------------------------------------


 ELASTIC MODULI IONIC CONTR (kBar)
 Direction    XX          YY          ZZ          XY          YZ          ZX
 --------------------------------------------------------------------------------
 XX          -0.0000      0.0000      0.0000      0.0000     -0.0000     -0.0000
 YY           0.0000     -0.0000     -0.0000     -0.0000      0.0000      0.0000
 ZZ           0.0000     -0.0000     -0.0000     -0.0000      0.0000      0.0000
 XY           0.0000     -0.0000     -0.0000     -0.0000     -0.0000      0.0000
 YZ          -0.0000      0.0000      0.0000     -0.0000     -0.0000      0.0000
 ZX          -0.0000      0.0000      0.0000      0.0000      0.0000     -0.0000
 --------------------------------------------------------------------------------


 PIEZOELECTRIC TENSOR IONIC CONTR  for field in x, y, z        (C/m^2)
          XX          YY          ZZ          XY          YZ          ZX
  --------------------------------------------------------------------------------
  x    -0.00040     0.00027     0.00027     0.00000    -0.00000    -0.00000
  y     0.00000    -0.00000    -0.00000    -0.00027    -0.00000     0.00000
  z    -0.00000     0.00000     0.00000     0.00000     0.00000    -0.00027


--------------------------------------------------------------------------------------------------------


     LOOP+:  cpu time  379.8373: real time  381.9267
    4ORBIT:  cpu time    0.0000: real time    0.0000

 total amount of memory used by VASP MPI-rank0    82893. kBytes
=======================================================================

   base      :      30000. kBytes
   nonl-proj :      44721. kBytes
   fftplans  :        858. kBytes
   grid      :       2151. kBytes
   one-center:         31. kBytes
   wavefun   :       5132. kBytes
 
  
  
 General timing and accounting informations for this job:
 ========================================================
  
                  Total CPU time used (sec):      381.935
                            User time (sec):      375.661
                          System time (sec):        6.274
                         Elapsed time (sec):      384.074
  
                   Maximum memory used (kb):      438060.
                   Average memory used (kb):           0.
  
                          Minor page faults:       228887
                          Major page faults:            9
                 Voluntary context switches:         7520
