<?xml version="1.0" encoding="ISO-8859-1"?>
<modeling>
 <generator>
  <i name="program" type="string">vasp </i>
  <i name="version" type="string">5.4.4.18Apr17-6-g9f103f2a35  </i>
  <i name="subversion" type="string">(build Aug 24 2017 11:22:49) complex            parallel </i>
  <i name="platform" type="string">LinuxIFC </i>
  <i name="date" type="string">2023 12 25 </i>
  <i name="time" type="string">13:07:30 </i>
 </generator>
 <incar>
  <i type="string" name="PREC">accurate</i>
  <i type="string" name="ALGO"> Normal</i>
  <i type="int" name="NELM">   100</i>
  <i type="int" name="IBRION">     8</i>
  <i name="EDIFF">      0.00000001</i>
  <i name="SYMPREC">      0.00000001</i>
  <i name="ENCUT">    520.00000000</i>
  <i type="logical" name="LREAL"> F  </i>
  <i type="int" name="ISMEAR">     0</i>
  <i name="SIGMA">      0.01000000</i>
  <i type="logical" name="LWAVE"> F  </i>
  <v type="int" name="KPOINT_BSE">    -1     0     0     0</v>
  <i type="int" name="NELM">   100</i>
  <i type="logical" name="LPEAD"> T  </i>
  <i type="logical" name="LEPSILON"> T  </i>
 </incar>
 <structure name="primitive_cell" >
  <crystal>
   <varray name="basis" >
    <v>      -2.58378449       0.00000000       2.58378449 </v>
    <v>       0.00000000       2.58378449       2.58378449 </v>
    <v>      -2.58378449       2.58378449       0.00000000 </v>
   </varray>
   <i name="volume">     34.49839231 </i>
   <varray name="rec_basis" >
    <v>      -0.19351459      -0.19351459       0.19351459 </v>
    <v>       0.19351459       0.19351459       0.19351459 </v>
    <v>      -0.19351459       0.19351459      -0.19351459 </v>
   </varray>
  </crystal>
  <varray name="positions" >
   <v>       0.49999996      -0.49999996       0.49999996 </v>
   <v>       0.00000000       0.00000000       0.00000000 </v>
  </varray>
 </structure>
 <varray name="primitive_index" >
  <v type="int" >        1 </v>
  <v type="int" >        2 </v>
 </varray>
 <kpoints>
  <generation param="Gamma">
   <v type="int" name="divisions">      12       12       12 </v>
   <v name="usershift">      0.00000000       0.00000000       0.00000000 </v>
   <v name="genvec1">      0.08333333       0.00000000       0.00000000 </v>
   <v name="genvec2">      0.00000000       0.08333333      -0.00000000 </v>
   <v name="genvec3">     -0.00000000      -0.00000000       0.08333333 </v>
   <v name="shift">      0.00000000       0.00000000       0.00000000 </v>
  </generation>
  <varray name="kpointlist" >
   <v>       0.00000000       0.00000000       0.00000000 </v>
   <v>       0.08333333       0.00000000       0.00000000 </v>
   <v>       0.16666667       0.00000000       0.00000000 </v>
   <v>       0.25000000      -0.00000000      -0.00000000 </v>
   <v>       0.33333333      -0.00000000      -0.00000000 </v>
   <v>       0.41666667       0.00000000       0.00000000 </v>
   <v>       0.50000000      -0.00000000      -0.00000000 </v>
   <v>       0.08333333       0.08333333      -0.00000000 </v>
   <v>       0.16666667       0.08333333      -0.00000000 </v>
   <v>       0.25000000       0.08333333       0.00000000 </v>
   <v>       0.33333333       0.08333333      -0.00000000 </v>
   <v>       0.41666667       0.08333333       0.00000000 </v>
   <v>       0.50000000       0.08333333       0.00000000 </v>
   <v>      -0.41666667       0.08333333      -0.00000000 </v>
   <v>      -0.33333333       0.08333333       0.00000000 </v>
   <v>      -0.25000000       0.08333333       0.00000000 </v>
   <v>      -0.16666667       0.08333333      -0.00000000 </v>
   <v>      -0.08333333       0.08333333      -0.00000000 </v>
   <v>       0.16666667       0.16666667      -0.00000000 </v>
   <v>       0.25000000       0.16666667      -0.00000000 </v>
   <v>       0.33333333       0.16666667       0.00000000 </v>
   <v>       0.41666667       0.16666667      -0.00000000 </v>
   <v>       0.50000000       0.16666667      -0.00000000 </v>
   <v>      -0.41666667       0.16666667       0.00000000 </v>
   <v>      -0.33333333       0.16666667      -0.00000000 </v>
   <v>      -0.25000000       0.16666667      -0.00000000 </v>
   <v>      -0.16666667       0.16666667      -0.00000000 </v>
   <v>       0.25000000       0.25000000      -0.00000000 </v>
   <v>       0.33333333       0.25000000      -0.00000000 </v>
   <v>       0.41666667       0.25000000      -0.00000000 </v>
   <v>       0.50000000       0.25000000       0.00000000 </v>
   <v>      -0.41666667       0.25000000      -0.00000000 </v>
   <v>      -0.33333333       0.25000000      -0.00000000 </v>
   <v>      -0.25000000       0.25000000      -0.00000000 </v>
   <v>       0.33333333       0.33333333      -0.00000000 </v>
   <v>       0.41666667       0.33333333      -0.00000000 </v>
   <v>       0.50000000       0.33333333      -0.00000000 </v>
   <v>      -0.41666667       0.33333333      -0.00000000 </v>
   <v>      -0.33333333       0.33333333       0.00000000 </v>
   <v>       0.41666667       0.41666667      -0.00000000 </v>
   <v>       0.50000000       0.41666667      -0.00000000 </v>
   <v>      -0.41666667       0.41666667      -0.00000000 </v>
   <v>       0.50000000       0.50000000      -0.00000000 </v>
   <v>       0.08333333       0.00000000       0.08333333 </v>
   <v>       0.16666667      -0.00000000       0.08333333 </v>
   <v>       0.25000000       0.00000000       0.08333333 </v>
   <v>       0.33333333       0.00000000       0.08333333 </v>
   <v>       0.41666667       0.00000000       0.08333333 </v>
   <v>       0.50000000       0.00000000       0.08333333 </v>
   <v>      -0.41666667      -0.00000000       0.08333333 </v>
   <v>      -0.33333333      -0.00000000       0.08333333 </v>
   <v>      -0.25000000       0.00000000       0.08333333 </v>
   <v>      -0.16666667      -0.00000000       0.08333333 </v>
   <v>      -0.08333333      -0.00000000       0.08333333 </v>
   <v>       0.25000000       0.16666667       0.08333333 </v>
   <v>       0.33333333       0.16666667       0.08333333 </v>
   <v>       0.41666667       0.16666667       0.08333333 </v>
   <v>       0.50000000       0.16666667       0.08333333 </v>
   <v>      -0.41666667       0.16666667       0.08333333 </v>
   <v>       0.16666667       0.25000000       0.08333333 </v>
   <v>       0.33333333       0.25000000       0.08333333 </v>
   <v>       0.41666667       0.25000000       0.08333333 </v>
   <v>       0.50000000       0.25000000       0.08333333 </v>
   <v>      -0.41666667       0.25000000       0.08333333 </v>
   <v>      -0.33333333       0.25000000       0.08333333 </v>
   <v>      -0.25000000       0.25000000       0.08333333 </v>
   <v>      -0.16666667       0.25000000       0.08333333 </v>
   <v>       0.16666667       0.33333333       0.08333333 </v>
   <v>       0.25000000       0.33333333       0.08333333 </v>
   <v>       0.41666667       0.33333333       0.08333333 </v>
   <v>       0.50000000       0.33333333       0.08333333 </v>
   <v>      -0.41666667       0.33333333       0.08333333 </v>
   <v>      -0.33333333       0.33333333       0.08333333 </v>
   <v>      -0.25000000       0.33333333       0.08333333 </v>
   <v>       0.16666667       0.41666667       0.08333333 </v>
   <v>       0.25000000       0.41666667       0.08333333 </v>
   <v>       0.33333333       0.41666667       0.08333333 </v>
   <v>       0.50000000       0.41666667       0.08333333 </v>
   <v>      -0.41666667       0.41666667       0.08333333 </v>
   <v>      -0.33333333       0.41666667       0.08333333 </v>
   <v>       0.16666667       0.50000000       0.08333333 </v>
   <v>       0.25000000       0.50000000       0.08333333 </v>
   <v>       0.33333333       0.50000000       0.08333333 </v>
   <v>       0.41666667       0.50000000       0.08333333 </v>
   <v>      -0.41666667       0.50000000       0.08333333 </v>
   <v>       0.16666667      -0.41666667       0.08333333 </v>
   <v>       0.25000000      -0.41666667       0.08333333 </v>
   <v>       0.33333333      -0.41666667       0.08333333 </v>
   <v>       0.41666667      -0.41666667       0.08333333 </v>
   <v>       0.50000000      -0.41666667       0.08333333 </v>
   <v>       0.16666667      -0.33333333       0.08333333 </v>
   <v>       0.25000000      -0.33333333       0.08333333 </v>
   <v>       0.33333333      -0.33333333       0.08333333 </v>
   <v>       0.41666667      -0.33333333       0.08333333 </v>
   <v>       0.16666667      -0.25000000       0.08333333 </v>
   <v>       0.25000000      -0.25000000       0.08333333 </v>
   <v>       0.33333333      -0.25000000       0.08333333 </v>
   <v>       0.16666667      -0.16666667       0.08333333 </v>
   <v>       0.25000000      -0.16666667       0.08333333 </v>
   <v>       0.16666667      -0.08333333       0.08333333 </v>
   <v>       0.16666667      -0.00000000       0.16666667 </v>
   <v>       0.25000000       0.00000000       0.16666667 </v>
   <v>       0.33333333       0.00000000       0.16666667 </v>
   <v>       0.41666667       0.00000000       0.16666667 </v>
   <v>       0.50000000       0.00000000       0.16666667 </v>
   <v>      -0.41666667       0.00000000       0.16666667 </v>
   <v>      -0.33333333      -0.00000000       0.16666667 </v>
   <v>      -0.25000000      -0.00000000       0.16666667 </v>
   <v>      -0.16666667      -0.00000000       0.16666667 </v>
   <v>       0.50000000       0.33333333       0.16666667 </v>
   <v>      -0.41666667       0.33333333       0.16666667 </v>
   <v>      -0.33333333       0.33333333       0.16666667 </v>
   <v>       0.25000000       0.41666667       0.16666667 </v>
   <v>      -0.41666667       0.41666667       0.16666667 </v>
   <v>      -0.33333333       0.41666667       0.16666667 </v>
   <v>      -0.25000000       0.41666667       0.16666667 </v>
   <v>       0.25000000       0.50000000       0.16666667 </v>
   <v>       0.33333333       0.50000000       0.16666667 </v>
   <v>      -0.33333333       0.50000000       0.16666667 </v>
   <v>       0.25000000      -0.41666667       0.16666667 </v>
   <v>       0.33333333      -0.41666667       0.16666667 </v>
   <v>       0.41666667      -0.41666667       0.16666667 </v>
   <v>       0.25000000      -0.33333333       0.16666667 </v>
   <v>       0.33333333      -0.33333333       0.16666667 </v>
   <v>       0.41666667      -0.33333333       0.16666667 </v>
   <v>       0.50000000      -0.33333333       0.16666667 </v>
   <v>       0.25000000      -0.25000000       0.16666667 </v>
   <v>       0.33333333      -0.25000000       0.16666667 </v>
   <v>       0.41666667      -0.25000000       0.16666667 </v>
   <v>       0.25000000      -0.16666667       0.16666667 </v>
   <v>       0.33333333      -0.16666667       0.16666667 </v>
   <v>       0.25000000      -0.08333333       0.16666667 </v>
   <v>       0.25000000       0.00000000       0.25000000 </v>
   <v>       0.33333333      -0.00000000       0.25000000 </v>
   <v>       0.41666667      -0.00000000       0.25000000 </v>
   <v>       0.50000000      -0.00000000       0.25000000 </v>
   <v>      -0.41666667       0.00000000       0.25000000 </v>
   <v>      -0.33333333       0.00000000       0.25000000 </v>
   <v>      -0.25000000       0.00000000       0.25000000 </v>
   <v>      -0.25000000       0.50000000       0.25000000 </v>
   <v>       0.33333333      -0.41666667       0.25000000 </v>
   <v>       0.33333333      -0.33333333       0.25000000 </v>
   <v>       0.41666667      -0.33333333       0.25000000 </v>
   <v>       0.33333333      -0.25000000       0.25000000 </v>
   <v>       0.41666667      -0.25000000       0.25000000 </v>
   <v>       0.50000000      -0.25000000       0.25000000 </v>
   <v>       0.33333333      -0.16666667       0.25000000 </v>
   <v>       0.41666667      -0.16666667       0.25000000 </v>
   <v>       0.33333333      -0.08333333       0.25000000 </v>
   <v>       0.33333333      -0.00000000       0.33333333 </v>
   <v>       0.41666667      -0.00000000       0.33333333 </v>
   <v>       0.50000000       0.00000000       0.33333333 </v>
   <v>      -0.41666667      -0.00000000       0.33333333 </v>
   <v>      -0.33333333      -0.00000000       0.33333333 </v>
   <v>       0.41666667      -0.25000000       0.33333333 </v>
   <v>       0.41666667      -0.16666667       0.33333333 </v>
   <v>       0.50000000      -0.16666667       0.33333333 </v>
   <v>       0.41666667      -0.08333333       0.33333333 </v>
   <v>       0.41666667      -0.00000000       0.41666667 </v>
   <v>       0.50000000       0.00000000       0.41666667 </v>
   <v>      -0.41666667      -0.00000000       0.41666667 </v>
   <v>       0.50000000      -0.08333333       0.41666667 </v>
   <v>       0.50000000       0.00000000       0.50000000 </v>
  </varray>
  <varray name="weights" >
   <v>       0.00057870 </v>
   <v>       0.00462963 </v>
   <v>       0.00462963 </v>
   <v>       0.00462963 </v>
   <v>       0.00462963 </v>
   <v>       0.00462963 </v>
   <v>       0.00231481 </v>
   <v>       0.00231481 </v>
   <v>       0.00925926 </v>
   <v>       0.00925926 </v>
   <v>       0.00925926 </v>
   <v>       0.00925926 </v>
   <v>       0.00925926 </v>
   <v>       0.00925926 </v>
   <v>       0.00925926 </v>
   <v>       0.00925926 </v>
   <v>       0.00925926 </v>
   <v>       0.00462963 </v>
   <v>       0.00231481 </v>
   <v>       0.00925926 </v>
   <v>       0.00925926 </v>
   <v>       0.00925926 </v>
   <v>       0.00925926 </v>
   <v>       0.00925926 </v>
   <v>       0.00925926 </v>
   <v>       0.00925926 </v>
   <v>       0.00462963 </v>
   <v>       0.00231481 </v>
   <v>       0.00925926 </v>
   <v>       0.00925926 </v>
   <v>       0.00925926 </v>
   <v>       0.00925926 </v>
   <v>       0.00925926 </v>
   <v>       0.00462963 </v>
   <v>       0.00231481 </v>
   <v>       0.00925926 </v>
   <v>       0.00925926 </v>
   <v>       0.00925926 </v>
   <v>       0.00462963 </v>
   <v>       0.00231481 </v>
   <v>       0.00925926 </v>
   <v>       0.00462963 </v>
   <v>       0.00115741 </v>
   <v>       0.00115741 </v>
   <v>       0.00462963 </v>
   <v>       0.00462963 </v>
   <v>       0.00462963 </v>
   <v>       0.00462963 </v>
   <v>       0.00462963 </v>
   <v>       0.00462963 </v>
   <v>       0.00462963 </v>
   <v>       0.00462963 </v>
   <v>       0.00462963 </v>
   <v>       0.00231481 </v>
   <v>       0.00462963 </v>
   <v>       0.00925926 </v>
   <v>       0.00925926 </v>
   <v>       0.00925926 </v>
   <v>       0.00462963 </v>
   <v>       0.00462963 </v>
   <v>       0.00462963 </v>
   <v>       0.00925926 </v>
   <v>       0.00925926 </v>
   <v>       0.00925926 </v>
   <v>       0.00925926 </v>
   <v>       0.00925926 </v>
   <v>       0.00462963 </v>
   <v>       0.00925926 </v>
   <v>       0.00462963 </v>
   <v>       0.00462963 </v>
   <v>       0.00925926 </v>
   <v>       0.00925926 </v>
   <v>       0.00925926 </v>
   <v>       0.00462963 </v>
   <v>       0.00925926 </v>
   <v>       0.00925926 </v>
   <v>       0.00462963 </v>
   <v>       0.00462963 </v>
   <v>       0.00925926 </v>
   <v>       0.00462963 </v>
   <v>       0.00925926 </v>
   <v>       0.00925926 </v>
   <v>       0.00925926 </v>
   <v>       0.00462963 </v>
   <v>       0.00231481 </v>
   <v>       0.00925926 </v>
   <v>       0.00925926 </v>
   <v>       0.00925926 </v>
   <v>       0.00925926 </v>
   <v>       0.00231481 </v>
   <v>       0.00925926 </v>
   <v>       0.00925926 </v>
   <v>       0.00925926 </v>
   <v>       0.00462963 </v>
   <v>       0.00925926 </v>
   <v>       0.00925926 </v>
   <v>       0.00462963 </v>
   <v>       0.00925926 </v>
   <v>       0.00462963 </v>
   <v>       0.00462963 </v>
   <v>       0.00115741 </v>
   <v>       0.00462963 </v>
   <v>       0.00462963 </v>
   <v>       0.00462963 </v>
   <v>       0.00462963 </v>
   <v>       0.00462963 </v>
   <v>       0.00462963 </v>
   <v>       0.00462963 </v>
   <v>       0.00231481 </v>
   <v>       0.00462963 </v>
   <v>       0.00925926 </v>
   <v>       0.00462963 </v>
   <v>       0.00462963 </v>
   <v>       0.00462963 </v>
   <v>       0.00925926 </v>
   <v>       0.00462963 </v>
   <v>       0.00925926 </v>
   <v>       0.00462963 </v>
   <v>       0.00231481 </v>
   <v>       0.00925926 </v>
   <v>       0.00925926 </v>
   <v>       0.00462963 </v>
   <v>       0.00925926 </v>
   <v>       0.00925926 </v>
   <v>       0.00925926 </v>
   <v>       0.00231481 </v>
   <v>       0.00925926 </v>
   <v>       0.00925926 </v>
   <v>       0.00462963 </v>
   <v>       0.00925926 </v>
   <v>       0.00462963 </v>
   <v>       0.00462963 </v>
   <v>       0.00115741 </v>
   <v>       0.00462963 </v>
   <v>       0.00462963 </v>
   <v>       0.00462963 </v>
   <v>       0.00462963 </v>
   <v>       0.00462963 </v>
   <v>       0.00231481 </v>
   <v>       0.00115741 </v>
   <v>       0.00462963 </v>
   <v>       0.00925926 </v>
   <v>       0.00462963 </v>
   <v>       0.00925926 </v>
   <v>       0.00925926 </v>
   <v>       0.00231481 </v>
   <v>       0.00925926 </v>
   <v>       0.00462963 </v>
   <v>       0.00462963 </v>
   <v>       0.00115741 </v>
   <v>       0.00462963 </v>
   <v>       0.00462963 </v>
   <v>       0.00462963 </v>
   <v>       0.00231481 </v>
   <v>       0.00462963 </v>
   <v>       0.00925926 </v>
   <v>       0.00231481 </v>
   <v>       0.00462963 </v>
   <v>       0.00115741 </v>
   <v>       0.00462963 </v>
   <v>       0.00231481 </v>
   <v>       0.00231481 </v>
   <v>       0.00057870 </v>
  </varray>
 </kpoints>
 <parameters>
  <separator name="general" >
   <i type="string" name="SYSTEM">unknown system</i>
   <i type="logical" name="LCOMPAT"> F  </i>
  </separator>
  <separator name="electronic" >
   <i type="string" name="PREC">accura</i>
   <i name="ENMAX">    520.00000000</i>
   <i name="ENAUG">    605.39200000</i>
   <i name="EDIFF">      0.00000001</i>
   <i type="int" name="IALGO">    38</i>
   <i type="int" name="IWAVPR">    11</i>
   <i type="int" name="NBANDS">    16</i>
   <i name="NELECT">     16.00000000</i>
   <i type="int" name="TURBO">     0</i>
   <i type="int" name="IRESTART">     0</i>
   <i type="int" name="NREBOOT">     0</i>
   <i type="int" name="NMIN">     0</i>
   <i name="EREF">      0.00000000</i>
   <separator name="electronic smearing" >
    <i type="int" name="ISMEAR">     0</i>
    <i name="SIGMA">      0.01000000</i>
    <i name="KSPACING">      0.50000000</i>
    <i type="logical" name="KGAMMA"> T  </i>
   </separator>
   <separator name="electronic projectors" >
    <i type="logical" name="LREAL"> F  </i>
    <v name="ROPT">      0.00000000      0.00000000</v>
    <i type="int" name="LMAXPAW">  -100</i>
    <i type="int" name="LMAXMIX">     2</i>
    <i type="logical" name="NLSPLINE"> F  </i>
   </separator>
   <separator name="electronic startup" >
    <i type="int" name="ISTART">     0</i>
    <i type="int" name="ICHARG">     2</i>
    <i type="int" name="INIWAV">     1</i>
   </separator>
   <separator name="electronic spin" >
    <i type="int" name="ISPIN">     1</i>
    <i type="logical" name="LNONCOLLINEAR"> F  </i>
    <v name="MAGMOM">      1.00000000      1.00000000</v>
    <i name="NUPDOWN">     -1.00000000</i>
    <i type="logical" name="LSORBIT"> F  </i>
    <v name="SAXIS">      0.00000000      0.00000000      1.00000000</v>
    <i type="logical" name="LSPIRAL"> F  </i>
    <v name="QSPIRAL">      0.00000000      0.00000000      0.00000000</v>
    <i type="logical" name="LZEROZ"> F  </i>
   </separator>
   <separator name="electronic exchange-correlation" >
    <i type="logical" name="LASPH"> F  </i>
    <i type="logical" name="LMETAGGA"> F  </i>
   </separator>
   <separator name="electronic convergence" >
    <i type="int" name="NELM">   100</i>
    <i type="int" name="NELMDL">    -5</i>
    <i type="int" name="NELMIN">     2</i>
    <i name="ENINI">    520.00000000</i>
    <separator name="electronic convergence detail" >
     <i type="logical" name="LDIAG"> T  </i>
     <i type="logical" name="LSUBROT"> F  </i>
     <i name="WEIMIN">      0.00100000</i>
     <i name="EBREAK">      0.00000000</i>
     <i name="DEPER">      0.30000000</i>
     <i type="int" name="NRMM">     4</i>
     <i name="TIME">      0.40000000</i>
    </separator>
   </separator>
   <separator name="electronic mixer" >
    <i name="AMIX">      0.40000000</i>
    <i name="BMIX">      1.00000000</i>
    <i name="AMIN">      0.10000000</i>
    <i name="AMIX_MAG">      1.60000000</i>
    <i name="BMIX_MAG">      1.00000000</i>
    <separator name="electronic mixer details" >
     <i type="int" name="IMIX">     4</i>
     <i type="logical" name="MIXFIRST"> F  </i>
     <i type="int" name="MAXMIX">   -45</i>
     <i name="WC">    100.00000000</i>
     <i type="int" name="INIMIX">     1</i>
     <i type="int" name="MIXPRE">     1</i>
     <i type="int" name="MREMOVE">     5</i>
    </separator>
   </separator>
   <separator name="electronic dipolcorrection" >
    <i type="logical" name="LDIPOL"> F  </i>
    <i type="logical" name="LMONO"> F  </i>
    <i type="int" name="IDIPOL">     0</i>
    <i name="EPSILON">      1.00000000</i>
    <v name="DIPOL">   -100.00000000   -100.00000000   -100.00000000</v>
    <i name="EFIELD">      0.00000000</i>
   </separator>
  </separator>
  <separator name="grids" >
   <i type="int" name="NGX">    28</i>
   <i type="int" name="NGY">    28</i>
   <i type="int" name="NGZ">    28</i>
   <i type="int" name="NGXF">    56</i>
   <i type="int" name="NGYF">    56</i>
   <i type="int" name="NGZF">    56</i>
   <i type="logical" name="ADDGRID"> F  </i>
  </separator>
  <separator name="ionic" >
   <i type="int" name="NSW">     1</i>
   <i type="int" name="IBRION">     8</i>
   <i type="int" name="MDALGO">     0</i>
   <i type="int" name="ISIF">     2</i>
   <i name="PSTRESS">      0.00000000</i>
   <i name="EDIFFG">      0.00000010</i>
   <i type="int" name="NFREE">     0</i>
   <i name="POTIM">      0.50000000</i>
   <i name="SMASS">     -3.00000000</i>
   <i name="SCALEE">      1.00000000</i>
  </separator>
  <separator name="ionic md" >
   <i name="TEBEG">      0.00010000</i>
   <i name="TEEND">      0.00010000</i>
   <i type="int" name="NBLOCK">     1</i>
   <i type="int" name="KBLOCK">     1</i>
   <i type="int" name="NPACO">   256</i>
   <i name="APACO">     16.00000000</i>
  </separator>
  <separator name="symmetry" >
   <i type="int" name="ISYM">     2</i>
   <i name="SYMPREC">      0.00000001</i>
  </separator>
  <separator name="dos" >
   <i type="int" name="LORBIT">     0</i>
   <v name="RWIGS">     -1.00000000     -1.00000000</v>
   <i type="int" name="NEDOS">   301</i>
   <i name="EMIN">     10.00000000</i>
   <i name="EMAX">    -10.00000000</i>
   <i name="EFERMI">      0.00000000</i>
  </separator>
  <separator name="writing" >
   <i type="int" name="NWRITE">     2</i>
   <i type="logical" name="LWAVE"> F  </i>
   <i type="logical" name="LDOWNSAMPLE"> F  </i>
   <i type="logical" name="LCHARG"> T  </i>
   <i type="logical" name="LPARD"> F  </i>
   <i type="logical" name="LVTOT"> F  </i>
   <i type="logical" name="LVHAR"> F  </i>
   <i type="logical" name="LELF"> F  </i>
   <i type="logical" name="LOPTICS"> F  </i>
   <v name="STM">      0.00000000      0.00000000      0.00000000      0.00000000      0.00000000      0.00000000      0.00000000</v>
  </separator>
  <separator name="performance" >
   <i type="int" name="NPAR">     8</i>
   <i type="int" name="NSIM">     4</i>
   <i type="int" name="NBLK">    -1</i>
   <i type="logical" name="LPLANE"> T  </i>
   <i type="logical" name="LSCALAPACK"> T  </i>
   <i type="logical" name="LSCAAWARE"> F  </i>
   <i type="logical" name="LSCALU"> F  </i>
   <i type="logical" name="LASYNC"> F  </i>
   <i type="logical" name="LORBITALREAL"> F  </i>
  </separator>
  <separator name="miscellaneous" >
   <i type="int" name="IDIOT">     3</i>
   <i type="int" name="ISPECIAL">     0</i>
   <i type="logical" name="LMUSIC"> F  </i>
   <v name="POMASS">     87.62000000     16.00000000</v>
   <v name="DARWINR">      0.00000000      0.00000000</v>
   <v name="DARWINV">      1.00000000      1.00000000</v>
   <i type="logical" name="LCORR"> T  </i>
  </separator>
  <i type="logical" name="GGA_COMPAT"> T  </i>
  <i type="logical" name="LBERRY"> F  </i>
  <i type="int" name="ICORELEVEL">     0</i>
  <i type="logical" name="LDAU"> F  </i>
  <i type="int" name="I_CONSTRAINED_M">     0</i>
  <separator name="electronic exchange-correlation" >
   <i type="string" name="GGA">--</i>
   <i type="int" name="VOSKOWN">     0</i>
   <i type="logical" name="LHFCALC"> F  </i>
   <i type="string" name="PRECFOCK"></i>
   <i type="logical" name="LSYMGRAD"> F  </i>
   <i type="logical" name="LHFONE"> F  </i>
   <i type="logical" name="LRHFCALC"> F  </i>
   <i type="logical" name="LTHOMAS"> F  </i>
   <i type="logical" name="LMODELHF"> F  </i>
   <i name="ENCUT4O">     -1.00000000</i>
   <i type="int" name="EXXOEP">     0</i>
   <i type="int" name="FOURORBIT">     0</i>
   <i name="AEXX">      0.00000000</i>
   <i name="HFALPHA">      0.00000000</i>
   <i name="MCALPHA">      0.00000000</i>
   <i name="ALDAX">      1.00000000</i>
   <i name="AGGAX">      1.00000000</i>
   <i name="ALDAC">      1.00000000</i>
   <i name="AGGAC">      1.00000000</i>
   <i type="int" name="NKREDX">     1</i>
   <i type="int" name="NKREDY">     1</i>
   <i type="int" name="NKREDZ">     1</i>
   <i type="logical" name="SHIFTRED"> F  </i>
   <i type="logical" name="ODDONLY"> F  </i>
   <i type="logical" name="EVENONLY"> F  </i>
   <i type="int" name="LMAXFOCK">     0</i>
   <i type="int" name="NMAXFOCKAE">     0</i>
   <i type="logical" name="LFOCKAEDFT"> F  </i>
   <i name="HFSCREEN">      0.00000000</i>
   <i name="HFSCREENC">      0.00000000</i>
   <i type="int" name="NBANDSGWLOW">     0</i>
  </separator>
  <separator name="vdW DFT" >
   <i type="logical" name="LUSE_VDW"> F  </i>
   <i name="Zab_VDW">     -0.84910000</i>
   <i name="PARAM1">      0.12340000</i>
   <i name="PARAM2">      1.00000000</i>
   <i name="PARAM3">      0.00000000</i>
  </separator>
  <separator name="model GW" >
   <i type="int" name="MODEL_GW">     0</i>
   <i name="MODEL_EPS0">     10.34951769</i>
   <i name="MODEL_ALPHA">      1.00000000</i>
  </separator>
  <separator name="linear response parameters" >
   <i type="logical" name="LEPSILON"> T  </i>
   <i type="logical" name="LRPA"> F  </i>
   <i type="logical" name="LNABLA"> F  </i>
   <i type="logical" name="LVEL"> F  </i>
   <i type="int" name="KINTER">     0</i>
   <i name="CSHIFT">      0.10000000</i>
   <i name="OMEGAMAX">     -1.00000000</i>
   <i name="DEG_THRESHOLD">      0.00200000</i>
   <i name="RTIME">     -0.10000000</i>
   <i name="WPLASMAI">      0.00000000</i>
   <v name="DFIELD">      0.00000000      0.00000000      0.00000000</v>
   <v name="WPLASMA">      0.00000000      0.00000000      0.00000000      0.00000000      0.00000000      0.00000000      0.00000000      0.00000000      0.00000000</v>
  </separator>
  <separator name="orbital magnetization" >
   <i type="logical" name="NUCIND"> F  </i>
   <v name="MAGPOS">      0.00000000      0.00000000      0.00000000</v>
   <i type="logical" name="LNICSALL"> T  </i>
   <i type="logical" name="ORBITALMAG"> F  </i>
   <i type="logical" name="LMAGBLOCH"> F  </i>
   <i type="logical" name="LCHIMAG"> F  </i>
   <i type="logical" name="LGAUGE"> T  </i>
   <i type="int" name="MAGATOM">     0</i>
   <v name="MAGDIPOL">      0.00000000      0.00000000      0.00000000</v>
   <v name="AVECCONST">      0.00000000      0.00000000      0.00000000</v>
  </separator>
  <separator name="response functions" >
   <i type="logical" name="LADDER"> F  </i>
   <i type="logical" name="LRPAFORCE"> F  </i>
   <i type="logical" name="LFXC"> F  </i>
   <i type="logical" name="LHARTREE"> T  </i>
   <i type="int" name="IBSE">     0</i>
   <v type="int" name="KPOINT">    -1     0     0     0</v>
   <i type="logical" name="LTCTE"> F  </i>
   <i type="logical" name="LTETE"> F  </i>
   <i type="logical" name="LTRIPLET"> F  </i>
   <i type="logical" name="LFXCEPS"> F  </i>
   <i type="logical" name="LFXHEG"> F  </i>
   <i type="int" name="NATURALO">     2</i>
   <i type="logical" name="L2ORDER"> F  </i>
   <i type="logical" name="LMP2LT"> F  </i>
   <i type="logical" name="LUSEW"> F  </i>
   <i name="ENCUTGW">     -2.00000000</i>
   <i name="ENCUTGWSOFT">     -2.00000000</i>
   <i name="ENCUTLF">     -1.00000000</i>
   <i type="int" name="LMAXMP2">    -1</i>
   <i name="SCISSOR">      0.00000000</i>
   <i type="int" name="NOMEGA">     0</i>
   <i type="int" name="NOMEGAR">     0</i>
   <i type="int" name="NBANDSGW">    -1</i>
   <i type="int" name="NBANDSO">    -1</i>
   <i type="int" name="NBANDSV">    -1</i>
   <i type="int" name="NELM">   100</i>
   <i type="int" name="NELMHF">     1</i>
   <i type="int" name="DIM">     3</i>
   <i type="int" name="ANTIRES">     0</i>
   <i name="OMEGAMAX">    -30.00000000</i>
   <i name="OMEGAMIN">    -30.00000000</i>
   <i name="OMEGATL">   -200.00000000</i>
   <i type="int" name="OMEGAGRID">   140</i>
   <i name="CSHIFT">     -0.10000000</i>
   <i type="logical" name="SELFENERGY"> F  </i>
   <i type="logical" name="LSPECTRAL"> F  </i>
   <i type="logical" name="LSPECTRALGW"> F  </i>
   <i type="logical" name="LSINGLES"> F  </i>
   <i type="logical" name="LFERMIGW"> F  </i>
   <i type="logical" name="ODDONLYGW"> F  </i>
   <i type="logical" name="EVENONLYGW"> F  </i>
   <i type="int" name="NKREDLFX">     1</i>
   <i type="int" name="NKREDLFY">     1</i>
   <i type="int" name="NKREDLFZ">     1</i>
   <i type="int" name="MAXMEM">  2800</i>
   <i type="int" name="TELESCOPE">     0</i>
   <i type="int" name="TAUPAR">     1</i>
   <i type="int" name="OMEGAPAR">    -1</i>
   <i name="LAMBDA">      1.00000000</i>
  </separator>
  <separator name="External order field" >
   <i name="OFIELD_KAPPA">      0.00000000</i>
   <v name="OFIELD_K">      0.00000000      0.00000000      0.00000000</v>
   <i name="OFIELD_Q6_NEAR">      0.00000000</i>
   <i name="OFIELD_Q6_FAR">      0.00000000</i>
   <i name="OFIELD_A">      0.00000000</i>
  </separator>
 </parameters>
 <atominfo>
  <atoms>       2 </atoms>
  <types>       2 </types>
  <array name="atoms" >
   <dimension dim="1">ion</dimension>
   <field type="string">element</field>
   <field type="int">atomtype</field>
   <set>
    <rc><c>Sr</c><c>   1</c></rc>
    <rc><c>O </c><c>   2</c></rc>
   </set>
  </array>
  <array name="atomtypes" >
   <dimension dim="1">type</dimension>
   <field type="int">atomspertype</field>
   <field type="string">element</field>
   <field>mass</field>
   <field>valence</field>
   <field type="string">pseudopotential</field>
   <set>
    <rc><c>   1</c><c>Sr</c><c>     87.62000000</c><c>     10.00000000</c><c>  PAW_PBE Sr_sv 07Sep2000               </c></rc>
    <rc><c>   1</c><c>O </c><c>     16.00000000</c><c>      6.00000000</c><c>  PAW_PBE O 08Apr2002                   </c></rc>
   </set>
  </array>
 </atominfo>
 <structure name="initialpos" >
  <crystal>
   <varray name="basis" >
    <v>      -2.58378449       0.00000000       2.58378449 </v>
    <v>       0.00000000       2.58378449       2.58378449 </v>
    <v>      -2.58378449       2.58378449       0.00000000 </v>
   </varray>
   <i name="volume">     34.49839231 </i>
   <varray name="rec_basis" >
    <v>      -0.19351459      -0.19351459       0.19351459 </v>
    <v>       0.19351459       0.19351459       0.19351459 </v>
    <v>      -0.19351459       0.19351459      -0.19351459 </v>
   </varray>
  </crystal>
  <varray name="positions" >
   <v>       0.49999996       0.50000004       0.49999996 </v>
   <v>       0.00000000       0.00000000       0.00000000 </v>
  </varray>
 </structure>
 <calculation>
  <scstep>
   <time name="dav">    1.03    1.04</time>
   <time name="total">    1.05    1.07</time>
   <energy>
    <i name="alphaZ">     97.68848316 </i>
    <i name="ewald">  -1050.96728182 </i>
    <i name="hartreedc">   -231.50580924 </i>
    <i name="XCdc">     63.34566645 </i>
    <i name="pawpsdc">    977.72344740 </i>
    <i name="pawaedc">   -965.54068582 </i>
    <i name="eentropy">     -0.00004180 </i>
    <i name="bandstr">   -105.27987670 </i>
    <i name="atom">   1275.38886407 </i>
    <i name="e_fr_energy">     60.85276570 </i>
    <i name="e_wo_entrp">     60.85280750 </i>
    <i name="e_0_energy">     60.85278660 </i>
   </energy>
  </scstep>
  <scstep>
   <time name="dav">    1.39    1.40</time>
   <time name="total">    1.39    1.40</time>
   <energy>
    <i name="e_fr_energy">    -11.01504865 </i>
    <i name="e_wo_entrp">    -11.01504865 </i>
    <i name="e_0_energy">    -11.01504865 </i>
   </energy>
  </scstep>
  <scstep>
   <time name="dav">    1.31    1.32</time>
   <time name="total">    1.31    1.32</time>
   <energy>
    <i name="e_fr_energy">    -14.19114808 </i>
    <i name="e_wo_entrp">    -14.19114808 </i>
    <i name="e_0_energy">    -14.19114808 </i>
   </energy>
  </scstep>
  <scstep>
   <time name="dav">    1.18    1.19</time>
   <time name="total">    1.18    1.19</time>
   <energy>
    <i name="e_fr_energy">    -14.25023215 </i>
    <i name="e_wo_entrp">    -14.25023215 </i>
    <i name="e_0_energy">    -14.25023215 </i>
   </energy>
  </scstep>
  <scstep>
   <time name="dav">    1.20    1.21</time>
   <time name="total">    1.25    1.26</time>
   <energy>
    <i name="e_fr_energy">    -14.25065380 </i>
    <i name="e_wo_entrp">    -14.25065380 </i>
    <i name="e_0_energy">    -14.25065380 </i>
   </energy>
  </scstep>
  <scstep>
   <time name="dav">    1.06    1.07</time>
   <time name="total">    1.13    1.14</time>
   <energy>
    <i name="e_fr_energy">    -12.20337460 </i>
    <i name="e_wo_entrp">    -12.20337460 </i>
    <i name="e_0_energy">    -12.20337460 </i>
   </energy>
  </scstep>
  <scstep>
   <time name="dav">    1.10    1.11</time>
   <time name="total">    1.16    1.18</time>
   <energy>
    <i name="e_fr_energy">    -12.05908022 </i>
    <i name="e_wo_entrp">    -12.05908022 </i>
    <i name="e_0_energy">    -12.05908022 </i>
   </energy>
  </scstep>
  <scstep>
   <time name="dav">    1.28    1.29</time>
   <time name="total">    1.38    1.39</time>
   <energy>
    <i name="e_fr_energy">    -12.04813697 </i>
    <i name="e_wo_entrp">    -12.04813697 </i>
    <i name="e_0_energy">    -12.04813697 </i>
   </energy>
  </scstep>
  <scstep>
   <time name="dav">    1.12    1.14</time>
   <time name="total">    1.19    1.21</time>
   <energy>
    <i name="e_fr_energy">    -12.04948143 </i>
    <i name="e_wo_entrp">    -12.04948143 </i>
    <i name="e_0_energy">    -12.04948143 </i>
   </energy>
  </scstep>
  <scstep>
   <time name="dav">    1.18    1.19</time>
   <time name="total">    1.25    1.26</time>
   <energy>
    <i name="e_fr_energy">    -12.04996454 </i>
    <i name="e_wo_entrp">    -12.04996454 </i>
    <i name="e_0_energy">    -12.04996454 </i>
   </energy>
  </scstep>
  <scstep>
   <time name="dav">    1.10    1.11</time>
   <time name="total">    1.18    1.19</time>
   <energy>
    <i name="e_fr_energy">    -12.05010775 </i>
    <i name="e_wo_entrp">    -12.05010775 </i>
    <i name="e_0_energy">    -12.05010775 </i>
   </energy>
  </scstep>
  <scstep>
   <time name="dav">    1.12    1.14</time>
   <time name="total">    1.19    1.21</time>
   <energy>
    <i name="e_fr_energy">    -12.05012545 </i>
    <i name="e_wo_entrp">    -12.05012545 </i>
    <i name="e_0_energy">    -12.05012545 </i>
   </energy>
  </scstep>
  <scstep>
   <time name="dav">    1.07    1.08</time>
   <time name="total">    1.15    1.16</time>
   <energy>
    <i name="e_fr_energy">    -12.05012528 </i>
    <i name="e_wo_entrp">    -12.05012528 </i>
    <i name="e_0_energy">    -12.05012528 </i>
   </energy>
  </scstep>
  <scstep>
   <time name="dav">    1.31    1.32</time>
   <time name="total">    1.39    1.40</time>
   <energy>
    <i name="e_fr_energy">    -12.05012503 </i>
    <i name="e_wo_entrp">    -12.05012503 </i>
    <i name="e_0_energy">    -12.05012503 </i>
   </energy>
  </scstep>
  <scstep>
   <time name="dav">    0.93    0.94</time>
   <time name="total">    1.02    1.04</time>
   <energy>
    <i name="e_fr_energy">    -12.05012505 </i>
    <i name="e_wo_entrp">    -12.05012505 </i>
    <i name="e_0_energy">    -12.05012505 </i>
   </energy>
  </scstep>
  <scstep>
   <time name="dav">    0.78    0.79</time>
   <time name="total">    0.85    0.86</time>
   <energy>
    <i name="e_fr_energy">    -12.05012506 </i>
    <i name="e_wo_entrp">    -12.05012506 </i>
    <i name="e_0_energy">    -12.05012506 </i>
   </energy>
  </scstep>
  <scstep>
   <time name="dav">    0.76    0.76</time>
   <time name="total">    0.77    0.78</time>
   <energy>
    <i name="alphaZ">     97.68848316 </i>
    <i name="ewald">  -1050.96728182 </i>
    <i name="hartreedc">   -244.85480604 </i>
    <i name="XCdc">     64.27046576 </i>
    <i name="pawpsdc">   2346.34502523 </i>
    <i name="pawaedc">  -2339.38623194 </i>
    <i name="eentropy">     -0.00000000 </i>
    <i name="bandstr">   -160.53464349 </i>
    <i name="atom">   1275.38886407 </i>
    <i name="e_fr_energy">    -12.05012506 </i>
    <i name="e_wo_entrp">    -12.05012506 </i>
    <i name="e_0_energy">    -12.05012506 </i>
   </energy>
  </scstep>
  <structure>
   <crystal>
    <varray name="basis" >
     <v>      -2.58378449       0.00000000       2.58378449 </v>
     <v>       0.00000000       2.58378449       2.58378449 </v>
     <v>      -2.58378449       2.58378449       0.00000000 </v>
    </varray>
    <i name="volume">     34.49839231 </i>
    <varray name="rec_basis" >
     <v>      -0.19351459      -0.19351459       0.19351459 </v>
     <v>       0.19351459       0.19351459       0.19351459 </v>
     <v>      -0.19351459       0.19351459      -0.19351459 </v>
    </varray>
   </crystal>
   <varray name="positions" >
    <v>       0.49999996       0.50000004       0.49999996 </v>
    <v>       0.00000000       0.00000000       0.00000000 </v>
   </varray>
  </structure>
  <varray name="forces" >
   <v>      -0.00000044       0.00000000      -0.00000000 </v>
   <v>       0.00000044      -0.00000000       0.00000000 </v>
  </varray>
  <varray name="stress" >
   <v>      19.34715652       0.00000000       0.00000000 </v>
   <v>      -0.00000000      19.34715829      -0.00000000 </v>
   <v>       0.00000000      -0.00000000      19.34715829 </v>
  </varray>
  <energy>
   <i name="e_fr_energy">    -12.05012506 </i>
   <i name="e_wo_entrp">    -12.05012506 </i>
   <i name="e_0_energy">     -0.00000000 </i>
  </energy>
  <scstep>
   <time name="total">    0.95    0.95</time>
   <energy>
    <i name="e_fr_energy">     -0.26046468 </i>
    <i name="e_wo_entrp">     -0.26046468 </i>
    <i name="e_0_energy">     -0.26046468 </i>
   </energy>
  </scstep>
  <scstep>
   <time name="total">    0.97    0.97</time>
   <energy>
    <i name="e_fr_energy">     -0.27827559 </i>
    <i name="e_wo_entrp">     -0.27827559 </i>
    <i name="e_0_energy">     -0.27827559 </i>
   </energy>
  </scstep>
  <scstep>
   <time name="total">    0.97    0.97</time>
   <energy>
    <i name="e_fr_energy">     -0.28112282 </i>
    <i name="e_wo_entrp">     -0.28112282 </i>
    <i name="e_0_energy">     -0.28112282 </i>
   </energy>
  </scstep>
  <scstep>
   <time name="total">    0.96    0.98</time>
   <energy>
    <i name="e_fr_energy">     -0.28155531 </i>
    <i name="e_wo_entrp">     -0.28155531 </i>
    <i name="e_0_energy">     -0.28155531 </i>
   </energy>
  </scstep>
  <scstep>
   <time name="total">    0.91    0.91</time>
   <energy>
    <i name="e_fr_energy">     -0.28159958 </i>
    <i name="e_wo_entrp">     -0.28159958 </i>
    <i name="e_0_energy">     -0.28159958 </i>
   </energy>
  </scstep>
  <scstep>
   <time name="total">    0.94    0.94</time>
   <energy>
    <i name="e_fr_energy">     -0.28160620 </i>
    <i name="e_wo_entrp">     -0.28160620 </i>
    <i name="e_0_energy">     -0.28160620 </i>
   </energy>
  </scstep>
  <scstep>
   <time name="total">    0.93    0.94</time>
   <energy>
    <i name="e_fr_energy">     -0.28160693 </i>
    <i name="e_wo_entrp">     -0.28160693 </i>
    <i name="e_0_energy">     -0.28160693 </i>
   </energy>
  </scstep>
  <scstep>
   <time name="total">    0.89    0.89</time>
   <energy>
    <i name="e_fr_energy">     -0.28160704 </i>
    <i name="e_wo_entrp">     -0.28160704 </i>
    <i name="e_0_energy">     -0.28160704 </i>
   </energy>
  </scstep>
  <scstep>
   <time name="total">    0.93    0.94</time>
   <energy>
    <i name="e_fr_energy">     -0.28160706 </i>
    <i name="e_wo_entrp">     -0.28160706 </i>
    <i name="e_0_energy">     -0.28160706 </i>
   </energy>
  </scstep>
  <scstep>
   <time name="total">    0.83    0.83</time>
   <energy>
    <i name="e_fr_energy">     -0.28160706 </i>
    <i name="e_wo_entrp">     -0.28160706 </i>
    <i name="e_0_energy">     -0.28160706 </i>
   </energy>
  </scstep>
  <scstep>
   <time name="total">    0.96    0.98</time>
   <energy>
    <i name="e_fr_energy">     -0.26645006 </i>
    <i name="e_wo_entrp">     -0.26645006 </i>
    <i name="e_0_energy">     -0.26645006 </i>
   </energy>
  </scstep>
  <scstep>
   <time name="total">    0.98    0.98</time>
   <energy>
    <i name="e_fr_energy">     -0.28455332 </i>
    <i name="e_wo_entrp">     -0.28455332 </i>
    <i name="e_0_energy">     -0.28455332 </i>
   </energy>
  </scstep>
  <scstep>
   <time name="total">    0.98    0.98</time>
   <energy>
    <i name="e_fr_energy">     -0.28730374 </i>
    <i name="e_wo_entrp">     -0.28730374 </i>
    <i name="e_0_energy">     -0.28730374 </i>
   </energy>
  </scstep>
  <scstep>
   <time name="total">    0.98    0.98</time>
   <energy>
    <i name="e_fr_energy">     -0.28775387 </i>
    <i name="e_wo_entrp">     -0.28775387 </i>
    <i name="e_0_energy">     -0.28775387 </i>
   </energy>
  </scstep>
  <scstep>
   <time name="total">    0.96    0.96</time>
   <energy>
    <i name="e_fr_energy">     -0.28779987 </i>
    <i name="e_wo_entrp">     -0.28779987 </i>
    <i name="e_0_energy">     -0.28779987 </i>
   </energy>
  </scstep>
  <scstep>
   <time name="total">    0.98    0.99</time>
   <energy>
    <i name="e_fr_energy">     -0.28780718 </i>
    <i name="e_wo_entrp">     -0.28780718 </i>
    <i name="e_0_energy">     -0.28780718 </i>
   </energy>
  </scstep>
  <scstep>
   <time name="total">    0.96    0.97</time>
   <energy>
    <i name="e_fr_energy">     -0.28780802 </i>
    <i name="e_wo_entrp">     -0.28780802 </i>
    <i name="e_0_energy">     -0.28780802 </i>
   </energy>
  </scstep>
  <scstep>
   <time name="total">    0.98    0.98</time>
   <energy>
    <i name="e_fr_energy">     -0.28780817 </i>
    <i name="e_wo_entrp">     -0.28780817 </i>
    <i name="e_0_energy">     -0.28780817 </i>
   </energy>
  </scstep>
  <scstep>
   <time name="total">    0.91    0.91</time>
   <energy>
    <i name="e_fr_energy">     -0.28780819 </i>
    <i name="e_wo_entrp">     -0.28780819 </i>
    <i name="e_0_energy">     -0.28780819 </i>
   </energy>
  </scstep>
  <scstep>
   <time name="total">    0.85    0.85</time>
   <energy>
    <i name="e_fr_energy">     -0.28780819 </i>
    <i name="e_wo_entrp">     -0.28780819 </i>
    <i name="e_0_energy">     -0.28780819 </i>
   </energy>
  </scstep>
  <scstep>
   <time name="total">    0.93    0.93</time>
   <energy>
    <i name="e_fr_energy">     -0.25444436 </i>
    <i name="e_wo_entrp">     -0.25444436 </i>
    <i name="e_0_energy">     -0.25444436 </i>
   </energy>
  </scstep>
  <scstep>
   <time name="total">    0.98    0.99</time>
   <energy>
    <i name="e_fr_energy">     -0.27203669 </i>
    <i name="e_wo_entrp">     -0.27203669 </i>
    <i name="e_0_energy">     -0.27203669 </i>
   </energy>
  </scstep>
  <scstep>
   <time name="total">    0.97    0.97</time>
   <energy>
    <i name="e_fr_energy">     -0.27497712 </i>
    <i name="e_wo_entrp">     -0.27497712 </i>
    <i name="e_0_energy">     -0.27497712 </i>
   </energy>
  </scstep>
  <scstep>
   <time name="total">    0.93    0.94</time>
   <energy>
    <i name="e_fr_energy">     -0.27539218 </i>
    <i name="e_wo_entrp">     -0.27539218 </i>
    <i name="e_0_energy">     -0.27539218 </i>
   </energy>
  </scstep>
  <scstep>
   <time name="total">    0.90    0.90</time>
   <energy>
    <i name="e_fr_energy">     -0.27543467 </i>
    <i name="e_wo_entrp">     -0.27543467 </i>
    <i name="e_0_energy">     -0.27543467 </i>
   </energy>
  </scstep>
  <scstep>
   <time name="total">    0.93    0.93</time>
   <energy>
    <i name="e_fr_energy">     -0.27544058 </i>
    <i name="e_wo_entrp">     -0.27544058 </i>
    <i name="e_0_energy">     -0.27544058 </i>
   </energy>
  </scstep>
  <scstep>
   <time name="total">    0.95    0.96</time>
   <energy>
    <i name="e_fr_energy">     -0.27544120 </i>
    <i name="e_wo_entrp">     -0.27544120 </i>
    <i name="e_0_energy">     -0.27544120 </i>
   </energy>
  </scstep>
  <scstep>
   <time name="total">    0.91    0.91</time>
   <energy>
    <i name="e_fr_energy">     -0.27544128 </i>
    <i name="e_wo_entrp">     -0.27544128 </i>
    <i name="e_0_energy">     -0.27544128 </i>
   </energy>
  </scstep>
  <scstep>
   <time name="total">    0.92    0.93</time>
   <energy>
    <i name="e_fr_energy">     -0.27544129 </i>
    <i name="e_wo_entrp">     -0.27544129 </i>
    <i name="e_0_energy">     -0.27544129 </i>
   </energy>
  </scstep>
  <scstep>
   <time name="total">    0.87    0.87</time>
   <energy>
    <i name="e_fr_energy">     -0.27544129 </i>
    <i name="e_wo_entrp">     -0.27544129 </i>
    <i name="e_0_energy">     -0.27544129 </i>
   </energy>
  </scstep>
  <varray name="epsilon_rpa" >
   <v>       3.95420424      -0.00000000       0.00000000 </v>
   <v>      -0.00000000       3.95438967      -0.00000000 </v>
   <v>       0.00000000      -0.00000000       3.95438967 </v>
  </varray>
  <kpoints>
   <generation param="Gamma">
    <v type="int" name="divisions">      12       12       12 </v>
    <v name="usershift">      0.00000000       0.00000000       0.00000000 </v>
    <v name="genvec1">      0.08333333       0.00000000       0.00000000 </v>
    <v name="genvec2">      0.00000000       0.08333333      -0.00000000 </v>
    <v name="genvec3">     -0.00000000      -0.00000000       0.08333333 </v>
    <v name="shift">      0.00000000       0.00000000       0.00000000 </v>
   </generation>
   <varray name="kpointlist" >
    <v>       0.00000000       0.00000000       0.00000000 </v>
    <v>       0.08333333       0.00000000       0.00000000 </v>
    <v>       0.16666667       0.00000000       0.00000000 </v>
    <v>       0.25000000      -0.00000000      -0.00000000 </v>
    <v>       0.33333333      -0.00000000      -0.00000000 </v>
    <v>       0.41666667       0.00000000       0.00000000 </v>
    <v>       0.50000000      -0.00000000      -0.00000000 </v>
    <v>       0.08333333       0.08333333      -0.00000000 </v>
    <v>       0.16666667       0.08333333      -0.00000000 </v>
    <v>       0.25000000       0.08333333       0.00000000 </v>
    <v>       0.33333333       0.08333333      -0.00000000 </v>
    <v>       0.41666667       0.08333333       0.00000000 </v>
    <v>       0.50000000       0.08333333       0.00000000 </v>
    <v>      -0.41666667       0.08333333      -0.00000000 </v>
    <v>      -0.33333333       0.08333333       0.00000000 </v>
    <v>      -0.25000000       0.08333333       0.00000000 </v>
    <v>      -0.16666667       0.08333333      -0.00000000 </v>
    <v>      -0.08333333       0.08333333      -0.00000000 </v>
    <v>       0.16666667       0.16666667      -0.00000000 </v>
    <v>       0.25000000       0.16666667      -0.00000000 </v>
    <v>       0.33333333       0.16666667       0.00000000 </v>
    <v>       0.41666667       0.16666667      -0.00000000 </v>
    <v>       0.50000000       0.16666667      -0.00000000 </v>
    <v>      -0.41666667       0.16666667       0.00000000 </v>
    <v>      -0.33333333       0.16666667      -0.00000000 </v>
    <v>      -0.25000000       0.16666667      -0.00000000 </v>
    <v>      -0.16666667       0.16666667      -0.00000000 </v>
    <v>       0.25000000       0.25000000      -0.00000000 </v>
    <v>       0.33333333       0.25000000      -0.00000000 </v>
    <v>       0.41666667       0.25000000      -0.00000000 </v>
    <v>       0.50000000       0.25000000       0.00000000 </v>
    <v>      -0.41666667       0.25000000      -0.00000000 </v>
    <v>      -0.33333333       0.25000000      -0.00000000 </v>
    <v>      -0.25000000       0.25000000      -0.00000000 </v>
    <v>       0.33333333       0.33333333      -0.00000000 </v>
    <v>       0.41666667       0.33333333      -0.00000000 </v>
    <v>       0.50000000       0.33333333      -0.00000000 </v>
    <v>      -0.41666667       0.33333333      -0.00000000 </v>
    <v>      -0.33333333       0.33333333       0.00000000 </v>
    <v>       0.41666667       0.41666667      -0.00000000 </v>
    <v>       0.50000000       0.41666667      -0.00000000 </v>
    <v>      -0.41666667       0.41666667      -0.00000000 </v>
    <v>       0.50000000       0.50000000      -0.00000000 </v>
    <v>       0.08333333       0.00000000       0.08333333 </v>
    <v>       0.16666667      -0.00000000       0.08333333 </v>
    <v>       0.25000000       0.00000000       0.08333333 </v>
    <v>       0.33333333       0.00000000       0.08333333 </v>
    <v>       0.41666667       0.00000000       0.08333333 </v>
    <v>       0.50000000       0.00000000       0.08333333 </v>
    <v>      -0.41666667      -0.00000000       0.08333333 </v>
    <v>      -0.33333333      -0.00000000       0.08333333 </v>
    <v>      -0.25000000       0.00000000       0.08333333 </v>
    <v>      -0.16666667      -0.00000000       0.08333333 </v>
    <v>      -0.08333333      -0.00000000       0.08333333 </v>
    <v>       0.25000000       0.16666667       0.08333333 </v>
    <v>       0.33333333       0.16666667       0.08333333 </v>
    <v>       0.41666667       0.16666667       0.08333333 </v>
    <v>       0.50000000       0.16666667       0.08333333 </v>
    <v>      -0.41666667       0.16666667       0.08333333 </v>
    <v>       0.16666667       0.25000000       0.08333333 </v>
    <v>       0.33333333       0.25000000       0.08333333 </v>
    <v>       0.41666667       0.25000000       0.08333333 </v>
    <v>       0.50000000       0.25000000       0.08333333 </v>
    <v>      -0.41666667       0.25000000       0.08333333 </v>
    <v>      -0.33333333       0.25000000       0.08333333 </v>
    <v>      -0.25000000       0.25000000       0.08333333 </v>
    <v>      -0.16666667       0.25000000       0.08333333 </v>
    <v>       0.16666667       0.33333333       0.08333333 </v>
    <v>       0.25000000       0.33333333       0.08333333 </v>
    <v>       0.41666667       0.33333333       0.08333333 </v>
    <v>       0.50000000       0.33333333       0.08333333 </v>
    <v>      -0.41666667       0.33333333       0.08333333 </v>
    <v>      -0.33333333       0.33333333       0.08333333 </v>
    <v>      -0.25000000       0.33333333       0.08333333 </v>
    <v>       0.16666667       0.41666667       0.08333333 </v>
    <v>       0.25000000       0.41666667       0.08333333 </v>
    <v>       0.33333333       0.41666667       0.08333333 </v>
    <v>       0.50000000       0.41666667       0.08333333 </v>
    <v>      -0.41666667       0.41666667       0.08333333 </v>
    <v>      -0.33333333       0.41666667       0.08333333 </v>
    <v>       0.16666667       0.50000000       0.08333333 </v>
    <v>       0.25000000       0.50000000       0.08333333 </v>
    <v>       0.33333333       0.50000000       0.08333333 </v>
    <v>       0.41666667       0.50000000       0.08333333 </v>
    <v>      -0.41666667       0.50000000       0.08333333 </v>
    <v>       0.16666667      -0.41666667       0.08333333 </v>
    <v>       0.25000000      -0.41666667       0.08333333 </v>
    <v>       0.33333333      -0.41666667       0.08333333 </v>
    <v>       0.41666667      -0.41666667       0.08333333 </v>
    <v>       0.50000000      -0.41666667       0.08333333 </v>
    <v>       0.16666667      -0.33333333       0.08333333 </v>
    <v>       0.25000000      -0.33333333       0.08333333 </v>
    <v>       0.33333333      -0.33333333       0.08333333 </v>
    <v>       0.41666667      -0.33333333       0.08333333 </v>
    <v>       0.16666667      -0.25000000       0.08333333 </v>
    <v>       0.25000000      -0.25000000       0.08333333 </v>
    <v>       0.33333333      -0.25000000       0.08333333 </v>
    <v>       0.16666667      -0.16666667       0.08333333 </v>
    <v>       0.25000000      -0.16666667       0.08333333 </v>
    <v>       0.16666667      -0.08333333       0.08333333 </v>
    <v>       0.16666667      -0.00000000       0.16666667 </v>
    <v>       0.25000000       0.00000000       0.16666667 </v>
    <v>       0.33333333       0.00000000       0.16666667 </v>
    <v>       0.41666667       0.00000000       0.16666667 </v>
    <v>       0.50000000       0.00000000       0.16666667 </v>
    <v>      -0.41666667       0.00000000       0.16666667 </v>
    <v>      -0.33333333      -0.00000000       0.16666667 </v>
    <v>      -0.25000000      -0.00000000       0.16666667 </v>
    <v>      -0.16666667      -0.00000000       0.16666667 </v>
    <v>       0.50000000       0.33333333       0.16666667 </v>
    <v>      -0.41666667       0.33333333       0.16666667 </v>
    <v>      -0.33333333       0.33333333       0.16666667 </v>
    <v>       0.25000000       0.41666667       0.16666667 </v>
    <v>      -0.41666667       0.41666667       0.16666667 </v>
    <v>      -0.33333333       0.41666667       0.16666667 </v>
    <v>      -0.25000000       0.41666667       0.16666667 </v>
    <v>       0.25000000       0.50000000       0.16666667 </v>
    <v>       0.33333333       0.50000000       0.16666667 </v>
    <v>      -0.33333333       0.50000000       0.16666667 </v>
    <v>       0.25000000      -0.41666667       0.16666667 </v>
    <v>       0.33333333      -0.41666667       0.16666667 </v>
    <v>       0.41666667      -0.41666667       0.16666667 </v>
    <v>       0.25000000      -0.33333333       0.16666667 </v>
    <v>       0.33333333      -0.33333333       0.16666667 </v>
    <v>       0.41666667      -0.33333333       0.16666667 </v>
    <v>       0.50000000      -0.33333333       0.16666667 </v>
    <v>       0.25000000      -0.25000000       0.16666667 </v>
    <v>       0.33333333      -0.25000000       0.16666667 </v>
    <v>       0.41666667      -0.25000000       0.16666667 </v>
    <v>       0.25000000      -0.16666667       0.16666667 </v>
    <v>       0.33333333      -0.16666667       0.16666667 </v>
    <v>       0.25000000      -0.08333333       0.16666667 </v>
    <v>       0.25000000       0.00000000       0.25000000 </v>
    <v>       0.33333333      -0.00000000       0.25000000 </v>
    <v>       0.41666667      -0.00000000       0.25000000 </v>
    <v>       0.50000000      -0.00000000       0.25000000 </v>
    <v>      -0.41666667       0.00000000       0.25000000 </v>
    <v>      -0.33333333       0.00000000       0.25000000 </v>
    <v>      -0.25000000       0.00000000       0.25000000 </v>
    <v>      -0.25000000       0.50000000       0.25000000 </v>
    <v>       0.33333333      -0.41666667       0.25000000 </v>
    <v>       0.33333333      -0.33333333       0.25000000 </v>
    <v>       0.41666667      -0.33333333       0.25000000 </v>
    <v>       0.33333333      -0.25000000       0.25000000 </v>
    <v>       0.41666667      -0.25000000       0.25000000 </v>
    <v>       0.50000000      -0.25000000       0.25000000 </v>
    <v>       0.33333333      -0.16666667       0.25000000 </v>
    <v>       0.41666667      -0.16666667       0.25000000 </v>
    <v>       0.33333333      -0.08333333       0.25000000 </v>
    <v>       0.33333333      -0.00000000       0.33333333 </v>
    <v>       0.41666667      -0.00000000       0.33333333 </v>
    <v>       0.50000000       0.00000000       0.33333333 </v>
    <v>      -0.41666667      -0.00000000       0.33333333 </v>
    <v>      -0.33333333      -0.00000000       0.33333333 </v>
    <v>       0.41666667      -0.25000000       0.33333333 </v>
    <v>       0.41666667      -0.16666667       0.33333333 </v>
    <v>       0.50000000      -0.16666667       0.33333333 </v>
    <v>       0.41666667      -0.08333333       0.33333333 </v>
    <v>       0.41666667      -0.00000000       0.41666667 </v>
    <v>       0.50000000       0.00000000       0.41666667 </v>
    <v>      -0.41666667      -0.00000000       0.41666667 </v>
    <v>       0.50000000      -0.08333333       0.41666667 </v>
    <v>       0.50000000       0.00000000       0.50000000 </v>
   </varray>
   <varray name="weights" >
    <v>       0.00057870 </v>
    <v>       0.00462963 </v>
    <v>       0.00462963 </v>
    <v>       0.00462963 </v>
    <v>       0.00462963 </v>
    <v>       0.00462963 </v>
    <v>       0.00231481 </v>
    <v>       0.00231481 </v>
    <v>       0.00925926 </v>
    <v>       0.00925926 </v>
    <v>       0.00925926 </v>
    <v>       0.00925926 </v>
    <v>       0.00925926 </v>
    <v>       0.00925926 </v>
    <v>       0.00925926 </v>
    <v>       0.00925926 </v>
    <v>       0.00925926 </v>
    <v>       0.00462963 </v>
    <v>       0.00231481 </v>
    <v>       0.00925926 </v>
    <v>       0.00925926 </v>
    <v>       0.00925926 </v>
    <v>       0.00925926 </v>
    <v>       0.00925926 </v>
    <v>       0.00925926 </v>
    <v>       0.00925926 </v>
    <v>       0.00462963 </v>
    <v>       0.00231481 </v>
    <v>       0.00925926 </v>
    <v>       0.00925926 </v>
    <v>       0.00925926 </v>
    <v>       0.00925926 </v>
    <v>       0.00925926 </v>
    <v>       0.00462963 </v>
    <v>       0.00231481 </v>
    <v>       0.00925926 </v>
    <v>       0.00925926 </v>
    <v>       0.00925926 </v>
    <v>       0.00462963 </v>
    <v>       0.00231481 </v>
    <v>       0.00925926 </v>
    <v>       0.00462963 </v>
    <v>       0.00115741 </v>
    <v>       0.00115741 </v>
    <v>       0.00462963 </v>
    <v>       0.00462963 </v>
    <v>       0.00462963 </v>
    <v>       0.00462963 </v>
    <v>       0.00462963 </v>
    <v>       0.00462963 </v>
    <v>       0.00462963 </v>
    <v>       0.00462963 </v>
    <v>       0.00462963 </v>
    <v>       0.00231481 </v>
    <v>       0.00462963 </v>
    <v>       0.00925926 </v>
    <v>       0.00925926 </v>
    <v>       0.00925926 </v>
    <v>       0.00462963 </v>
    <v>       0.00462963 </v>
    <v>       0.00462963 </v>
    <v>       0.00925926 </v>
    <v>       0.00925926 </v>
    <v>       0.00925926 </v>
    <v>       0.00925926 </v>
    <v>       0.00925926 </v>
    <v>       0.00462963 </v>
    <v>       0.00925926 </v>
    <v>       0.00462963 </v>
    <v>       0.00462963 </v>
    <v>       0.00925926 </v>
    <v>       0.00925926 </v>
    <v>       0.00925926 </v>
    <v>       0.00462963 </v>
    <v>       0.00925926 </v>
    <v>       0.00925926 </v>
    <v>       0.00462963 </v>
    <v>       0.00462963 </v>
    <v>       0.00925926 </v>
    <v>       0.00462963 </v>
    <v>       0.00925926 </v>
    <v>       0.00925926 </v>
    <v>       0.00925926 </v>
    <v>       0.00462963 </v>
    <v>       0.00231481 </v>
    <v>       0.00925926 </v>
    <v>       0.00925926 </v>
    <v>       0.00925926 </v>
    <v>       0.00925926 </v>
    <v>       0.00231481 </v>
    <v>       0.00925926 </v>
    <v>       0.00925926 </v>
    <v>       0.00925926 </v>
    <v>       0.00462963 </v>
    <v>       0.00925926 </v>
    <v>       0.00925926 </v>
    <v>       0.00462963 </v>
    <v>       0.00925926 </v>
    <v>       0.00462963 </v>
    <v>       0.00462963 </v>
    <v>       0.00115741 </v>
    <v>       0.00462963 </v>
    <v>       0.00462963 </v>
    <v>       0.00462963 </v>
    <v>       0.00462963 </v>
    <v>       0.00462963 </v>
    <v>       0.00462963 </v>
    <v>       0.00462963 </v>
    <v>       0.00231481 </v>
    <v>       0.00462963 </v>
    <v>       0.00925926 </v>
    <v>       0.00462963 </v>
    <v>       0.00462963 </v>
    <v>       0.00462963 </v>
    <v>       0.00925926 </v>
    <v>       0.00462963 </v>
    <v>       0.00925926 </v>
    <v>       0.00462963 </v>
    <v>       0.00231481 </v>
    <v>       0.00925926 </v>
    <v>       0.00925926 </v>
    <v>       0.00462963 </v>
    <v>       0.00925926 </v>
    <v>       0.00925926 </v>
    <v>       0.00925926 </v>
    <v>       0.00231481 </v>
    <v>       0.00925926 </v>
    <v>       0.00925926 </v>
    <v>       0.00462963 </v>
    <v>       0.00925926 </v>
    <v>       0.00462963 </v>
    <v>       0.00462963 </v>
    <v>       0.00115741 </v>
    <v>       0.00462963 </v>
    <v>       0.00462963 </v>
    <v>       0.00462963 </v>
    <v>       0.00462963 </v>
    <v>       0.00462963 </v>
    <v>       0.00231481 </v>
    <v>       0.00115741 </v>
    <v>       0.00462963 </v>
    <v>       0.00925926 </v>
    <v>       0.00462963 </v>
    <v>       0.00925926 </v>
    <v>       0.00925926 </v>
    <v>       0.00231481 </v>
    <v>       0.00925926 </v>
    <v>       0.00462963 </v>
    <v>       0.00462963 </v>
    <v>       0.00115741 </v>
    <v>       0.00462963 </v>
    <v>       0.00462963 </v>
    <v>       0.00462963 </v>
    <v>       0.00231481 </v>
    <v>       0.00462963 </v>
    <v>       0.00925926 </v>
    <v>       0.00231481 </v>
    <v>       0.00462963 </v>
    <v>       0.00115741 </v>
    <v>       0.00462963 </v>
    <v>       0.00231481 </v>
    <v>       0.00231481 </v>
    <v>       0.00057870 </v>
   </varray>
  </kpoints>
  <scstep>
   <time name="total">    0.95    0.96</time>
   <energy>
    <i name="e_fr_energy">     -0.26046468 </i>
    <i name="e_wo_entrp">     -0.26046468 </i>
    <i name="e_0_energy">     -0.26046468 </i>
   </energy>
  </scstep>
  <scstep>
   <time name="total">    1.12    1.12</time>
   <energy>
    <i name="e_fr_energy">     -0.27827559 </i>
    <i name="e_wo_entrp">     -0.27827559 </i>
    <i name="e_0_energy">     -0.27827559 </i>
   </energy>
  </scstep>
  <scstep>
   <time name="total">    1.26    1.26</time>
   <energy>
    <i name="e_fr_energy">     -0.27317520 </i>
    <i name="e_wo_entrp">     -0.27317520 </i>
    <i name="e_0_energy">     -0.27317520 </i>
   </energy>
  </scstep>
  <scstep>
   <time name="total">    1.45    1.46</time>
   <energy>
    <i name="e_fr_energy">     -0.28624359 </i>
    <i name="e_wo_entrp">     -0.28624359 </i>
    <i name="e_0_energy">     -0.28624359 </i>
   </energy>
  </scstep>
  <scstep>
   <time name="total">    1.43    1.44</time>
   <energy>
    <i name="e_fr_energy">     -0.29402060 </i>
    <i name="e_wo_entrp">     -0.29402060 </i>
    <i name="e_0_energy">     -0.29402060 </i>
   </energy>
  </scstep>
  <scstep>
   <time name="total">    1.53    1.54</time>
   <energy>
    <i name="e_fr_energy">     -0.29472166 </i>
    <i name="e_wo_entrp">     -0.29472166 </i>
    <i name="e_0_energy">     -0.29472166 </i>
   </energy>
  </scstep>
  <scstep>
   <time name="total">    1.48    1.49</time>
   <energy>
    <i name="e_fr_energy">     -0.29538735 </i>
    <i name="e_wo_entrp">     -0.29538735 </i>
    <i name="e_0_energy">     -0.29538735 </i>
   </energy>
  </scstep>
  <scstep>
   <time name="total">    1.50    1.51</time>
   <energy>
    <i name="e_fr_energy">     -0.29539119 </i>
    <i name="e_wo_entrp">     -0.29539119 </i>
    <i name="e_0_energy">     -0.29539119 </i>
   </energy>
  </scstep>
  <scstep>
   <time name="total">    1.52    1.52</time>
   <energy>
    <i name="e_fr_energy">     -0.29541771 </i>
    <i name="e_wo_entrp">     -0.29541771 </i>
    <i name="e_0_energy">     -0.29541771 </i>
   </energy>
  </scstep>
  <scstep>
   <time name="total">    1.52    1.53</time>
   <energy>
    <i name="e_fr_energy">     -0.29542632 </i>
    <i name="e_wo_entrp">     -0.29542632 </i>
    <i name="e_0_energy">     -0.29542632 </i>
   </energy>
  </scstep>
  <scstep>
   <time name="total">    1.43    1.44</time>
   <energy>
    <i name="e_fr_energy">     -0.29542808 </i>
    <i name="e_wo_entrp">     -0.29542808 </i>
    <i name="e_0_energy">     -0.29542808 </i>
   </energy>
  </scstep>
  <scstep>
   <time name="total">    1.44    1.45</time>
   <energy>
    <i name="e_fr_energy">     -0.29542816 </i>
    <i name="e_wo_entrp">     -0.29542816 </i>
    <i name="e_0_energy">     -0.29542816 </i>
   </energy>
  </scstep>
  <scstep>
   <time name="total">    1.40    1.40</time>
   <energy>
    <i name="e_fr_energy">     -0.29542816 </i>
    <i name="e_wo_entrp">     -0.29542816 </i>
    <i name="e_0_energy">     -0.29542816 </i>
   </energy>
  </scstep>
  <kpoints>
   <generation param="Gamma">
    <v type="int" name="divisions">      12       12       12 </v>
    <v name="usershift">      0.00000000       0.00000000       0.00000000 </v>
    <v name="genvec1">      0.08333333       0.00000000       0.00000000 </v>
    <v name="genvec2">      0.00000000       0.08333333      -0.00000000 </v>
    <v name="genvec3">     -0.00000000      -0.00000000       0.08333333 </v>
    <v name="shift">      0.00000000       0.00000000       0.00000000 </v>
   </generation>
   <varray name="kpointlist" >
    <v>       0.00000000       0.00000000       0.00000000 </v>
    <v>       0.08333333       0.00000000       0.00000000 </v>
    <v>       0.16666667       0.00000000       0.00000000 </v>
    <v>       0.25000000      -0.00000000      -0.00000000 </v>
    <v>       0.33333333      -0.00000000      -0.00000000 </v>
    <v>       0.41666667       0.00000000       0.00000000 </v>
    <v>       0.50000000      -0.00000000      -0.00000000 </v>
    <v>       0.08333333       0.08333333      -0.00000000 </v>
    <v>       0.16666667       0.08333333      -0.00000000 </v>
    <v>       0.25000000       0.08333333       0.00000000 </v>
    <v>       0.33333333       0.08333333      -0.00000000 </v>
    <v>       0.41666667       0.08333333       0.00000000 </v>
    <v>       0.50000000       0.08333333       0.00000000 </v>
    <v>      -0.41666667       0.08333333      -0.00000000 </v>
    <v>      -0.33333333       0.08333333       0.00000000 </v>
    <v>      -0.25000000       0.08333333       0.00000000 </v>
    <v>      -0.16666667       0.08333333      -0.00000000 </v>
    <v>      -0.08333333       0.08333333      -0.00000000 </v>
    <v>       0.16666667       0.16666667      -0.00000000 </v>
    <v>       0.25000000       0.16666667      -0.00000000 </v>
    <v>       0.33333333       0.16666667       0.00000000 </v>
    <v>       0.41666667       0.16666667      -0.00000000 </v>
    <v>       0.50000000       0.16666667      -0.00000000 </v>
    <v>      -0.41666667       0.16666667       0.00000000 </v>
    <v>      -0.33333333       0.16666667      -0.00000000 </v>
    <v>      -0.25000000       0.16666667      -0.00000000 </v>
    <v>      -0.16666667       0.16666667      -0.00000000 </v>
    <v>       0.25000000       0.25000000      -0.00000000 </v>
    <v>       0.33333333       0.25000000      -0.00000000 </v>
    <v>       0.41666667       0.25000000      -0.00000000 </v>
    <v>       0.50000000       0.25000000       0.00000000 </v>
    <v>      -0.41666667       0.25000000      -0.00000000 </v>
    <v>      -0.33333333       0.25000000      -0.00000000 </v>
    <v>      -0.25000000       0.25000000      -0.00000000 </v>
    <v>       0.33333333       0.33333333      -0.00000000 </v>
    <v>       0.41666667       0.33333333      -0.00000000 </v>
    <v>       0.50000000       0.33333333      -0.00000000 </v>
    <v>      -0.41666667       0.33333333      -0.00000000 </v>
    <v>      -0.33333333       0.33333333       0.00000000 </v>
    <v>       0.41666667       0.41666667      -0.00000000 </v>
    <v>       0.50000000       0.41666667      -0.00000000 </v>
    <v>      -0.41666667       0.41666667      -0.00000000 </v>
    <v>       0.50000000       0.50000000      -0.00000000 </v>
    <v>      -0.00000000      -0.00000000       0.08333333 </v>
    <v>       0.08333333       0.00000000       0.08333333 </v>
    <v>       0.16666667      -0.00000000       0.08333333 </v>
    <v>       0.25000000       0.00000000       0.08333333 </v>
    <v>       0.33333333       0.00000000       0.08333333 </v>
    <v>       0.41666667       0.00000000       0.08333333 </v>
    <v>       0.50000000       0.00000000       0.08333333 </v>
    <v>      -0.41666667      -0.00000000       0.08333333 </v>
    <v>      -0.33333333      -0.00000000       0.08333333 </v>
    <v>      -0.25000000       0.00000000       0.08333333 </v>
    <v>      -0.16666667      -0.00000000       0.08333333 </v>
    <v>      -0.08333333      -0.00000000       0.08333333 </v>
    <v>      -0.00000000       0.08333333       0.08333333 </v>
    <v>       0.16666667       0.08333333       0.08333333 </v>
    <v>       0.25000000       0.08333333       0.08333333 </v>
    <v>       0.33333333       0.08333333       0.08333333 </v>
    <v>       0.41666667       0.08333333       0.08333333 </v>
    <v>       0.50000000       0.08333333       0.08333333 </v>
    <v>      -0.41666667       0.08333333       0.08333333 </v>
    <v>      -0.33333333       0.08333333       0.08333333 </v>
    <v>      -0.25000000       0.08333333       0.08333333 </v>
    <v>      -0.16666667       0.08333333       0.08333333 </v>
    <v>      -0.08333333       0.08333333       0.08333333 </v>
    <v>       0.16666667       0.16666667       0.08333333 </v>
    <v>       0.25000000       0.16666667       0.08333333 </v>
    <v>       0.33333333       0.16666667       0.08333333 </v>
    <v>       0.41666667       0.16666667       0.08333333 </v>
    <v>       0.50000000       0.16666667       0.08333333 </v>
    <v>      -0.41666667       0.16666667       0.08333333 </v>
    <v>      -0.33333333       0.16666667       0.08333333 </v>
    <v>      -0.25000000       0.16666667       0.08333333 </v>
    <v>      -0.16666667       0.16666667       0.08333333 </v>
    <v>      -0.08333333       0.16666667       0.08333333 </v>
    <v>       0.16666667       0.25000000       0.08333333 </v>
    <v>       0.25000000       0.25000000       0.08333333 </v>
    <v>       0.33333333       0.25000000       0.08333333 </v>
    <v>       0.41666667       0.25000000       0.08333333 </v>
    <v>       0.50000000       0.25000000       0.08333333 </v>
    <v>      -0.41666667       0.25000000       0.08333333 </v>
    <v>      -0.33333333       0.25000000       0.08333333 </v>
    <v>      -0.25000000       0.25000000       0.08333333 </v>
    <v>      -0.16666667       0.25000000       0.08333333 </v>
    <v>       0.16666667       0.33333333       0.08333333 </v>
    <v>       0.25000000       0.33333333       0.08333333 </v>
    <v>       0.33333333       0.33333333       0.08333333 </v>
    <v>       0.41666667       0.33333333       0.08333333 </v>
    <v>       0.50000000       0.33333333       0.08333333 </v>
    <v>      -0.41666667       0.33333333       0.08333333 </v>
    <v>      -0.33333333       0.33333333       0.08333333 </v>
    <v>      -0.25000000       0.33333333       0.08333333 </v>
    <v>       0.16666667       0.41666667       0.08333333 </v>
    <v>       0.25000000       0.41666667       0.08333333 </v>
    <v>       0.33333333       0.41666667       0.08333333 </v>
    <v>       0.41666667       0.41666667       0.08333333 </v>
    <v>       0.50000000       0.41666667       0.08333333 </v>
    <v>      -0.41666667       0.41666667       0.08333333 </v>
    <v>      -0.33333333       0.41666667       0.08333333 </v>
    <v>       0.16666667       0.50000000       0.08333333 </v>
    <v>       0.25000000       0.50000000       0.08333333 </v>
    <v>       0.33333333       0.50000000       0.08333333 </v>
    <v>       0.41666667       0.50000000       0.08333333 </v>
    <v>       0.50000000       0.50000000       0.08333333 </v>
    <v>      -0.41666667       0.50000000       0.08333333 </v>
    <v>       0.16666667      -0.41666667       0.08333333 </v>
    <v>       0.25000000      -0.41666667       0.08333333 </v>
    <v>       0.33333333      -0.41666667       0.08333333 </v>
    <v>       0.41666667      -0.41666667       0.08333333 </v>
    <v>       0.50000000      -0.41666667       0.08333333 </v>
    <v>       0.16666667      -0.33333333       0.08333333 </v>
    <v>       0.25000000      -0.33333333       0.08333333 </v>
    <v>       0.33333333      -0.33333333       0.08333333 </v>
    <v>       0.41666667      -0.33333333       0.08333333 </v>
    <v>       0.16666667      -0.25000000       0.08333333 </v>
    <v>       0.25000000      -0.25000000       0.08333333 </v>
    <v>       0.33333333      -0.25000000       0.08333333 </v>
    <v>       0.16666667      -0.16666667       0.08333333 </v>
    <v>       0.25000000      -0.16666667       0.08333333 </v>
    <v>       0.16666667      -0.08333333       0.08333333 </v>
    <v>      -0.00000000      -0.00000000       0.16666667 </v>
    <v>       0.08333333       0.00000000       0.16666667 </v>
    <v>       0.16666667      -0.00000000       0.16666667 </v>
    <v>       0.25000000       0.00000000       0.16666667 </v>
    <v>       0.33333333       0.00000000       0.16666667 </v>
    <v>       0.41666667       0.00000000       0.16666667 </v>
    <v>       0.50000000       0.00000000       0.16666667 </v>
    <v>      -0.41666667       0.00000000       0.16666667 </v>
    <v>      -0.33333333      -0.00000000       0.16666667 </v>
    <v>      -0.25000000      -0.00000000       0.16666667 </v>
    <v>      -0.16666667      -0.00000000       0.16666667 </v>
    <v>      -0.08333333      -0.00000000       0.16666667 </v>
    <v>      -0.00000000       0.08333333       0.16666667 </v>
    <v>       0.08333333       0.08333333       0.16666667 </v>
    <v>       0.25000000       0.08333333       0.16666667 </v>
    <v>       0.33333333       0.08333333       0.16666667 </v>
    <v>       0.41666667       0.08333333       0.16666667 </v>
    <v>       0.50000000       0.08333333       0.16666667 </v>
    <v>      -0.41666667       0.08333333       0.16666667 </v>
    <v>      -0.33333333       0.08333333       0.16666667 </v>
    <v>      -0.25000000       0.08333333       0.16666667 </v>
    <v>      -0.16666667       0.08333333       0.16666667 </v>
    <v>      -0.08333333       0.08333333       0.16666667 </v>
    <v>      -0.00000000       0.16666667       0.16666667 </v>
    <v>       0.25000000       0.16666667       0.16666667 </v>
    <v>       0.33333333       0.16666667       0.16666667 </v>
    <v>       0.41666667       0.16666667       0.16666667 </v>
    <v>       0.50000000       0.16666667       0.16666667 </v>
    <v>      -0.41666667       0.16666667       0.16666667 </v>
    <v>      -0.33333333       0.16666667       0.16666667 </v>
    <v>      -0.25000000       0.16666667       0.16666667 </v>
    <v>      -0.16666667       0.16666667       0.16666667 </v>
    <v>      -0.08333333       0.16666667       0.16666667 </v>
    <v>       0.25000000       0.25000000       0.16666667 </v>
    <v>       0.33333333       0.25000000       0.16666667 </v>
    <v>       0.41666667       0.25000000       0.16666667 </v>
    <v>       0.50000000       0.25000000       0.16666667 </v>
    <v>      -0.41666667       0.25000000       0.16666667 </v>
    <v>      -0.33333333       0.25000000       0.16666667 </v>
    <v>      -0.25000000       0.25000000       0.16666667 </v>
    <v>      -0.16666667       0.25000000       0.16666667 </v>
    <v>      -0.08333333       0.25000000       0.16666667 </v>
    <v>       0.25000000       0.33333333       0.16666667 </v>
    <v>       0.33333333       0.33333333       0.16666667 </v>
    <v>       0.41666667       0.33333333       0.16666667 </v>
    <v>       0.50000000       0.33333333       0.16666667 </v>
    <v>      -0.41666667       0.33333333       0.16666667 </v>
    <v>      -0.33333333       0.33333333       0.16666667 </v>
    <v>      -0.25000000       0.33333333       0.16666667 </v>
    <v>      -0.16666667       0.33333333       0.16666667 </v>
    <v>       0.25000000       0.41666667       0.16666667 </v>
    <v>       0.33333333       0.41666667       0.16666667 </v>
    <v>       0.41666667       0.41666667       0.16666667 </v>
    <v>       0.50000000       0.41666667       0.16666667 </v>
    <v>      -0.41666667       0.41666667       0.16666667 </v>
    <v>      -0.33333333       0.41666667       0.16666667 </v>
    <v>      -0.25000000       0.41666667       0.16666667 </v>
    <v>       0.25000000       0.50000000       0.16666667 </v>
    <v>       0.33333333       0.50000000       0.16666667 </v>
    <v>       0.41666667       0.50000000       0.16666667 </v>
    <v>       0.50000000       0.50000000       0.16666667 </v>
    <v>      -0.41666667       0.50000000       0.16666667 </v>
    <v>      -0.33333333       0.50000000       0.16666667 </v>
    <v>       0.25000000      -0.41666667       0.16666667 </v>
    <v>       0.33333333      -0.41666667       0.16666667 </v>
    <v>       0.41666667      -0.41666667       0.16666667 </v>
    <v>       0.50000000      -0.41666667       0.16666667 </v>
    <v>      -0.41666667      -0.41666667       0.16666667 </v>
    <v>       0.25000000      -0.33333333       0.16666667 </v>
    <v>       0.33333333      -0.33333333       0.16666667 </v>
    <v>       0.41666667      -0.33333333       0.16666667 </v>
    <v>       0.50000000      -0.33333333       0.16666667 </v>
    <v>       0.25000000      -0.25000000       0.16666667 </v>
    <v>       0.33333333      -0.25000000       0.16666667 </v>
    <v>       0.41666667      -0.25000000       0.16666667 </v>
    <v>       0.25000000      -0.16666667       0.16666667 </v>
    <v>       0.33333333      -0.16666667       0.16666667 </v>
    <v>       0.25000000      -0.08333333       0.16666667 </v>
    <v>      -0.00000000      -0.00000000       0.25000000 </v>
    <v>       0.08333333      -0.00000000       0.25000000 </v>
    <v>       0.16666667      -0.00000000       0.25000000 </v>
    <v>       0.25000000       0.00000000       0.25000000 </v>
    <v>       0.33333333      -0.00000000       0.25000000 </v>
    <v>       0.41666667      -0.00000000       0.25000000 </v>
    <v>       0.50000000      -0.00000000       0.25000000 </v>
    <v>      -0.41666667       0.00000000       0.25000000 </v>
    <v>      -0.33333333       0.00000000       0.25000000 </v>
    <v>      -0.25000000       0.00000000       0.25000000 </v>
    <v>      -0.16666667      -0.00000000       0.25000000 </v>
    <v>      -0.08333333       0.00000000       0.25000000 </v>
    <v>      -0.00000000       0.08333333       0.25000000 </v>
    <v>       0.08333333       0.08333333       0.25000000 </v>
    <v>       0.16666667       0.08333333       0.25000000 </v>
    <v>       0.33333333       0.08333333       0.25000000 </v>
    <v>       0.41666667       0.08333333       0.25000000 </v>
    <v>       0.50000000       0.08333333       0.25000000 </v>
    <v>      -0.41666667       0.08333333       0.25000000 </v>
    <v>      -0.33333333       0.08333333       0.25000000 </v>
    <v>      -0.25000000       0.08333333       0.25000000 </v>
    <v>      -0.16666667       0.08333333       0.25000000 </v>
    <v>      -0.08333333       0.08333333       0.25000000 </v>
    <v>      -0.00000000       0.16666667       0.25000000 </v>
    <v>       0.08333333       0.16666667       0.25000000 </v>
    <v>       0.33333333       0.16666667       0.25000000 </v>
    <v>       0.41666667       0.16666667       0.25000000 </v>
[...]
       <r>   12.4716    0.0000 </r>
       <r>   12.5763    0.0000 </r>
       <r>   14.3825    0.0000 </r>
       <r>   14.9172    0.0000 </r>
       <r>   17.0649    0.0000 </r>
      </set>
      <set comment="kpoint 158">
       <r>  -30.6908    1.0000 </r>
       <r>  -14.0241    1.0000 </r>
       <r>  -13.0454    1.0000 </r>
       <r>  -12.8656    1.0000 </r>
       <r>  -12.4208    1.0000 </r>
       <r>    0.8816    1.0000 </r>
       <r>    1.2197    1.0000 </r>
       <r>    1.3936    1.0000 </r>
       <r>    5.3642    0.0000 </r>
       <r>    9.2345    0.0000 </r>
       <r>   10.7894    0.0000 </r>
       <r>   11.7815    0.0000 </r>
       <r>   12.1568    0.0000 </r>
       <r>   13.2347    0.0000 </r>
       <r>   15.5232    0.0000 </r>
       <r>   18.0697    0.0000 </r>
      </set>
      <set comment="kpoint 159">
       <r>  -30.6919    1.0000 </r>
       <r>  -13.8977    1.0000 </r>
       <r>  -12.8511    1.0000 </r>
       <r>  -12.8267    1.0000 </r>
       <r>  -12.8267    1.0000 </r>
       <r>    0.9136    1.0000 </r>
       <r>    1.4807    1.0000 </r>
       <r>    1.4807    1.0000 </r>
       <r>    4.9950    0.0000 </r>
       <r>    9.0191    0.0000 </r>
       <r>   11.5172    0.0000 </r>
       <r>   11.8541    0.0000 </r>
       <r>   12.1833    0.0000 </r>
       <r>   12.1833    0.0000 </r>
       <r>   15.9451    0.0000 </r>
       <r>   18.3387    0.0000 </r>
      </set>
      <set comment="kpoint 160">
       <r>  -30.6835    1.0000 </r>
       <r>  -13.7752    1.0000 </r>
       <r>  -13.2351    1.0000 </r>
       <r>  -12.8322    1.0000 </r>
       <r>  -12.6480    1.0000 </r>
       <r>    1.0667    1.0000 </r>
       <r>    1.3633    1.0000 </r>
       <r>    1.4253    1.0000 </r>
       <r>    5.0897    0.0000 </r>
       <r>    9.3579    0.0000 </r>
       <r>   11.1468    0.0000 </r>
       <r>   11.7364    0.0000 </r>
       <r>   12.3801    0.0000 </r>
       <r>   13.2067    0.0000 </r>
       <r>   15.1462    0.0000 </r>
       <r>   18.1194    0.0000 </r>
      </set>
      <set comment="kpoint 161">
       <r>  -30.6809    1.0000 </r>
       <r>  -13.9323    1.0000 </r>
       <r>  -13.3429    1.0000 </r>
       <r>  -12.8045    1.0000 </r>
       <r>  -12.3670    1.0000 </r>
       <r>    1.0396    1.0000 </r>
       <r>    1.1157    1.0000 </r>
       <r>    1.2542    1.0000 </r>
       <r>    5.5862    0.0000 </r>
       <r>    9.7955    0.0000 </r>
       <r>   10.2375    0.0000 </r>
       <r>   12.0889    0.0000 </r>
       <r>   12.1347    0.0000 </r>
       <r>   14.4000    0.0000 </r>
       <r>   14.5813    0.0000 </r>
       <r>   17.8652    0.0000 </r>
      </set>
      <set comment="kpoint 162">
       <r>  -30.6805    1.0000 </r>
       <r>  -13.7266    1.0000 </r>
       <r>  -13.3779    1.0000 </r>
       <r>  -12.8895    1.0000 </r>
       <r>  -12.5121    1.0000 </r>
       <r>    1.1256    1.0000 </r>
       <r>    1.2239    1.0000 </r>
       <r>    1.4056    1.0000 </r>
       <r>    5.2427    0.0000 </r>
       <r>    9.5371    0.0000 </r>
       <r>   10.6579    0.0000 </r>
       <r>   11.9036    0.0000 </r>
       <r>   12.5686    0.0000 </r>
       <r>   13.6440    0.0000 </r>
       <r>   14.8187    0.0000 </r>
       <r>   17.7552    0.0000 </r>
      </set>
      <set comment="kpoint 163">
       <r>  -30.6809    1.0000 </r>
       <r>  -13.4450    1.0000 </r>
       <r>  -13.4137    1.0000 </r>
       <r>  -12.8496    1.0000 </r>
       <r>  -12.8496    1.0000 </r>
       <r>    1.1358    1.0000 </r>
       <r>    1.4959    1.0000 </r>
       <r>    1.4959    1.0000 </r>
       <r>    4.8665    0.0000 </r>
       <r>    9.2852    0.0000 </r>
       <r>   11.6698    0.0000 </r>
       <r>   11.8431    0.0000 </r>
       <r>   12.5647    0.0000 </r>
       <r>   12.5647    0.0000 </r>
       <r>   15.0861    0.0000 </r>
       <r>   18.0120    0.0000 </r>
      </set>
     </set>
    </set>
   </array>
  </eigenvalues>
  <separator name="orbital magnetization" >
   <v name="MAGDIPOLOUT">      0.00000000      0.00000000      0.00000000</v>
  </separator>
  <dos>
   <i name="efermi">      1.68510033 </i>
   <total>
    <array>
     <dimension dim="1">gridpoints</dimension>
     <dimension dim="2">spin</dimension>
     <field>energy</field>
     <field>total</field>
     <field>integrated</field>
     <set>
      <set comment="spin 1">
       <r>   -33.6448     0.0000     0.0000 </r>
       <r>   -33.4397     0.0000     0.0000 </r>
       <r>   -33.2346     0.0000     0.0000 </r>
       <r>   -33.0295     0.0000     0.0000 </r>
       <r>   -32.8244     0.0000     0.0000 </r>
       <r>   -32.6193     0.0000     0.0000 </r>
       <r>   -32.4141     0.0000     0.0000 </r>
       <r>   -32.2090     0.0000     0.0000 </r>
       <r>   -32.0039     0.0000     0.0000 </r>
       <r>   -31.7988     0.0000     0.0000 </r>
       <r>   -31.5937     0.0000     0.0000 </r>
       <r>   -31.3886     0.0000     0.0000 </r>
       <r>   -31.1835     0.0000     0.0000 </r>
       <r>   -30.9784     0.0000     0.0000 </r>
       <r>   -30.7733     1.0612     0.2177 </r>
       <r>   -30.5682     0.0000     2.0000 </r>
       <r>   -30.3631     0.0000     2.0000 </r>
       <r>   -30.1580     0.0000     2.0000 </r>
       <r>   -29.9528     0.0000     2.0000 </r>
       <r>   -29.7477     0.0000     2.0000 </r>
       <r>   -29.5426     0.0000     2.0000 </r>
       <r>   -29.3375     0.0000     2.0000 </r>
       <r>   -29.1324     0.0000     2.0000 </r>
       <r>   -28.9273     0.0000     2.0000 </r>
       <r>   -28.7222     0.0000     2.0000 </r>
       <r>   -28.5171     0.0000     2.0000 </r>
       <r>   -28.3120     0.0000     2.0000 </r>
       <r>   -28.1069     0.0000     2.0000 </r>
       <r>   -27.9018     0.0000     2.0000 </r>
       <r>   -27.6967     0.0000     2.0000 </r>
       <r>   -27.4915     0.0000     2.0000 </r>
       <r>   -27.2864     0.0000     2.0000 </r>
       <r>   -27.0813     0.0000     2.0000 </r>
       <r>   -26.8762     0.0000     2.0000 </r>
       <r>   -26.6711     0.0000     2.0000 </r>
       <r>   -26.4660     0.0000     2.0000 </r>
       <r>   -26.2609     0.0000     2.0000 </r>
       <r>   -26.0558     0.0000     2.0000 </r>
       <r>   -25.8507     0.0000     2.0000 </r>
       <r>   -25.6456     0.0000     2.0000 </r>
       <r>   -25.4405     0.0000     2.0000 </r>
       <r>   -25.2354     0.0000     2.0000 </r>
       <r>   -25.0302     0.0000     2.0000 </r>
       <r>   -24.8251     0.0000     2.0000 </r>
       <r>   -24.6200     0.0000     2.0000 </r>
       <r>   -24.4149     0.0000     2.0000 </r>
       <r>   -24.2098     0.0000     2.0000 </r>
       <r>   -24.0047     0.0000     2.0000 </r>
       <r>   -23.7996     0.0000     2.0000 </r>
       <r>   -23.5945     0.0000     2.0000 </r>
       <r>   -23.3894     0.0000     2.0000 </r>
       <r>   -23.1843     0.0000     2.0000 </r>
       <r>   -22.9792     0.0000     2.0000 </r>
       <r>   -22.7741     0.0000     2.0000 </r>
       <r>   -22.5689     0.0000     2.0000 </r>
       <r>   -22.3638     0.0000     2.0000 </r>
       <r>   -22.1587     0.0000     2.0000 </r>
       <r>   -21.9536     0.0000     2.0000 </r>
       <r>   -21.7485     0.0000     2.0000 </r>
       <r>   -21.5434     0.0000     2.0000 </r>
       <r>   -21.3383     0.0000     2.0000 </r>
       <r>   -21.1332     0.0000     2.0000 </r>
       <r>   -20.9281     0.0000     2.0000 </r>
       <r>   -20.7230     0.0000     2.0000 </r>
       <r>   -20.5179     0.0000     2.0000 </r>
       <r>   -20.3128     0.0000     2.0000 </r>
       <r>   -20.1077     0.0000     2.0000 </r>
       <r>   -19.9025     0.0000     2.0000 </r>
       <r>   -19.6974     0.0000     2.0000 </r>
       <r>   -19.4923     0.0000     2.0000 </r>
       <r>   -19.2872     0.0000     2.0000 </r>
       <r>   -19.0821     0.0000     2.0000 </r>
       <r>   -18.8770     0.0000     2.0000 </r>
       <r>   -18.6719     0.0000     2.0000 </r>
       <r>   -18.4668     0.0000     2.0000 </r>
       <r>   -18.2617     0.0000     2.0000 </r>
       <r>   -18.0566     0.0000     2.0000 </r>
       <r>   -17.8515     0.0000     2.0000 </r>
       <r>   -17.6464     0.0000     2.0000 </r>
       <r>   -17.4412     0.0000     2.0000 </r>
       <r>   -17.2361     0.0000     2.0000 </r>
       <r>   -17.0310     0.0000     2.0000 </r>
       <r>   -16.8259     0.0000     2.0000 </r>
       <r>   -16.6208     0.0000     2.0000 </r>
       <r>   -16.4157     0.0000     2.0000 </r>
       <r>   -16.2106     0.0000     2.0000 </r>
       <r>   -16.0055     0.0000     2.0000 </r>
       <r>   -15.8004     0.0000     2.0000 </r>
       <r>   -15.5953     0.0000     2.0000 </r>
       <r>   -15.3902     0.0000     2.0000 </r>
       <r>   -15.1851     0.0000     2.0000 </r>
       <r>   -14.9799     0.0085     2.0017 </r>
       <r>   -14.7748     0.6252     2.1977 </r>
       <r>   -14.5697     1.6962     2.7044 </r>
       <r>   -14.3646     0.8571     3.2406 </r>
       <r>   -14.1595     1.0435     3.7048 </r>
       <r>   -13.9544     0.6053     3.9019 </r>
       <r>   -13.7493     0.1355     3.9653 </r>
       <r>   -13.5442     0.0000     3.9954 </r>
       <r>   -13.3391     0.1324     4.0271 </r>
       <r>   -13.1340     0.5214     4.2632 </r>
       <r>   -12.9289     1.3850     4.8014 </r>
       <r>   -12.7238     2.5026     6.1140 </r>
       <r>   -12.5186     3.2482     7.9614 </r>
       <r>   -12.3135     0.1179     8.1330 </r>
       <r>   -12.1084     0.2028     8.2708 </r>
       <r>   -11.9033     0.6557     8.6576 </r>
       <r>   -11.6982     0.9981     9.3112 </r>
       <r>   -11.4931     0.6837     9.8671 </r>
       <r>   -11.2880     0.0677    10.0000 </r>
       <r>   -11.0829     0.0000    10.0000 </r>
       <r>   -10.8778     0.0000    10.0000 </r>
       <r>   -10.6727     0.0000    10.0000 </r>
       <r>   -10.4676     0.0000    10.0000 </r>
       <r>   -10.2625     0.0000    10.0000 </r>
       <r>   -10.0573     0.0000    10.0000 </r>
       <r>    -9.8522     0.0000    10.0000 </r>
       <r>    -9.6471     0.0000    10.0000 </r>
       <r>    -9.4420     0.0000    10.0000 </r>
       <r>    -9.2369     0.0000    10.0000 </r>
       <r>    -9.0318     0.0000    10.0000 </r>
       <r>    -8.8267     0.0000    10.0000 </r>
       <r>    -8.6216     0.0000    10.0000 </r>
       <r>    -8.4165     0.0000    10.0000 </r>
       <r>    -8.2114     0.0000    10.0000 </r>
       <r>    -8.0063     0.0000    10.0000 </r>
       <r>    -7.8012     0.0000    10.0000 </r>
       <r>    -7.5960     0.0000    10.0000 </r>
       <r>    -7.3909     0.0000    10.0000 </r>
       <r>    -7.1858     0.0000    10.0000 </r>
       <r>    -6.9807     0.0000    10.0000 </r>
       <r>    -6.7756     0.0000    10.0000 </r>
       <r>    -6.5705     0.0000    10.0000 </r>
       <r>    -6.3654     0.0000    10.0000 </r>
       <r>    -6.1603     0.0000    10.0000 </r>
       <r>    -5.9552     0.0000    10.0000 </r>
       <r>    -5.7501     0.0000    10.0000 </r>
       <r>    -5.5450     0.0000    10.0000 </r>
       <r>    -5.3399     0.0000    10.0000 </r>
       <r>    -5.1347     0.0000    10.0000 </r>
       <r>    -4.9296     0.0000    10.0000 </r>
       <r>    -4.7245     0.0000    10.0000 </r>
       <r>    -4.5194     0.0000    10.0000 </r>
       <r>    -4.3143     0.0000    10.0000 </r>
       <r>    -4.1092     0.0000    10.0000 </r>
       <r>    -3.9041     0.0000    10.0000 </r>
       <r>    -3.6990     0.0000    10.0000 </r>
       <r>    -3.4939     0.0000    10.0000 </r>
       <r>    -3.2888     0.0000    10.0000 </r>
       <r>    -3.0837     0.0000    10.0000 </r>
       <r>    -2.8786     0.0000    10.0000 </r>
       <r>    -2.6734     0.0000    10.0000 </r>
       <r>    -2.4683     0.0000    10.0000 </r>
       <r>    -2.2632     0.0000    10.0000 </r>
       <r>    -2.0581     0.0000    10.0000 </r>
       <r>    -1.8530     0.0000    10.0000 </r>
       <r>    -1.6479     0.0000    10.0000 </r>
       <r>    -1.4428     0.0000    10.0000 </r>
       <r>    -1.2377     0.0000    10.0000 </r>
       <r>    -1.0326     0.0000    10.0000 </r>
       <r>    -0.8275     0.0000    10.0000 </r>
       <r>    -0.6224     0.0000    10.0000 </r>
       <r>    -0.4173     0.1699    10.0395 </r>
       <r>    -0.2122     0.3697    10.1453 </r>
       <r>    -0.0070     0.7175    10.4203 </r>
       <r>     0.1981     1.1622    10.9421 </r>
       <r>     0.4032     0.5781    11.3570 </r>
       <r>     0.6083     1.9661    11.9797 </r>
       <r>     0.8134     2.2035    12.9612 </r>
       <r>     1.0185     1.4377    13.8204 </r>
       <r>     1.2236     1.2267    15.0352 </r>
       <r>     1.4287     1.4453    15.8277 </r>
       <r>     1.6338     0.0846    16.0000 </r>
       <r>     1.8389     0.0000    16.0000 </r>
       <r>     2.0440     0.0000    16.0000 </r>
       <r>     2.2491     0.0000    16.0000 </r>
       <r>     2.4543     0.0000    16.0000 </r>
       <r>     2.6594     0.0000    16.0000 </r>
       <r>     2.8645     0.0000    16.0000 </r>
       <r>     3.0696     0.0000    16.0000 </r>
       <r>     3.2747     0.0000    16.0000 </r>
       <r>     3.4798     0.0000    16.0000 </r>
       <r>     3.6849     0.0000    16.0000 </r>
       <r>     3.8900     0.0000    16.0000 </r>
       <r>     4.0951     0.0000    16.0000 </r>
       <r>     4.3002     0.0000    16.0000 </r>
       <r>     4.5053     0.0000    16.0000 </r>
       <r>     4.7104     0.0000    16.0000 </r>
       <r>     4.9156     0.0169    16.0035 </r>
       <r>     5.1207     0.1354    16.0382 </r>
       <r>     5.3258     0.0065    16.0534 </r>
       <r>     5.5309     0.0056    16.1157 </r>
       <r>     5.7360     0.2685    16.1847 </r>
       <r>     5.9411     0.0339    16.2847 </r>
       <r>     6.1462     0.0000    16.3750 </r>
       <r>     6.3513     0.2708    16.4583 </r>
       <r>     6.5564     0.2766    16.6262 </r>
       <r>     6.7615     0.0339    16.7870 </r>
       <r>     6.9666     0.4672    16.9384 </r>
       <r>     7.1717     0.2737    17.1487 </r>
       <r>     7.3769     0.3650    17.3758 </r>
       <r>     7.5820     0.5517    17.7335 </r>
       <r>     7.7871     1.4803    18.0907 </r>
       <r>     7.9922     0.0522    18.2410 </r>
       <r>     8.1973     0.1354    18.5220 </r>
       <r>     8.4024     0.7921    18.8766 </r>
       <r>     8.6075     0.6692    19.2403 </r>
       <r>     8.8126     0.5857    19.5009 </r>
       <r>     9.0177     0.6277    19.9123 </r>
       <r>     9.2228     0.2776    20.1669 </r>
       <r>     9.4279     0.5428    20.3914 </r>
       <r>     9.6330     0.6969    20.6036 </r>
       <r>     9.8382     0.4063    20.8079 </r>
       <r>    10.0433     0.1350    20.9397 </r>
       <r>    10.2484     1.3719    21.5082 </r>
       <r>    10.4535     1.2022    22.1494 </r>
       <r>    10.6586     0.8981    22.7259 </r>
       <r>    10.8637     0.5076    23.2129 </r>
       <r>    11.0688     0.4683    23.5104 </r>
       <r>    11.2739     0.3418    23.7622 </r>
       <r>    11.4790     0.4100    24.0170 </r>
       <r>    11.6841     0.6932    24.3320 </r>
       <r>    11.8892     0.4815    24.5559 </r>
       <r>    12.0943     0.3720    24.7869 </r>
       <r>    12.2995     0.6770    25.2778 </r>
       <r>    12.5046     0.5833    25.5363 </r>
       <r>    12.7097     0.2701    26.0554 </r>
       <r>    12.9148     0.6118    26.4935 </r>
       <r>    13.1199     0.1315    26.6913 </r>
       <r>    13.3250     0.4421    26.8939 </r>
       <r>    13.5301     1.0524    27.1950 </r>
       <r>    13.7352     0.1586    27.2617 </r>
       <r>    13.9403     0.0001    27.3125 </r>
       <r>    14.1454     0.0000    27.3403 </r>
       <r>    14.3505     0.5877    27.7328 </r>
       <r>    14.5556     0.2709    28.0012 </r>
       <r>    14.7608     0.5846    28.1350 </r>
       <r>    14.9659     0.1184    28.2361 </r>
       <r>    15.1710     1.0829    28.5624 </r>
       <r>    15.3761     0.0711    28.6604 </r>
       <r>    15.5812     0.5417    28.7986 </r>
       <r>    15.7863     1.0164    29.1738 </r>
       <r>    15.9914     0.1401    29.2672 </r>
       <r>    16.1965     0.0226    29.2917 </r>
       <r>    16.4016     0.0340    29.2986 </r>
       <r>    16.6067     0.4695    29.4875 </r>
       <r>    16.8118     0.2612    29.5559 </r>
       <r>    17.0169     0.0111    29.6713 </r>
       <r>    17.2220     0.0677    29.9468 </r>
       <r>    17.4272     0.4057    30.0670 </r>
       <r>    17.6323     0.6688    30.3710 </r>
       <r>    17.8374     0.6476    30.7555 </r>
       <r>    18.0425     0.3216    30.9618 </r>
       <r>    18.2476     0.1410    31.1991 </r>
       <r>    18.4527     0.4063    31.3785 </r>
       <r>    18.6578     0.1489    31.4923 </r>
       <r>    18.8629     0.1771    31.5815 </r>
       <r>    19.0680     0.2709    31.6701 </r>
       <r>    19.2731     0.0228    31.6748 </r>
       <r>    19.4782     0.1079    31.7270 </r>
       <r>    19.6833     0.0000    31.7975 </r>
       <r>    19.8885     0.0000    31.7975 </r>
       <r>    20.0936     0.0000    31.7975 </r>
       <r>    20.2987     0.0000    31.7975 </r>
       <r>    20.5038     0.0000    31.7975 </r>
       <r>    20.7089     0.1187    31.8287 </r>
       <r>    20.9140     0.1588    31.8925 </r>
       <r>    21.1191     0.0000    31.9248 </r>
       <r>    21.3242     0.0000    31.9248 </r>
       <r>    21.5293     0.0000    31.9248 </r>
       <r>    21.7344     0.0000    31.9248 </r>
       <r>    21.9395     0.0000    31.9248 </r>
       <r>    22.1446     0.0000    31.9248 </r>
       <r>    22.3498     0.0000    31.9248 </r>
       <r>    22.5549     0.0458    31.9342 </r>
       <r>    22.7600     0.1354    31.9687 </r>
       <r>    22.9651     0.0453    31.9780 </r>
       <r>    23.1702     0.0000    31.9826 </r>
       <r>    23.3753     0.0000    31.9826 </r>
       <r>    23.5804     0.0000    31.9826 </r>
       <r>    23.7855     0.0000    31.9826 </r>
       <r>    23.9906     0.0000    31.9826 </r>
       <r>    24.1957     0.0000    31.9826 </r>
       <r>    24.4008     0.0000    31.9919 </r>
       <r>    24.6059     0.0000    31.9988 </r>
       <r>    24.8111     0.0000    31.9988 </r>
       <r>    25.0162     0.0000    31.9988 </r>
       <r>    25.2213     0.0000    32.0000 </r>
       <r>    25.4264     0.0000    32.0000 </r>
       <r>    25.6315     0.0000    32.0000 </r>
       <r>    25.8366     0.0000    32.0000 </r>
       <r>    26.0417     0.0000    32.0000 </r>
       <r>    26.2468     0.0000    32.0000 </r>
       <r>    26.4519     0.0000    32.0000 </r>
       <r>    26.6570     0.0000    32.0000 </r>
       <r>    26.8621     0.0000    32.0000 </r>
       <r>    27.0672     0.0000    32.0000 </r>
       <r>    27.2724     0.0000    32.0000 </r>
       <r>    27.4775     0.0000    32.0000 </r>
       <r>    27.6826     0.0000    32.0000 </r>
       <r>    27.8877     0.0000    32.0000 </r>
      </set>
     </set>
    </array>
   </total>
  </dos>
 </calculation>
 <structure name="finalpos" >
  <crystal>
   <varray name="basis" >
    <v>      -2.58378449       0.00000000       2.58378449 </v>
    <v>       0.00000000       2.58378449       2.58378449 </v>
    <v>      -2.58378449       2.58378449       0.00000000 </v>
   </varray>
   <i name="volume">     34.49839231 </i>
   <varray name="rec_basis" >
    <v>      -0.19351459      -0.19351459       0.19351459 </v>
    <v>       0.19351459       0.19351459       0.19351459 </v>
    <v>      -0.19351459       0.19351459      -0.19351459 </v>
   </varray>
  </crystal>
  <varray name="positions" >
   <v>       0.49999996       0.50000004       0.49999996 </v>
   <v>       0.00000000       0.00000000       0.00000000 </v>
  </varray>
 </structure>
</modeling>
