
     Program PWSCF v.7.1 starts on  3Jan2024 at 14:29:15 

     This program is part of the open-source Quantum ESPRESSO suite
     for quantum simulation of materials; please cite
         "P. Giannozzi et al., J. Phys.:Condens. Matter 21 395502 (2009);
         "P. Giannozzi et al., J. Phys.:Condens. Matter 29 465901 (2017);
         "P. Giannozzi et al., J. Chem. Phys. 152 154105 (2020);
          URL http://www.quantum-espresso.org", 
     in publications or presentations arising from this work. More details at
     http://www.quantum-espresso.org/quote

     Parallel version (MPI), running on     8 processors

     MPI processes distributed on     1 nodes
     120462 MiB available memory on the printing compute node when the environment starts
 
     Reading input from pw_mp-856_scf_k3000_E75.in
Warning: card &CELL ignored
Warning: card / ignored

     Current dimensions of program PWSCF are:
     Max number of different atomic species (ntypx) = 10
     Max number of k-points (npk) =  40000
     Max angular momentum in pseudopotentials (lmaxx) =  4
 
     R & G space division:  proc/nbgrp/npool/nimage =       8
     Subspace diagonalization in iterative solution of the eigenvalue problem:
     a serial algorithm will be used

 
     Parallelization info
     --------------------
     sticks:   dense  smooth     PW     G-vecs:    dense   smooth      PW
     Min         241     241     71                 5389     5389     857
     Max         242     242     72                 5392     5392     859
     Sum        1933    1933    569                43125    43125    6859
 
     Using Slab Decomposition
 


     bravais-lattice index     =            6
     lattice parameter (alat)  =       9.0042  a.u.
     unit-cell volume          =     491.4233 (a.u.)^3
     number of atoms/cell      =            6
     number of atomic types    =            2
     number of electrons       =        52.00
     number of Kohn-Sham states=           52
     kinetic-energy cutoff     =      75.0000  Ry
     charge density cutoff     =     300.0000  Ry
     scf convergence threshold =      1.0E-10
     mixing beta               =       0.7000
     number of iterations used =            8  plain     mixing
     Exchange-correlation= PBE
                           (   1   4   3   4   0   0   0)

     celldm(1)=   9.004200  celldm(2)=   0.000000  celldm(3)=   0.673163
     celldm(4)=   0.000000  celldm(5)=   0.000000  celldm(6)=   0.000000

     crystal axes: (cart. coord. in units of alat)
               a(1) = (   1.000000   0.000000   0.000000 )  
               a(2) = (   0.000000   1.000000   0.000000 )  
               a(3) = (   0.000000   0.000000   0.673163 )  

     reciprocal axes: (cart. coord. in units 2 pi/alat)
               b(1) = (  1.000000  0.000000  0.000000 )  
               b(2) = (  0.000000  1.000000  0.000000 )  
               b(3) = (  0.000000  0.000000  1.485524 )  


     PseudoPot. # 1 for O  read from file:
     /usr/scratch4/magr4985/MG/devEb/pseudo/SG15/O.upf
     MD5 check sum: 9d2d0a8c71a1ad34a0c43284618bc51d
     Pseudo is Norm-conserving, Zval =  6.0
     Generated using ONCVPSP code by D. R. Hamann
     Using radial grid of  602 points,  4 beta functions with: 
                l(1) =   0
                l(2) =   0
                l(3) =   1
                l(4) =   1

     PseudoPot. # 2 for Sn read from file:
     /usr/scratch4/magr4985/MG/devEb/pseudo/SG15/Sn.upf
     MD5 check sum: 2db97774b959979f3bf2f2fa962fb708
     Pseudo is Norm-conserving, Zval = 14.0
     Generated using ONCVPSP code by D. R. Hamann
     Using radial grid of  602 points,  6 beta functions with: 
                l(1) =   0
                l(2) =   0
                l(3) =   1
                l(4) =   1
                l(5) =   2
                l(6) =   2

     atomic species   valence    mass     pseudopotential
        O              6.00    15.99940     O ( 1.00)
        Sn            14.00   118.71000     Sn( 1.00)

     16 Sym. Ops., with inversion, found ( 8 have fractional translation)



   Cartesian axes

     site n.     atom                  positions (alat units)
         1           Sn  tau(   1) = (   0.5000000   0.5000000   0.3365816  )
         2           Sn  tau(   2) = (   0.0000000   0.0000000   0.0000000  )
         3           O   tau(   3) = (   0.8059724   0.1940277   0.3365816  )
         4           O   tau(   4) = (   0.1940277   0.8059724   0.3365816  )
         5           O   tau(   5) = (   0.3059723   0.3059723   0.0000000  )
         6           O   tau(   6) = (   0.6940278   0.6940278   0.0000000  )

     number of k points=    60  Gaussian smearing, width (Ry)=  0.0005
                       cart. coord. in units 2pi/alat
        k(    1) = (   0.0000000   0.0000000   0.0000000), wk =   0.0055556
        k(    2) = (   0.0000000   0.0000000   0.1485524), wk =   0.0111111
        k(    3) = (   0.0000000   0.0000000   0.2971048), wk =   0.0111111
        k(    4) = (   0.0000000   0.0000000   0.4456572), wk =   0.0111111
        k(    5) = (   0.0000000   0.0000000   0.5942096), wk =   0.0111111
        k(    6) = (   0.0000000   0.0000000  -0.7427620), wk =   0.0055556
        k(    7) = (   0.0000000   0.1666667   0.0000000), wk =   0.0222222
        k(    8) = (   0.0000000   0.1666667   0.1485524), wk =   0.0444444
        k(    9) = (   0.0000000   0.1666667   0.2971048), wk =   0.0444444
        k(   10) = (   0.0000000   0.1666667   0.4456572), wk =   0.0444444
        k(   11) = (   0.0000000   0.1666667   0.5942096), wk =   0.0444444
        k(   12) = (   0.0000000   0.1666667  -0.7427620), wk =   0.0222222
        k(   13) = (   0.0000000   0.3333333   0.0000000), wk =   0.0222222
        k(   14) = (   0.0000000   0.3333333   0.1485524), wk =   0.0444444
        k(   15) = (   0.0000000   0.3333333   0.2971048), wk =   0.0444444
        k(   16) = (   0.0000000   0.3333333   0.4456572), wk =   0.0444444
        k(   17) = (   0.0000000   0.3333333   0.5942096), wk =   0.0444444
        k(   18) = (   0.0000000   0.3333333  -0.7427620), wk =   0.0222222
        k(   19) = (   0.0000000  -0.5000000   0.0000000), wk =   0.0111111
        k(   20) = (   0.0000000  -0.5000000   0.1485524), wk =   0.0222222
        k(   21) = (   0.0000000  -0.5000000   0.2971048), wk =   0.0222222
        k(   22) = (   0.0000000  -0.5000000   0.4456572), wk =   0.0222222
        k(   23) = (   0.0000000  -0.5000000   0.5942096), wk =   0.0222222
        k(   24) = (   0.0000000  -0.5000000  -0.7427620), wk =   0.0111111
        k(   25) = (   0.1666667   0.1666667   0.0000000), wk =   0.0222222
        k(   26) = (   0.1666667   0.1666667   0.1485524), wk =   0.0444444
        k(   27) = (   0.1666667   0.1666667   0.2971048), wk =   0.0444444
        k(   28) = (   0.1666667   0.1666667   0.4456572), wk =   0.0444444
        k(   29) = (   0.1666667   0.1666667   0.5942096), wk =   0.0444444
        k(   30) = (   0.1666667   0.1666667  -0.7427620), wk =   0.0222222
        k(   31) = (   0.1666667   0.3333333   0.0000000), wk =   0.0444444
        k(   32) = (   0.1666667   0.3333333   0.1485524), wk =   0.0888889
        k(   33) = (   0.1666667   0.3333333   0.2971048), wk =   0.0888889
        k(   34) = (   0.1666667   0.3333333   0.4456572), wk =   0.0888889
        k(   35) = (   0.1666667   0.3333333   0.5942096), wk =   0.0888889
        k(   36) = (   0.1666667   0.3333333  -0.7427620), wk =   0.0444444
        k(   37) = (   0.1666667  -0.5000000   0.0000000), wk =   0.0222222
        k(   38) = (   0.1666667  -0.5000000   0.1485524), wk =   0.0444444
        k(   39) = (   0.1666667  -0.5000000   0.2971048), wk =   0.0444444
        k(   40) = (   0.1666667  -0.5000000   0.4456572), wk =   0.0444444
        k(   41) = (   0.1666667  -0.5000000   0.5942096), wk =   0.0444444
        k(   42) = (   0.1666667  -0.5000000  -0.7427620), wk =   0.0222222
        k(   43) = (   0.3333333   0.3333333   0.0000000), wk =   0.0222222
        k(   44) = (   0.3333333   0.3333333   0.1485524), wk =   0.0444444
        k(   45) = (   0.3333333   0.3333333   0.2971048), wk =   0.0444444
        k(   46) = (   0.3333333   0.3333333   0.4456572), wk =   0.0444444
        k(   47) = (   0.3333333   0.3333333   0.5942096), wk =   0.0444444
        k(   48) = (   0.3333333   0.3333333  -0.7427620), wk =   0.0222222
        k(   49) = (   0.3333333  -0.5000000   0.0000000), wk =   0.0222222
        k(   50) = (   0.3333333  -0.5000000   0.1485524), wk =   0.0444444
        k(   51) = (   0.3333333  -0.5000000   0.2971048), wk =   0.0444444
        k(   52) = (   0.3333333  -0.5000000   0.4456572), wk =   0.0444444
        k(   53) = (   0.3333333  -0.5000000   0.5942096), wk =   0.0444444
        k(   54) = (   0.3333333  -0.5000000  -0.7427620), wk =   0.0222222
        k(   55) = (  -0.5000000  -0.5000000   0.0000000), wk =   0.0055556
        k(   56) = (  -0.5000000  -0.5000000   0.1485524), wk =   0.0111111
        k(   57) = (  -0.5000000  -0.5000000   0.2971048), wk =   0.0111111
        k(   58) = (  -0.5000000  -0.5000000   0.4456572), wk =   0.0111111
        k(   59) = (  -0.5000000  -0.5000000   0.5942096), wk =   0.0111111
        k(   60) = (  -0.5000000  -0.5000000  -0.7427620), wk =   0.0055556

     Dense  grid:    43125 G-vectors     FFT dimensions: (  50,  50,  36)

     Estimated max dynamical RAM per process >      42.00 MB

     Estimated total dynamical RAM >     336.03 MB

     Initial potential from superposition of free atoms

     starting charge      51.8229, renormalised to      52.0000
     Starting wfcs are random

     total cpu time spent up to now is        1.4 secs

     Self-consistent Calculation

     iteration #  1     ecut=    75.00 Ry     beta= 0.70
     Davidson diagonalization with overlap
     c_bands:  1 eigenvalues not converged
     c_bands:  2 eigenvalues not converged
     c_bands:  1 eigenvalues not converged
     c_bands:  1 eigenvalues not converged
     c_bands:  1 eigenvalues not converged
     c_bands:  1 eigenvalues not converged
     c_bands:  1 eigenvalues not converged
     c_bands:  1 eigenvalues not converged
     c_bands:  3 eigenvalues not converged
     c_bands:  1 eigenvalues not converged
     c_bands:  1 eigenvalues not converged
     c_bands:  1 eigenvalues not converged
     c_bands:  1 eigenvalues not converged
     c_bands:  3 eigenvalues not converged
     c_bands:  1 eigenvalues not converged
     c_bands:  1 eigenvalues not converged
     c_bands:  1 eigenvalues not converged
     c_bands:  1 eigenvalues not converged
     c_bands:  1 eigenvalues not converged
     c_bands:  1 eigenvalues not converged
     c_bands:  1 eigenvalues not converged
     c_bands:  1 eigenvalues not converged
     c_bands:  1 eigenvalues not converged
     c_bands:  1 eigenvalues not converged
     c_bands:  1 eigenvalues not converged
     ethr =  5.00E-06,  avg # of iterations = 18.6

     total cpu time spent up to now is       21.9 secs

     total energy              =    -368.55978991 Ry
     estimated scf accuracy    <       1.49014588 Ry

     iteration #  2     ecut=    75.00 Ry     beta= 0.70
     Davidson diagonalization with overlap
     ethr =  2.87E-03,  avg # of iterations =  2.0

     total cpu time spent up to now is       26.3 secs

     total energy              =    -368.94862359 Ry
     estimated scf accuracy    <       1.39719184 Ry

     iteration #  3     ecut=    75.00 Ry     beta= 0.70
     Davidson diagonalization with overlap
     ethr =  2.69E-03,  avg # of iterations =  1.8

     total cpu time spent up to now is       29.8 secs

     total energy              =    -369.22049697 Ry
     estimated scf accuracy    <       0.00584788 Ry

     iteration #  4     ecut=    75.00 Ry     beta= 0.70
     Davidson diagonalization with overlap
     c_bands:  1 eigenvalues not converged
     ethr =  1.12E-05,  avg # of iterations =  5.9

     total cpu time spent up to now is       35.4 secs

     total energy              =    -369.22307287 Ry
     estimated scf accuracy    <       0.00051002 Ry

     iteration #  5     ecut=    75.00 Ry     beta= 0.70
     Davidson diagonalization with overlap
     c_bands:  1 eigenvalues not converged
     ethr =  9.81E-07,  avg # of iterations =  4.6

     total cpu time spent up to now is       39.6 secs

     total energy              =    -369.22310075 Ry
     estimated scf accuracy    <       0.00002460 Ry

     iteration #  6     ecut=    75.00 Ry     beta= 0.70
     Davidson diagonalization with overlap
     c_bands:  1 eigenvalues not converged
     ethr =  4.73E-08,  avg # of iterations =  6.7

     total cpu time spent up to now is       45.5 secs

     total energy              =    -369.22310584 Ry
     estimated scf accuracy    <       0.00000133 Ry

     iteration #  7     ecut=    75.00 Ry     beta= 0.70
     Davidson diagonalization with overlap
     ethr =  2.56E-09,  avg # of iterations =  6.4

     total cpu time spent up to now is       50.6 secs

     total energy              =    -369.22310596 Ry
     estimated scf accuracy    <       0.00000019 Ry

     iteration #  8     ecut=    75.00 Ry     beta= 0.70
     Davidson diagonalization with overlap
     ethr =  3.73E-10,  avg # of iterations =  3.2

     total cpu time spent up to now is       54.6 secs

     total energy              =    -369.22310598 Ry
     estimated scf accuracy    <          1.0E-09 Ry

     iteration #  9     ecut=    75.00 Ry     beta= 0.70
     Davidson diagonalization with overlap
     ethr =  2.00E-12,  avg # of iterations =  8.3

     total cpu time spent up to now is       61.6 secs

     total energy              =    -369.22310599 Ry
     estimated scf accuracy    <          1.8E-10 Ry

     iteration # 10     ecut=    75.00 Ry     beta= 0.70
     Davidson diagonalization with overlap
     ethr =  3.43E-13,  avg # of iterations =  2.8

     total cpu time spent up to now is       66.1 secs

     End of self-consistent calculation

          k = 0.0000 0.0000 0.0000 (  5409 PWs)   bands (ev):

   -10.5026  -9.7974  -9.5462  -9.5277  -9.5277  -9.4347  -9.3801  -9.3059
    -9.3059  -9.3010  -8.0939  -6.2650  -6.2650  -4.5924   2.6351   6.7351
     6.7351   6.8560   7.7141   8.7778   8.7888   9.4805   9.4805  10.0211
    10.0211  10.7574  11.7798  16.7365  17.0237  17.0237  21.1436  21.1558
    22.7339  22.7339  23.2319  23.3145  25.7024  27.6540  29.6795  30.1463
    30.3106  30.3106  30.7880  30.7880  31.9374  31.9374  32.5165  33.0150
    33.4748  34.3683  37.1671  37.1671

          k = 0.0000 0.0000 0.1486 (  5377 PWs)   bands (ev):

   -10.4574  -9.7482  -9.6129  -9.6128  -9.5298  -9.4418  -9.3764  -9.3185
    -9.3185  -9.3013  -8.0372  -6.1207  -6.1207  -4.6636   2.6316   6.7649
     6.8248   6.8248   7.7801   8.0513   8.7316   9.1070   9.1070  10.0438
    10.0438  10.6778  12.4628  16.9420  17.4474  17.4474  20.3323  21.9408
    22.7001  22.7001  23.1019  23.2981  25.5457  26.7873  28.6389  28.6389
    30.5387  30.5430  31.2940  31.7865  31.7865  32.9728  32.9728  33.7955
    34.2493  34.8888  37.1114  37.1114

          k = 0.0000 0.0000 0.2971 (  5389 PWs)   bands (ev):

   -10.3330  -9.8155  -9.8154  -9.6378  -9.4840  -9.4543  -9.3664  -9.3454
    -9.3453  -9.3026  -7.8539  -5.7635  -5.7635  -4.8852   2.6430   6.5949
     6.7965   7.0657   7.0657   7.9746   8.3303   8.3303   8.4281   9.9945
     9.9945  10.4465  13.7175  17.3416  18.4771  18.4771  19.7116  22.5798
    22.5798  22.6210  22.7121  23.2621  25.2966  25.5648  27.1359  27.1359
    30.1571  31.4895  31.6674  31.9099  31.9099  34.7285  35.2386  35.2489
    35.2489  36.1664  36.1664  36.5012

          k = 0.0000 0.0000 0.4457 (  5405 PWs)   bands (ev):

   -10.1589 -10.0318 -10.0318  -9.6007  -9.4197  -9.4093  -9.3751  -9.3751
    -9.3522  -9.3059  -7.5146  -5.3465  -5.3465  -5.2685   2.7409   5.5359
     6.5287   7.2189   7.2189   7.7235   7.7235   7.9747   8.2854   9.8492
     9.8492  10.0874  14.9434  17.5101  19.4985  19.6893  19.6893  22.0678
    22.3468  22.3468  23.2432  23.2434  24.5820  25.2374  26.1109  26.1109
    29.6266  31.8073  31.8073  32.5296  32.5991  35.4350  35.4350  35.6298
    35.6676  36.8843  37.3221  37.3221

          k = 0.0000 0.0000 0.5942 (  5408 PWs)   bands (ev):

   -10.1865 -10.1865  -9.9727  -9.6768  -9.3983  -9.3983  -9.3560  -9.3368
    -9.3362  -9.3126  -7.0159  -5.7981  -5.0181  -5.0181   3.0299   4.4388
     6.6635   6.7791   6.7791   7.4622   7.9402   7.9402   8.6908   9.6405
     9.6470   9.6470  15.9512  17.2654  19.7727  20.7472  20.7472  21.2570
    22.0099  22.0099  23.2977  23.8761  23.9013  25.0526  25.5612  25.5612
    30.2071  31.4332  31.4332  33.0344  33.5167  35.2514  35.6198  35.6622
    35.7568  35.7568  37.7031  37.7031

          k = 0.0000 0.0000-0.7428 (  5432 PWs)   bands (ev):

   -10.2419 -10.2418  -9.8059  -9.8059  -9.4070  -9.4070  -9.3230  -9.3230
    -9.3195  -9.3194  -6.4124  -6.4124  -4.8932  -4.8932   3.5900   3.5900
     6.5713   6.5713   6.9949   6.9949   8.1100   8.1100   9.1574   9.1574
     9.5315   9.5315  16.7165  16.7165  20.4296  20.4296  21.3613  21.3613
    21.6608  21.6608  23.4934  23.4934  24.5225  24.5225  25.3979  25.3979
    31.2181  31.2181  31.7773  31.7773  34.5303  34.5303  35.3089  35.3089
    36.2754  36.2754  37.4374  37.4374

          k = 0.0000 0.1667 0.0000 (  5397 PWs)   bands (ev):

   -10.4628  -9.8425  -9.5451  -9.5259  -9.5258  -9.4662  -9.3741  -9.3081
    -9.3080  -9.3055  -8.0067  -6.4453  -6.1145  -4.6504   2.8199   6.2395
     6.8686   6.9592   7.8687   8.5951   8.9724   9.4625   9.4901   9.5143
    10.0372  10.6229  12.4941  16.4948  17.1478  17.2715  21.3751  21.4129
    22.4847  22.7605  23.2827  23.2906  25.2936  27.7730  28.2594  29.1547
    29.8187  30.6122  30.8346  30.9749  31.7783  32.1303  33.1133  33.5038
    34.7436  35.4644  36.0945  36.7080

          k = 0.0000 0.1667 0.1486 (  5394 PWs)   bands (ev):

   -10.4203  -9.8071  -9.6187  -9.6149  -9.5227  -9.4480  -9.3708  -9.3198
    -9.3185  -9.3052  -7.9478  -6.3155  -5.9838  -4.6973   2.8215   6.3012
     6.5599   7.2510   7.8259   7.9094   8.8883   9.1555   9.1968   9.7415
    10.0437  10.5803  12.9663  16.7323  17.5537  17.6479  20.5519  22.1317
    22.3997  22.7591  23.1469  23.2690  25.1474  26.8933  27.6203  28.7516
    29.8445  30.8282  31.2074  31.6744  31.8273  32.7267  33.0158  34.4006
    35.2259  35.7659  35.8396  36.7182

          k = 0.0000 0.1667 0.2971 (  5408 PWs)   bands (ev):

   -10.3106  -9.8854  -9.8003  -9.6316  -9.4802  -9.4457  -9.3628  -9.3440
    -9.3431  -9.3056  -7.7692  -6.0174  -5.6556  -4.8308   2.8372   6.2427
     6.3435   6.7561   7.6132   7.8994   8.1973   8.5749   8.8647   9.9098
     9.9750  10.4150  13.9984  17.1908  18.5518  18.5787  19.8445  22.1131
    22.5378  22.8602  22.8642  23.2261  24.7791  25.7179  26.5407  27.8842
    29.9192  30.8780  31.4205  32.0965  32.3644  34.4412  34.6005  34.9094
    35.4027  35.6641  36.7279  37.1362

          k = 0.0000 0.1667 0.4457 (  5393 PWs)   bands (ev):

   -10.2161 -10.0888  -9.9360  -9.5708  -9.4214  -9.4133  -9.3732  -9.3702
    -9.3467  -9.3077  -7.4560  -5.8017  -5.2682  -4.9652   2.9178   5.3826
     6.0719   6.7152   7.3467   7.3803   8.0357   8.5708   8.6390   9.8137
     9.8790  10.1136  15.1048  17.4266  19.4628  19.6255  19.7674  21.6264
    22.4129  22.6278  23.2030  23.2869  24.4148  24.7591  25.7902  27.2862
    29.3065  31.2542  32.0835  32.4709  33.2726  34.2530  34.6053  35.2671
    36.6267  36.7637  37.0490  37.5991

          k = 0.0000 0.1667 0.5942 (  5399 PWs)   bands (ev):

   -10.2650 -10.2410  -9.8597  -9.6197  -9.4041  -9.4009  -9.3501  -9.3345
    -9.3335  -9.3128  -7.0067  -5.9983  -4.9627  -4.9063   3.1571   4.3923
     6.0838   6.5723   6.8438   6.8764   8.4548   8.5818   8.8649   9.6145
     9.7070   9.7255  16.0471  17.2490  19.5255  20.1891  20.8261  21.3337
    22.1760  22.3330  23.2946  23.6590  24.0587  24.1990  25.5648  26.4762
    29.9528  31.1618  31.9352  33.1993  33.9641  34.3832  34.7711  35.1065
    35.8359  36.7264  37.6056  37.7268

          k = 0.0000 0.1667-0.7428 (  5410 PWs)   bands (ev):

   -10.3003 -10.3003  -9.7250  -9.7249  -9.4100  -9.4100  -9.3218  -9.3218
    -9.3159  -9.3159  -6.4785  -6.4785  -4.8408  -4.8408   3.6395   3.6395
     6.2350   6.2350   6.7368   6.7368   8.6437   8.6437   9.2593   9.2593
     9.5626   9.5626  16.7611  16.7612  19.8929  19.8929  21.4330  21.4330
    22.0384  22.0384  23.5454  23.5454  23.9988  23.9989  25.8211  25.8211
    30.8189  30.8189  32.5205  32.5205  34.2088  34.2088  34.9169  34.9169
    36.4552  36.4552  37.4661  37.4661

          k = 0.0000 0.3333 0.0000 (  5393 PWs)   bands (ev):

   -10.3479  -9.9832  -9.5414  -9.5222  -9.5220  -9.5110  -9.3581  -9.3184
    -9.3125  -9.3124  -7.7487  -6.8691  -5.7336  -4.8741   3.3662   5.2451
     7.2444   7.2528   8.1746   8.2849   8.5778   9.1069   9.5145   9.5458
    10.0782  10.3339  13.7482  15.9304  17.4953  17.6501  21.5963  21.9392
    22.1256  22.9603  23.2480  23.6377  24.3054  26.1797  28.1100  28.5787
    29.1677  30.8576  31.0072  31.1454  31.4848  31.9092  32.5915  34.4295
    35.8395  35.9261  35.9962  37.7105

          k = 0.0000 0.3333 0.1486 (  5394 PWs)   bands (ev):

   -10.3129  -9.9623  -9.6230  -9.6190  -9.5050  -9.4632  -9.3560  -9.3230
    -9.3218  -9.3149  -7.6802  -6.7636  -5.6366  -4.8720   3.3771   5.2793
     6.6060   7.3574   7.7808   8.3003   8.7930   9.2323   9.2792   9.3933
    10.0505  10.3254  14.0492  16.1629  17.8726  18.0090  20.9287  21.7206
    22.5337  23.0115  23.2353  23.4448  24.2934  25.8436  27.3233  28.7026
    29.2196  30.5560  31.5220  31.8189  31.9723  32.2117  32.8838  34.0832
    34.8986  36.4703  36.8460  37.4148

          k = 0.0000 0.3333 0.2971 (  5391 PWs)   bands (ev):

   -10.2451 -10.0154  -9.7585  -9.6526  -9.4696  -9.4432  -9.3548  -9.3419
    -9.3381  -9.3141  -7.5028  -6.5323  -5.3853  -4.8632   3.3980   5.3053
     6.0146   6.3709   7.8340   8.1013   8.4559   8.9984   9.2014   9.6589
     9.9408  10.2593  14.7727  16.6676  18.8160  18.8430  20.0667  21.2339
    22.7572  23.0701  23.1360  23.2632  24.0694  25.2054  26.3608  28.5806
    29.5156  30.2963  31.6703  32.3541  32.4598  33.5658  33.7178  34.2249
    35.0672  36.2063  37.4354  37.6015

          k = 0.0000 0.3333 0.4457 (  5393 PWs)   bands (ev):

   -10.2615 -10.1862  -9.7834  -9.5665  -9.4242  -9.4199  -9.3670  -9.3608
    -9.3349  -9.3133  -7.2481  -6.3531  -5.0816  -4.8330   3.4225   4.9299
     5.6333   5.8675   7.2839   7.3111   8.8224   9.0328   9.0703   9.7662
     9.8494  10.1215  15.6114  17.0750  19.4177  19.4737  19.9661  21.0006
    22.6802  22.8671  23.1998  23.2483  23.7481  24.6297  25.8037  28.1387
    29.3042  31.1715  32.2394  32.5309  32.7989  33.2708  33.7878  35.1928
    36.1751  36.5619  36.9033  38.0816

          k = 0.0000 0.3333 0.5942 (  5389 PWs)   bands (ev):

   -10.3486 -10.3276  -9.6880  -9.5488  -9.4115  -9.4043  -9.3408  -9.3331
    -9.3256  -9.3142  -6.9314  -6.3746  -4.8429  -4.7724   3.5131   4.2657
     5.4997   5.7247   6.7857   6.8071   8.9522   9.1113   9.2385   9.6696
     9.8037   9.9557  16.3490  17.1461  19.0900  19.3456  21.0039  21.3950
    22.5314  22.7018  23.2498  23.2845  23.5123  24.0462  25.8751  27.0802
    30.3053  31.2956  32.5401  32.9795  33.1232  33.4287  34.2289  35.0238
    35.5166  36.2107  36.6268  38.2461

          k = 0.0000 0.3333-0.7428 (  5396 PWs)   bands (ev):

   -10.3842 -10.3842  -9.5967  -9.5967  -9.4127  -9.4127  -9.3195  -9.3195
    -9.3092  -9.3092  -6.6041  -6.6041  -4.7449  -4.7449   3.7752   3.7752
     5.5553   5.5553   6.6373   6.6373   9.0231   9.0231   9.5490   9.5490
     9.7986   9.7986  16.8803  16.8803  19.0945  19.0945  21.5793  21.5793
    22.5037  22.5037  23.3453  23.3454  23.5592  23.5592  26.3243  26.3243
    31.0698  31.0698  32.9258  32.9258  33.5758  33.5758  34.2862  34.2862
    35.8326  35.8326  36.9012  36.9012

          k = 0.0000-0.5000 0.0000 (  5364 PWs)   bands (ev):

   -10.1748 -10.1748  -9.5327  -9.5327  -9.5202  -9.5201  -9.3375  -9.3375
    -9.3147  -9.3147  -7.3464  -7.3464  -5.2702  -5.2702   4.2166   4.2166
     7.6865   7.6865   7.8252   7.8252   8.7995   8.7995   9.5402   9.5402
    10.1501  10.1501  14.9801  14.9801  17.7853  17.7853  21.5973  21.5973
    23.1531  23.1531  23.1786  23.1786  24.5849  24.5849  28.5993  28.5993
    29.3562  29.3562  31.0629  31.0629  32.0920  32.0920  32.8467  32.8467
    36.5101  36.5101  37.6738  37.6738

          k = 0.0000-0.5000 0.1486 (  5380 PWs)   bands (ev):

   -10.1497 -10.1496  -9.6224  -9.6223  -9.4834  -9.4834  -9.3374  -9.3374
    -9.3213  -9.3213  -7.2616  -7.2616  -5.2176  -5.2176   4.2368   4.2368
     6.9011   6.9011   8.3142   8.3142   8.8090   8.8090   9.4071   9.4071
    10.1115  10.1115  15.2184  15.2184  18.1514  18.1514  21.1820  21.1821
    23.1717  23.1717  23.2835  23.2835  24.3893  24.3893  28.1897  28.1897
    29.4389  29.4389  31.8057  31.8057  32.3456  32.3456  32.8517  32.8517
    36.4229  36.4229  37.0511  37.0511

          k = 0.0000-0.5000 0.2971 (  5398 PWs)   bands (ev):

   -10.1429 -10.1429  -9.7023  -9.7023  -9.4550  -9.4550  -9.3471  -9.3471
    -9.3265  -9.3265  -7.0677  -7.0677  -5.0762  -5.0762   4.2577   4.2577
     6.0790   6.0790   7.9459   7.9459   9.1178   9.1178   9.3287   9.3287
    10.0133  10.0134  15.7792  15.7792  19.0352  19.0352  20.4077  20.4077
    23.1644  23.1644  23.3487  23.3487  23.9647  23.9647  27.5724  27.5724
    29.8493  29.8494  32.2443  32.2443  32.5627  32.5627  34.1851  34.1851
    35.3956  35.3956  37.1623  37.1623

          k = 0.0000-0.5000 0.4457 (  5390 PWs)   bands (ev):

   -10.2515 -10.2515  -9.6455  -9.6455  -9.4240  -9.4240  -9.3602  -9.3602
    -9.3227  -9.3227  -6.8649  -6.8649  -4.8977  -4.8977   4.1684   4.1684
     5.5272   5.5272   7.2697   7.2697   9.1581   9.1581   9.5597   9.5597
     9.9291   9.9291  16.3787  16.3787  19.4020  19.4020  20.3682  20.3682
    23.0812  23.0812  23.1837  23.1837  23.7066  23.7066  27.0437  27.0437
    30.5900  30.5900  32.2284  32.2284  32.9076  32.9076  34.1599  34.1599
    35.9638  35.9638  37.3190  37.3190

          k = 0.0000-0.5000 0.5942 (  5384 PWs)   bands (ev):

   -10.3711 -10.3711  -9.5675  -9.5675  -9.4100  -9.4100  -9.3348  -9.3348
    -9.3182  -9.3182  -6.7182  -6.7182  -4.7542  -4.7542   3.9726   3.9726
     5.3002   5.3002   6.7737   6.7737   9.0808   9.0808   9.6913   9.6913
     9.9634   9.9634  16.8106  16.8106  18.9169  18.9169  21.2420  21.2420
    22.9524  22.9524  22.9992  22.9992  23.5525  23.5525  26.7169  26.7169
    31.2948  31.2948  32.5070  32.5070  32.9462  32.9462  34.0933  34.0933
    35.4867  35.4867  37.6756  37.6756

          k = 0.0000-0.5000-0.7428 (  5388 PWs)   bands (ev):

   -10.4175 -10.4175  -9.5433  -9.5433  -9.4104  -9.4104  -9.3184  -9.3184
    -9.3060  -9.3060  -6.6645  -6.6645  -4.7005  -4.7005   3.8770   3.8770
     5.2377   5.2377   6.6093   6.6093   9.0330   9.0330   9.7120   9.7120
    10.0112  10.0112  16.9712  16.9712  18.7099  18.7099  21.6651  21.6651
    22.8892  22.8892  22.9052  22.9052  23.4633  23.4633  26.6125  26.6125
    31.4997  31.4997  32.6349  32.6349  33.4944  33.4944  33.8279  33.8279
    35.1654  35.1654  37.1941  37.1941

          k = 0.1667 0.1667 0.0000 (  5401 PWs)   bands (ev):

   -10.4315  -9.8913  -9.5433  -9.5283  -9.5218  -9.4852  -9.3687  -9.3126
    -9.3092  -9.3057  -7.9130  -6.2968  -6.2945  -4.7301   3.0152   6.1242
     6.7504   7.0537   7.9929   8.4667   9.0157   9.1714   9.4612   9.5450
     9.9919  10.5134  12.9994  16.3103  17.3721  17.3964  21.3628  21.6434
    22.4396  22.7652  23.2448  23.4469  24.9756  27.8780  27.9591  28.6435
    29.3460  29.6191  30.1919  30.7835  32.9654  33.1320  33.5169  34.0128
    34.2503  36.2418  36.4362  37.1390

          k = 0.1667 0.1667 0.1486 (  5402 PWs)   bands (ev):

   -10.3903  -9.8624  -9.6215  -9.6139  -9.5213  -9.4526  -9.3658  -9.3211
    -9.3188  -9.3084  -7.8509  -6.2028  -6.1491  -4.7565   3.0168   5.9593
     6.8461   7.1343   7.6772   7.9910   8.9086   9.1161   9.3239   9.5549
    10.0165  10.5091  13.3696  16.5481  17.7349  17.7784  20.6353  22.1154
    22.4044  22.8107  23.2250  23.2928  24.7814  26.9612  27.7397  28.0649
    29.4887  30.3044  30.4300  31.7333  32.0721  33.5654  33.9780  34.2965
    34.5976  36.0216  36.2295  37.3102

          k = 0.1667 0.1667 0.2971 (  5404 PWs)   bands (ev):

   -10.2896  -9.9114  -9.8174  -9.6366  -9.4806  -9.4388  -9.3598  -9.3433
    -9.3427  -9.3083  -7.6743  -5.9951  -5.7896  -4.8238   3.0219   5.6140
     6.5743   7.1131   7.2642   7.7772   8.2391   8.6782   9.1397   9.8158
     9.9800  10.3973  14.2400  17.0101  18.6367  18.7172  19.8624  22.1389
    22.2709  22.9278  23.1345  23.1982  24.3352  25.8138  26.7703  27.6912
    29.6922  30.9098  31.0132  31.5362  32.7574  33.9161  34.1810  35.3286
    35.7733  36.1354  36.1688  37.6490

          k = 0.1667 0.1667 0.4457 (  5388 PWs)   bands (ev):

   -10.2492 -10.0344  -9.9761  -9.5576  -9.4265  -9.4071  -9.3782  -9.3642
    -9.3429  -9.3094  -7.3837  -5.8828  -5.3698  -4.8606   3.0560   5.0949
     5.8107   7.0648   7.1057   7.5331   7.7182   8.7377   9.0361   9.8389
     9.8695  10.1341  15.2176  17.2641  19.2778  19.7789  19.8152  21.7657
    22.0226  22.7881  23.2329  23.4785  23.9772  24.9039  25.7525  27.7954
    29.1361  30.9734  31.4386  32.6158  33.4729  33.5555  34.2865  35.7204
    36.2811  37.1760  37.4264  37.8331

          k = 0.1667 0.1667 0.5942 (  5387 PWs)   bands (ev):

   -10.3388 -10.1895  -9.8762  -9.5651  -9.4083  -9.4008  -9.3485  -9.3330
    -9.3312  -9.3132  -6.9837  -6.0650  -5.0389  -4.7909   3.1901   4.3503
     5.6479   6.5206   6.5534   7.5928   7.9248   9.0086   9.1337   9.6863
     9.7051   9.7759  16.0445  17.1751  19.0448  20.5600  20.7234  21.4883
    21.7311  22.7423  23.3784  23.5143  24.1026  24.1910  25.2042  27.1912
    29.7458  30.8727  31.7034  32.9603  33.8500  34.5700  34.7869  35.3630
    35.4026  36.8850  37.5546  37.8449

          k = 0.1667 0.1667-0.7428 (  5384 PWs)   bands (ev):

   -10.3829 -10.2449  -9.8105  -9.5903  -9.4140  -9.4095  -9.3215  -9.3197
    -9.3176  -9.3106  -6.6227  -6.3700  -4.9130  -4.7373   3.3645   3.9291
     5.6595   6.2706   6.3422   7.5386   8.1176   9.3251   9.3545   9.3626
     9.4904   9.6406  16.4808  16.9764  18.9704  20.7184  21.1625  21.5179
    21.5756  22.6879  23.5217  23.6790  23.6854  24.1953  25.0466  26.8586
    30.2395  30.8068  31.9823  33.2795  33.9542  34.0214  34.7987  35.5119
    35.8874  36.2711  37.2859  38.1800

          k = 0.1667 0.3333 0.0000 (  5407 PWs)   bands (ev):

   -10.3391 -10.0262  -9.5382  -9.5267  -9.5202  -9.5131  -9.3545  -9.3201
    -9.3147  -9.3077  -7.6388  -6.7261  -5.9116  -4.9982   3.5774   5.3711
     7.0592   7.3206   8.1311   8.3379   8.3825   9.1036   9.4680   9.5434
    10.0021  10.2606  14.0304  15.8693  17.6631  17.7571  21.3849  22.0103
    22.2800  22.9221  23.2075  23.9894  24.1708  26.1884  28.1786  28.5117
    29.0579  29.1291  29.6866  31.4940  31.5989  33.2734  33.8794  34.6176
    35.2210  36.0906  36.8100  37.2419

          k = 0.1667 0.3333 0.1486 (  5389 PWs)   bands (ev):

   -10.3019 -10.0011  -9.6226  -9.6169  -9.5101  -9.4682  -9.3526  -9.3239
    -9.3213  -9.3159  -7.5671  -6.6263  -5.8163  -4.9828   3.5738   5.2885
     6.7454   7.3134   7.6438   8.2630   8.6882   9.1209   9.2302   9.5004
    10.0088  10.2991  14.2832  16.0769  18.0214  18.1056  20.8396  21.8021
    22.4786  22.9972  23.2045  23.8219  24.0758  26.1395  27.2664  28.2781
    28.8878  30.0886  30.5217  30.9147  32.0797  33.6561  33.9299  34.4592
    35.0639  35.9522  36.6837  37.5356

          k = 0.1667 0.3333 0.2971 (  5388 PWs)   bands (ev):

   -10.2283 -10.0152  -9.7887  -9.6703  -9.4738  -9.4428  -9.3534  -9.3437
    -9.3377  -9.3158  -7.3884  -6.4171  -5.5612  -4.9340   3.5358   4.9840
     6.3778   6.5717   7.6767   7.8980   8.2996   9.0412   9.4163   9.5368
     9.9559  10.2764  14.8942  16.5022  18.9154  18.9362  19.9997  21.4063
    22.4682  23.0917  23.1919  23.5926  23.8080  25.7390  26.3254  28.1150
    29.2833  30.3004  30.9402  31.7211  32.1221  33.1732  34.4206  35.2492
    35.6356  36.2232  36.8131  37.3505

          k = 0.1667 0.3333 0.4457 (  5381 PWs)   bands (ev):

   -10.2631 -10.1301  -9.8518  -9.5904  -9.4267  -9.4103  -9.3729  -9.3611
    -9.3335  -9.3144  -7.1467  -6.2719  -5.2371  -4.8470   3.4305   4.5053
     5.7628   6.4858   7.0216   7.3295   8.5131   9.0980   9.3692   9.7373
     9.8700  10.1322  15.5785  16.7867  19.2987  19.7509  20.0065  21.1800
    22.2784  22.9568  23.2698  23.3673  23.7885  25.1107  25.6537  28.4534
    28.9341  30.6169  31.2976  31.8746  32.8299  33.1848  34.3890  35.3297
    36.4710  37.0257  37.3000  37.8567

          k = 0.1667 0.3333 0.5942 (  5391 PWs)   bands (ev):

   -10.3720 -10.2549  -9.7752  -9.5431  -9.4120  -9.4034  -9.3429  -9.3329
    -9.3249  -9.3148  -6.8662  -6.3007  -4.9696  -4.7458   3.3238   4.0366
     5.5208   6.1873   6.4786   7.1626   8.6980   9.2594   9.4247   9.6709
     9.8474   9.9289  16.1079  16.8245  18.8561  19.9966  20.9509  21.4440
    22.0561  22.8575  23.1973  23.5025  23.7790  24.4158  25.5158  27.6969
    29.8325  30.5236  31.3678  32.4239  33.4481  33.9099  34.5925  34.9554
    36.0286  36.3420  37.2502  37.9642

          k = 0.1667 0.3333-0.7428 (  5400 PWs)   bands (ev):

   -10.4174 -10.3044  -9.7329  -9.5374  -9.4158  -9.4106  -9.3196  -9.3182
    -9.3126  -9.3072  -6.6651  -6.4183  -4.8663  -4.6986   3.2931   3.8343
     5.4693   6.0036   6.2882   7.1682   8.7593   9.3677   9.5123   9.6523
     9.6879   9.8749  16.3203  16.7944  18.6812  19.9935  21.3918  21.6331
    21.9707  22.7911  23.2153  23.7081  23.8137  23.9014  25.5398  27.3810
    30.2663  30.4246  31.4244  33.1360  33.9859  34.0260  34.1255  34.8434
    35.6349  36.1931  37.3975  37.6055

          k = 0.1667-0.5000 0.0000 (  5400 PWs)   bands (ev):

   -10.1944 -10.1944  -9.5293  -9.5292  -9.5227  -9.5227  -9.3365  -9.3365
    -9.3122  -9.3121  -7.2179  -7.2179  -5.4307  -5.4307   4.4172   4.4172
     7.6531   7.6531   7.7089   7.7089   8.8004   8.8005   9.5072   9.5073
    10.0768  10.0769  15.0799  15.0799  17.8890  17.8890  21.5648  21.5648
    23.1350  23.1350  23.1853  23.1853  24.7729  24.7729  28.6212  28.6212
    29.2021  29.2021  29.6444  29.6444  32.9583  32.9583  33.6293  33.6293
    36.2357  36.2357  37.5496  37.5496

          k = 0.1667-0.5000 0.1486 (  5382 PWs)   bands (ev):

   -10.1638 -10.1638  -9.6207  -9.6207  -9.4901  -9.4900  -9.3361  -9.3361
    -9.3206  -9.3205  -7.1329  -7.1329  -5.3725  -5.3725   4.3931   4.3931
     6.9354   6.9355   8.2039   8.2039   8.7030   8.7030   9.4260   9.4260
    10.0918  10.0918  15.2822  15.2822  18.2365  18.2365  21.1980  21.1980
    23.0900  23.0900  23.2131  23.2132  24.7714  24.7714  27.8970  27.8970
    29.5054  29.5054  30.2778  30.2778  32.8177  32.8177  34.0645  34.0645
    36.3701  36.3701  36.7167  36.7167

          k = 0.1667-0.5000 0.2971 (  5378 PWs)   bands (ev):

   -10.1324 -10.1324  -9.7296  -9.7296  -9.4592  -9.4592  -9.3475  -9.3475
    -9.3269  -9.3269  -6.9425  -6.9425  -5.2121  -5.2121   4.2569   4.2569
     6.3022   6.3022   7.7901   7.7901   8.9780   8.9780   9.3878   9.3878
    10.0554  10.0554  15.7376  15.7376  19.0684  19.0684  20.5142  20.5142
    22.9620  22.9620  23.2355  23.2355  24.5559  24.5559  27.4103  27.4103
    29.5665  29.5665  31.2434  31.2434  32.6057  32.6058  34.9867  34.9867
    35.9151  35.9151  36.6710  36.6710

          k = 0.1667-0.5000 0.4457 (  5394 PWs)   bands (ev):

   -10.2222 -10.2222  -9.7011  -9.7011  -9.4200  -9.4199  -9.3646  -9.3646
    -9.3229  -9.3228  -6.7503  -6.7503  -5.0013  -5.0013   3.9402   3.9402
     5.9689   5.9689   7.1137   7.1137   9.2209   9.2209   9.4738   9.4738
     9.9699   9.9699  16.1549  16.1549  19.5318  19.5318  20.4584  20.4584
    22.7340  22.7340  23.2590  23.2590  24.2658  24.2658  27.0461  27.0461
    29.9901  29.9901  31.6704  31.6704  32.5889  32.5889  34.7231  34.7231
    36.5210  36.5210  37.4816  37.4816

          k = 0.1667-0.5000 0.5942 (  5388 PWs)   bands (ev):

   -10.3399 -10.3399  -9.6285  -9.6284  -9.4089  -9.4089  -9.3365  -9.3365
    -9.3186  -9.3186  -6.6159  -6.6159  -4.8247  -4.8247   3.6118   3.6119
     5.7941   5.7941   6.6975   6.6975   9.2179   9.2179   9.6674   9.6674
     9.8981   9.8981  16.3695  16.3695  19.2569  19.2569  21.2330  21.2330
    22.5323  22.5323  23.2792  23.2792  24.0194  24.0194  26.7928  26.7928
    30.4724  30.4724  31.5494  31.5494  33.2873  33.2873  34.6221  34.6221
    36.0037  36.0037  37.9855  37.9855

          k = 0.1667-0.5000-0.7428 (  5388 PWs)   bands (ev):

   -10.3865 -10.3865  -9.6021  -9.6020  -9.4129  -9.4129  -9.3181  -9.3181
    -9.3082  -9.3082  -6.5676  -6.5676  -4.7567  -4.7567   3.4809   3.4809
     5.7000   5.7000   6.6001   6.6001   9.1882   9.1882   9.7642   9.7642
     9.8615   9.8615  16.4214  16.4214  19.1394  19.1394  21.6208  21.6208
    22.4241  22.4241  23.3122  23.3122  23.8780  23.8780  26.7072  26.7072
    30.6790  30.6790  31.4576  31.4576  34.1200  34.1200  34.5745  34.5745
    35.2558  35.2558  37.9203  37.9203

          k = 0.3333 0.3333 0.0000 (  5392 PWs)   bands (ev):

   -10.3041 -10.1270  -9.5307  -9.5294  -9.5230  -9.5175  -9.3454  -9.3255
    -9.3120  -9.3051  -7.3264  -6.3534  -6.3411  -5.3512   4.1492   5.4378
     6.8450   7.5065   7.8482   7.9885   8.5354   9.0307   9.4230   9.4976
     9.9194  10.0792  14.6536  15.6868  17.9465  17.9843  21.3249  21.9126
    22.6956  22.9357  23.2279  23.7907  24.3985  25.5920  28.1032  28.3695
    28.6735  28.6896  28.9438  31.5755  32.2080  32.5383  34.2115  34.6888
    35.7415  36.1790  36.9118  37.6013

          k = 0.3333 0.3333 0.1486 (  5402 PWs)   bands (ev):

   -10.2636 -10.0930  -9.6207  -9.6158  -9.5122  -9.4840  -9.3439  -9.3251
    -9.3221  -9.3172  -7.2485  -6.3109  -6.2059  -5.3084   4.0951   5.1843
     6.9385   7.1707   7.5678   8.2722   8.3940   8.8242   9.3183   9.6143
     9.9384  10.1682  14.8297  15.8415  18.2786  18.2994  20.9129  21.8552
    22.3310  23.1458  23.2347  23.4410  24.6303  26.0485  27.2138  27.7092
    28.2376  29.6245  29.9075  30.9847  32.5231  33.2403  34.1419  34.7407
    34.8005  36.0747  37.2815  37.7900

          k = 0.3333 0.3333 0.2971 (  5392 PWs)   bands (ev):

   -10.1793 -10.0384  -9.8211  -9.7237  -9.4738  -9.4526  -9.3503  -9.3452
    -9.3345  -9.3206  -7.0690  -6.2452  -5.8415  -5.1810   3.8791   4.6119
     6.5566   7.1820   7.4357   7.5958   8.0650   9.1482   9.3078   9.6729
     9.9350  10.2260  15.2269  16.1235  19.0591  19.0842  20.1912  21.6604
    21.8869  23.0002  23.2947  23.3168  24.7028  26.1660  26.8056  27.0051
    28.5795  29.4632  30.6956  31.2855  32.3554  33.0256  34.4379  35.0968
    35.6582  36.0220  37.2187  38.1684

          k = 0.3333 0.3333 0.4457 (  5389 PWs)   bands (ev):

   -10.2265 -10.0394  -9.9572  -9.6865  -9.4214  -9.4048  -9.3786  -9.3651
    -9.3289  -9.3177  -6.8616  -6.2047  -5.4162  -4.9956   3.4914   3.9909
     6.2791   6.7616   6.7649   7.6144   8.0808   9.4063   9.4397   9.6541
     9.9090  10.1398  15.5874  16.2288  19.4531  19.8250  20.2155  21.4517
    21.6980  22.6996  23.2821  23.5176  24.8004  25.4476  25.8587  28.1648
    28.9724  28.9919  30.3989  31.6945  32.2367  33.4216  34.8992  35.2358
    36.4453  36.7718  37.1194  38.4212

          k = 0.3333 0.3333 0.5942 (  5375 PWs)   bands (ev):

   -10.3411 -10.1952  -9.8565  -9.6222  -9.4092  -9.4018  -9.3446  -9.3353
    -9.3224  -9.3163  -6.6617  -6.2329  -5.0803  -4.8279   3.1313   3.5192
     6.1794   6.1856   6.2547   7.9825   8.1318   9.5468   9.5955   9.6333
     9.8595   9.9549  15.7760  16.1482  19.1465  20.1349  20.9666  21.5385
    21.7737  22.4939  23.2749  23.7806  24.9081  24.9853  25.2329  28.6834
    28.8553  29.1805  30.0588  31.9063  32.8907  34.1843  34.9011  35.3400
    36.0664  37.1093  37.4263  37.4614

          k = 0.3333 0.3333-0.7428 (  5374 PWs)   bands (ev):

   -10.3875 -10.2507  -9.8176  -9.6012  -9.4146  -9.4105  -9.3186  -9.3169
    -9.3147  -9.3091  -6.5499  -6.2835  -4.9524  -4.7608   2.9893   3.3462
     5.9589   5.9712   6.2747   8.1420   8.1538   9.6298   9.6420   9.6799
     9.7513   9.8628  15.8275  16.0862  19.0292  20.1459  21.2348  21.6745
    21.9444  22.3635  23.3001  23.9772  24.5579  25.0348  25.0770  28.5968
    28.6849  29.5794  30.0747  31.9878  33.6028  34.4270  34.8524  35.3936
    35.4274  36.7035  37.7040  37.7845

          k = 0.3333-0.5000 0.0000 (  5406 PWs)   bands (ev):

   -10.2314 -10.2314  -9.5276  -9.5276  -9.5233  -9.5233  -9.3345  -9.3345
    -9.3073  -9.3072  -6.8652  -6.8652  -5.8451  -5.8451   4.8970   4.8970
     7.2184   7.2184   7.7565   7.7565   8.8120   8.8121   9.4393   9.4393
     9.9387   9.9387  15.2780  15.2780  18.0865  18.0865  21.5953  21.5953
    23.1811  23.1811  23.2507  23.2507  24.6530  24.6530  28.2679  28.2679
    28.6490  28.6490  29.8771  29.8771  33.2801  33.2801  33.4067  33.4067
    36.3588  36.3588  36.7445  36.7445

          k = 0.3333-0.5000 0.1486 (  5416 PWs)   bands (ev):

   -10.1913 -10.1913  -9.6179  -9.6179  -9.5020  -9.5020  -9.3334  -9.3334
    -9.3192  -9.3192  -6.7831  -6.7831  -5.7741  -5.7741   4.7384   4.7384
     6.9931   6.9931   7.9707   7.9707   8.4722   8.4722   9.5299   9.5299
     9.9929   9.9929  15.4143  15.4143  18.3932  18.3932  21.3639  21.3639
    22.7580  22.7580  23.3132  23.3132  25.1976  25.1976  27.5165  27.5165
    28.6693  28.6693  30.4539  30.4539  33.0021  33.0021  33.9925  33.9926
    35.4537  35.4537  37.8100  37.8100

          k = 0.3333-0.5000 0.2971 (  5380 PWs)   bands (ev):

   -10.1068 -10.1068  -9.7893  -9.7892  -9.4657  -9.4657  -9.3472  -9.3472
    -9.3276  -9.3276  -6.6171  -6.6171  -5.5606  -5.5606   4.2682   4.2682
     6.8378   6.8378   7.5425   7.5425   8.5057   8.5057   9.6154   9.6154
    10.0463  10.0463  15.6723  15.6723  19.1149  19.1149  20.8778  20.8778
    22.3472  22.3472  23.4158  23.4158  25.6149  25.6149  27.0575  27.0575
    28.3795  28.3795  30.9760  30.9761  32.8028  32.8028  34.7736  34.7736
    35.4501  35.4501  37.6014  37.6014

          k = 0.3333-0.5000 0.4457 (  5374 PWs)   bands (ev):

   -10.1381 -10.1381  -9.8349  -9.8349  -9.4121  -9.4121  -9.3727  -9.3727
    -9.3230  -9.3229  -6.4758  -6.4758  -5.2574  -5.2574   3.6618   3.6618
     6.6204   6.6204   7.0676   7.0676   8.7888   8.7888   9.6757   9.6758
    10.0179  10.0179  15.7921  15.7921  19.6621  19.6621  20.7849  20.7849
    22.1064  22.1064  23.5587  23.5587  25.3736  25.3736  26.9815  26.9815
    28.5782  28.5782  30.7356  30.7356  33.0315  33.0315  35.0989  35.0989
    36.2582  36.2582  37.6417  37.6418

          k = 0.3333-0.5000 0.5942 (  5362 PWs)   bands (ev):

   -10.2588 -10.2588  -9.7668  -9.7668  -9.4039  -9.4039  -9.3411  -9.3411
    -9.3189  -9.3189  -6.3881  -6.3881  -4.9934  -4.9934   3.1838   3.1838
     6.0881   6.0881   7.1716   7.1716   8.9963   8.9963   9.7206   9.7206
     9.9374   9.9374  15.7454  15.7454  19.6281  19.6282  21.2853  21.2853
    22.0284  22.0284  23.6508  23.6508  25.0897  25.0897  26.8402  26.8402
    29.0678  29.0678  30.4024  30.4024  33.5832  33.5832  35.2628  35.2628
    36.3823  36.3823  37.9202  37.9202

          k = 0.3333-0.5000-0.7428 (  5356 PWs)   bands (ev):

   -10.3082 -10.3082  -9.7374  -9.7374  -9.4114  -9.4113  -9.3175  -9.3175
    -9.3129  -9.3129  -6.3578  -6.3578  -4.8897  -4.8897   3.0058   3.0058
     5.8763   5.8763   7.2411   7.2411   9.0748   9.0748   9.7425   9.7425
     9.8876   9.8876  15.7002  15.7002  19.5564  19.5564  21.5718  21.5718
    22.0042  22.0042  23.6861  23.6861  24.9599  24.9599  26.7834  26.7834
    29.2971  29.2971  30.3020  30.3020  33.9420  33.9420  35.2835  35.2835
    36.4497  36.4497  37.2510  37.2510

          k =-0.5000-0.5000 0.0000 (  5436 PWs)   bands (ev):

   -10.2489 -10.2489  -9.5300  -9.5300  -9.5207  -9.5207  -9.3336  -9.3335
    -9.3049  -9.3049  -6.3831  -6.3831  -6.3574  -6.3574   5.2191   5.2191
     6.9141   6.9141   7.7814   7.7814   8.8216   8.8216   9.4037   9.4037
     9.8727   9.8727  15.3773  15.3773  18.1756  18.1756  21.6708  21.6708
    23.2835  23.2835  23.3685  23.3685  24.1974  24.1975  28.0409  28.0409
    28.6542  28.6542  30.6229  30.6229  32.1425  32.1425  33.9495  33.9495
    35.3949  35.3949  37.0494  37.0494

          k =-0.5000-0.5000 0.1486 (  5404 PWs)   bands (ev):

   -10.2046 -10.2046  -9.6167  -9.6167  -9.5074  -9.5074  -9.3320  -9.3320
    -9.3186  -9.3186  -6.3482  -6.3482  -6.2344  -6.2344   4.9365   4.9365
     7.0003   7.0003   7.8693   7.8693   8.3361   8.3361   9.6458   9.6458
     9.8808   9.8808  15.4831  15.4831  18.4607  18.4607  21.5928  21.5928
    22.4857  22.4857  23.4016  23.4016  25.1556  25.1556  27.7836  27.7837
    28.0017  28.0017  31.1763  31.1763  32.2978  32.2979  34.1858  34.1858
    34.7900  34.7900  38.1869  38.1869

          k =-0.5000-0.5000 0.2971 (  5408 PWs)   bands (ev):

   -10.0902 -10.0902  -9.8228  -9.8228  -9.4683  -9.4682  -9.3466  -9.3465
    -9.3280  -9.3279  -6.3225  -6.3224  -5.8675  -5.8675   4.2792   4.2792
     7.1650   7.1650   7.5944   7.5944   8.0410   8.0410   9.8518   9.8518
     9.9014   9.9014  15.6481  15.6481  19.1265  19.1265  21.3607  21.3608
    21.7691  21.7691  23.5435  23.5435  26.3808  26.3808  27.1752  27.1752
    27.1996  27.1996  31.1135  31.1135  32.7274  32.7274  34.7005  34.7005
    35.2143  35.2143  37.5404  37.5404

          k =-0.5000-0.5000 0.4457 (  5380 PWs)   bands (ev):

   -10.0418 -10.0418  -9.9549  -9.9548  -9.4077  -9.4077  -9.3769  -9.3769
    -9.3229  -9.3229  -6.2865  -6.2865  -5.4392  -5.4392   3.5621   3.5621
     6.6085   6.6085   7.6942   7.6942   8.1969   8.1969   9.9106   9.9106
     9.9278   9.9278  15.6416  15.6416  19.6789  19.6789  21.2207  21.2207
    21.5624  21.5624  23.7393  23.7393  26.5962  26.5962  26.7092  26.7092
    27.4200  27.4200  30.4280  30.4280  33.2712  33.2712  35.1994  35.1994
    36.4003  36.4003  36.9350  36.9350

          k =-0.5000-0.5000 0.5942 (  5396 PWs)   bands (ev):

   -10.1979 -10.1979  -9.8549  -9.8548  -9.4005  -9.4005  -9.3441  -9.3441
    -9.3189  -9.3189  -6.2533  -6.2533  -5.1009  -5.1009   3.0261   3.0261
     6.0289   6.0289   8.0269   8.0269   8.3021   8.3021   9.8679   9.8679
     9.9493   9.9493  15.4981  15.4981  19.7204  19.7204  21.4748  21.4748
    21.6639  21.6639  23.8420  23.8420  26.1709  26.1709  26.5360  26.5361
    28.1703  28.1703  30.0012  30.0012  33.6289  33.6289  35.5306  35.5307
    36.8973  36.8973  37.0772  37.0772

          k =-0.5000-0.5000-0.7428 (  5344 PWs)   bands (ev):

   -10.2536 -10.2535  -9.8198  -9.8198  -9.4093  -9.4093  -9.3173  -9.3173
    -9.3154  -9.3154  -6.2393  -6.2393  -4.9719  -4.9719   2.8286   2.8286
     5.8135   5.8135   8.1790   8.1790   8.3399   8.3399   9.8268   9.8268
     9.9578   9.9578  15.4195  15.4195  19.6518  19.6518  21.6574  21.6574
    21.7440  21.7440  23.8614  23.8614  26.0196  26.0196  26.4851  26.4851
    28.4632  28.4632  29.9087  29.9087  33.7059  33.7059  35.6452  35.6452
    37.2320  37.2320  37.2326  37.2326

     the Fermi energy is    10.8937 ev

!    total energy              =    -369.22310599 Ry
     estimated scf accuracy    <          1.5E-11 Ry
     smearing contrib. (-TS)   =      -0.00000000 Ry
     internal energy E=F+TS    =    -369.22310599 Ry

     The total energy is F=E-TS. E is the sum of the following terms:
     one-electron contribution =     -82.24735016 Ry
     hartree contribution      =      76.84798596 Ry
     xc contribution           =     -58.06060516 Ry
     ewald contribution        =    -305.76313662 Ry

     convergence has been achieved in  10 iterations

     Writing all to output data dir out/mp-856.save/
 
     init_run     :      1.31s CPU      1.38s WALL (       1 calls)
     electrons    :     62.93s CPU     64.68s WALL (       1 calls)

     Called by init_run:
     wfcinit      :      1.20s CPU      1.25s WALL (       1 calls)
     potinit      :      0.04s CPU      0.05s WALL (       1 calls)
     hinit0       :      0.02s CPU      0.04s WALL (       1 calls)

     Called by electrons:
     c_bands      :     58.14s CPU     59.69s WALL (      10 calls)
     sum_band     :      4.72s CPU      4.91s WALL (      10 calls)
     v_of_rho     :      0.06s CPU      0.07s WALL (      11 calls)
     mix_rho      :      0.01s CPU      0.01s WALL (      10 calls)

     Called by c_bands:
     init_us_2    :      0.35s CPU      0.38s WALL (    1260 calls)
     init_us_2:cp :      0.34s CPU      0.37s WALL (    1260 calls)
     cegterg      :     56.41s CPU     57.76s WALL (     600 calls)

     Called by *egterg:
     cdiaghg      :     13.20s CPU     13.37s WALL (    4222 calls)
     h_psi        :     34.12s CPU     35.27s WALL (    4282 calls)
     g_psi        :      0.34s CPU      0.35s WALL (    3622 calls)

     Called by h_psi:
     h_psi:calbec :      1.79s CPU      1.84s WALL (    4282 calls)
     vloc_psi     :     30.61s CPU     31.67s WALL (    4282 calls)
     add_vuspsi   :      1.49s CPU      1.51s WALL (    4282 calls)

     General routines
     calbec       :      1.78s CPU      1.83s WALL (    4282 calls)
     fft          :      0.03s CPU      0.04s WALL (     109 calls)
     ffts         :      0.00s CPU      0.00s WALL (      10 calls)
     fftw         :     31.10s CPU     32.18s WALL (  263552 calls)
 
     Parallel routines
 
     PWSCF        :   1m 4.53s CPU   1m 6.62s WALL

 
   This run was terminated on:  14:30:22   3Jan2024            

=------------------------------------------------------------------------------=
   JOB DONE.
=------------------------------------------------------------------------------=
