
     Program PWSCF v.7.1 starts on  3Jan2024 at 14:27: 1 

     This program is part of the open-source Quantum ESPRESSO suite
     for quantum simulation of materials; please cite
         "P. Giannozzi et al., J. Phys.:Condens. Matter 21 395502 (2009);
         "P. Giannozzi et al., J. Phys.:Condens. Matter 29 465901 (2017);
         "P. Giannozzi et al., J. Chem. Phys. 152 154105 (2020);
          URL http://www.quantum-espresso.org", 
     in publications or presentations arising from this work. More details at
     http://www.quantum-espresso.org/quote

     Parallel version (MPI), running on     8 processors

     MPI processes distributed on     1 nodes
     122508 MiB available memory on the printing compute node when the environment starts
 
     Reading input from pw_mp-1138_scf_k3000_E65.in
Warning: card &CELL ignored
Warning: card / ignored

     Current dimensions of program PWSCF are:
     Max number of different atomic species (ntypx) = 10
     Max number of k-points (npk) =  40000
     Max angular momentum in pseudopotentials (lmaxx) =  4
 
     R & G space division:  proc/nbgrp/npool/nimage =       8
     Subspace diagonalization in iterative solution of the eigenvalue problem:
     a serial algorithm will be used

 
     Parallelization info
     --------------------
     sticks:   dense  smooth     PW     G-vecs:    dense   smooth      PW
     Min          66      66     20                 1012     1012     181
     Max          68      68     21                 1013     1013     185
     Sum         535     535    163                 8099     8099    1459
 
     Using Slab Decomposition
 


     bravais-lattice index     =            2
     lattice parameter (alat)  =       7.7166  a.u.
     unit-cell volume          =     114.8711 (a.u.)^3
     number of atoms/cell      =            2
     number of atomic types    =            2
     number of electrons       =        10.00
     number of Kohn-Sham states=           10
     kinetic-energy cutoff     =      65.0000  Ry
     charge density cutoff     =     260.0000  Ry
     scf convergence threshold =      1.0E-10
     mixing beta               =       0.7000
     number of iterations used =            8  plain     mixing
     Exchange-correlation= PBE
                           (   1   4   3   4   0   0   0)

     celldm(1)=   7.716558  celldm(2)=   0.000000  celldm(3)=   0.000000
     celldm(4)=   0.000000  celldm(5)=   0.000000  celldm(6)=   0.000000

     crystal axes: (cart. coord. in units of alat)
               a(1) = (  -0.500000   0.000000   0.500000 )  
               a(2) = (   0.000000   0.500000   0.500000 )  
               a(3) = (  -0.500000   0.500000   0.000000 )  

     reciprocal axes: (cart. coord. in units 2 pi/alat)
               b(1) = ( -1.000000 -1.000000  1.000000 )  
               b(2) = (  1.000000  1.000000  1.000000 )  
               b(3) = ( -1.000000  1.000000 -1.000000 )  


     PseudoPot. # 1 for F  read from file:
     /usr/scratch4/magr4985/MG/devEb/pseudo/SG15/F.upf
     MD5 check sum: 24dce47753c7134a0159dc9c6586d93a
     Pseudo is Norm-conserving, Zval =  7.0
     Generated using ONCVPSP code by D. R. Hamann
     Using radial grid of  602 points,  4 beta functions with: 
                l(1) =   0
                l(2) =   0
                l(3) =   1
                l(4) =   1

     PseudoPot. # 2 for Li read from file:
     /usr/scratch4/magr4985/MG/devEb/pseudo/SG15/Li.upf
     MD5 check sum: 3f44d372514b3afe6bea25451e727200
     Pseudo is Norm-conserving, Zval =  3.0
     Generated using ONCVPSP code by D. R. Hamann
     Using radial grid of  602 points,  4 beta functions with: 
                l(1) =   0
                l(2) =   0
                l(3) =   1
                l(4) =   1

     atomic species   valence    mass     pseudopotential
        F              7.00    18.99840     F ( 1.00)
        Li             3.00     6.94100     Li( 1.00)

     48 Sym. Ops., with inversion, found



   Cartesian axes

     site n.     atom                  positions (alat units)
         1           Li  tau(   1) = (   0.0000000   0.0000000   0.0000000  )
         2           F   tau(   2) = (  -0.5000000   0.5000000   0.5000000  )

     number of k points=    72  Gaussian smearing, width (Ry)=  0.0005
                       cart. coord. in units 2pi/alat
        k(    1) = (   0.0000000   0.0000000   0.0000000), wk =   0.0011574
        k(    2) = (  -0.0833333   0.0833333  -0.0833333), wk =   0.0092593
        k(    3) = (  -0.1666667   0.1666667  -0.1666667), wk =   0.0092593
        k(    4) = (  -0.2500000   0.2500000  -0.2500000), wk =   0.0092593
        k(    5) = (  -0.3333333   0.3333333  -0.3333333), wk =   0.0092593
        k(    6) = (  -0.4166667   0.4166667  -0.4166667), wk =   0.0092593
        k(    7) = (   0.5000000  -0.5000000   0.5000000), wk =   0.0046296
        k(    8) = (   0.0000000   0.1666667   0.0000000), wk =   0.0069444
        k(    9) = (  -0.0833333   0.2500000  -0.0833333), wk =   0.0277778
        k(   10) = (  -0.1666667   0.3333333  -0.1666667), wk =   0.0277778
        k(   11) = (  -0.2500000   0.4166667  -0.2500000), wk =   0.0277778
        k(   12) = (  -0.3333333   0.5000000  -0.3333333), wk =   0.0277778
        k(   13) = (   0.5833333  -0.4166667   0.5833333), wk =   0.0277778
        k(   14) = (   0.5000000  -0.3333333   0.5000000), wk =   0.0277778
        k(   15) = (   0.4166667  -0.2500000   0.4166667), wk =   0.0277778
        k(   16) = (   0.3333333  -0.1666667   0.3333333), wk =   0.0277778
        k(   17) = (   0.2500000  -0.0833333   0.2500000), wk =   0.0277778
        k(   18) = (   0.1666667  -0.0000000   0.1666667), wk =   0.0138889
        k(   19) = (   0.0000000   0.3333333   0.0000000), wk =   0.0069444
        k(   20) = (  -0.0833333   0.4166667  -0.0833333), wk =   0.0277778
        k(   21) = (  -0.1666667   0.5000000  -0.1666667), wk =   0.0277778
        k(   22) = (  -0.2500000   0.5833333  -0.2500000), wk =   0.0277778
        k(   23) = (   0.6666667  -0.3333333   0.6666667), wk =   0.0277778
        k(   24) = (   0.5833333  -0.2500000   0.5833333), wk =   0.0277778
        k(   25) = (   0.5000000  -0.1666667   0.5000000), wk =   0.0277778
        k(   26) = (   0.4166667  -0.0833333   0.4166667), wk =   0.0277778
        k(   27) = (   0.3333333   0.0000000   0.3333333), wk =   0.0138889
        k(   28) = (   0.0000000   0.5000000   0.0000000), wk =   0.0069444
        k(   29) = (  -0.0833333   0.5833333  -0.0833333), wk =   0.0277778
        k(   30) = (  -0.1666667   0.6666667  -0.1666667), wk =   0.0277778
        k(   31) = (   0.7500000  -0.2500000   0.7500000), wk =   0.0277778
        k(   32) = (   0.6666667  -0.1666667   0.6666667), wk =   0.0277778
        k(   33) = (   0.5833333  -0.0833333   0.5833333), wk =   0.0277778
        k(   34) = (   0.5000000   0.0000000   0.5000000), wk =   0.0138889
        k(   35) = (   0.0000000   0.6666667   0.0000000), wk =   0.0069444
        k(   36) = (  -0.0833333   0.7500000  -0.0833333), wk =   0.0277778
        k(   37) = (   0.8333333  -0.1666667   0.8333333), wk =   0.0277778
        k(   38) = (   0.7500000  -0.0833333   0.7500000), wk =   0.0277778
        k(   39) = (   0.6666667  -0.0000000   0.6666667), wk =   0.0138889
        k(   40) = (   0.0000000   0.8333333   0.0000000), wk =   0.0069444
        k(   41) = (   0.9166667  -0.0833333   0.9166667), wk =   0.0277778
        k(   42) = (   0.8333333   0.0000000   0.8333333), wk =   0.0138889
        k(   43) = (   0.0000000  -1.0000000   0.0000000), wk =   0.0034722
        k(   44) = (  -0.1666667   0.3333333   0.0000000), wk =   0.0277778
        k(   45) = (  -0.2500000   0.4166667  -0.0833333), wk =   0.0555556
        k(   46) = (  -0.3333333   0.5000000  -0.1666667), wk =   0.0555556
        k(   47) = (   0.5833333  -0.4166667   0.7500000), wk =   0.0555556
        k(   48) = (   0.5000000  -0.3333333   0.6666667), wk =   0.0277778
        k(   49) = (  -0.1666667   0.5000000   0.0000000), wk =   0.0277778
        k(   50) = (  -0.2500000   0.5833333  -0.0833333), wk =   0.0555556
        k(   51) = (   0.6666667  -0.3333333   0.8333333), wk =   0.0555556
        k(   52) = (   0.5833333  -0.2500000   0.7500000), wk =   0.0555556
        k(   53) = (   0.5000000  -0.1666667   0.6666667), wk =   0.0555556
        k(   54) = (   0.4166667  -0.0833333   0.5833333), wk =   0.0555556
        k(   55) = (   0.3333333   0.0000000   0.5000000), wk =   0.0277778
        k(   56) = (  -0.1666667   0.6666667  -0.0000000), wk =   0.0277778
        k(   57) = (   0.7500000  -0.2500000   0.9166667), wk =   0.0555556
        k(   58) = (   0.6666667  -0.1666667   0.8333333), wk =   0.0555556
        k(   59) = (   0.5833333  -0.0833333   0.7500000), wk =   0.0555556
        k(   60) = (   0.5000000   0.0000000   0.6666667), wk =   0.0277778
        k(   61) = (   0.8333333  -0.1666667   1.0000000), wk =   0.0277778
        k(   62) = (   0.7500000  -0.0833333   0.9166667), wk =   0.0555556
        k(   63) = (   0.6666667   0.0000000   0.8333333), wk =   0.0277778
        k(   64) = (  -0.1666667  -1.0000000  -0.0000000), wk =   0.0138889
        k(   65) = (   0.6666667  -0.3333333   1.0000000), wk =   0.0277778
        k(   66) = (   0.5833333  -0.2500000   0.9166667), wk =   0.0555556
        k(   67) = (   0.5000000  -0.1666667   0.8333333), wk =   0.0277778
        k(   68) = (   0.6666667  -0.1666667   1.0000000), wk =   0.0277778
        k(   69) = (   0.5833333  -0.0833333   0.9166667), wk =   0.0555556
        k(   70) = (   0.5000000   0.0000000   0.8333333), wk =   0.0277778
        k(   71) = (  -0.3333333  -1.0000000   0.0000000), wk =   0.0138889
        k(   72) = (  -0.5000000  -1.0000000   0.0000000), wk =   0.0069444

     Dense  grid:     8099 G-vectors     FFT dimensions: (  30,  30,  30)

     Estimated max dynamical RAM per process >       2.98 MB

     Estimated total dynamical RAM >      23.86 MB

     Initial potential from superposition of free atoms

     starting charge       9.8869, renormalised to      10.0000
     Starting wfcs are random

     total cpu time spent up to now is        0.2 secs

     Self-consistent Calculation

     iteration #  1     ecut=    65.00 Ry     beta= 0.70
     Davidson diagonalization with overlap
     c_bands:  1 eigenvalues not converged
     ethr =  5.00E-06,  avg # of iterations = 12.6

     total cpu time spent up to now is        1.1 secs

     total energy              =     -62.26244415 Ry
     estimated scf accuracy    <       0.06478159 Ry

     iteration #  2     ecut=    65.00 Ry     beta= 0.70
     Davidson diagonalization with overlap
     ethr =  6.48E-04,  avg # of iterations =  2.1

     total cpu time spent up to now is        1.3 secs

     total energy              =     -62.27776227 Ry
     estimated scf accuracy    <       0.03374324 Ry

     iteration #  3     ecut=    65.00 Ry     beta= 0.70
     Davidson diagonalization with overlap
     ethr =  3.37E-04,  avg # of iterations =  1.7

     total cpu time spent up to now is        1.6 secs

     total energy              =     -62.28494482 Ry
     estimated scf accuracy    <       0.00050999 Ry

     iteration #  4     ecut=    65.00 Ry     beta= 0.70
     Davidson diagonalization with overlap
     ethr =  5.10E-06,  avg # of iterations =  2.6

     total cpu time spent up to now is        1.8 secs

     total energy              =     -62.28504799 Ry
     estimated scf accuracy    <       0.00000774 Ry

     iteration #  5     ecut=    65.00 Ry     beta= 0.70
     Davidson diagonalization with overlap
     ethr =  7.74E-08,  avg # of iterations =  2.5

     total cpu time spent up to now is        2.1 secs

     total energy              =     -62.28504970 Ry
     estimated scf accuracy    <       0.00000029 Ry

     iteration #  6     ecut=    65.00 Ry     beta= 0.70
     Davidson diagonalization with overlap
     ethr =  2.89E-09,  avg # of iterations =  3.6

     total cpu time spent up to now is        2.4 secs

     total energy              =     -62.28504978 Ry
     estimated scf accuracy    <          2.4E-09 Ry

     iteration #  7     ecut=    65.00 Ry     beta= 0.70
     Davidson diagonalization with overlap
     ethr =  2.41E-11,  avg # of iterations =  2.9

     total cpu time spent up to now is        2.7 secs

     total energy              =     -62.28504979 Ry
     estimated scf accuracy    <          2.2E-10 Ry

     iteration #  8     ecut=    65.00 Ry     beta= 0.70
     Davidson diagonalization with overlap
     ethr =  2.18E-12,  avg # of iterations =  3.1

     total cpu time spent up to now is        3.0 secs

     End of self-consistent calculation

          k = 0.0000 0.0000 0.0000 (   965 PWs)   bands (ev):

   -40.3264 -19.1626   0.6159   0.6159   0.6159   9.3866  24.0868  24.0868
    24.0868  24.6610

          k =-0.0833 0.0833-0.0833 (   992 PWs)   bands (ev):

   -40.3231 -19.1374   0.4202   0.5995   0.5995   9.5929  22.0554  23.1763
    23.1763  25.4389

          k =-0.1667 0.1667-0.1667 (   989 PWs)   bands (ev):

   -40.3142 -19.0674  -0.0722   0.5592   0.5592  10.1054  19.8655  21.9668
    21.9668  26.1568

          k =-0.2500 0.2500-0.2500 (  1001 PWs)   bands (ev):

   -40.3020 -18.9689  -0.6829   0.5048   0.5048  10.6777  18.2537  20.8586
    20.8586  27.1269

          k =-0.3333 0.3333-0.3333 (  1008 PWs)   bands (ev):

   -40.2898 -18.8671  -1.2422   0.4522   0.4522  11.0735  17.3228  19.9946
    19.9946  28.3392

          k =-0.4167 0.4167-0.4167 (  1023 PWs)   bands (ev):

   -40.2809 -18.7903  -1.6284   0.4140   0.4140  11.2240  16.9592  19.4515
    19.4515  29.6478

          k = 0.5000-0.5000 0.5000 (  1008 PWs)   bands (ev):

   -40.2776 -18.7617  -1.7638   0.4010   0.4010  11.2463  16.8918  19.2669
    19.2669  30.4416

          k = 0.0000 0.1667 0.0000 (  1002 PWs)   bands (ev):

   -40.3220 -19.1287   0.4383   0.5491   0.5491   9.6714  22.6426  22.6426
    23.0089  23.1460

          k =-0.0833 0.2500-0.0833 (   994 PWs)   bands (ev):

   -40.3150 -19.0724   0.0617   0.4797   0.5253  10.1092  20.4733  21.8649
    22.1029  23.6920

          k =-0.1667 0.3333-0.1667 (  1004 PWs)   bands (ev):

   -40.3040 -18.9817  -0.5062   0.4081   0.4765  10.7046  18.6406  21.0067
    21.0134  24.8134

          k =-0.2500 0.4167-0.2500 (  1012 PWs)   bands (ev):

   -40.2919 -18.8790  -1.0740   0.3552   0.3976  11.2089  17.4557  20.1189
    20.2324  26.1800

          k =-0.3333 0.5000-0.3333 (  1017 PWs)   bands (ev):

   -40.2819 -18.7920  -1.5080   0.3105   0.3339  11.4678  16.8914  19.5409
    19.6499  27.6937

          k = 0.5833-0.4167 0.5833 (  1017 PWs)   bands (ev):

   -40.2768 -18.7463  -1.7206   0.2393   0.3492  11.5316  16.7227  19.3003
    19.3518  29.1863

          k = 0.5000-0.3333 0.5000 (  1020 PWs)   bands (ev):

   -40.2778 -18.7564  -1.6729   0.2028   0.3971  11.5159  16.7304  19.3803
    19.3897  29.7663

          k = 0.4167-0.2500 0.4167 (  1019 PWs)   bands (ev):

   -40.2848 -18.8188  -1.3735   0.2119   0.4646  11.3919  16.9719  19.7451
    19.7860  28.4647

          k = 0.3333-0.1667 0.3333 (  1006 PWs)   bands (ev):

   -40.2959 -18.9145  -0.8824   0.2669   0.5356  11.0383  17.6973  20.3376
    20.5374  27.2287

          k = 0.2500-0.0833 0.2500 (  1003 PWs)   bands (ev):

   -40.3080 -19.0161  -0.3103   0.3578   0.5901  10.4758  19.0423  21.0663
    21.5968  26.0531

          k = 0.1667-0.0000 0.1667 (   993 PWs)   bands (ev):

   -40.3180 -19.0968   0.1801   0.4795   0.6140   9.9118  20.8215  21.8990
    22.7659  25.1587

          k = 0.0000 0.3333 0.0000 (   998 PWs)   bands (ev):

   -40.3103 -19.0300  -0.0486   0.3751   0.3751  10.4811  20.9072  21.4659
    21.5079  21.5079

          k =-0.0833 0.4167-0.0833 (  1002 PWs)   bands (ev):

   -40.3013 -18.9499  -0.4803   0.2743   0.2878  11.0818  19.0931  20.6225
    21.0053  22.3205

          k =-0.1667 0.5000-0.1667 (  1011 PWs)   bands (ev):

   -40.2905 -18.8516  -0.9841   0.1686   0.2037  11.7018  17.6343  19.9044
    20.4403  23.6012

          k =-0.2500 0.5833-0.2500 (  1016 PWs)   bands (ev):

   -40.2806 -18.7609  -1.3949   0.0106   0.1809  12.1332  16.7732  19.4329
    19.9276  25.0728

          k = 0.6667-0.3333 0.6667 (  1017 PWs)   bands (ev):

   -40.2744 -18.7041  -1.6225  -0.1433   0.2115  12.2971  16.3916  19.2511
    19.5772  26.6209

          k = 0.5833-0.2500 0.5833 (  1014 PWs)   bands (ev):

   -40.2736 -18.6984  -1.6243  -0.2468   0.2881  12.2793  16.2653  19.3201
    19.4705  28.1144

          k = 0.5000-0.1667 0.5000 (  1019 PWs)   bands (ev):

   -40.2783 -18.7457  -1.4089  -0.2631   0.3895  12.1050  16.3689  19.5642
    19.6533  28.9868

          k = 0.4167-0.0833 0.4167 (  1015 PWs)   bands (ev):

   -40.2873 -18.8313  -1.0396  -0.1671   0.4917  11.6908  16.8898  19.9252
    20.1344  27.9257

          k = 0.3333 0.0000 0.3333 (  1013 PWs)   bands (ev):

   -40.2982 -18.9303  -0.6377   0.0576   0.5650  11.0788  17.8830  20.3851
    20.8532  26.6509

          k = 0.0000 0.5000 0.0000 (   998 PWs)   bands (ev):

   -40.2947 -18.8808  -0.7362   0.1402   0.1402  11.6869  19.2060  20.0113
    20.8453  20.8453

          k =-0.0833 0.5833-0.0833 (  1019 PWs)   bands (ev):

   -40.2860 -18.7914  -1.1307  -0.0022   0.0405  12.3740  17.9685  19.4346
    20.5548  21.5073

          k =-0.1667 0.6667-0.1667 (  1023 PWs)   bands (ev):

   -40.2774 -18.7048  -1.4563  -0.2149   0.0005  12.9785  16.8509  19.0527
    20.1982  22.7830

          k = 0.7500-0.2500 0.7500 (  1014 PWs)   bands (ev):

   -40.2712 -18.6454  -1.6096  -0.4718   0.0294  13.3216  16.1616  18.9479
    19.8699  24.2329

          k = 0.6667-0.1667 0.6667 (  1016 PWs)   bands (ev):

   -40.2693 -18.6311  -1.5550  -0.7044   0.1197  13.3418  15.8028  19.0935
    19.6588  25.7973

          k = 0.5833-0.0833 0.5833 (  1011 PWs)   bands (ev):

   -40.2719 -18.6663  -1.3317  -0.8176   0.2501  13.0463  15.7612  19.3576
    19.6272  27.4741

          k = 0.5000 0.0000 0.5000 (  1019 PWs)   bands (ev):

   -40.2785 -18.7403  -1.1459  -0.6231   0.3859  12.4396  16.1473  19.6347
    19.7961  29.1114

          k = 0.0000 0.6667 0.0000 (  1018 PWs)   bands (ev):

   -40.2796 -18.7133  -1.4535  -0.0909  -0.0909  13.0917  17.9776  18.9188
    20.5331  20.5331

          k =-0.0833 0.7500-0.0833 (  1024 PWs)   bands (ev):

   -40.2730 -18.6377  -1.7304  -0.2435  -0.1589  13.7694  17.1588  18.5218
    20.3803  21.1096

          k = 0.8333-0.1667 0.8333 (  1012 PWs)   bands (ev):

   -40.2680 -18.5857  -1.8299  -0.4976  -0.1469  14.2943  16.2451  18.4065
    20.1472  22.3052

          k = 0.7500-0.0833 0.7500 (  1017 PWs)   bands (ev):

   -40.2660 -18.5727  -1.7076  -0.8029  -0.0590  14.5001  15.4962  18.6396
    19.9032  23.7577

          k = 0.6667-0.0000 0.6667 (  1015 PWs)   bands (ev):

   -40.2674 -18.6025  -1.3870  -1.0657   0.0855  13.9964  15.3632  19.0304
    19.7153  25.4905

          k = 0.0000 0.8333 0.0000 (  1018 PWs)   bands (ev):

   -40.2687 -18.5776  -1.9942  -0.2573  -0.2573  14.4131  17.2373  18.0765
    20.4291  20.4291

          k = 0.9167-0.0833 0.9167 (  1015 PWs)   bands (ev):

   -40.2657 -18.5413  -2.0913  -0.3776  -0.2725  14.8841  16.7072  17.8444
    20.3408  20.9587

          k = 0.8333 0.0000 0.8333 (  1019 PWs)   bands (ev):

   -40.2647 -18.5395  -1.9763  -0.5981  -0.2009  15.1130  15.8058  18.1009
    20.1484  22.1446

          k = 0.0000-1.0000 0.0000 (  1034 PWs)   bands (ev):

   -40.2648 -18.5249  -2.1964  -0.3183  -0.3183  15.0660  16.9902  17.6403
    20.4097  20.4097

          k =-0.1667 0.3333 0.0000 (  1003 PWs)   bands (ev):

   -40.3070 -19.0046  -0.2722   0.2890   0.5065  10.6195  19.2713  20.9655
    21.4888  23.7162

          k =-0.2500 0.4167-0.0833 (  1011 PWs)   bands (ev):

   -40.2961 -18.9094  -0.7519   0.1158   0.4603  11.2424  17.8674  20.3102
    20.6541  24.7110

          k =-0.3333 0.5000-0.1667 (  1016 PWs)   bands (ev):

   -40.2852 -18.8111  -1.2229  -0.0009   0.3857  11.7472  16.9258  19.7610
    19.9913  26.0752

          k = 0.5833-0.4167 0.7500 (  1019 PWs)   bands (ev):

   -40.2771 -18.7371  -1.5561  -0.0653   0.3161  12.0004  16.5092  19.4167
    19.5549  27.5726

          k = 0.5000-0.3333 0.6667 (  1016 PWs)   bands (ev):

   -40.2742 -18.7095  -1.6752  -0.0849   0.2873  12.0599  16.4171  19.3394
    19.3654  28.6854

          k =-0.1667 0.5000 0.0000 (  1015 PWs)   bands (ev):

   -40.2925 -18.8648  -0.8392   0.0332   0.2546  11.7270  18.0820  19.9634
    20.6199  22.5811

          k =-0.2500 0.5833-0.0833 (  1023 PWs)   bands (ev):

   -40.2828 -18.7708  -1.2096  -0.1855   0.1911  12.3728  17.0027  19.4686
    20.1665  23.7071

          k = 0.6667-0.3333 0.8333 (  1023 PWs)   bands (ev):

   -40.2749 -18.6932  -1.4796  -0.3735   0.1397  12.8175  16.3302  19.1911
    19.7717  25.1290

          k = 0.5833-0.2500 0.7500 (  1018 PWs)   bands (ev):

   -40.2709 -18.6550  -1.5812  -0.5184   0.1447  12.9712  16.0375  19.1708
    19.5028  26.6310

          k = 0.5000-0.1667 0.6667 (  1017 PWs)   bands (ev):

   -40.2718 -18.6678  -1.4990  -0.5795   0.2099  12.8831  15.9804  19.3625
    19.4221  27.8901

          k = 0.4167-0.0833 0.5833 (  1022 PWs)   bands (ev):

   -40.2775 -18.7278  -1.2784  -0.5030   0.3101  12.5316  16.2340  19.5487
    19.6982  26.8525

          k = 0.3333 0.0000 0.5000 (  1017 PWs)   bands (ev):

   -40.2864 -18.8167  -1.0107  -0.2502   0.4063  11.9249  16.9173  19.8548
    20.1430  25.5337

          k =-0.1667 0.6667-0.0000 (  1021 PWs)   bands (ev):

   -40.2783 -18.7076  -1.4378  -0.2167  -0.0145  13.0791  17.2143  18.9706
    20.2966  21.9354

          k = 0.7500-0.2500 0.9167 (  1021 PWs)   bands (ev):

   -40.2716 -18.6359  -1.6263  -0.4684  -0.0536  13.7002  16.4003  18.6770
    19.9845  23.1042

          k = 0.6667-0.1667 0.8333 (  1018 PWs)   bands (ev):

   -40.2676 -18.5970  -1.6276  -0.7482  -0.0322  14.0445  15.8109  18.6803
    19.7072  24.5290

          k = 0.5833-0.0833 0.7500 (  1018 PWs)   bands (ev):

   -40.2674 -18.6026  -1.4287  -0.9983   0.0563  13.9516  15.5201  18.9622
    19.5229  26.1259

          k = 0.5000 0.0000 0.6667 (  1024 PWs)   bands (ev):

   -40.2710 -18.6510  -1.2373  -0.9800   0.1845  13.3614  15.6897  19.3424
    19.4708  27.8974

          k = 0.8333-0.1667 1.0000 (  1017 PWs)   bands (ev):

   -40.2683 -18.5801  -1.9064  -0.3961  -0.2054  14.4046  16.6773  18.1264
    20.1751  21.6439

          k = 0.7500-0.0833 0.9167 (  1019 PWs)   bands (ev):

   -40.2653 -18.5512  -1.8885  -0.6364  -0.1865  14.8770  15.9806  18.0250
    19.9235  22.8303

          k = 0.6667 0.0000 0.8333 (  1016 PWs)   bands (ev):

   -40.2650 -18.5595  -1.6710  -0.9096  -0.0908  15.0143  15.2128  18.4169
    19.6984  24.3257

          k =-0.1667-1.0000-0.0000 (  1012 PWs)   bands (ev):

   -40.2646 -18.5306  -2.0847  -0.4608  -0.2729  15.0882  16.4950  17.6579
    20.1456  21.5664

          k = 0.6667-0.3333 1.0000 (  1032 PWs)   bands (ev):

   -40.2751 -18.6878  -1.3705  -0.5495   0.1282  13.1114  16.2875  19.1395
    19.8065  24.7208

          k = 0.5833-0.2500 0.9167 (  1022 PWs)   bands (ev):

   -40.2695 -18.6256  -1.4462  -0.8278   0.0562  13.6970  15.8222  18.9185
    19.5077  26.1478

          k = 0.5000-0.1667 0.8333 (  1020 PWs)   bands (ev):

   -40.2674 -18.6026  -1.4611  -0.9380   0.0252  13.9127  15.6833  18.8395
    19.3868  27.3691

          k = 0.6667-0.1667 1.0000 (  1019 PWs)   bands (ev):

   -40.2671 -18.5829  -1.6581  -0.7620  -0.0995  14.4181  15.9305  18.2798
    19.6713  24.2902

          k = 0.5833-0.0833 0.9167 (  1024 PWs)   bands (ev):

   -40.2650 -18.5610  -1.5258  -1.0504  -0.1041  14.8760  15.5205  18.1368
    19.4627  25.8204

          k = 0.5000 0.0000 0.8333 (  1023 PWs)   bands (ev):

   -40.2658 -18.5769  -1.2976  -1.2319  -0.0430  14.5710  15.4541  18.4674
    19.3942  27.5161

          k =-0.3333-1.0000 0.0000 (  1016 PWs)   bands (ev):

   -40.2642 -18.5421  -1.7724  -0.8390  -0.1827  15.1705  15.8141  17.6999
    19.6375  24.1593

          k =-0.5000-1.0000 0.0000 (  1036 PWs)   bands (ev):

   -40.2640 -18.5478  -1.3225  -1.3225  -0.1389  15.3814  15.3814  17.7273
    19.3876  27.5889

     the Fermi energy is     3.9193 ev

!    total energy              =     -62.28504979 Ry
     estimated scf accuracy    <          1.1E-12 Ry
     smearing contrib. (-TS)   =      -0.00000000 Ry
     internal energy E=F+TS    =     -62.28504979 Ry

     The total energy is F=E-TS. E is the sum of the following terms:
     one-electron contribution =     -25.95631976 Ry
     hartree contribution      =      16.74385673 Ry
     xc contribution           =     -12.68012613 Ry
     ewald contribution        =     -40.39246062 Ry

     convergence has been achieved in   8 iterations

     Writing all to output data dir out/mp-1138.save/
 
     init_run     :      0.12s CPU      0.14s WALL (       1 calls)
     electrons    :      2.56s CPU      2.81s WALL (       1 calls)

     Called by init_run:
     wfcinit      :      0.10s CPU      0.11s WALL (       1 calls)
     potinit      :      0.01s CPU      0.01s WALL (       1 calls)
     hinit0       :      0.01s CPU      0.01s WALL (       1 calls)

     Called by electrons:
     c_bands      :      2.27s CPU      2.50s WALL (       8 calls)
     sum_band     :      0.27s CPU      0.29s WALL (       8 calls)
     v_of_rho     :      0.02s CPU      0.02s WALL (       9 calls)
     mix_rho      :      0.00s CPU      0.00s WALL (       8 calls)

     Called by c_bands:
     init_us_2    :      0.03s CPU      0.04s WALL (    1224 calls)
     init_us_2:cp :      0.03s CPU      0.03s WALL (    1224 calls)
     cegterg      :      2.20s CPU      2.39s WALL (     576 calls)

     Called by *egterg:
     cdiaghg      :      0.36s CPU      0.39s WALL (    2814 calls)
     h_psi        :      1.71s CPU      1.86s WALL (    2886 calls)
     g_psi        :      0.01s CPU      0.01s WALL (    2238 calls)

     Called by h_psi:
     h_psi:calbec :      0.05s CPU      0.06s WALL (    2886 calls)
     vloc_psi     :      1.60s CPU      1.75s WALL (    2886 calls)
     add_vuspsi   :      0.03s CPU      0.03s WALL (    2886 calls)

     General routines
     calbec       :      0.05s CPU      0.05s WALL (    2886 calls)
     fft          :      0.01s CPU      0.02s WALL (      89 calls)
     ffts         :      0.00s CPU      0.00s WALL (       8 calls)
     fftw         :      1.64s CPU      1.79s WALL (   48988 calls)
 
     Parallel routines
 
     PWSCF        :      2.75s CPU      3.41s WALL

 
   This run was terminated on:  14:27: 5   3Jan2024            

=------------------------------------------------------------------------------=
   JOB DONE.
=------------------------------------------------------------------------------=
