
     Program PWSCF v.7.1 starts on  3Jan2024 at 20:26: 6 

     This program is part of the open-source Quantum ESPRESSO suite
     for quantum simulation of materials; please cite
         "P. Giannozzi et al., J. Phys.:Condens. Matter 21 395502 (2009);
         "P. Giannozzi et al., J. Phys.:Condens. Matter 29 465901 (2017);
         "P. Giannozzi et al., J. Chem. Phys. 152 154105 (2020);
          URL http://www.quantum-espresso.org", 
     in publications or presentations arising from this work. More details at
     http://www.quantum-espresso.org/quote

     Parallel version (MPI), running on     8 processors

     MPI processes distributed on     1 nodes
     246289 MiB available memory on the printing compute node when the environment starts
 
     Reading input from pw_mp-732337_nscf_k3000_E130.in
Warning: card &IONS ignored
Warning: card / ignored
Warning: card &CELL ignored
Warning: card / ignored

     Current dimensions of program PWSCF are:
     Max number of different atomic species (ntypx) = 10
     Max number of k-points (npk) =  40000
     Max angular momentum in pseudopotentials (lmaxx) =  4

     Atomic positions and unit cell read from directory:
     out/mp-732337.save/
     Atomic positions from file used, from input discarded
 
 
     R & G space division:  proc/nbgrp/npool/nimage =       8
     Subspace diagonalization in iterative solution of the eigenvalue problem:
     one sub-group per band group will be used
     scalapack distributed-memory algorithm (size of sub-group:  2*  2 procs)

 
     Parallelization info
     --------------------
     sticks:   dense  smooth     PW     G-vecs:    dense   smooth      PW
     Min        1307    1307    343               144461   144461   19577
     Max        1308    1308    344               144464   144464   19580
     Sum       10459   10459   2749              1155695  1155695  156629
 
     Using Slab Decomposition
 


     bravais-lattice index     =            8
     lattice parameter (alat)  =      15.2399  a.u.
     unit-cell volume          =    5771.0237 (a.u.)^3
     number of atoms/cell      =           48
     number of atomic types    =            5
     number of electrons       =       200.00
     number of Kohn-Sham states=          200
     kinetic-energy cutoff     =     130.0000  Ry
     charge density cutoff     =     520.0000  Ry
     Exchange-correlation= PBE
                           (   1   4   3   4   0   0   0)

     celldm(1)=  15.239867  celldm(2)=   1.088215  celldm(3)=   1.498286
     celldm(4)=   0.000000  celldm(5)=   0.000000  celldm(6)=   0.000000

     crystal axes: (cart. coord. in units of alat)
               a(1) = (   1.000000   0.000000   0.000000 )  
               a(2) = (   0.000000   1.088215   0.000000 )  
               a(3) = (   0.000000   0.000000   1.498286 )  

     reciprocal axes: (cart. coord. in units 2 pi/alat)
               b(1) = (  1.000000  0.000000  0.000000 )  
               b(2) = (  0.000000  0.918936  0.000000 )  
               b(3) = (  0.000000  0.000000  0.667429 )  


     PseudoPot. # 1 for Br read from file:
     /usr/scratch4/magr4985/MG/devEb/pseudo/SG15/Br.upf
     MD5 check sum: d26c51d81abb03042b648ee3fecf55db
     Pseudo is Norm-conserving, Zval =  7.0
     Generated using ONCVPSP code by D. R. Hamann
     Using radial grid of  602 points,  6 beta functions with: 
                l(1) =   0
                l(2) =   0
                l(3) =   1
                l(4) =   1
                l(5) =   2
                l(6) =   2

     PseudoPot. # 2 for C  read from file:
     /usr/scratch4/magr4985/MG/devEb/pseudo/SG15/C.upf
     MD5 check sum: 3d2597e5eef38528f7293c089e88409c
     Pseudo is Norm-conserving, Zval =  4.0
     Generated using ONCVPSP code by D. R. Hamann
     Using radial grid of  602 points,  4 beta functions with: 
                l(1) =   0
                l(2) =   0
                l(3) =   1
                l(4) =   1

     PseudoPot. # 3 for H  read from file:
     /usr/scratch4/magr4985/MG/devEb/pseudo/SG15/H.upf
     MD5 check sum: ae0d01b4bdfb70e4e0e3a1de63306ab0
     Pseudo is Norm-conserving, Zval =  1.0
     Generated using ONCVPSP code by D. R. Hamann
     Using radial grid of  602 points,  2 beta functions with: 
                l(1) =   0
                l(2) =   0

     PseudoPot. # 4 for N  read from file:
     /usr/scratch4/magr4985/MG/devEb/pseudo/SG15/N.upf
     MD5 check sum: 505747f69e3b1670e9a20de136ca1593
     Pseudo is Norm-conserving, Zval =  5.0
     Generated using ONCVPSP code by D. R. Hamann
     Using radial grid of  602 points,  4 beta functions with: 
                l(1) =   0
                l(2) =   0
                l(3) =   1
                l(4) =   1

     PseudoPot. # 5 for Pb read from file:
     /usr/scratch4/magr4985/MG/devEb/pseudo/SG15/Pb.upf
     MD5 check sum: 18da7c9819a8d2a15024df9e07e1e14a
     Pseudo is Norm-conserving, Zval = 14.0
     Generated using ONCVPSP code by D. R. Hamann
     Using radial grid of  602 points,  8 beta functions with: 
                l(1) =   0
                l(2) =   0
                l(3) =   1
                l(4) =   1
                l(5) =   2
                l(6) =   2
                l(7) =   3
                l(8) =   3

     atomic species   valence    mass     pseudopotential
        Br             7.00    79.90400     Br( 1.00)
        C              4.00    12.01070     C ( 1.00)
        H              1.00     1.00790     H ( 1.00)
        N              5.00    14.00670     N ( 1.00)
        Pb            14.00   207.20000     Pb( 1.00)

      8 Sym. Ops., with inversion, found ( 6 have fractional translation)



   Cartesian axes

     site n.     atom                  positions (alat units)
         1           H   tau(   1) = (   0.5087350   0.7130256   1.0199282  )
         2           H   tau(   2) = (   0.0087350   0.9192967   1.2275008  )
         3           H   tau(   3) = (   0.4912650   0.3751893   0.2707852  )
         4           H   tau(   4) = (   0.9912651   0.1689181   0.4783578  )
         5           H   tau(   5) = (   0.4912650   0.3751893   0.4783578  )
         6           H   tau(   6) = (   0.9912651   0.1689181   0.2707852  )
         7           H   tau(   7) = (   0.5087350   0.7130256   1.2275008  )
         8           H   tau(   8) = (   0.0087350   0.9192967   1.0199282  )
         9           H   tau(   9) = (   0.6782720   0.6478187   1.1237145  )
        10           H   tau(  10) = (   0.1782720   0.9845036   1.1237145  )
        11           H   tau(  11) = (   0.3217280   0.4403962   0.3745715  )
        12           H   tau(  12) = (   0.8217281   0.1037112   0.3745715  )
        13           H   tau(  13) = (   0.5240280   0.4117925   1.0122945  )
        14           H   tau(  14) = (   0.0240280   0.1323150   1.2351345  )
        15           H   tau(  15) = (   0.4759720   0.6764224   0.2631515  )
        16           H   tau(  16) = (   0.9759721   0.9558999   0.4859915  )
        17           H   tau(  17) = (   0.4759720   0.6764224   0.4859915  )
        18           H   tau(  18) = (   0.9759721   0.9558999   0.2631515  )
        19           H   tau(  19) = (   0.5240280   0.4117925   1.2351345  )
        20           H   tau(  20) = (   0.0240280   0.1323150   1.0122945  )
        21           H   tau(  21) = (   0.3458690   0.4830172   1.1237145  )
        22           H   tau(  22) = (   0.8458691   0.0610902   1.1237145  )
        23           H   tau(  23) = (   0.6541310   0.6051976   0.3745715  )
        24           H   tau(  24) = (   0.1541310   1.0271246   0.3745715  )
        25           Pb  tau(  25) = (   0.5000000   0.0000000   0.0000000  )
        26           Pb  tau(  26) = (   0.0000000   0.5441074   0.7491430  )
        27           Pb  tau(  27) = (   0.5000000   0.0000000   0.7491430  )
        28           Pb  tau(  28) = (   0.0000000   0.5441074   0.0000000  )
        29           C   tau(  29) = (   0.4810650   0.4763639   1.1237145  )
        30           C   tau(  30) = (   0.9810651   0.0677435   1.1237145  )
        31           C   tau(  31) = (   0.5189350   0.6118510   0.3745715  )
        32           C   tau(  32) = (   0.0189350   1.0204713   0.3745715  )
        33           Br  tau(  33) = (   0.4669710   0.0197130   1.1237145  )
        34           Br  tau(  34) = (   0.9669711   0.5243944   1.1237145  )
        35           Br  tau(  35) = (   0.5330290   1.0685018   0.3745715  )
        36           Br  tau(  36) = (   0.0330290   0.5638204   0.3745715  )
        37           Br  tau(  37) = (   0.7957761   0.8585504   1.4542963  )
        38           Br  tau(  38) = (   0.2957760   0.7737719   0.7931327  )
        39           Br  tau(  39) = (   0.2042240   0.2296645   0.7051533  )
        40           Br  tau(  40) = (   0.7042240   0.3144429   0.0439897  )
        41           Br  tau(  41) = (   0.2042240   0.2296645   0.0439897  )
        42           Br  tau(  42) = (   0.7042240   0.3144429   0.7051533  )
        43           Br  tau(  43) = (   0.7957761   0.8585504   0.7931327  )
        44           Br  tau(  44) = (   0.2957760   0.7737719   1.4542963  )
        45           N   tau(  45) = (   0.5491350   0.6488481   1.1237145  )
        46           N   tau(  46) = (   0.0491350   0.9834742   1.1237145  )
        47           N   tau(  47) = (   0.4508650   0.4393667   0.3745715  )
        48           N   tau(  48) = (   0.9508651   0.1047407   0.3745715  )

     number of k points=    27  Gaussian smearing, width (Ry)=  0.0005
                       cart. coord. in units 2pi/alat
        k(    1) = (   0.0000000   0.0000000   0.0000000), wk =   0.0312500
        k(    2) = (   0.0000000   0.0000000   0.1668573), wk =   0.0625000
        k(    3) = (   0.0000000   0.0000000  -0.3337147), wk =   0.0312500
        k(    4) = (   0.0000000   0.2297341   0.0000000), wk =   0.0625000
        k(    5) = (   0.0000000   0.2297341   0.1668573), wk =   0.1250000
        k(    6) = (   0.0000000   0.2297341  -0.3337147), wk =   0.0625000
        k(    7) = (   0.0000000  -0.4594681   0.0000000), wk =   0.0312500
        k(    8) = (   0.0000000  -0.4594681   0.1668573), wk =   0.0625000
        k(    9) = (   0.0000000  -0.4594681  -0.3337147), wk =   0.0312500
        k(   10) = (   0.2500000   0.0000000   0.0000000), wk =   0.0625000
        k(   11) = (   0.2500000   0.0000000   0.1668573), wk =   0.1250000
        k(   12) = (   0.2500000   0.0000000  -0.3337147), wk =   0.0625000
        k(   13) = (   0.2500000   0.2297341   0.0000000), wk =   0.1250000
        k(   14) = (   0.2500000   0.2297341   0.1668573), wk =   0.2500000
        k(   15) = (   0.2500000   0.2297341  -0.3337147), wk =   0.1250000
        k(   16) = (   0.2500000  -0.4594681   0.0000000), wk =   0.0625000
        k(   17) = (   0.2500000  -0.4594681   0.1668573), wk =   0.1250000
        k(   18) = (   0.2500000  -0.4594681  -0.3337147), wk =   0.0625000
        k(   19) = (  -0.5000000   0.0000000   0.0000000), wk =   0.0312500
        k(   20) = (  -0.5000000   0.0000000   0.1668573), wk =   0.0625000
        k(   21) = (  -0.5000000   0.0000000  -0.3337147), wk =   0.0312500
        k(   22) = (  -0.5000000   0.2297341   0.0000000), wk =   0.0625000
        k(   23) = (  -0.5000000   0.2297341   0.1668573), wk =   0.1250000
        k(   24) = (  -0.5000000   0.2297341  -0.3337147), wk =   0.0625000
        k(   25) = (  -0.5000000  -0.4594681   0.0000000), wk =   0.0312500
        k(   26) = (  -0.5000000  -0.4594681   0.1668573), wk =   0.0625000
        k(   27) = (  -0.5000000  -0.4594681  -0.3337147), wk =   0.0312500

     Dense  grid:  1155695 G-vectors     FFT dimensions: ( 120, 128, 180)

     Estimated max dynamical RAM per process >       1.93 GB

     Estimated total dynamical RAM >      15.44 GB

     The potential is recalculated from file :
     out/mp-732337.save/charge-density

     Starting wfcs are random

     Band Structure Calculation
     Davidson diagonalization with overlap

     ethr =  5.00E-06,  avg # of iterations = 55.0

     total cpu time spent up to now is     3557.3 secs

     End of band structure calculation

          k = 0.0000 0.0000 0.0000 (144377 PWs)   bands (ev):

   -17.2675 -17.2666 -17.2587 -17.2582 -14.3086 -14.3005 -14.3003 -14.2929
   -14.2747 -14.2573 -14.2500 -14.2498 -14.2374 -14.2369 -14.2367 -14.2363
   -14.2235 -14.2218 -14.2212 -14.2205 -14.2123 -14.2118 -14.2117 -14.2114
   -11.8057 -11.6536 -11.5748 -11.5593 -11.5418 -11.5145 -11.5119 -11.4586
   -11.4512 -11.3166 -11.2936 -11.2909 -10.2614 -10.2487 -10.2450 -10.2437
    -6.8139  -6.8021  -6.7726  -6.7690  -6.7652  -6.7649  -6.7525  -6.7290
    -5.9759  -5.5293  -5.1033  -4.6498  -4.6293  -4.6222  -4.6133  -4.5680
    -2.6237  -2.6233  -2.6119  -2.5929  -2.5674  -2.5658  -2.5543  -2.5483
    -1.3652  -1.2806  -1.2797  -1.0641  -0.9397  -0.8794  -0.0710  -0.0502
     0.0815   0.0945   0.1425   0.2536   0.3830   0.4563   0.4597   0.4959
     0.5104   0.5615   0.5756   0.5892   0.6226   0.6227   0.6328   0.6736
     0.7201   0.7455   0.8447   0.9506   0.9707   0.9990   1.0503   1.1116
     1.1289   1.2501   1.6515   2.0995   4.2133   4.2344   4.3352   4.6667
     4.7022   4.9148   6.4021   6.9716   6.9920   7.3921   7.5707   7.6921
     7.7066   7.8478   7.8562   7.9023   7.9679   8.0441   8.2654   8.3871
     8.5201   8.6348   8.7065   8.8272   9.0336   9.0381   9.0682   9.0748
     9.1242   9.1692   9.2233   9.4068   9.4871   9.4948   9.6852   9.6890
     9.8574   9.9184  10.0225  10.0263  10.0392  10.1841  10.2172  10.5843
    10.5915  10.6007  10.6018  10.6375  10.7767  10.8685  10.9642  11.0611
    11.1098  11.2241  11.3368  11.3593  11.4614  11.5008  11.5107  11.5850
    11.6754  11.6891  11.8696  12.0819  12.1739  12.3343  12.4550  12.5210
    12.6480  12.7141  12.7672  12.8320  13.0585  13.1545  13.1689  13.3345
    13.3817  13.5431  13.6007  13.6934  13.7259  13.8565  13.9563  14.1574
    14.2288  14.2434  14.3568  14.5159  14.5469  14.8410  14.9031  14.9579
    14.9622  15.0516  15.2267  15.2811  15.4003  15.4088  15.4168  15.4390

          k = 0.0000 0.0000 0.1669 (144451 PWs)   bands (ev):

   -17.2673 -17.2667 -17.2587 -17.2583 -14.3036 -14.3004 -14.3003 -14.2877
   -14.2796 -14.2624 -14.2500 -14.2499 -14.2374 -14.2370 -14.2367 -14.2364
   -14.2233 -14.2217 -14.2217 -14.2207 -14.2123 -14.2119 -14.2117 -14.2115
   -11.7935 -11.7002 -11.5540 -11.5533 -11.5428 -11.5220 -11.4749 -11.4565
   -11.4516 -11.3388 -11.2932 -11.2913 -10.2588 -10.2482 -10.2462 -10.2455
    -6.8123  -6.8039  -6.7712  -6.7684  -6.7661  -6.7655  -6.7489  -6.7323
    -5.9192  -5.6051  -5.0409  -4.6761  -4.6458  -4.6226  -4.6212  -4.6148
    -2.6174  -2.6165  -2.6105  -2.5951  -2.5780  -2.5756  -2.5482  -2.5472
    -1.3402  -1.2532  -1.1013  -1.0494  -0.8547  -0.7857  -0.0314  -0.0262
    -0.0005   0.0482   0.1601   0.2281   0.2686   0.2803   0.4008   0.4851
     0.5190   0.5578   0.5719   0.5882   0.6025   0.6215   0.7078   0.7116
     0.7340   0.7393   0.8215   0.9344   0.9458   0.9851   1.0022   1.0834
     1.1322   1.1812   1.6654   1.9085   4.2977   4.3911   4.6027   4.6595
     4.7369   5.3395   6.5010   6.6262   6.9699   7.2632   7.3756   7.5016
     7.5896   7.6240   7.9448   7.9903   8.0349   8.1093   8.2998   8.3377
     8.6083   8.6998   8.7112   8.7590   8.8517   8.9441   8.9590   9.0396
     9.0788   9.3149   9.4709   9.4983   9.5464   9.5574   9.7343   9.7578
     9.7617   9.8479   9.9479  10.0420  10.1230  10.2477  10.2715  10.3710
    10.5254  10.5746  10.6140  10.6173  10.6978  10.8928  10.9799  11.0246
    11.0616  11.2041  11.2991  11.3523  11.4110  11.5063  11.5680  11.6158
    11.8067  11.8937  12.0565  12.0598  12.0844  12.3300  12.3397  12.5734
    12.6392  12.7239  12.7769  12.8054  12.8643  12.9280  13.2628  13.3018
    13.3577  13.7138  13.7658  13.7788  13.9185  14.0584  14.0716  14.1685
    14.2069  14.3605  14.3984  14.4121  14.4742  14.7214  14.7337  14.8364
    14.9806  15.0167  15.1114  15.1856  15.1949  15.2976  15.3772  15.4467

          k = 0.0000 0.0000-0.3337 (144410 PWs)   bands (ev):

   -17.2670 -17.2670 -17.2585 -17.2585 -14.3003 -14.3003 -14.2916 -14.2916
   -14.2750 -14.2749 -14.2500 -14.2499 -14.2372 -14.2372 -14.2365 -14.2365
   -14.2227 -14.2227 -14.2213 -14.2213 -14.2121 -14.2121 -14.2116 -14.2116
   -11.7573 -11.7573 -11.5458 -11.5458 -11.5383 -11.5382 -11.4533 -11.4533
   -11.3989 -11.3989 -11.2923 -11.2923 -10.2525 -10.2525 -10.2468 -10.2468
    -6.8082  -6.8081  -6.7685  -6.7684  -6.7670  -6.7670  -6.7404  -6.7404
    -5.7715  -5.7714  -4.8732  -4.8732  -4.6362  -4.6362  -4.6182  -4.6182
    -2.6087  -2.6087  -2.5984  -2.5984  -2.5921  -2.5920  -2.5457  -2.5457
    -1.2837  -1.2837  -1.0182  -1.0181  -0.4487  -0.4487  -0.3048  -0.3048
     0.0203   0.0204   0.0879   0.0880   0.2050   0.2051   0.4415   0.4415
     0.5274   0.5275   0.5710   0.5710   0.6148   0.6148   0.7545   0.7545
     0.7572   0.7572   0.8419   0.8419   0.9324   0.9324   1.0260   1.0260
     1.1462   1.1462   1.7279   1.7279   4.4502   4.4502   4.5261   4.5261
     5.7399   5.7399   6.2641   6.2641   6.8759   6.8759   7.2488   7.2488
     7.6000   7.6000   7.9779   7.9779   8.1546   8.1546   8.4455   8.4456
     8.4500   8.4500   8.7594   8.7594   8.8539   8.8539   8.9440   8.9440
     9.3233   9.3233   9.5703   9.5703   9.6414   9.6414   9.6781   9.6781
     9.8545   9.8545   9.9263   9.9263  10.1954  10.1954  10.3622  10.3623
    10.5149  10.5149  10.5799  10.5799  10.6553  10.6553  10.9940  10.9940
    11.0901  11.0901  11.3663  11.3663  11.5354  11.5354  11.6433  11.6434
    11.8893  11.8893  12.1411  12.1411  12.2148  12.2148  12.3981  12.3981
    12.5460  12.5460  12.7460  12.7460  13.0543  13.0543  13.1410  13.1410
    13.6480  13.6480  13.8430  13.8430  14.0950  14.0950  14.1603  14.1603
    14.2036  14.2036  14.4835  14.4835  14.6980  14.6980  14.6997  14.6997
    14.8185  14.8185  15.0972  15.0973  15.2582  15.2587  15.4337  15.4551

          k = 0.0000 0.2297 0.0000 (144492 PWs)   bands (ev):

   -17.2672 -17.2665 -17.2588 -17.2584 -14.3063 -14.2956 -14.2930 -14.2926
   -14.2721 -14.2597 -14.2572 -14.2570 -14.2374 -14.2370 -14.2369 -14.2366
   -14.2234 -14.2224 -14.2213 -14.2209 -14.2123 -14.2118 -14.2118 -14.2115
   -11.7853 -11.6388 -11.6381 -11.5591 -11.5569 -11.5461 -11.4341 -11.4311
   -11.4309 -11.3287 -11.3179 -11.3156 -10.2557 -10.2449 -10.2444 -10.2403
    -6.8091  -6.7997  -6.7716  -6.7712  -6.7673  -6.7664  -6.7487  -6.7321
    -5.8697  -5.4192  -5.2616  -4.7620  -4.6534  -4.6304  -4.6288  -4.6265
    -2.6239  -2.6076  -2.5998  -2.5951  -2.5885  -2.5660  -2.5624  -2.5591
    -1.2260  -1.1491  -1.0508  -0.9244  -0.8445  -0.7464  -0.1076  -0.0322
     0.0454   0.0585   0.0951   0.1477   0.1559   0.3360   0.4027   0.4149
     0.5152   0.5914   0.6100   0.6102   0.6119   0.6162   0.6670   0.6730
     0.7021   0.7214   0.8751   0.9247   0.9664   1.0088   1.0380   1.0561
     1.1247   1.2862   1.3437   1.7686   4.3142   4.6518   4.8017   4.9052
     5.0427   5.2155   6.4606   6.5634   6.8023   6.9012   7.3317   7.3495
     7.3762   7.7007   7.7630   7.9286   8.0881   8.1146   8.2144   8.4018
     8.4368   8.6530   8.6607   8.6647   8.8581   8.9330   8.9652   9.0029
     9.2098   9.2483   9.2828   9.4672   9.5012   9.5391   9.7567   9.8665
     9.9226   9.9244   9.9483  10.1729  10.2776  10.2979  10.3045  10.4429
    10.4451  10.5302  10.6996  10.7436  10.8015  10.8499  10.8765  11.0999
    11.1971  11.2897  11.2910  11.3363  11.4139  11.5547  11.7084  11.8420
    11.9219  12.0466  12.0552  12.2775  12.3656  12.3759  12.4310  12.5290
    12.7043  12.7235  12.9203  12.9314  13.0389  13.0737  13.2355  13.4085
    13.4311  13.5755  13.6126  13.6793  13.7693  13.9167  13.9187  14.0140
    14.0837  14.1928  14.2645  14.4220  14.4315  14.6174  14.6433  14.7341
    14.7771  14.9686  14.9852  15.0946  15.1826  15.2881  15.2992  15.3076

          k = 0.0000 0.2297 0.1669 (144473 PWs)   bands (ev):

   -17.2671 -17.2666 -17.2587 -17.2585 -14.3012 -14.2933 -14.2930 -14.2897
   -14.2770 -14.2648 -14.2572 -14.2570 -14.2373 -14.2370 -14.2370 -14.2366
   -14.2232 -14.2222 -14.2218 -14.2212 -14.2122 -14.2119 -14.2118 -14.2116
   -11.7738 -11.6856 -11.6299 -11.5910 -11.5205 -11.4981 -11.4432 -11.4302
   -11.4271 -11.3497 -11.3175 -11.3156 -10.2538 -10.2459 -10.2441 -10.2415
    -6.8077  -6.8010  -6.7709  -6.7704  -6.7681  -6.7668  -6.7462  -6.7344
    -5.8128  -5.4964  -5.2011  -4.8507  -4.6502  -4.6333  -4.6303  -4.6281
    -2.6158  -2.6068  -2.6006  -2.5932  -2.5867  -2.5786  -2.5582  -2.5567
    -1.1266  -1.0447  -0.9419  -0.9089  -0.7752  -0.7419  -0.0838  -0.0257
    -0.0001   0.0336   0.0736   0.0952   0.2012   0.2609   0.3408   0.3452
     0.4831   0.4990   0.5496   0.5861   0.6216   0.6315   0.7149   0.7192
     0.7361   0.7505   0.8606   0.9050   0.9553   0.9831   1.0113   1.0531
     1.1287   1.1861   1.3527   1.5653   4.7060   4.7953   4.9522   4.9931
     5.1563   5.2515   6.5044   6.6055   6.6068   6.8543   7.0127   7.2760
     7.3786   7.4538   7.7752   7.7925   8.1288   8.1364   8.2981   8.3168
     8.4417   8.5876   8.6760   8.7349   8.8782   8.9554   9.0079   9.1130
     9.1805   9.2400   9.2794   9.4292   9.5117   9.6594   9.6640   9.7282
     9.8830   9.9739   9.9855  10.1681  10.1931  10.3741  10.3808  10.4152
    10.4597  10.6103  10.6454  10.6578  10.8610  10.8907  10.9349  11.0925
    11.1239  11.1651  11.1913  11.3834  11.4589  11.5782  11.8418  11.9060
    11.9646  12.0249  12.1659  12.1707  12.2644  12.2646  12.4223  12.6052
    12.6338  12.7746  12.7963  12.8895  12.9416  13.0746  13.2463  13.3236
    13.4574  13.5664  13.5953  13.7741  13.8044  13.9319  14.0101  14.1761
    14.3104  14.3393  14.3470  14.4163  14.5093  14.5321  14.6627  14.6935
    14.7114  14.8878  14.9873  15.1159  15.1893  15.2879  15.3488  15.4185

          k = 0.0000 0.2297-0.3337 (144490 PWs)   bands (ev):

   -17.2669 -17.2669 -17.2586 -17.2586 -14.2931 -14.2930 -14.2891 -14.2891
   -14.2773 -14.2773 -14.2572 -14.2571 -14.2372 -14.2372 -14.2368 -14.2368
   -14.2226 -14.2226 -14.2218 -14.2218 -14.2121 -14.2120 -14.2117 -14.2117
   -11.7396 -11.7396 -11.6153 -11.6153 -11.4868 -11.4868 -11.4286 -11.4286
   -11.4040 -11.4040 -11.3166 -11.3165 -10.2495 -10.2495 -10.2432 -10.2432
    -6.8043  -6.8043  -6.7696  -6.7696  -6.7683  -6.7683  -6.7402  -6.7402
    -5.6645  -5.6644  -5.0400  -5.0400  -4.6422  -4.6422  -4.6295  -4.6295
    -2.6048  -2.6048  -2.5967  -2.5967  -2.5881  -2.5881  -2.5563  -2.5563
    -1.0449  -1.0449  -0.8682  -0.8682  -0.3905  -0.3905  -0.3610  -0.3610
    -0.0086  -0.0085   0.0746   0.0746   0.1608   0.1609   0.3133   0.3133
     0.4602   0.4602   0.5479   0.5479   0.6120   0.6120   0.7469   0.7469
     0.8044   0.8044   0.8445   0.8445   0.9289   0.9289   1.0286   1.0286
     1.1398   1.1398   1.3892   1.3893   4.8399   4.8399   5.0482   5.0482
     5.7865   5.7865   6.1624   6.1624   6.7676   6.7676   6.8188   6.8188
     7.3587   7.3587   7.8115   7.8116   8.1857   8.1857   8.2168   8.2168
     8.4971   8.4972   8.6847   8.6848   9.0328   9.0328   9.0975   9.0975
     9.2214   9.2214   9.3673   9.3673   9.5591   9.5591   9.6631   9.6631
     9.8793   9.8793  10.1467  10.1467  10.2174  10.2174  10.3966  10.3966
    10.5526  10.5526  10.6597  10.6597  10.8230  10.8230  10.9707  10.9707
    11.2156  11.2156  11.2995  11.2995  11.6210  11.6210  11.8694  11.8694
    12.0798  12.0798  12.1463  12.1463  12.2517  12.2517  12.4087  12.4087
    12.5491  12.5491  12.7200  12.7201  13.0350  13.0350  13.3084  13.3084
    13.6490  13.6490  13.7869  13.7869  13.9848  13.9848  14.0980  14.0980
    14.2188  14.2189  14.4501  14.4502  14.5201  14.5201  14.6527  14.6527
    14.8312  14.8312  15.1542  15.1542  15.2236  15.2236  15.3580  15.3581

          k = 0.0000-0.4595 0.0000 (144516 PWs)   bands (ev):

   -17.2667 -17.2667 -17.2587 -17.2587 -14.3007 -14.3007 -14.2753 -14.2752
   -14.2751 -14.2751 -14.2655 -14.2655 -14.2373 -14.2373 -14.2368 -14.2368
   -14.2230 -14.2230 -14.2213 -14.2213 -14.2121 -14.2121 -14.2117 -14.2117
   -11.7263 -11.7263 -11.5995 -11.5995 -11.5529 -11.5529 -11.3806 -11.3806
   -11.3750 -11.3750 -11.3621 -11.3621 -10.2471 -10.2471 -10.2389 -10.2388
    -6.8003  -6.8003  -6.7720  -6.7720  -6.7691  -6.7691  -6.7400  -6.7400
    -5.5898  -5.5898  -5.1232  -5.1232  -4.6498  -4.6497  -4.6379  -4.6379
    -2.6142  -2.6142  -2.5987  -2.5987  -2.5745  -2.5745  -2.5723  -2.5723
    -1.1368  -1.1368  -0.5628  -0.5628  -0.3734  -0.3734  -0.3624  -0.3624
    -0.3322  -0.3322   0.0757   0.0757   0.2077   0.2078   0.3968   0.3968
     0.4673   0.4673   0.6058   0.6059   0.6103   0.6103   0.6874   0.6875
     0.7924   0.7924   0.8487   0.8487   0.9931   0.9931   1.0047   1.0047
     1.1242   1.1242   1.4233   1.4233   4.5564   4.5564   5.5916   5.5916
     5.9334   5.9335   5.9461   5.9461   6.1568   6.1569   7.0021   7.0021
     7.4108   7.4108   7.7933   7.7933   8.0749   8.0749   8.4280   8.4280
     8.6488   8.6488   8.6728   8.6728   8.7877   8.7877   8.8338   8.8338
     8.9608   8.9608   9.5010   9.5011   9.6707   9.6707   9.7926   9.7926
     9.9650   9.9650  10.0190  10.0190  10.4398  10.4398  10.4888  10.4888
    10.5417  10.5417  10.6028  10.6028  10.8243  10.8243  11.0186  11.0186
    11.2871  11.2871  11.4379  11.4379  11.5299  11.5299  11.8202  11.8202
    12.2757  12.2757  12.3213  12.3213  12.4688  12.4688  12.5077  12.5077
    13.0095  13.0095  13.0544  13.0544  13.2171  13.2171  13.3000  13.3000
    13.4862  13.4862  13.6028  13.6028  13.6537  13.6537  13.9972  13.9972
    13.9984  13.9984  14.1535  14.1535  14.2425  14.2425  14.4074  14.4075
    14.5182  14.5183  14.8277  14.8277  15.2041  15.2042  15.3194  15.3197

          k = 0.0000-0.4595 0.1669 (144498 PWs)   bands (ev):

   -17.2667 -17.2667 -17.2587 -17.2587 -14.2956 -14.2956 -14.2754 -14.2754
   -14.2751 -14.2751 -14.2704 -14.2704 -14.2372 -14.2372 -14.2369 -14.2369
   -14.2229 -14.2229 -14.2217 -14.2217 -14.2120 -14.2120 -14.2117 -14.2117
   -11.7174 -11.7174 -11.6418 -11.6418 -11.5043 -11.5043 -11.3882 -11.3882
   -11.3755 -11.3755 -11.3689 -11.3689 -10.2467 -10.2467 -10.2393 -10.2392
    -6.8000  -6.8000  -6.7725  -6.7725  -6.7687  -6.7687  -6.7400  -6.7400
    -5.5322  -5.5322  -5.2044  -5.2044  -4.6484  -4.6484  -4.6400  -4.6400
    -2.6076  -2.6076  -2.5966  -2.5966  -2.5819  -2.5819  -2.5685  -2.5685
    -0.9609  -0.9609  -0.5428  -0.5428  -0.4204  -0.4204  -0.3602  -0.3602
    -0.3141  -0.3141   0.0615   0.0615   0.2330   0.2331   0.3734   0.3734
     0.4260   0.4260   0.4676   0.4676   0.6282   0.6282   0.7255   0.7255
     0.7982   0.7982   0.8706   0.8706   0.9736   0.9737   0.9946   0.9946
     1.1226   1.1226   1.2521   1.2522   5.0088   5.0088   5.6261   5.6261
     5.8897   5.8897   5.9526   5.9526   6.1381   6.1381   6.8654   6.8654
     7.2275   7.2275   7.7822   7.7822   8.0170   8.0170   8.3790   8.3790
     8.6067   8.6067   8.6973   8.6973   8.7541   8.7541   8.9395   8.9395
     9.1553   9.1553   9.3549   9.3549   9.6748   9.6748   9.7436   9.7437
     9.8558   9.8558  10.1670  10.1670  10.4144  10.4144  10.5111  10.5111
    10.6041  10.6041  10.6485  10.6485  10.8278  10.8278  11.0203  11.0203
    11.2380  11.2380  11.3057  11.3057  11.5296  11.5296  11.8635  11.8635
    12.1726  12.1726  12.3823  12.3823  12.5238  12.5238  12.6412  12.6413
    12.6988  12.6988  13.0069  13.0069  13.2023  13.2023  13.3866  13.3866
    13.4100  13.4100  13.5379  13.5379  13.7824  13.7824  13.9935  13.9935
    14.0190  14.0190  14.1718  14.1718  14.2795  14.2795  14.5478  14.5478
    14.6145  14.6145  15.1248  15.1248  15.3501  15.3504  15.3813  15.3820

          k = 0.0000-0.4595-0.3337 (144560 PWs)   bands (ev):

   -17.2667 -17.2667 -17.2587 -17.2587 -14.2834 -14.2834 -14.2831 -14.2831
   -14.2750 -14.2750 -14.2749 -14.2749 -14.2371 -14.2371 -14.2371 -14.2371
   -14.2224 -14.2224 -14.2224 -14.2224 -14.2119 -14.2119 -14.2119 -14.2119
   -11.6979 -11.6979 -11.6785 -11.6785 -11.4607 -11.4607 -11.4114 -11.4113
   -11.3748 -11.3748 -11.3725 -11.3725 -10.2463 -10.2463 -10.2397 -10.2397
    -6.7997  -6.7997  -6.7729  -6.7729  -6.7682  -6.7682  -6.7400  -6.7399
    -5.3913  -5.3913  -5.3683  -5.3683  -4.6460  -4.6460  -4.6430  -4.6430
    -2.6032  -2.6032  -2.5906  -2.5906  -2.5879  -2.5878  -2.5684  -2.5684
    -0.6699  -0.6699  -0.5782  -0.5782  -0.4476  -0.4476  -0.4134  -0.4134
    -0.1666  -0.1666  -0.1175  -0.1175   0.2758   0.2758   0.2815   0.2816
     0.3871   0.3871   0.4151   0.4151   0.6006   0.6006   0.7763   0.7763
     0.7890   0.7890   0.8845   0.8846   0.9226   0.9226   0.9956   0.9956
     1.1277   1.1277   1.1487   1.1488   5.6668   5.6668   5.7284   5.7284
     5.8699   5.8699   5.9392   5.9392   6.1631   6.1631   6.2203   6.2203
     7.2235   7.2235   7.7106   7.7106   8.0408   8.0408   8.3004   8.3004
     8.5951   8.5951   8.7211   8.7211   8.7258   8.7258   9.0538   9.0538
     9.2067   9.2067   9.4666   9.4666   9.5808   9.5808   9.6788   9.6788
     9.7983   9.7983  10.2274  10.2274  10.4063  10.4063  10.5068  10.5068
    10.6188  10.6188  10.6259  10.6259  10.8629  10.8629  11.0791  11.0791
    11.1499  11.1499  11.2676  11.2676  11.6092  11.6092  11.8519  11.8519
    12.2442  12.2443  12.3184  12.3184  12.4082  12.4082  12.5232  12.5232
    12.7376  12.7376  12.9651  12.9651  13.2848  13.2848  13.3475  13.3475
    13.4569  13.4569  13.4709  13.4709  13.8336  13.8336  13.9749  13.9749
    13.9793  13.9793  14.1162  14.1162  14.3181  14.3181  14.6589  14.6589
    15.0029  15.0029  15.2536  15.2537  15.2861  15.2861  15.4764  15.4774

          k = 0.2500 0.0000 0.0000 (144415 PWs)   bands (ev):

   -17.2661 -17.2653 -17.2600 -17.2594 -14.3062 -14.2956 -14.2931 -14.2927
   -14.2721 -14.2597 -14.2573 -14.2571 -14.2374 -14.2370 -14.2369 -14.2366
   -14.2234 -14.2224 -14.2213 -14.2209 -14.2123 -14.2119 -14.2118 -14.2115
   -11.7803 -11.6271 -11.6101 -11.5644 -11.5466 -11.5058 -11.4893 -11.4889
   -11.3953 -11.3291 -11.3285 -11.3234 -10.2581 -10.2488 -10.2430 -10.2418
    -6.8017  -6.7922  -6.7698  -6.7649  -6.7647  -6.7632  -6.7549  -6.7337
    -5.8645  -5.4114  -5.2533  -4.7485  -4.6473  -4.6268  -4.6268  -4.6209
    -2.6201  -2.6140  -2.6079  -2.6038  -2.5821  -2.5764  -2.5662  -2.5659
    -1.2383  -1.1982  -1.1820  -0.8859  -0.7885  -0.6571  -0.1200   0.0193
     0.0597   0.0917   0.0926   0.1364   0.1839   0.2782   0.3299   0.3547
     0.5875   0.5884   0.5900   0.6295   0.6511   0.6661   0.6889   0.7091
     0.7316   0.7662   0.8156   0.8412   0.8617   0.9536   0.9764   1.0309
     1.0950   1.2818   1.3215   1.7745   4.3167   4.7549   4.7989   4.8388
     5.1319   5.1869   6.5456   6.5973   6.8810   7.1339   7.3536   7.3571
     7.6511   7.7038   7.7293   8.1087   8.2022   8.2045   8.2544   8.3648
     8.4946   8.7174   8.7571   8.8011   9.0128   9.0804   9.0962   9.1377
     9.1449   9.2197   9.2389   9.4896   9.5145   9.5239   9.5326   9.7136
     9.7977   9.8962   9.8963   9.9665  10.0926  10.1933  10.2345  10.2960
    10.4759  10.4923  10.5203  10.5555  10.6653  10.7597  10.8849  10.8953
    11.0085  11.0141  11.1854  11.2040  11.4232  11.7037  11.7521  11.7662
    11.7814  11.9743  12.0973  12.1569  12.3117  12.4983  12.5356  12.5427
    12.6832  12.7711  12.9079  12.9157  12.9410  13.2565  13.4312  13.4359
    13.4823  13.5217  13.6024  13.6707  13.7176  13.7556  13.8863  13.9628
    14.2044  14.2900  14.3646  14.4960  14.5794  14.6379  14.6568  14.8075
    14.8194  14.9145  14.9389  15.0125  15.0781  15.1219  15.2088  15.3871

          k = 0.2500 0.0000 0.1669 (144441 PWs)   bands (ev):

   -17.2660 -17.2654 -17.2599 -17.2595 -14.3012 -14.2934 -14.2931 -14.2896
   -14.2770 -14.2647 -14.2573 -14.2572 -14.2373 -14.2370 -14.2370 -14.2366
   -14.2232 -14.2222 -14.2218 -14.2212 -14.2122 -14.2119 -14.2118 -14.2116
   -11.7686 -11.6774 -11.6046 -11.5642 -11.5261 -11.5070 -11.4672 -11.4665
   -11.4053 -11.3442 -11.3291 -11.3283 -10.2557 -10.2479 -10.2442 -10.2439
    -6.8006  -6.7938  -6.7691  -6.7656  -6.7643  -6.7631  -6.7515  -6.7366
    -5.8071  -5.4887  -5.1924  -4.8390  -4.6447  -4.6300  -4.6262  -4.6220
    -2.6175  -2.6134  -2.6095  -2.5983  -2.5851  -2.5787  -2.5689  -2.5665
    -1.1602  -1.1107  -1.0433  -0.7937  -0.7672  -0.6646  -0.0907  -0.0092
     0.0304   0.0519   0.0660   0.1717   0.1736   0.1981   0.2786   0.3537
     0.3898   0.5364   0.5789   0.6215   0.6252   0.6851   0.7283   0.7387
     0.7579   0.7910   0.8334   0.8596   0.8745   0.9388   0.9523   1.0383
     1.0650   1.1568   1.3263   1.5680   4.7657   4.8521   4.8874   5.0797
     5.1333   5.2445   6.5630   6.6297   6.6622   7.1066   7.1906   7.2865
     7.2941   7.5757   7.7253   8.1255   8.1359   8.2162   8.3166   8.3547
     8.5380   8.7592   8.7999   8.8851   8.8918   8.9305   9.0508   9.0725
     9.2670   9.3130   9.3807   9.4215   9.5577   9.6485   9.6738   9.7181
     9.7686   9.8323   9.8845  10.0034  10.0664  10.1731  10.1843  10.3308
    10.3312  10.4478  10.4906  10.5752  10.6295  10.7514  10.9696  10.9789
    11.0155  11.0570  11.1917  11.2467  11.3608  11.6092  11.6640  11.7145
    11.7770  12.0021  12.1055  12.2575  12.3126  12.3175  12.3908  12.5065
    12.6228  12.7498  12.8750  12.9608  13.1449  13.3070  13.3145  13.4199
    13.5452  13.6392  13.6913  13.7860  13.8536  13.8775  13.9306  13.9533
    14.1186  14.2620  14.3794  14.4085  14.4999  14.5239  14.6747  14.8516
    14.9106  15.0216  15.0864  15.0870  15.1394  15.1489  15.2869  15.3329

          k = 0.2500 0.0000-0.3337 (144474 PWs)   bands (ev):

   -17.2657 -17.2657 -17.2597 -17.2597 -14.2931 -14.2931 -14.2890 -14.2890
   -14.2772 -14.2772 -14.2573 -14.2572 -14.2372 -14.2372 -14.2368 -14.2368
   -14.2227 -14.2226 -14.2218 -14.2218 -14.2121 -14.2120 -14.2117 -14.2117
   -11.7335 -11.7335 -11.5884 -11.5884 -11.5112 -11.5111 -11.4322 -11.4322
   -11.4001 -11.4001 -11.3286 -11.3286 -10.2499 -10.2499 -10.2459 -10.2459
    -6.7975  -6.7975  -6.7674  -6.7674  -6.7634  -6.7634  -6.7439  -6.7439
    -5.6577  -5.6577  -5.0302  -5.0302  -4.6375  -4.6375  -4.6243  -4.6243
    -2.6161  -2.6161  -2.5978  -2.5978  -2.5867  -2.5867  -2.5690  -2.5690
    -1.1109  -1.1109  -0.7955  -0.7955  -0.3970  -0.3970  -0.3513  -0.3513
    -0.0223  -0.0223   0.0653   0.0654   0.2332   0.2332   0.2354   0.2354
     0.4345   0.4345   0.5780   0.5780   0.6420   0.6420   0.7666   0.7667
     0.8149   0.8149   0.8650   0.8650   0.8717   0.8717   0.9894   0.9894
     1.0658   1.0659   1.3732   1.3733   4.9314   4.9314   5.0085   5.0085
     5.8150   5.8150   6.1731   6.1731   6.7120   6.7120   7.1912   7.1912
     7.2680   7.2680   7.9163   7.9164   8.2086   8.2086   8.4128   8.4128
     8.5667   8.5667   8.8289   8.8289   8.8949   8.8949   9.0667   9.0667
     9.4181   9.4181   9.4790   9.4790   9.5965   9.5965   9.7053   9.7053
     9.8248   9.8248   9.9311   9.9311  10.1720  10.1720  10.2056  10.2056
    10.3134  10.3134  10.3908  10.3908  10.8335  10.8335  10.9301  10.9301
    11.0755  11.0755  11.1789  11.1789  11.5908  11.5908  11.6003  11.6003
    11.9010  11.9010  12.1132  12.1132  12.1417  12.1417  12.5435  12.5435
    12.6787  12.6787  12.9553  12.9553  13.2980  13.2980  13.3042  13.3042
    13.6205  13.6205  13.6885  13.6885  13.9736  13.9736  14.0100  14.0100
    14.2080  14.2080  14.4434  14.4434  14.5741  14.5741  14.6927  14.6928
    14.9439  14.9439  15.0791  15.0791  15.2279  15.2280  15.5220  15.5226

          k = 0.2500 0.2297 0.0000 (144470 PWs)   bands (ev):

   -17.2659 -17.2653 -17.2600 -17.2596 -14.3071 -14.2982 -14.2907 -14.2854
   -14.2699 -14.2668 -14.2613 -14.2548 -14.2373 -14.2371 -14.2369 -14.2366
   -14.2233 -14.2226 -14.2213 -14.2208 -14.2122 -14.2119 -14.2118 -14.2115
   -11.7603 -11.6365 -11.6106 -11.5671 -11.5515 -11.5261 -11.4861 -11.4645
   -11.3811 -11.3590 -11.3521 -11.3048 -10.2527 -10.2453 -10.2413 -10.2391
    -6.7980  -6.7904  -6.7709  -6.7665  -6.7653  -6.7639  -6.7507  -6.7362
    -5.7808  -5.3496  -5.3232  -4.8554  -4.6529  -4.6361  -4.6349  -4.6329
    -2.6219  -2.6135  -2.6085  -2.5961  -2.5936  -2.5886  -2.5759  -2.5635
    -1.2415  -1.1606  -1.1571  -0.9139  -0.4984  -0.4154  -0.3613  -0.2792
     0.0237   0.0406   0.0791   0.1439   0.2182   0.3262   0.4377   0.4833
     0.5266   0.5629   0.5862   0.5945   0.6490   0.6684   0.6901   0.6910
     0.7423   0.7765   0.8365   0.8591   0.8676   0.9395   0.9496   1.0111
     1.0818   1.2783   1.3392   1.7481   4.3825   4.4551   4.6836   4.8799
     5.6700   5.9355   6.0057   6.2125   6.8127   6.9394   7.3855   7.4069
     7.5043   7.6783   7.6881   7.9810   8.0736   8.2174   8.3383   8.3877
     8.4601   8.6263   8.7032   8.9111   8.9775   8.9936   9.0700   9.0998
     9.1259   9.2034   9.2806   9.3699   9.3884   9.5823   9.7217   9.7391
     9.8822   9.9164  10.0246  10.0625  10.1307  10.1320  10.2975  10.3301
    10.4457  10.4575  10.4736  10.6090  10.7626  10.7786  10.8199  10.9694
    11.0814  11.1335  11.2292  11.5548  11.5578  11.6369  11.7488  11.8036
    11.8472  11.9924  12.1193  12.3049  12.4459  12.5396  12.6255  12.6755
    12.6845  12.7740  12.9146  13.0110  13.1988  13.2414  13.2650  13.3468
    13.3521  13.5482  13.6038  13.6991  13.8252  13.8955  13.9877  14.0118
    14.1164  14.1653  14.2953  14.3702  14.4022  14.5131  14.5453  14.6928
    14.7523  14.7786  14.8196  14.8741  14.9958  15.0623  15.1672  15.2274

          k = 0.2500 0.2297 0.1669 (144451 PWs)   bands (ev):

   -17.2658 -17.2654 -17.2599 -17.2596 -14.3028 -14.2932 -14.2913 -14.2845
   -14.2730 -14.2708 -14.2611 -14.2571 -14.2373 -14.2370 -14.2369 -14.2367
   -14.2231 -14.2224 -14.2218 -14.2213 -14.2121 -14.2118 -14.2118 -14.2116
   -11.7492 -11.6631 -11.6271 -11.5802 -11.5232 -11.5157 -11.4722 -11.4440
   -11.3863 -11.3713 -11.3490 -11.3178 -10.2509 -10.2449 -10.2422 -10.2404
    -6.7970  -6.7916  -6.7705  -6.7674  -6.7644  -6.7635  -6.7488  -6.7384
    -5.7233  -5.4020  -5.2894  -4.9435  -4.6505  -4.6380  -4.6356  -4.6336
    -2.6158  -2.6152  -2.6092  -2.5946  -2.5904  -2.5868  -2.5764  -2.5685
    -1.1573  -1.1311  -0.9751  -0.8182  -0.4733  -0.4270  -0.3624  -0.3033
     0.0042   0.0455   0.0740   0.0911   0.2359   0.2986   0.3197   0.3755
     0.4762   0.5398   0.5494   0.6045   0.6330   0.6580   0.7050   0.7356
     0.7587   0.8047   0.8427   0.8753   0.8858   0.9302   0.9426   1.0184
     1.0564   1.1807   1.2899   1.5498   4.5110   4.7733   4.8693   5.1741
     5.7040   5.9283   5.9967   6.1780   6.7000   6.8445   7.1560   7.3435
     7.3734   7.4778   7.7469   7.9571   8.0078   8.1375   8.2863   8.3904
     8.5851   8.7066   8.7569   8.8475   8.9307   9.0161   9.0672   9.0989
     9.1584   9.2834   9.2915   9.3954   9.5351   9.6362   9.7136   9.7402
     9.8176   9.8632   9.8934   9.9300  10.1363  10.2345  10.3124  10.3652
    10.4284  10.4709  10.5484  10.6562  10.6585  10.8195  10.8823  10.9340
    11.0532  11.1438  11.1863  11.4081  11.5432  11.5959  11.7957  11.8487
    11.8978  11.9859  12.2357  12.3086  12.4133  12.4472  12.5649  12.6300
    12.6622  12.7576  12.8435  13.0426  13.1293  13.1903  13.3118  13.3428
    13.4421  13.5695  13.6063  13.7366  13.7664  13.9090  13.9699  14.0410
    14.1276  14.2332  14.2566  14.4662  14.5416  14.5648  14.6219  14.6396
    14.7184  14.8182  14.9210  14.9609  15.0856  15.1338  15.2189  15.3055

          k = 0.2500 0.2297-0.3337 (144428 PWs)   bands (ev):

   -17.2656 -17.2656 -17.2598 -17.2598 -14.2949 -14.2949 -14.2821 -14.2821
   -14.2799 -14.2798 -14.2600 -14.2600 -14.2371 -14.2371 -14.2368 -14.2368
   -14.2226 -14.2225 -14.2220 -14.2219 -14.2120 -14.2120 -14.2117 -14.2117
   -11.7159 -11.7159 -11.6085 -11.6085 -11.5131 -11.5131 -11.4245 -11.4245
   -11.3975 -11.3975 -11.3397 -11.3397 -10.2469 -10.2468 -10.2424 -10.2424
    -6.7944  -6.7944  -6.7691  -6.7691  -6.7634  -6.7634  -6.7438  -6.7437
    -5.5729  -5.5729  -5.1300  -5.1300  -4.6443  -4.6443  -4.6349  -4.6348
    -2.6157  -2.6157  -2.5975  -2.5975  -2.5874  -2.5874  -2.5757  -2.5756
    -1.1180  -1.1180  -0.6066  -0.6066  -0.4357  -0.4357  -0.2840  -0.2840
    -0.2446  -0.2446   0.0846   0.0846   0.2085   0.2085   0.3002   0.3002
     0.4796   0.4796   0.5879   0.5879   0.6112   0.6112   0.7456   0.7457
     0.8209   0.8209   0.8631   0.8631   0.8903   0.8903   0.9932   0.9932
     1.0535   1.0535   1.3478   1.3478   4.6458   4.6459   5.7355   5.7355
     5.8816   5.8816   6.0207   6.0207   6.2495   6.2495   7.1700   7.1700
     7.3219   7.3220   7.8629   7.8629   8.0526   8.0526   8.3174   8.3174
     8.6575   8.6575   8.7944   8.7944   8.9722   8.9722   9.1551   9.1551
     9.2565   9.2565   9.4308   9.4308   9.5962   9.5962   9.6953   9.6953
     9.8107   9.8107   9.8812   9.8812  10.1976  10.1976  10.2947  10.2947
    10.4003  10.4003  10.6402  10.6402  10.7824  10.7824  10.8526  10.8526
    11.1071  11.1071  11.3721  11.3721  11.5065  11.5065  11.8245  11.8245
    11.9456  11.9456  12.3025  12.3026  12.4299  12.4299  12.5602  12.5602
    12.6340  12.6340  12.8616  12.8616  13.1950  13.1950  13.2838  13.2838
    13.5041  13.5041  13.7380  13.7380  13.9310  13.9311  14.0109  14.0109
    14.1929  14.1929  14.3787  14.3787  14.4850  14.4851  14.6979  14.6979
    14.7761  14.7761  14.9724  14.9725  15.2436  15.2437  15.3029  15.3029

          k = 0.2500-0.4595 0.0000 (144474 PWs)   bands (ev):

   -17.2655 -17.2655 -17.2598 -17.2598 -14.3040 -14.3040 -14.2822 -14.2822
   -14.2721 -14.2721 -14.2590 -14.2590 -14.2372 -14.2372 -14.2367 -14.2367
   -14.2230 -14.2230 -14.2211 -14.2211 -14.2120 -14.2120 -14.2116 -14.2116
   -11.7052 -11.7052 -11.5695 -11.5694 -11.5591 -11.5591 -11.4446 -11.4446
   -11.4085 -11.4084 -11.3184 -11.3184 -10.2450 -10.2449 -10.2377 -10.2377
    -6.7912  -6.7912  -6.7704  -6.7704  -6.7650  -6.7650  -6.7429  -6.7429
    -5.5715  -5.5715  -5.0989  -5.0989  -4.6528  -4.6528  -4.6428  -4.6428
    -2.6160  -2.6160  -2.6143  -2.6143  -2.5931  -2.5931  -2.5692  -2.5692
    -1.1672  -1.1672  -0.8863  -0.8863  -0.7442  -0.7442  -0.0863  -0.0863
     0.0611   0.0611   0.0781   0.0781   0.2704   0.2704   0.4577   0.4577
     0.5160   0.5160   0.6131   0.6131   0.6663   0.6663   0.7028   0.7028
     0.7238   0.7238   0.8717   0.8717   0.8779   0.8780   0.9917   0.9917
     1.0978   1.0978   1.5267   1.5267   4.5440   4.5440   4.9893   4.9893
     5.3306   5.3306   6.5324   6.5324   6.8146   6.8146   7.1233   7.1233
     7.4982   7.4982   7.7402   7.7402   8.1788   8.1788   8.3297   8.3297
     8.6621   8.6621   8.8482   8.8482   8.8548   8.8548   8.9971   8.9971
     9.1311   9.1311   9.3909   9.3909   9.3916   9.3916   9.7319   9.7319
     9.8911   9.8911  10.0370  10.0370  10.2565  10.2565  10.3705  10.3705
    10.4917  10.4917  10.4993  10.4993  10.7641  10.7641  10.9983  10.9983
    11.2577  11.2577  11.5436  11.5436  11.5649  11.5649  11.8743  11.8743
    12.1464  12.1464  12.2579  12.2579  12.5982  12.5982  12.6018  12.6019
    12.8531  12.8531  12.9423  12.9423  13.2112  13.2112  13.2856  13.2856
    13.3389  13.3389  13.7691  13.7691  13.8512  13.8512  13.9203  13.9203
    14.0066  14.0066  14.3209  14.3209  14.3752  14.3752  14.6494  14.6494
    14.7143  14.7143  14.8663  14.8664  14.9823  14.9826  15.0493  15.0497

          k = 0.2500-0.4595 0.1669 (144452 PWs)   bands (ev):

   -17.2655 -17.2655 -17.2598 -17.2598 -14.2996 -14.2996 -14.2838 -14.2838
   -14.2713 -14.2713 -14.2624 -14.2624 -14.2371 -14.2371 -14.2368 -14.2368
   -14.2228 -14.2228 -14.2215 -14.2215 -14.2119 -14.2119 -14.2117 -14.2117
   -11.6963 -11.6962 -11.6200 -11.6200 -11.5129 -11.5129 -11.4462 -11.4462
   -11.3976 -11.3976 -11.3321 -11.3321 -10.2444 -10.2444 -10.2383 -10.2383
    -6.7910  -6.7910  -6.7709  -6.7709  -6.7642  -6.7642  -6.7432  -6.7432
    -5.5131  -5.5131  -5.1814  -5.1814  -4.6516  -4.6516  -4.6445  -4.6444
    -2.6159  -2.6159  -2.6042  -2.6042  -2.5948  -2.5948  -2.5727  -2.5727
    -1.0186  -1.0186  -0.8681  -0.8681  -0.7172  -0.7172  -0.0678  -0.0678
    -0.0197  -0.0197   0.0632   0.0632   0.2823   0.2824   0.4008   0.4008
     0.4571   0.4571   0.5917   0.5917   0.6298   0.6298   0.7410   0.7410
     0.7629   0.7629   0.8737   0.8737   0.8901   0.8901   0.9972   0.9972
     1.0888   1.0889   1.3392   1.3392   4.9924   4.9924   5.0410   5.0410
     5.2832   5.2832   6.4920   6.4920   6.7884   6.7884   7.0272   7.0272
     7.2879   7.2879   7.7594   7.7594   8.0680   8.0681   8.3218   8.3218
     8.7454   8.7454   8.8335   8.8335   8.8714   8.8714   8.9666   8.9666
     9.2568   9.2568   9.3436   9.3436   9.4983   9.4983   9.6568   9.6568
     9.7935   9.7935  10.0195  10.0196  10.2355  10.2355  10.3904  10.3904
    10.5536  10.5536  10.6234  10.6234  10.7891  10.7891  10.9272  10.9272
    11.1612  11.1612  11.4691  11.4691  11.6447  11.6447  11.9297  11.9297
    12.1011  12.1011  12.2751  12.2751  12.4904  12.4905  12.6591  12.6591
    12.7508  12.7508  12.9403  12.9403  13.2101  13.2101  13.3526  13.3526
    13.4298  13.4298  13.6076  13.6076  13.7390  13.7390  13.8907  13.8907
    14.2233  14.2233  14.3190  14.3190  14.4541  14.4541  14.5839  14.5839
    14.7127  14.7127  14.8601  14.8602  15.0305  15.0306  15.1018  15.1019

          k = 0.2500-0.4595-0.3337 (144420 PWs)   bands (ev):

   -17.2655 -17.2655 -17.2599 -17.2598 -14.2902 -14.2902 -14.2901 -14.2901
   -14.2684 -14.2684 -14.2683 -14.2683 -14.2370 -14.2370 -14.2370 -14.2370
   -14.2223 -14.2223 -14.2223 -14.2223 -14.2118 -14.2118 -14.2118 -14.2118
   -11.6772 -11.6771 -11.6561 -11.6561 -11.4917 -11.4917 -11.4481 -11.4481
   -11.3674 -11.3674 -11.3643 -11.3643 -10.2437 -10.2437 -10.2390 -10.2390
    -6.7907  -6.7907  -6.7714  -6.7714  -6.7635  -6.7634  -6.7436  -6.7436
    -5.3673  -5.3673  -5.3506  -5.3506  -4.6494  -4.6494  -4.6471  -4.6470
    -2.6150  -2.6150  -2.5987  -2.5987  -2.5887  -2.5887  -2.5809  -2.5809
    -0.9085  -0.9085  -0.8524  -0.8524  -0.3954  -0.3954  -0.3846  -0.3845
    -0.0377  -0.0377   0.0453   0.0453   0.2941   0.2941   0.3104   0.3104
     0.4558   0.4558   0.5256   0.5256   0.6561   0.6561   0.7618   0.7618
     0.7816   0.7816   0.8683   0.8683   0.9226   0.9226   0.9865   0.9865
     1.0978   1.0979   1.1799   1.1799   5.1377   5.1377   5.1567   5.1567
     5.8933   5.8933   5.9856   5.9856   6.7561   6.7561   6.7810   6.7810
     7.2841   7.2841   7.7590   7.7590   7.9466   7.9466   8.3665   8.3665
     8.7334   8.7334   8.8118   8.8118   8.9558   8.9558   8.9704   8.9704
     9.3251   9.3251   9.3763   9.3763   9.5500   9.5500   9.6213   9.6214
     9.6847   9.6847   9.9882   9.9882  10.2912  10.2912  10.3265  10.3265
    10.5411  10.5411  10.7141  10.7141  10.8680  10.8680  10.9111  10.9111
    11.0702  11.0702  11.5124  11.5124  11.5719  11.5719  11.9474  11.9474
    12.1133  12.1133  12.2841  12.2841  12.4858  12.4858  12.5745  12.5745
    12.7530  12.7530  12.9010  12.9010  13.2563  13.2563  13.3848  13.3848
    13.4212  13.4212  13.5468  13.5468  13.7255  13.7255  13.8194  13.8194
    14.2069  14.2069  14.3370  14.3370  14.5539  14.5539  14.5679  14.5679
    14.8264  14.8264  14.8314  14.8314  15.0826  15.0826  15.2593  15.2594

          k =-0.5000 0.0000 0.0000 (144524 PWs)   bands (ev):

   -17.2630 -17.2630 -17.2623 -17.2623 -14.3006 -14.3006 -14.2755 -14.2755
   -14.2753 -14.2753 -14.2655 -14.2655 -14.2373 -14.2373 -14.2368 -14.2368
   -14.2231 -14.2231 -14.2213 -14.2213 -14.2121 -14.2121 -14.2117 -14.2117
   -11.7089 -11.7088 -11.5603 -11.5602 -11.5554 -11.5554 -11.4179 -11.4179
   -11.4134 -11.4134 -11.3466 -11.3466 -10.2519 -10.2519 -10.2404 -10.2404
    -6.7800  -6.7800  -6.7732  -6.7732  -6.7602  -6.7602  -6.7468  -6.7468
    -5.5771  -5.5771  -5.1052  -5.1052  -4.6390  -4.6390  -4.6293  -4.6293
    -2.6094  -2.6094  -2.6040  -2.6040  -2.6027  -2.6026  -2.5763  -2.5762
    -1.1830  -1.1830  -0.6920  -0.6920  -0.4914  -0.4914  -0.2035  -0.2035
    -0.1115  -0.1115   0.0362   0.0362   0.1553   0.1553   0.4746   0.4746
     0.4817   0.4817   0.6123   0.6123   0.6819   0.6819   0.7079   0.7079
     0.7202   0.7202   0.8216   0.8216   0.8476   0.8476   0.8979   0.8979
     1.0535   1.0535   1.4148   1.4148   4.5604   4.5604   5.7225   5.7225
     5.9248   5.9248   6.0321   6.0321   6.2567   6.2567   7.3165   7.3165
     7.4330   7.4330   7.9911   7.9911   8.2577   8.2577   8.6331   8.6331
     8.6952   8.6952   8.6978   8.6979   9.0971   9.0971   9.1161   9.1161
     9.2671   9.2671   9.4350   9.4350   9.5160   9.5160   9.6079   9.6079
     9.7198   9.7198   9.8848   9.8848  10.0995  10.0995  10.2678  10.2678
    10.2793  10.2793  10.4757  10.4757  10.5550  10.5550  10.6824  10.6824
    10.9487  10.9487  11.1603  11.1603  11.6583  11.6583  11.7188  11.7188
    11.9773  11.9773  12.3970  12.3970  12.6877  12.6877  12.6880  12.6880
    12.8483  12.8483  13.0566  13.0566  13.0681  13.0681  13.2306  13.2306
    13.3740  13.3740  13.6458  13.6458  13.8792  13.8792  13.8795  13.8795
    14.0807  14.0808  14.2385  14.2385  14.4786  14.4786  14.4986  14.4986
    14.6424  14.6424  14.9853  14.9853  15.1923  15.1923  15.3012  15.3018

          k =-0.5000 0.0000 0.1669 (144390 PWs)   bands (ev):

   -17.2629 -17.2629 -17.2624 -17.2624 -14.2955 -14.2955 -14.2756 -14.2756
   -14.2753 -14.2753 -14.2704 -14.2704 -14.2372 -14.2372 -14.2369 -14.2369
   -14.2229 -14.2229 -14.2217 -14.2217 -14.2120 -14.2120 -14.2117 -14.2117
   -11.6991 -11.6991 -11.6215 -11.6215 -11.4884 -11.4884 -11.4203 -11.4203
   -11.4110 -11.4110 -11.3621 -11.3621 -10.2502 -10.2502 -10.2421 -10.2421
    -6.7793  -6.7793  -6.7746  -6.7746  -6.7579  -6.7578  -6.7485  -6.7485
    -5.5185  -5.5185  -5.1874  -5.1874  -4.6378  -4.6377  -4.6309  -4.6308
    -2.6129  -2.6129  -2.6093  -2.6093  -2.5931  -2.5931  -2.5778  -2.5778
    -0.9852  -0.9852  -0.6758  -0.6758  -0.5178  -0.5177  -0.1863  -0.1863
    -0.1631  -0.1631   0.0127   0.0127   0.1799   0.1799   0.4056   0.4056
     0.4808   0.4808   0.5241   0.5242   0.6604   0.6604   0.6995   0.6995
     0.7784   0.7784   0.8380   0.8380   0.8717   0.8717   0.9146   0.9146
     1.0327   1.0327   1.2171   1.2171   5.0216   5.0216   5.7568   5.7568
     5.9427   5.9427   6.0055   6.0055   6.2111   6.2111   6.9807   6.9807
     7.4398   7.4398   7.8818   7.8818   8.2864   8.2864   8.4895   8.4895
     8.6577   8.6577   8.9267   8.9267   9.0068   9.0068   9.2246   9.2246
     9.3062   9.3062   9.3571   9.3571   9.5675   9.5675   9.6222   9.6222
     9.7347   9.7347   9.9695   9.9696  10.0845  10.0845  10.2011  10.2011
    10.3434  10.3434  10.4656  10.4656  10.5431  10.5431  10.7187  10.7187
    10.9728  10.9728  11.1113  11.1113  11.3593  11.3593  11.8614  11.8614
    11.9686  11.9686  12.2793  12.2793  12.5378  12.5378  12.6964  12.6964
    12.8393  12.8393  12.9556  12.9556  13.0596  13.0596  13.4594  13.4594
    13.5235  13.5235  13.6177  13.6177  13.7073  13.7073  13.9420  13.9420
    14.1529  14.1530  14.4404  14.4404  14.5015  14.5015  14.7393  14.7393
    14.7874  14.7875  14.9719  14.9719  15.2114  15.2114  15.3161  15.3161

          k =-0.5000 0.0000-0.3337 (144408 PWs)   bands (ev):

   -17.2627 -17.2627 -17.2627 -17.2626 -14.2832 -14.2832 -14.2831 -14.2831
   -14.2752 -14.2752 -14.2752 -14.2752 -14.2371 -14.2371 -14.2371 -14.2370
   -14.2224 -14.2224 -14.2224 -14.2224 -14.2119 -14.2119 -14.2119 -14.2119
   -11.6698 -11.6697 -11.6697 -11.6697 -11.4350 -11.4350 -11.4349 -11.4349
   -11.3963 -11.3963 -11.3963 -11.3963 -10.2462 -10.2462 -10.2461 -10.2461
    -6.7773  -6.7772  -6.7772  -6.7772  -6.7529  -6.7529  -6.7529  -6.7529
    -5.3644  -5.3644  -5.3643  -5.3643  -4.6345  -4.6344  -4.6344  -4.6344
    -2.6135  -2.6135  -2.6134  -2.6134  -2.5834  -2.5834  -2.5834  -2.5834
    -0.6645  -0.6645  -0.6645  -0.6645  -0.4369  -0.4369  -0.4369  -0.4369
    -0.1046  -0.1046  -0.1046  -0.1046   0.2595   0.2595   0.2595   0.2595
     0.4811   0.4811   0.4812   0.4812   0.6719   0.6720   0.6720   0.6720
     0.8250   0.8250   0.8251   0.8251   0.9286   0.9286   0.9286   0.9286
     1.0267   1.0267   1.0267   1.0267   5.8001   5.8001   5.8002   5.8002
     5.9780   5.9780   5.9780   5.9780   6.1950   6.1950   6.1950   6.1950
     7.6392   7.6392   7.6392   7.6392   8.3642   8.3642   8.3642   8.3642
     8.8037   8.8037   8.8037   8.8037   9.0935   9.0935   9.0935   9.0935
     9.4096   9.4096   9.4096   9.4096   9.6178   9.6178   9.6178   9.6178
     9.8633   9.8633   9.8633   9.8633  10.1741  10.1741  10.1741  10.1741
    10.4511  10.4511  10.4511  10.4511  10.6057  10.6057  10.6057  10.6057
    10.8903  10.8903  10.8903  10.8903  11.6336  11.6336  11.6336  11.6336
    12.0653  12.0653  12.0653  12.0653  12.5859  12.5859  12.5859  12.5860
    12.8401  12.8401  12.8401  12.8401  13.2771  13.2771  13.2771  13.2771
    13.5790  13.5790  13.5790  13.5790  13.9151  13.9151  13.9151  13.9151
    14.3926  14.3926  14.3926  14.3926  14.6813  14.6813  14.6813  14.6813
    15.0040  15.0040  15.0040  15.0041  15.4573  15.4573  15.4574  15.4576

          k =-0.5000 0.2297 0.0000 (144480 PWs)   bands (ev):

   -17.2630 -17.2629 -17.2623 -17.2623 -14.3039 -14.3039 -14.2822 -14.2822
   -14.2721 -14.2721 -14.2590 -14.2590 -14.2372 -14.2372 -14.2367 -14.2367
   -14.2230 -14.2230 -14.2211 -14.2211 -14.2120 -14.2120 -14.2116 -14.2116
   -11.6946 -11.6946 -11.5617 -11.5617 -11.5420 -11.5420 -11.4541 -11.4541
   -11.4377 -11.4377 -11.3182 -11.3182 -10.2475 -10.2475 -10.2383 -10.2383
    -6.7792  -6.7792  -6.7728  -6.7728  -6.7597  -6.7597  -6.7472  -6.7472
    -5.5650  -5.5650  -5.0897  -5.0897  -4.6475  -4.6474  -4.6387  -4.6386
    -2.6197  -2.6197  -2.6104  -2.6104  -2.6070  -2.6070  -2.5722  -2.5721
    -1.1897  -1.1897  -0.9147  -0.9147  -0.7474  -0.7474  -0.0270  -0.0270
     0.0511   0.0511   0.1647   0.1647   0.2287   0.2287   0.5025   0.5025
     0.5197   0.5197   0.5793   0.5793   0.6500   0.6500   0.7128   0.7128
     0.7328   0.7328   0.8032   0.8032   0.8192   0.8192   0.9384   0.9384
     1.1073   1.1073   1.5183   1.5183   4.5437   4.5437   5.0178   5.0178
     5.3706   5.3706   6.5622   6.5622   6.8834   6.8834   7.3197   7.3197
     7.5054   7.5054   7.7139   7.7139   8.3390   8.3390   8.4904   8.4904
     8.7106   8.7106   8.9310   8.9310   8.9473   8.9473   9.0268   9.0268
     9.2608   9.2608   9.3467   9.3467   9.4564   9.4564   9.6203   9.6203
     9.8159   9.8159   9.9667   9.9667  10.1286  10.1286  10.1862  10.1862
    10.3609  10.3609  10.5063  10.5063  10.5477  10.5477  10.8554  10.8554
    10.8757  10.8757  11.4036  11.4036  11.7263  11.7263  11.7561  11.7561
    12.0067  12.0067  12.3221  12.3221  12.6587  12.6587  12.7503  12.7503
    12.8348  12.8348  13.0896  13.0896  13.1454  13.1454  13.4621  13.4621
    13.4779  13.4779  13.5940  13.5940  13.6657  13.6657  13.7620  13.7620
    13.9510  13.9510  14.2472  14.2472  14.4378  14.4378  14.5979  14.5979
    14.6639  14.6640  14.7841  14.7841  14.8769  14.8769  15.0721  15.0725

          k =-0.5000 0.2297 0.1669 (144488 PWs)   bands (ev):

   -17.2629 -17.2629 -17.2624 -17.2624 -14.2995 -14.2995 -14.2838 -14.2838
   -14.2714 -14.2714 -14.2624 -14.2624 -14.2371 -14.2371 -14.2368 -14.2368
   -14.2228 -14.2228 -14.2215 -14.2215 -14.2119 -14.2119 -14.2117 -14.2117
   -11.6849 -11.6849 -11.6101 -11.6101 -11.5004 -11.5004 -11.4617 -11.4617
   -11.4176 -11.4176 -11.3334 -11.3334 -10.2462 -10.2461 -10.2397 -10.2397
    -6.7785  -6.7785  -6.7740  -6.7740  -6.7576  -6.7576  -6.7488  -6.7488
    -5.5061  -5.5061  -5.1728  -5.1728  -4.6463  -4.6463  -4.6400  -4.6400
    -2.6210  -2.6210  -2.6116  -2.6116  -2.5993  -2.5993  -2.5754  -2.5754
    -1.0230  -1.0230  -0.9021  -0.9021  -0.7272  -0.7272  -0.0134  -0.0134
     0.0181   0.0181   0.0576   0.0576   0.2583   0.2583   0.4104   0.4104
     0.4992   0.4992   0.5842   0.5842   0.6691   0.6691   0.6928   0.6928
     0.7533   0.7533   0.8009   0.8009   0.8645   0.8645   0.9518   0.9518
     1.0905   1.0905   1.3218   1.3218   4.9946   4.9946   5.0716   5.0716
     5.3237   5.3237   6.5351   6.5351   6.8488   6.8488   7.0862   7.0862
     7.4308   7.4308   7.6824   7.6824   8.3202   8.3203   8.3670   8.3670
     8.7935   8.7935   8.8994   8.8994   8.9583   8.9584   9.1437   9.1438
     9.2942   9.2942   9.3898   9.3899   9.4850   9.4850   9.6474   9.6474
     9.7952   9.7952   9.9365   9.9365  10.0746  10.0746  10.2562  10.2562
    10.2986  10.2986  10.4957  10.4957  10.5339  10.5339  10.8101  10.8101
    10.9713  10.9713  11.3264  11.3264  11.6010  11.6010  11.8419  11.8419
    12.0365  12.0365  12.3252  12.3252  12.6180  12.6180  12.7205  12.7205
    12.8728  12.8729  13.0343  13.0343  13.1080  13.1080  13.2690  13.2691
    13.4936  13.4936  13.5691  13.5691  13.7993  13.7993  13.8818  13.8818
    14.0308  14.0308  14.2509  14.2509  14.4999  14.5000  14.5583  14.5583
    14.7181  14.7181  14.8683  14.8683  15.0663  15.0664  15.2192  15.2195

          k =-0.5000 0.2297-0.3337 (144420 PWs)   bands (ev):

   -17.2627 -17.2627 -17.2626 -17.2626 -14.2902 -14.2902 -14.2901 -14.2901
   -14.2684 -14.2684 -14.2684 -14.2684 -14.2370 -14.2370 -14.2370 -14.2370
   -14.2223 -14.2223 -14.2223 -14.2223 -14.2118 -14.2118 -14.2118 -14.2118
   -11.6561 -11.6561 -11.6561 -11.6561 -11.4745 -11.4745 -11.4745 -11.4745
   -11.3733 -11.3733 -11.3733 -11.3732 -10.2429 -10.2429 -10.2429 -10.2429
    -6.7765  -6.7765  -6.7765  -6.7765  -6.7530  -6.7530  -6.7530  -6.7530
    -5.3512  -5.3512  -5.3511  -5.3511  -4.6432  -4.6432  -4.6432  -4.6432
    -2.6176  -2.6176  -2.6176  -2.6176  -2.5851  -2.5851  -2.5851  -2.5851
    -0.8896  -0.8896  -0.8896  -0.8896  -0.4012  -0.4012  -0.4012  -0.4011
     0.0205   0.0205   0.0205   0.0205   0.3098   0.3098   0.3098   0.3098
     0.5290   0.5290   0.5290   0.5290   0.6873   0.6873   0.6873   0.6874
     0.7872   0.7872   0.7873   0.7873   0.9364   0.9364   0.9364   0.9364
     1.1150   1.1150   1.1150   1.1150   5.1800   5.1800   5.1800   5.1800
     5.9641   5.9641   5.9641   5.9641   6.8037   6.8037   6.8037   6.8037
     7.5567   7.5567   7.5568   7.5568   8.2998   8.2998   8.2998   8.2998
     8.8477   8.8477   8.8477   8.8477   9.0668   9.0668   9.0668   9.0668
     9.4469   9.4469   9.4469   9.4469   9.5834   9.5834   9.5834   9.5834
     9.8288   9.8288   9.8288   9.8288  10.1246  10.1246  10.1246  10.1246
    10.3877  10.3877  10.3877  10.3877  10.6547  10.6547  10.6547  10.6547
    11.1613  11.1613  11.1613  11.1613  11.6991  11.6991  11.6991  11.6991
    12.1605  12.1605  12.1605  12.1605  12.7608  12.7608  12.7608  12.7608
    12.8667  12.8667  12.8667  12.8667  13.0966  13.0966  13.0966  13.0966
    13.6090  13.6090  13.6090  13.6090  13.8731  13.8731  13.8731  13.8731
    14.1709  14.1709  14.1709  14.1709  14.5422  14.5422  14.5422  14.5422
    14.8071  14.8071  14.8071  14.8071  15.1385  15.1385  15.1386  15.1388

          k =-0.5000-0.4595 0.0000 (144412 PWs)   bands (ev):

   -17.2629 -17.2629 -17.2623 -17.2623 -14.3067 -14.3067 -14.2864 -14.2864
   -14.2696 -14.2696 -14.2552 -14.2552 -14.2371 -14.2371 -14.2366 -14.2366
   -14.2230 -14.2230 -14.2209 -14.2209 -14.2119 -14.2119 -14.2115 -14.2115
   -11.6763 -11.6763 -11.5719 -11.5719 -11.5100 -11.5100 -11.4834 -11.4834
   -11.4713 -11.4713 -11.3014 -11.3014 -10.2427 -10.2427 -10.2366 -10.2366
    -6.7784  -6.7784  -6.7724  -6.7724  -6.7591  -6.7591  -6.7475  -6.7475
    -5.5529  -5.5529  -5.0739  -5.0739  -4.6558  -4.6558  -4.6481  -4.6481
    -2.6302  -2.6302  -2.6180  -2.6179  -2.6114  -2.6113  -2.5661  -2.5661
    -1.2130  -1.2130  -1.0593  -1.0593  -0.8766  -0.8766   0.0047   0.0047
     0.1235   0.1235   0.3249   0.3249   0.3680   0.3680   0.4669   0.4669
     0.5417   0.5417   0.5747   0.5747   0.6477   0.6477   0.6498   0.6498
     0.7240   0.7240   0.7804   0.7804   0.7974   0.7974   1.0176   1.0176
     1.1795   1.1795   1.6467   1.6467   4.5121   4.5121   4.6400   4.6400
     5.0430   5.0430   6.8408   6.8408   7.1713   7.1713   7.2655   7.2655
     7.6129   7.6129   7.6175   7.6175   8.3445   8.3445   8.4433   8.4433
     8.6019   8.6019   9.0098   9.0098   9.0380   9.0380   9.0578   9.0578
     9.1911   9.1911   9.2525   9.2525   9.3787   9.3787   9.5943   9.5943
     9.7080   9.7080  10.0717  10.0717  10.1206  10.1206  10.2446  10.2446
    10.3389  10.3389  10.3568  10.3568  10.7037  10.7037  10.9451  10.9451
    11.2333  11.2333  11.4341  11.4341  11.6130  11.6130  11.8696  11.8696
    12.1491  12.1491  12.3827  12.3827  12.6295  12.6295  12.8862  12.8862
    12.8914  12.8914  12.9232  12.9232  13.0255  13.0255  13.3164  13.3164
    13.4526  13.4526  13.5070  13.5070  13.7045  13.7045  13.7858  13.7858
    14.1834  14.1834  14.2066  14.2066  14.3194  14.3194  14.6401  14.6402
    14.6593  14.6593  14.8333  14.8333  15.0988  15.0988  15.2001  15.2004

          k =-0.5000-0.4595 0.1669 (144472 PWs)   bands (ev):

   -17.2628 -17.2628 -17.2624 -17.2624 -14.3027 -14.3027 -14.2881 -14.2881
   -14.2685 -14.2685 -14.2584 -14.2584 -14.2370 -14.2370 -14.2367 -14.2367
   -14.2228 -14.2228 -14.2214 -14.2214 -14.2118 -14.2118 -14.2116 -14.2116
   -11.6666 -11.6666 -11.5979 -11.5979 -11.5091 -11.5091 -11.5007 -11.5007
   -11.4221 -11.4221 -11.3175 -11.3175 -10.2418 -10.2418 -10.2375 -10.2375
    -6.7777  -6.7777  -6.7734  -6.7734  -6.7573  -6.7573  -6.7491  -6.7491
    -5.4937  -5.4937  -5.1579  -5.1579  -4.6547  -4.6547  -4.6493  -4.6493
    -2.6277  -2.6277  -2.6161  -2.6161  -2.6054  -2.6054  -2.5716  -2.5716
    -1.0976  -1.0976  -1.0513  -1.0513  -0.7994  -0.7994   0.0256   0.0256
     0.0760   0.0760   0.1562   0.1562   0.3640   0.3640   0.4152   0.4152
     0.5602   0.5602   0.5875   0.5875   0.6551   0.6552   0.6862   0.6862
     0.7199   0.7199   0.7704   0.7704   0.8397   0.8397   1.0048   1.0048
     1.1794   1.1794   1.4577   1.4577   4.6925   4.6925   4.8756   4.8756
     5.0896   5.0896   6.6954   6.6954   7.2052   7.2053   7.2217   7.2217
     7.3904   7.3904   7.5692   7.5692   8.2851   8.2851   8.3900   8.3900
     8.7426   8.7426   8.9426   8.9426   8.9807   8.9807   9.1391   9.1391
     9.2404   9.2405   9.4035   9.4035   9.4761   9.4761   9.5271   9.5271
     9.6646   9.6646   9.9649   9.9649  10.0224  10.0224  10.2774  10.2775
    10.3555  10.3555  10.4573  10.4573  10.6067  10.6067  10.9084  10.9084
    11.3490  11.3490  11.4391  11.4391  11.7317  11.7317  11.8960  11.8961
    12.0848  12.0848  12.3841  12.3841  12.4437  12.4437  12.6185  12.6185
    12.7313  12.7313  13.0462  13.0462  13.1846  13.1846  13.3316  13.3316
    13.5087  13.5087  13.6015  13.6015  13.8087  13.8087  13.9274  13.9274
    14.0417  14.0417  14.2032  14.2033  14.5227  14.5228  14.5285  14.5285
    14.7573  14.7573  14.8401  14.8402  14.8915  14.8915  14.9832  14.9835

          k =-0.5000-0.4595-0.3337 (144488 PWs)   bands (ev):

   -17.2626 -17.2626 -17.2626 -17.2626 -14.2942 -14.2942 -14.2942 -14.2942
   -14.2646 -14.2646 -14.2646 -14.2646 -14.2369 -14.2369 -14.2369 -14.2369
   -14.2222 -14.2222 -14.2222 -14.2222 -14.2117 -14.2117 -14.2117 -14.2117
   -11.6385 -11.6385 -11.6385 -11.6385 -11.5065 -11.5065 -11.5065 -11.5065
   -11.3618 -11.3618 -11.3617 -11.3617 -10.2397 -10.2397 -10.2397 -10.2397
    -6.7757  -6.7757  -6.7757  -6.7757  -6.7531  -6.7531  -6.7531  -6.7530
    -5.3378  -5.3378  -5.3378  -5.3378  -4.6520  -4.6520  -4.6520  -4.6520
    -2.6217  -2.6217  -2.6217  -2.6217  -2.5865  -2.5865  -2.5865  -2.5865
    -1.0395  -1.0395  -1.0395  -1.0395  -0.3835  -0.3835  -0.3835  -0.3835
     0.0769   0.0769   0.0769   0.0769   0.3684   0.3684   0.3684   0.3684
     0.5916   0.5916   0.5916   0.5916   0.6662   0.6662   0.6662   0.6662
     0.7523   0.7523   0.7524   0.7524   0.9356   0.9356   0.9357   0.9357
     1.2451   1.2451   1.2452   1.2452   4.8191   4.8191   4.8191   4.8191
     5.9597   5.9597   5.9597   5.9597   7.1598   7.1598   7.1598   7.1598
     7.4437   7.4437   7.4437   7.4437   8.2889   8.2890   8.2890   8.2890
     8.8945   8.8945   8.8946   8.8946   9.0556   9.0556   9.0556   9.0556
     9.3924   9.3924   9.3924   9.3924   9.5400   9.5400   9.5401   9.5401
     9.7556   9.7556   9.7556   9.7556  10.0709  10.0709  10.0709  10.0709
    10.3942  10.3942  10.3942  10.3942  10.7962  10.7962  10.7962  10.7962
    11.5384  11.5384  11.5384  11.5384  11.7446  11.7446  11.7446  11.7446
    12.1988  12.1988  12.1988  12.1988  12.3784  12.3784  12.3784  12.3784
    12.9228  12.9228  12.9228  12.9228  13.3293  13.3293  13.3293  13.3293
    13.6888  13.6888  13.6888  13.6888  13.8001  13.8001  13.8001  13.8001
    14.1200  14.1200  14.1200  14.1200  14.4802  14.4802  14.4802  14.4802
    14.7523  14.7523  14.7524  14.7524  14.8987  14.8987  14.8989  14.8991

     the Fermi energy is     3.2419 ev
     (compare with:     3.2417 eV, computed in scf)

     Writing all to output data dir out/mp-732337.save/
 
     init_run     :      2.11s CPU      2.21s WALL (       1 calls)
     electrons    :   3428.98s CPU   3554.77s WALL (       1 calls)

     Called by init_run:
     wfcinit      :      0.00s CPU      0.00s WALL (       1 calls)
     potinit      :      0.26s CPU      0.30s WALL (       1 calls)
     hinit0       :      1.40s CPU      1.42s WALL (       1 calls)

     Called by electrons:
     c_bands      :   3428.97s CPU   3554.77s WALL (       1 calls)
     v_of_rho     :      0.22s CPU      0.25s WALL (       1 calls)

     Called by c_bands:
     init_us_2    :      1.19s CPU      1.23s WALL (      27 calls)
     init_us_2:cp :      1.19s CPU      1.23s WALL (      27 calls)
     cegterg      :   3314.52s CPU   3434.79s WALL (      92 calls)

     Called by *egterg:
     cdiaghg      :     85.84s CPU     91.95s WALL (    1511 calls)
     h_psi        :   2130.57s CPU   2243.12s WALL (    1603 calls)
     g_psi        :     13.43s CPU     13.46s WALL (    1484 calls)

     Called by h_psi:
     h_psi:calbec :    284.14s CPU    284.82s WALL (    1603 calls)
     vloc_psi     :   1528.17s CPU   1637.57s WALL (    1603 calls)
     add_vuspsi   :    307.47s CPU    307.54s WALL (    1603 calls)

     General routines
     calbec       :    284.13s CPU    284.81s WALL (    1603 calls)
     fft          :      0.09s CPU      0.11s WALL (      10 calls)
     fftw         :   1212.90s CPU   1321.11s WALL (  286612 calls)
 
     Parallel routines
 
     PWSCF        :  57m16.72s CPU  59m32.63s WALL

 
   This run was terminated on:  21:25:38   3Jan2024            

=------------------------------------------------------------------------------=
   JOB DONE.
=------------------------------------------------------------------------------=
