
     Program PWSCF v.7.1 starts on  3Jan2024 at 14:34:23 

     This program is part of the open-source Quantum ESPRESSO suite
     for quantum simulation of materials; please cite
         "P. Giannozzi et al., J. Phys.:Condens. Matter 21 395502 (2009);
         "P. Giannozzi et al., J. Phys.:Condens. Matter 29 465901 (2017);
         "P. Giannozzi et al., J. Chem. Phys. 152 154105 (2020);
          URL http://www.quantum-espresso.org", 
     in publications or presentations arising from this work. More details at
     http://www.quantum-espresso.org/quote

     Parallel version (MPI), running on     8 processors

     MPI processes distributed on     1 nodes
     119243 MiB available memory on the printing compute node when the environment starts
 
     Reading input from pw_mp-1672_emass_k3000_E130.in
Warning: card &IONS ignored
Warning: card / ignored
Warning: card &CELL ignored
Warning: card / ignored

     Current dimensions of program PWSCF are:
     Max number of different atomic species (ntypx) = 10
     Max number of k-points (npk) =  40000
     Max angular momentum in pseudopotentials (lmaxx) =  4

     Atomic positions and unit cell read from directory:
     out/mp-1672.save/
     Atomic positions from file used, from input discarded
 
 
     R & G space division:  proc/nbgrp/npool/nimage =       8
     Subspace diagonalization in iterative solution of the eigenvalue problem:
     a serial algorithm will be used

 
     Parallelization info
     --------------------
     sticks:   dense  smooth     PW     G-vecs:    dense   smooth      PW
     Min         259     259     72                 7821     7821    1147
     Max         260     260     73                 7824     7824    1149
     Sum        2077    2077    583                62583    62583    9185
 
     Using Slab Decomposition
 


     bravais-lattice index     =            2
     lattice parameter (alat)  =      10.7804  a.u.
     unit-cell volume          =     313.2175 (a.u.)^3
     number of atoms/cell      =            2
     number of atomic types    =            2
     number of electrons       =        16.00
     number of Kohn-Sham states=           16
     kinetic-energy cutoff     =     130.0000  Ry
     charge density cutoff     =     520.0000  Ry
     Exchange-correlation= PBE
                           (   1   4   3   4   0   0   0)

     celldm(1)=  10.780412  celldm(2)=   0.000000  celldm(3)=   0.000000
     celldm(4)=   0.000000  celldm(5)=   0.000000  celldm(6)=   0.000000

     crystal axes: (cart. coord. in units of alat)
               a(1) = (  -0.500000   0.000000   0.500000 )  
               a(2) = (   0.000000   0.500000   0.500000 )  
               a(3) = (  -0.500000   0.500000   0.000000 )  

     reciprocal axes: (cart. coord. in units 2 pi/alat)
               b(1) = ( -1.000000 -1.000000  1.000000 )  
               b(2) = (  1.000000  1.000000  1.000000 )  
               b(3) = ( -1.000000  1.000000 -1.000000 )  


     PseudoPot. # 1 for Ca read from file:
     /usr/scratch4/magr4985/MG/devEb/pseudo/SG15/Ca.upf
     MD5 check sum: d3df06507a1658a66563533e58c348d1
     Pseudo is Norm-conserving, Zval = 10.0
     Generated using ONCVPSP code by D. R. Hamann
     Using radial grid of  602 points,  6 beta functions with: 
                l(1) =   0
                l(2) =   0
                l(3) =   1
                l(4) =   1
                l(5) =   2
                l(6) =   2

     PseudoPot. # 2 for S  read from file:
     /usr/scratch4/magr4985/MG/devEb/pseudo/SG15/S.upf
     MD5 check sum: f71d1a2a52b6d571906ac9250480b432
     Pseudo is Norm-conserving, Zval =  6.0
     Generated using ONCVPSP code by D. R. Hamann
     Using radial grid of  602 points,  4 beta functions with: 
                l(1) =   0
                l(2) =   0
                l(3) =   1
                l(4) =   1

     atomic species   valence    mass     pseudopotential
        Ca            10.00    40.07800     Ca( 1.00)
        S              6.00    32.06500     S ( 1.00)

     48 Sym. Ops., with inversion, found



   Cartesian axes

     site n.     atom                  positions (alat units)
         1           Ca  tau(   1) = (   0.0000000   0.0000000   0.0000000  )
         2           S   tau(   2) = (  -0.5000000   0.5000000   0.5000000  )

     number of k points=     7  Gaussian smearing, width (Ry)=  0.0005
                       cart. coord. in units 2pi/alat
        k(    1) = (   0.0000000  -1.0000000   0.0000000), wk =   0.2857143
        k(    2) = (   0.0100000  -1.0000000   0.0000000), wk =   0.2857143
        k(    3) = (  -0.0100000  -1.0000000   0.0000000), wk =   0.2857143
        k(    4) = (   0.0000000  -0.9900000   0.0000000), wk =   0.2857143
        k(    5) = (   0.0000000  -1.0100000   0.0000000), wk =   0.2857143
        k(    6) = (   0.0000000  -1.0000000   0.0100000), wk =   0.2857143
        k(    7) = (   0.0000000  -1.0000000  -0.0100000), wk =   0.2857143

     Dense  grid:    62583 G-vectors     FFT dimensions: (  60,  60,  60)

     Estimated max dynamical RAM per process >       9.67 MB

     Estimated total dynamical RAM >      77.33 MB

     The potential is recalculated from file :
     out/mp-1672.save/charge-density

     Starting wfcs are random

     Band Structure Calculation
     ParO style diagonalization

     ethr =  5.00E-06,  avg # of iterations = 21.7

     total cpu time spent up to now is        2.1 secs

     End of band structure calculation

          k = 0.0000-1.0000 0.0000 (  7880 PWs)   bands (ev):

   -33.2751 -14.3817 -14.3104 -14.3104  -4.7112   3.7096   5.1745   5.1745
     8.3564  11.5617  11.9892  12.7064  12.7157  12.7157  16.2976  17.7437

          k = 0.0100-1.0000 0.0000 (  7880 PWs)   bands (ev):

   -33.2751 -14.3817 -14.3105 -14.3104  -4.7110   3.7098   5.1736   5.1737
     8.3579  11.5626  11.9905  12.7062  12.7151  12.7157  16.2967  17.7422

          k =-0.0100-1.0000 0.0000 (  7880 PWs)   bands (ev):

   -33.2751 -14.3817 -14.3105 -14.3104  -4.7110   3.7098   5.1736   5.1737
     8.3579  11.5626  11.9905  12.7062  12.7151  12.7157  16.2967  17.7422

          k = 0.0000-0.9900 0.0000 (  7880 PWs)   bands (ev):

   -33.2751 -14.3817 -14.3104 -14.3104  -4.7112   3.7094   5.1746   5.1746
     8.3567  11.5615  11.9895  12.7070  12.7156  12.7156  16.2973  17.7437

          k = 0.0000-1.0100 0.0000 (  7880 PWs)   bands (ev):

   -33.2751 -14.3817 -14.3104 -14.3104  -4.7112   3.7094   5.1746   5.1746
     8.3567  11.5615  11.9895  12.7070  12.7156  12.7156  16.2973  17.7437

          k = 0.0000-1.0000 0.0100 (  7880 PWs)   bands (ev):

   -33.2751 -14.3817 -14.3105 -14.3104  -4.7110   3.7098   5.1736   5.1737
     8.3579  11.5626  11.9905  12.7062  12.7151  12.7157  16.2967  17.7422

          k = 0.0000-1.0000-0.0100 (  7880 PWs)   bands (ev):

   -33.2751 -14.3817 -14.3105 -14.3104  -4.7110   3.7098   5.1736   5.1737
     8.3579  11.5626  11.9905  12.7062  12.7151  12.7157  16.2967  17.7422

     the Fermi energy is     8.2168 ev
     (compare with:     9.2432 eV, computed in scf)

     Writing all to output data dir out/mp-1672.save/
 
     init_run     :      0.13s CPU      0.15s WALL (       1 calls)
     electrons    :      1.79s CPU      1.85s WALL (       1 calls)

     Called by init_run:
     wfcinit      :      0.00s CPU      0.00s WALL (       1 calls)
     potinit      :      0.05s CPU      0.05s WALL (       1 calls)
     hinit0       :      0.01s CPU      0.02s WALL (       1 calls)

     Called by electrons:
     c_bands      :      1.79s CPU      1.85s WALL (       1 calls)
     v_of_rho     :      0.02s CPU      0.03s WALL (       1 calls)

     Called by c_bands:
     init_us_2    :      0.00s CPU      0.00s WALL (       7 calls)
     init_us_2:cp :      0.00s CPU      0.00s WALL (       7 calls)
     paro_k       :      1.69s CPU      1.75s WALL (       7 calls)

     Called by paro_*:
     h_psi        :      1.48s CPU      1.54s WALL (     413 calls)
     g_psi        :      0.02s CPU      0.02s WALL (    2825 calls)

     Called by h_psi:
     h_psi:calbec :      0.05s CPU      0.05s WALL (     413 calls)
     vloc_psi     :      1.40s CPU      1.45s WALL (     413 calls)
     add_vuspsi   :      0.03s CPU      0.03s WALL (     413 calls)

     General routines
     calbec       :      0.05s CPU      0.05s WALL (     413 calls)
     fft          :      0.01s CPU      0.02s WALL (      10 calls)
     fftw         :      1.23s CPU      1.27s WALL (    4862 calls)
 
     Parallel routines
 
     PWSCF        :      2.05s CPU      2.15s WALL

 
   This run was terminated on:  14:34:26   3Jan2024            

=------------------------------------------------------------------------------=
   JOB DONE.
=------------------------------------------------------------------------------=
