
     Program PWSCF v.7.1 starts on  3Jan2024 at 14:34:32 

     This program is part of the open-source Quantum ESPRESSO suite
     for quantum simulation of materials; please cite
         "P. Giannozzi et al., J. Phys.:Condens. Matter 21 395502 (2009);
         "P. Giannozzi et al., J. Phys.:Condens. Matter 29 465901 (2017);
         "P. Giannozzi et al., J. Chem. Phys. 152 154105 (2020);
          URL http://www.quantum-espresso.org", 
     in publications or presentations arising from this work. More details at
     http://www.quantum-espresso.org/quote

     Parallel version (MPI), running on     8 processors

     MPI processes distributed on     1 nodes
     122650 MiB available memory on the printing compute node when the environment starts
 
     Reading input from pw_mp-20351_nscf_k3000_E130.in
Warning: card &IONS ignored
Warning: card / ignored
Warning: card &CELL ignored
Warning: card / ignored

     Current dimensions of program PWSCF are:
     Max number of different atomic species (ntypx) = 10
     Max number of k-points (npk) =  40000
     Max angular momentum in pseudopotentials (lmaxx) =  4

     Atomic positions and unit cell read from directory:
     out/mp-20351.save/
     Atomic positions from file used, from input discarded
 
 
     R & G space division:  proc/nbgrp/npool/nimage =       8
     Subspace diagonalization in iterative solution of the eigenvalue problem:
     a serial algorithm will be used

 
     Parallelization info
     --------------------
     sticks:   dense  smooth     PW     G-vecs:    dense   smooth      PW
     Min         278     278     79                 8683     8683    1309
     Max         280     280     80                 8685     8685    1312
     Sum        2233    2233    637                69473    69473   10489
 
     Using Slab Decomposition
 


     bravais-lattice index     =            2
     lattice parameter (alat)  =      11.1569  a.u.
     unit-cell volume          =     347.1883 (a.u.)^3
     number of atoms/cell      =            2
     number of atomic types    =            2
     number of electrons       =        18.00
     number of Kohn-Sham states=           18
     kinetic-energy cutoff     =     130.0000  Ry
     charge density cutoff     =     520.0000  Ry
     Exchange-correlation= PBE
                           (   1   4   3   4   0   0   0)

     celldm(1)=  11.156853  celldm(2)=   0.000000  celldm(3)=   0.000000
     celldm(4)=   0.000000  celldm(5)=   0.000000  celldm(6)=   0.000000

     crystal axes: (cart. coord. in units of alat)
               a(1) = (  -0.500000   0.000000   0.500000 )  
               a(2) = (   0.000000   0.500000   0.500000 )  
               a(3) = (  -0.500000   0.500000   0.000000 )  

     reciprocal axes: (cart. coord. in units 2 pi/alat)
               b(1) = ( -1.000000 -1.000000  1.000000 )  
               b(2) = (  1.000000  1.000000  1.000000 )  
               b(3) = ( -1.000000  1.000000 -1.000000 )  


     PseudoPot. # 1 for In read from file:
     /usr/scratch4/magr4985/MG/devEb/pseudo/SG15/In.upf
     MD5 check sum: fbae871d0a9b2944135ea3741aed6f43
     Pseudo is Norm-conserving, Zval = 13.0
     Generated using ONCVPSP code by D. R. Hamann
     Using radial grid of  602 points,  6 beta functions with: 
                l(1) =   0
                l(2) =   0
                l(3) =   1
                l(4) =   1
                l(5) =   2
                l(6) =   2

     PseudoPot. # 2 for P  read from file:
     /usr/scratch4/magr4985/MG/devEb/pseudo/SG15/P.upf
     MD5 check sum: db4c1ff9730a9c3aae4012f169f0bf25
     Pseudo is Norm-conserving, Zval =  5.0
     Generated using ONCVPSP code by D. R. Hamann
     Using radial grid of  602 points,  4 beta functions with: 
                l(1) =   0
                l(2) =   0
                l(3) =   1
                l(4) =   1

     atomic species   valence    mass     pseudopotential
        In            13.00   114.81800     In( 1.00)
        P              5.00    30.97380     P ( 1.00)

     24 Sym. Ops. (no inversion) found



   Cartesian axes

     site n.     atom                  positions (alat units)
         1           In  tau(   1) = (   0.0000000   0.0000000   0.0000000  )
         2           P   tau(   2) = (  -0.2500000   0.2500000   0.2500001  )

     number of k points=   413  Gaussian smearing, width (Ry)=  0.0005

     Number of k-points >= 100: set verbosity='high' to print them.

     Dense  grid:    69473 G-vectors     FFT dimensions: (  60,  60,  60)

     Estimated max dynamical RAM per process >       9.03 MB

     Estimated total dynamical RAM >      72.23 MB

     The potential is recalculated from file :
     out/mp-20351.save/charge-density

     Starting wfcs are random

     Band Structure Calculation
     Davidson diagonalization with overlap

     ethr =  5.00E-06,  avg # of iterations = 22.5

     total cpu time spent up to now is       91.3 secs

     End of band structure calculation

     Number of k-points >= 100: set verbosity='high' to print the bands.

     the Fermi energy is     7.7173 ev
     (compare with:     7.6100 eV, computed in scf)

     Writing all to output data dir out/mp-20351.save/
 
     init_run     :      0.18s CPU      0.19s WALL (       1 calls)
     electrons    :     88.04s CPU     90.93s WALL (       1 calls)

     Called by init_run:
     wfcinit      :      0.00s CPU      0.00s WALL (       1 calls)
     potinit      :      0.02s CPU      0.02s WALL (       1 calls)
     hinit0       :      0.03s CPU      0.04s WALL (       1 calls)

     Called by electrons:
     c_bands      :     88.04s CPU     90.93s WALL (       1 calls)
     v_of_rho     :      0.01s CPU      0.01s WALL (       1 calls)

     Called by c_bands:
     init_us_2    :      0.11s CPU      0.14s WALL (     413 calls)
     init_us_2:cp :      0.11s CPU      0.14s WALL (     413 calls)
     cegterg      :     81.73s CPU     83.68s WALL (     678 calls)

     Called by *egterg:
     cdiaghg      :      4.44s CPU      4.59s WALL (    9690 calls)
     h_psi        :     72.81s CPU     74.62s WALL (   10368 calls)
     g_psi        :      0.71s CPU      0.72s WALL (    9277 calls)

     Called by h_psi:
     h_psi:calbec :      1.69s CPU      1.73s WALL (   10368 calls)
     vloc_psi     :     69.59s CPU     71.33s WALL (   10368 calls)
     add_vuspsi   :      1.23s CPU      1.26s WALL (   10368 calls)

     General routines
     calbec       :      1.66s CPU      1.71s WALL (   10368 calls)
     fft          :      0.01s CPU      0.01s WALL (      10 calls)
     fftw         :     61.50s CPU     63.03s WALL (  245716 calls)
     davcio       :      0.10s CPU      0.36s WALL (     826 calls)
 
     Parallel routines
 
     PWSCF        :   1m29.36s CPU   1m33.41s WALL

 
   This run was terminated on:  14:36: 5   3Jan2024            

=------------------------------------------------------------------------------=
   JOB DONE.
=------------------------------------------------------------------------------=
