
     Program PWSCF v.7.1 starts on  3Jan2024 at 14:30:44 

     This program is part of the open-source Quantum ESPRESSO suite
     for quantum simulation of materials; please cite
         "P. Giannozzi et al., J. Phys.:Condens. Matter 21 395502 (2009);
         "P. Giannozzi et al., J. Phys.:Condens. Matter 29 465901 (2017);
         "P. Giannozzi et al., J. Chem. Phys. 152 154105 (2020);
          URL http://www.quantum-espresso.org", 
     in publications or presentations arising from this work. More details at
     http://www.quantum-espresso.org/quote

     Parallel version (MPI), running on     8 processors

     MPI processes distributed on     1 nodes
     120313 MiB available memory on the printing compute node when the environment starts
 
     Reading input from pw_mp-463_emass_k3000_E130.in
Warning: card &IONS ignored
Warning: card / ignored
Warning: card &CELL ignored
Warning: card / ignored

     Current dimensions of program PWSCF are:
     Max number of different atomic species (ntypx) = 10
     Max number of k-points (npk) =  40000
     Max angular momentum in pseudopotentials (lmaxx) =  4

     Atomic positions and unit cell read from directory:
     out/mp-463.save/
     Atomic positions from file used, from input discarded
 
 
     R & G space division:  proc/nbgrp/npool/nimage =       8
     Subspace diagonalization in iterative solution of the eigenvalue problem:
     a serial algorithm will be used

 
     Parallelization info
     --------------------
     sticks:   dense  smooth     PW     G-vecs:    dense   smooth      PW
     Min         224     224     56                 6327     6327     787
     Max         226     226     58                 6329     6329     788
     Sum        1801    1801    451                50629    50629    6303
 
     Using Slab Decomposition
 


     bravais-lattice index     =            2
     lattice parameter (alat)  =      10.0322  a.u.
     unit-cell volume          =     252.4249 (a.u.)^3
     number of atoms/cell      =            2
     number of atomic types    =            2
     number of electrons       =        16.00
     number of Kohn-Sham states=           16
     kinetic-energy cutoff     =     130.0000  Ry
     charge density cutoff     =     520.0000  Ry
     Exchange-correlation= PBE
                           (   1   4   3   4   0   0   0)

     celldm(1)=  10.032228  celldm(2)=   0.000000  celldm(3)=   0.000000
     celldm(4)=   0.000000  celldm(5)=   0.000000  celldm(6)=   0.000000

     crystal axes: (cart. coord. in units of alat)
               a(1) = (  -0.500000   0.000000   0.500000 )  
               a(2) = (   0.000000   0.500000   0.500000 )  
               a(3) = (  -0.500000   0.500000   0.000000 )  

     reciprocal axes: (cart. coord. in units 2 pi/alat)
               b(1) = ( -1.000000 -1.000000  1.000000 )  
               b(2) = (  1.000000  1.000000  1.000000 )  
               b(3) = ( -1.000000  1.000000 -1.000000 )  


     PseudoPot. # 1 for F  read from file:
     /usr/scratch4/magr4985/MG/devEb/pseudo/SG15/F.upf
     MD5 check sum: 24dce47753c7134a0159dc9c6586d93a
     Pseudo is Norm-conserving, Zval =  7.0
     Generated using ONCVPSP code by D. R. Hamann
     Using radial grid of  602 points,  4 beta functions with: 
                l(1) =   0
                l(2) =   0
                l(3) =   1
                l(4) =   1

     PseudoPot. # 2 for K  read from file:
     /usr/scratch4/magr4985/MG/devEb/pseudo/SG15/K.upf
     MD5 check sum: 546a68abc2c0296de6abd828b0bae2fd
     Pseudo is Norm-conserving, Zval =  9.0
     Generated using ONCVPSP code by D. R. Hamann
     Using radial grid of  602 points,  6 beta functions with: 
                l(1) =   0
                l(2) =   0
                l(3) =   1
                l(4) =   1
                l(5) =   2
                l(6) =   2

     atomic species   valence    mass     pseudopotential
        F              7.00    18.99840     F ( 1.00)
        K              9.00    39.09830     K ( 1.00)

     48 Sym. Ops., with inversion, found



   Cartesian axes

     site n.     atom                  positions (alat units)
         1           K   tau(   1) = (   0.0000000   0.0000000   0.0000000  )
         2           F   tau(   2) = (  -0.5000000   0.5000000   0.5000000  )

     number of k points=     7  Gaussian smearing, width (Ry)=  0.0005
                       cart. coord. in units 2pi/alat
        k(    1) = (   0.0000000   0.0000000   0.0000000), wk =   0.2857143
        k(    2) = (   0.0100000   0.0000000   0.0000000), wk =   0.2857143
        k(    3) = (  -0.0100000   0.0000000   0.0000000), wk =   0.2857143
        k(    4) = (   0.0000000   0.0100000   0.0000000), wk =   0.2857143
        k(    5) = (   0.0000000  -0.0100000   0.0000000), wk =   0.2857143
        k(    6) = (   0.0000000   0.0000000   0.0100000), wk =   0.2857143
        k(    7) = (   0.0000000   0.0000000  -0.0100000), wk =   0.2857143

     Dense  grid:    50629 G-vectors     FFT dimensions: (  54,  54,  54)

     Estimated max dynamical RAM per process >       8.33 MB

     Estimated total dynamical RAM >      66.67 MB

     The potential is recalculated from file :
     out/mp-463.save/charge-density

     Starting wfcs are random

     Band Structure Calculation
     ParO style diagonalization

     ethr =  5.00E-06,  avg # of iterations = 22.4

     total cpu time spent up to now is        1.7 secs

     End of band structure calculation

          k = 0.0000 0.0000 0.0000 (  6303 PWs)   bands (ev):

   -24.4127 -16.9545  -7.6507  -7.6507  -7.6507   1.6400   1.6400   1.6400
     7.9536  12.3977  12.3977  12.3977  14.0519  14.0519  18.7150  26.2005

          k = 0.0100 0.0000 0.0000 (  6303 PWs)   bands (ev):

   -24.4127 -16.9545  -7.6508  -7.6508  -7.6507   1.6395   1.6400   1.6400
     7.9545  12.3966  12.3983  12.3983  14.0521  14.0522  18.7167  26.1904

          k =-0.0100 0.0000 0.0000 (  6303 PWs)   bands (ev):

   -24.4127 -16.9545  -7.6508  -7.6508  -7.6507   1.6395   1.6400   1.6400
     7.9545  12.3966  12.3983  12.3983  14.0521  14.0522  18.7167  26.1906

          k = 0.0000 0.0100 0.0000 (  6303 PWs)   bands (ev):

   -24.4127 -16.9545  -7.6508  -7.6508  -7.6507   1.6395   1.6400   1.6400
     7.9545  12.3966  12.3983  12.3983  14.0521  14.0522  18.7167  26.1904

          k = 0.0000-0.0100 0.0000 (  6303 PWs)   bands (ev):

   -24.4127 -16.9545  -7.6508  -7.6508  -7.6507   1.6395   1.6400   1.6400
     7.9545  12.3966  12.3983  12.3983  14.0521  14.0522  18.7167  26.1904

          k = 0.0000 0.0000 0.0100 (  6303 PWs)   bands (ev):

   -24.4127 -16.9545  -7.6508  -7.6508  -7.6507   1.6395   1.6400   1.6400
     7.9545  12.3966  12.3983  12.3983  14.0521  14.0522  18.7167  26.1904

          k = 0.0000 0.0000-0.0100 (  6303 PWs)   bands (ev):

   -24.4127 -16.9545  -7.6508  -7.6508  -7.6507   1.6395   1.6400   1.6400
     7.9545  12.3966  12.3983  12.3983  14.0521  14.0522  18.7167  26.1904

     the Fermi energy is     7.2361 ev
     (compare with:     7.2361 eV, computed in scf)

     Writing all to output data dir out/mp-463.save/
 
     init_run     :      0.09s CPU      0.11s WALL (       1 calls)
     electrons    :      1.37s CPU      1.40s WALL (       1 calls)

     Called by init_run:
     wfcinit      :      0.00s CPU      0.00s WALL (       1 calls)
     potinit      :      0.02s CPU      0.03s WALL (       1 calls)
     hinit0       :      0.02s CPU      0.03s WALL (       1 calls)

     Called by electrons:
     c_bands      :      1.36s CPU      1.40s WALL (       1 calls)
     v_of_rho     :      0.01s CPU      0.02s WALL (       1 calls)

     Called by c_bands:
     init_us_2    :      0.00s CPU      0.00s WALL (       7 calls)
     init_us_2:cp :      0.00s CPU      0.00s WALL (       7 calls)
     paro_k       :      1.29s CPU      1.33s WALL (       7 calls)

     Called by paro_*:
     h_psi        :      1.09s CPU      1.12s WALL (     480 calls)
     g_psi        :      0.02s CPU      0.02s WALL (    2953 calls)

     Called by h_psi:
     h_psi:calbec :      0.04s CPU      0.04s WALL (     480 calls)
     vloc_psi     :      1.02s CPU      1.04s WALL (     480 calls)
     add_vuspsi   :      0.02s CPU      0.03s WALL (     480 calls)

     General routines
     calbec       :      0.04s CPU      0.04s WALL (     480 calls)
     fft          :      0.01s CPU      0.02s WALL (      10 calls)
     fftw         :      0.90s CPU      0.92s WALL (    4946 calls)
 
     Parallel routines
 
     PWSCF        :      1.58s CPU      1.67s WALL

 
   This run was terminated on:  14:30:45   3Jan2024            

=------------------------------------------------------------------------------=
   JOB DONE.
=------------------------------------------------------------------------------=
