
     Program PWSCF v.7.1 starts on 11Apr2024 at  9:51:58 

     This program is part of the open-source Quantum ESPRESSO suite
     for quantum simulation of materials; please cite
         "P. Giannozzi et al., J. Phys.:Condens. Matter 21 395502 (2009);
         "P. Giannozzi et al., J. Phys.:Condens. Matter 29 465901 (2017);
         "P. Giannozzi et al., J. Chem. Phys. 152 154105 (2020);
          URL http://www.quantum-espresso.org", 
     in publications or presentations arising from this work. More details at
     http://www.quantum-espresso.org/quote

     Parallel version (MPI), running on    16 processors

     MPI processes distributed on     1 nodes
     247908 MiB available memory on the printing compute node when the environment starts
 
     Reading input from pw_mp-2534_nscf_k3000_E130.in
Warning: card &IONS ignored
Warning: card / ignored
Warning: card &CELL ignored
Warning: card / ignored

     Current dimensions of program PWSCF are:
     Max number of different atomic species (ntypx) = 10
     Max number of k-points (npk) =  40000
     Max angular momentum in pseudopotentials (lmaxx) =  4

     Atomic positions and unit cell read from directory:
     out/mp-2534.save/
     Atomic positions from file used, from input discarded
 
 
     R & G space division:  proc/nbgrp/npool/nimage =      16
     Subspace diagonalization in iterative solution of the eigenvalue problem:
     a serial algorithm will be used

 
     Parallelization info
     --------------------
     sticks:   dense  smooth     PW     G-vecs:    dense   smooth      PW
     Min         131     131     37                 4009     4009     606
     Max         132     132     38                 4011     4011     609
     Sum        2107    2107    595                64167    64167    9721
 
     Using Slab Decomposition
 


     bravais-lattice index     =            2
     lattice parameter (alat)  =      10.8663  a.u.
     unit-cell volume          =     320.7608 (a.u.)^3
     number of atoms/cell      =            2
     number of atomic types    =            2
     number of electrons       =        18.00
     number of Kohn-Sham states=           18
     kinetic-energy cutoff     =     130.0000  Ry
     charge density cutoff     =     520.0000  Ry
     Exchange-correlation= PBE
                           (   1   4   3   4   0   0   0)

     celldm(1)=  10.866269  celldm(2)=   0.000000  celldm(3)=   0.000000
     celldm(4)=   0.000000  celldm(5)=   0.000000  celldm(6)=   0.000000

     crystal axes: (cart. coord. in units of alat)
               a(1) = (  -0.500000   0.000000   0.500000 )  
               a(2) = (   0.000000   0.500000   0.500000 )  
               a(3) = (  -0.500000   0.500000   0.000000 )  

     reciprocal axes: (cart. coord. in units 2 pi/alat)
               b(1) = ( -1.000000 -1.000000  1.000000 )  
               b(2) = (  1.000000  1.000000  1.000000 )  
               b(3) = ( -1.000000  1.000000 -1.000000 )  


     PseudoPot. # 1 for As read from file:
     /usr/scratch4/magr4826/Promotion/Python/Code/devEb/pseudo/SG15/As.upf
     MD5 check sum: a2ff92a4799c87c945fff9e6739df4dd
     Pseudo is Norm-conserving, Zval =  5.0
     Generated using ONCVPSP code by D. R. Hamann
     Using radial grid of  602 points,  6 beta functions with: 
                l(1) =   0
                l(2) =   0
                l(3) =   1
                l(4) =   1
                l(5) =   2
                l(6) =   2

     PseudoPot. # 2 for Ga read from file:
     /usr/scratch4/magr4826/Promotion/Python/Code/devEb/pseudo/SG15/Ga.upf
     MD5 check sum: 9961a622ff199abf6dfec9a0a10b8555
     Pseudo is Norm-conserving, Zval = 13.0
     Generated using ONCVPSP code by D. R. Hamann
     Using radial grid of  602 points,  6 beta functions with: 
                l(1) =   0
                l(2) =   0
                l(3) =   1
                l(4) =   1
                l(5) =   2
                l(6) =   2

     atomic species   valence    mass     pseudopotential
        As             5.00    74.92160     As( 1.00)
        Ga            13.00    69.72300     Ga( 1.00)

     24 Sym. Ops. (no inversion) found



   Cartesian axes

     site n.     atom                  positions (alat units)
         1           Ga  tau(   1) = (   0.0000000   0.0000000   0.0000000  )
         2           As  tau(   2) = (  -0.2500000   0.2500000   0.2500001  )

     number of k points=    72  Gaussian smearing, width (Ry)=  0.0005
                       cart. coord. in units 2pi/alat
        k(    1) = (   0.0000000   0.0000000   0.0000000), wk =   0.0011574
        k(    2) = (  -0.0833333   0.0833333  -0.0833333), wk =   0.0092593
        k(    3) = (  -0.1666667   0.1666667  -0.1666667), wk =   0.0092593
        k(    4) = (  -0.2500000   0.2500000  -0.2500000), wk =   0.0092593
        k(    5) = (  -0.3333333   0.3333333  -0.3333333), wk =   0.0092593
        k(    6) = (  -0.4166667   0.4166667  -0.4166667), wk =   0.0092593
        k(    7) = (   0.5000000  -0.5000000   0.5000000), wk =   0.0046296
        k(    8) = (   0.0000000   0.1666667   0.0000000), wk =   0.0069444
        k(    9) = (  -0.0833333   0.2500000  -0.0833333), wk =   0.0277778
        k(   10) = (  -0.1666667   0.3333333  -0.1666667), wk =   0.0277778
        k(   11) = (  -0.2500000   0.4166667  -0.2500000), wk =   0.0277778
        k(   12) = (  -0.3333333   0.5000000  -0.3333333), wk =   0.0277778
        k(   13) = (   0.5833333  -0.4166667   0.5833333), wk =   0.0277778
        k(   14) = (   0.5000000  -0.3333333   0.5000000), wk =   0.0277778
        k(   15) = (   0.4166667  -0.2500000   0.4166667), wk =   0.0277778
        k(   16) = (   0.3333333  -0.1666667   0.3333333), wk =   0.0277778
        k(   17) = (   0.2500000  -0.0833333   0.2500000), wk =   0.0277778
        k(   18) = (   0.1666667  -0.0000000   0.1666667), wk =   0.0138889
        k(   19) = (   0.0000000   0.3333333   0.0000000), wk =   0.0069444
        k(   20) = (  -0.0833333   0.4166667  -0.0833333), wk =   0.0277778
        k(   21) = (  -0.1666667   0.5000000  -0.1666667), wk =   0.0277778
        k(   22) = (  -0.2500000   0.5833333  -0.2500000), wk =   0.0277778
        k(   23) = (   0.6666667  -0.3333333   0.6666667), wk =   0.0277778
        k(   24) = (   0.5833333  -0.2500000   0.5833333), wk =   0.0277778
        k(   25) = (   0.5000000  -0.1666667   0.5000000), wk =   0.0277778
        k(   26) = (   0.4166667  -0.0833333   0.4166667), wk =   0.0277778
        k(   27) = (   0.3333333   0.0000000   0.3333333), wk =   0.0138889
        k(   28) = (   0.0000000   0.5000000   0.0000000), wk =   0.0069444
        k(   29) = (  -0.0833333   0.5833333  -0.0833333), wk =   0.0277778
        k(   30) = (  -0.1666667   0.6666667  -0.1666667), wk =   0.0277778
        k(   31) = (   0.7500000  -0.2500000   0.7500000), wk =   0.0277778
        k(   32) = (   0.6666667  -0.1666667   0.6666667), wk =   0.0277778
        k(   33) = (   0.5833333  -0.0833333   0.5833333), wk =   0.0277778
        k(   34) = (   0.5000000   0.0000000   0.5000000), wk =   0.0138889
        k(   35) = (   0.0000000   0.6666667   0.0000000), wk =   0.0069444
        k(   36) = (  -0.0833333   0.7500000  -0.0833333), wk =   0.0277778
        k(   37) = (   0.8333333  -0.1666667   0.8333333), wk =   0.0277778
        k(   38) = (   0.7500000  -0.0833333   0.7500000), wk =   0.0277778
        k(   39) = (   0.6666667  -0.0000000   0.6666667), wk =   0.0138889
        k(   40) = (   0.0000000   0.8333333   0.0000000), wk =   0.0069444
        k(   41) = (   0.9166667  -0.0833333   0.9166667), wk =   0.0277778
        k(   42) = (   0.8333333   0.0000000   0.8333333), wk =   0.0138889
        k(   43) = (   0.0000000  -1.0000000   0.0000000), wk =   0.0034722
        k(   44) = (  -0.1666667   0.3333333   0.0000000), wk =   0.0277778
        k(   45) = (  -0.2500000   0.4166667  -0.0833333), wk =   0.0555556
        k(   46) = (  -0.3333333   0.5000000  -0.1666667), wk =   0.0555556
        k(   47) = (   0.5833333  -0.4166667   0.7500000), wk =   0.0555556
        k(   48) = (   0.5000000  -0.3333333   0.6666667), wk =   0.0277778
        k(   49) = (  -0.1666667   0.5000000   0.0000000), wk =   0.0277778
        k(   50) = (  -0.2500000   0.5833333  -0.0833333), wk =   0.0555556
        k(   51) = (   0.6666667  -0.3333333   0.8333333), wk =   0.0555556
        k(   52) = (   0.5833333  -0.2500000   0.7500000), wk =   0.0555556
        k(   53) = (   0.5000000  -0.1666667   0.6666667), wk =   0.0555556
        k(   54) = (   0.4166667  -0.0833333   0.5833333), wk =   0.0555556
        k(   55) = (   0.3333333   0.0000000   0.5000000), wk =   0.0277778
        k(   56) = (  -0.1666667   0.6666667   0.0000000), wk =   0.0277778
        k(   57) = (   0.7500000  -0.2500000   0.9166667), wk =   0.0555556
        k(   58) = (   0.6666667  -0.1666667   0.8333333), wk =   0.0555556
        k(   59) = (   0.5833333  -0.0833333   0.7500000), wk =   0.0555556
        k(   60) = (   0.5000000   0.0000000   0.6666667), wk =   0.0277778
        k(   61) = (   0.8333333  -0.1666667   1.0000000), wk =   0.0277778
        k(   62) = (   0.7500000  -0.0833333   0.9166667), wk =   0.0555556
        k(   63) = (   0.6666667  -0.0000000   0.8333333), wk =   0.0277778
        k(   64) = (  -0.1666667  -1.0000000  -0.0000000), wk =   0.0138889
        k(   65) = (   0.6666667  -0.3333333   1.0000000), wk =   0.0277778
        k(   66) = (   0.5833333  -0.2500000   0.9166667), wk =   0.0555556
        k(   67) = (   0.5000000  -0.1666667   0.8333333), wk =   0.0277778
        k(   68) = (   0.6666667  -0.1666667   1.0000000), wk =   0.0277778
        k(   69) = (   0.5833333  -0.0833333   0.9166667), wk =   0.0555556
        k(   70) = (   0.5000000   0.0000000   0.8333333), wk =   0.0277778
        k(   71) = (  -0.3333333  -1.0000000   0.0000000), wk =   0.0138889
        k(   72) = (  -0.5000000  -1.0000000   0.0000000), wk =   0.0069444

     Dense  grid:    64167 G-vectors     FFT dimensions: (  60,  60,  60)

     Estimated max dynamical RAM per process >      16.23 MB

     Estimated total dynamical RAM >     259.64 MB

     The potential is recalculated from file :
     out/mp-2534.save/charge-density

     Starting wfcs are random

     Band Structure Calculation
     Davidson diagonalization with overlap

     ethr =  5.00E-06,  avg # of iterations = 20.5

     total cpu time spent up to now is       10.2 secs

     End of band structure calculation

          k = 0.0000 0.0000 0.0000 (  7991 PWs)   bands (ev):

    -8.1375  -8.1375  -8.1375  -8.0705  -8.0705  -5.7870   6.5780   6.5781
     6.5781   6.7138  10.2989  10.2989  10.2989  14.0207  16.6094  16.6095
    18.0326  18.0326

          k =-0.0833 0.0833-0.0833 (  7943 PWs)   bands (ev):

    -8.1423  -8.1361  -8.1361  -8.0706  -8.0706  -5.7113   5.2904   6.4739
     6.4739   7.6711  10.4233  10.4564  10.4564  14.4708  16.1031  16.1031
    17.6459  18.8403

          k =-0.1667 0.1667-0.1667 (  8003 PWs)   bands (ev):

    -8.1550  -8.1326  -8.1325  -8.0706  -8.0706  -5.4908   3.8758   6.2270
     6.2270   8.0000  10.8134  10.8134  11.1073  15.3536  15.5780  15.5780
    17.2900  20.3166

          k =-0.2500 0.2500-0.2500 (  8018 PWs)   bands (ev):

    -8.1714  -8.1281  -8.1281  -8.0702  -8.0702  -5.1477   2.5347   5.9493
     5.9493   7.8602  11.1246  11.1246  12.2895  15.4548  15.5525  15.5525
    18.2412  22.0556

          k =-0.3333 0.3333-0.3333 (  8021 PWs)   bands (ev):

    -8.1868  -8.1243  -8.1243  -8.0691  -8.0691  -4.7312   1.3751   5.7161
     5.7161   7.6439  11.2367  11.2367  13.5686  15.2366  16.1501  16.1501
    19.6518  22.6786

          k =-0.4167 0.4167-0.4167 (  8005 PWs)   bands (ev):

    -8.1975  -8.1220  -8.1220  -8.0678  -8.0678  -4.3469   0.5343   5.5654
     5.5654   7.4897  11.2189  11.2189  14.2363  15.7793  17.2430  17.2430
    19.4502  20.7805

          k = 0.5000-0.5000 0.5000 (  8050 PWs)   bands (ev):

    -8.2014  -8.1212  -8.1212  -8.0672  -8.0672  -4.1784   0.2120   5.5136
     5.5136   7.4357  11.1972  11.1972  14.2789  16.5960  18.2492  18.2492
    18.6137  19.5062

          k = 0.0000 0.1667 0.0000 (  7959 PWs)   bands (ev):

    -8.1454  -8.1349  -8.1349  -8.0715  -8.0698  -5.6860   5.2137   6.2740
     6.2740   8.0488   9.9612  10.7329  10.7329  14.5994  15.3917  16.7204
    18.2630  18.2631

          k =-0.0833 0.2500-0.0833 (  7994 PWs)   bands (ev):

    -8.1557  -8.1320  -8.1313  -8.0725  -8.0691  -5.5136   4.1586   5.9763
     6.0444   8.5316   9.9379  11.1838  11.2803  14.7140  15.4584  16.4392
    17.8834  19.2156

          k =-0.1667 0.3333-0.1667 (  8006 PWs)   bands (ev):

    -8.1702  -8.1283  -8.1267  -8.0730  -8.0684  -5.2103   2.8966   5.6898
     5.7347   8.5215  10.3795  11.5683  12.0064  14.6550  16.0887  16.2854
    18.0696  20.7922

          k =-0.2500 0.4167-0.2500 (  8016 PWs)   bands (ev):

    -8.1850  -8.1246  -8.1227  -8.0724  -8.0675  -4.8138   1.7181   5.4005
     5.4782   8.3251  10.7872  11.7015  12.8120  15.2342  16.0551  16.7209
    19.3141  22.3273

          k =-0.3333 0.5000-0.3333 (  8029 PWs)   bands (ev):

    -8.1965  -8.1219  -8.1202  -8.0708  -8.0667  -4.4064   0.7807   5.1224
     5.3711   8.1493  10.9320  11.6239  13.7760  15.6068  16.7792  17.6804
    19.4281  20.6123

          k = 0.5833-0.4167 0.5833 (  8030 PWs)   bands (ev):

    -8.2022  -8.1205  -8.1194  -8.0689  -8.0669  -4.1473   0.2760   4.9403
     5.3780   8.0551  10.9992  11.4879  14.4117  16.1544  17.5998  18.2448
    18.7035  19.6475

          k = 0.5000-0.3333 0.5000 (  8023 PWs)   bands (ev):

    -8.2009  -8.1205  -8.1201  -8.0683  -8.0679  -4.2052   0.3843   4.8742
     5.4954   8.0601  11.1115  11.3784  14.3940  16.0824  16.9450  17.9600
    18.9847  20.6235

          k = 0.4167-0.2500 0.4167 (  8023 PWs)   bands (ev):

    -8.1927  -8.1224  -8.1217  -8.0703  -8.0680  -4.5365   1.0591   4.9355
     5.7079   8.1612  11.2542  11.2833  13.6392  15.6709  15.7477  17.6681
    19.3867  21.5140

          k = 0.3333-0.1667 0.3333 (  8007 PWs)   bands (ev):

    -8.1794  -8.1263  -8.1244  -8.0717  -8.0686  -4.9536   2.0921   5.1305
     5.9852   8.3282  11.1084  11.2424  12.5829  15.0234  15.6731  16.7792
    18.8669  21.7680

          k = 0.2500-0.0833 0.2500 (  8017 PWs)   bands (ev):

    -8.1640  -8.1309  -8.1284  -8.0720  -8.0694  -5.3250   3.2997   5.4645
     6.2710   8.4470  10.7747  10.7957  11.8446  14.9099  15.5894  16.1941
    18.0029  19.9358

          k = 0.1667-0.0000 0.1667 (  7996 PWs)   bands (ev):

    -8.1503  -8.1346  -8.1328  -8.0715  -8.0699  -5.5872   4.4825   5.9513
     6.4696   8.2057  10.3628  10.4995  11.1652  15.0858  15.3360  15.9594
    18.1597  18.5257

          k = 0.0000 0.3333 0.0000 (  8004 PWs)   bands (ev):

    -8.1651  -8.1276  -8.1276  -8.0748  -8.0678  -5.3914   3.8290   5.6431
     5.6431   8.9796   9.5445  11.7482  11.7482  14.0293  16.0147  17.0529
    18.9569  18.9569

          k =-0.0833 0.4167-0.0833 (  8020 PWs)   bands (ev):

    -8.1776  -8.1234  -8.1227  -8.0765  -8.0666  -5.1350   2.9550   5.2792
     5.3371   9.0094   9.7300  12.1837  12.2727  14.0977  16.8639  17.0801
    18.8140  19.9975

          k =-0.1667 0.5000-0.1667 (  8020 PWs)   bands (ev):

    -8.1901  -8.1203  -8.1183  -8.0770  -8.0657  -4.7735   1.9391   4.8311
     5.1203   8.9880  10.2174  12.1871  12.5251  15.1451  17.1743  17.3820
    19.3457  21.5844

          k =-0.2500 0.5833-0.2500 (  8025 PWs)   bands (ev):

    -8.2001  -8.1185  -8.1155  -8.0758  -8.0653  -4.3704   1.0266   4.4082
     5.0220   8.8689  10.7663  12.4715  12.5011  16.2266  17.2917  18.1956
    19.4608  20.5998

          k = 0.6667-0.3333 0.6667 (  8031 PWs)   bands (ev):

    -8.2056  -8.1178  -8.1145  -8.0734  -8.0660  -4.0550   0.4234   4.0902
     5.0517   8.7926  10.9723  12.2736  13.4737  16.2599  17.8447  18.2769
    18.9137  19.9993

          k = 0.5833-0.2500 0.5833 (  8027 PWs)   bands (ev):

    -8.2056  -8.1179  -8.1152  -8.0710  -8.0681  -4.0049   0.3377   3.9155
     5.2042   8.8036  11.0891  12.0547  14.2921  15.8863  16.8183  17.5080
    19.9870  21.4957

          k = 0.5000-0.1667 0.5000 (  8027 PWs)   bands (ev):

    -8.1999  -8.1189  -8.1177  -8.0706  -8.0693  -4.2564   0.8037   3.9137
     5.4599   8.8938  11.2640  11.8275  13.4880  15.5590  16.4079  18.1034
    19.5355  21.6973

          k = 0.4167-0.0833 0.4167 (  8027 PWs)   bands (ev):

    -8.1896  -8.1219  -8.1208  -8.0725  -8.0686  -4.6494   1.6187   4.1276
     5.7785   9.0034  11.3820  11.5172  12.4136  14.7780  16.7303  17.9935
    19.3341  20.8024

          k = 0.3333 0.0000 0.3333 (  8028 PWs)   bands (ev):

    -8.1768  -8.1268  -8.1240  -8.0729  -8.0687  -5.0321   2.5235   4.6332
     6.0869   8.9413  10.9787  11.1063  12.1194  14.5914  16.2756  16.9752
    18.9131  20.3024

          k = 0.0000 0.5000 0.0000 (  8044 PWs)   bands (ev):

    -8.1890  -8.1175  -8.1175  -8.0798  -8.0651  -4.9283   2.5193   5.0080
     5.0080   8.5841   9.7028  13.0088  13.0088  13.8539  17.6042  17.7081
    20.1152  20.1153

          k =-0.0833 0.5833-0.0833 (  8038 PWs)   bands (ev):

    -8.2001  -8.1133  -8.1125  -8.0817  -8.0639  -4.6125   1.8023   4.5975
     4.7699   8.6151   9.6541  13.0000  13.5008  14.9754  17.9607  18.3939
    20.1855  21.2239

          k =-0.1667 0.6667-0.1667 (  8022 PWs)   bands (ev):

    -8.2082  -8.1117  -8.1092  -8.0815  -8.0635  -4.2383   1.0665   4.0421
     4.6558   8.7440  10.1555  12.7341  13.5838  16.4326  18.4198  18.6642
    20.0297  20.7277

          k = 0.7500-0.2500 0.7500 (  8038 PWs)   bands (ev):

    -8.2122  -8.1122  -8.1080  -8.0792  -8.0644  -3.9085   0.5069   3.5470
     4.6778   8.7679  11.1188  12.6976  13.3867  16.6356  18.4096  18.8060
    19.3951  20.3933

          k = 0.6667-0.1667 0.6667 (  8019 PWs)   bands (ev):

    -8.2118  -8.1138  -8.1088  -8.0760  -8.0668  -3.7815   0.3174   3.2290
     4.8327   8.8581  11.7431  13.0783  13.3494  15.3913  16.8926  18.9346
    20.3890  21.9044

          k = 0.5833-0.0833 0.5833 (  8029 PWs)   bands (ev):

    -8.2072  -8.1158  -8.1117  -8.0727  -8.0698  -3.9413   0.5706   3.1616
     5.1014   9.0317  11.9337  12.6836  13.3976  15.2922  15.6500  19.0774
    20.6358  22.0878

          k = 0.5000 0.0000 0.5000 (  8048 PWs)   bands (ev):

    -8.1994  -8.1180  -8.1165  -8.0719  -8.0701  -4.2811   1.0861   3.4360
     5.4426   9.1838  12.0521  12.1354  12.2644  14.9363  16.6749  18.9406
    19.6890  20.6224

          k = 0.0000 0.6667 0.0000 (  8080 PWs)   bands (ev):

    -8.2104  -8.1071  -8.1071  -8.0853  -8.0624  -4.3491   1.3321   4.5041
     4.5041   8.2039   9.1952  14.3576  14.3576  14.8858  18.3637  19.2916
    21.7018  21.7019

          k =-0.0833 0.7500-0.0833 (  8032 PWs)   bands (ev):

    -8.2177  -8.1043  -8.1034  -8.0864  -8.0616  -4.0266   0.7881   4.1112
     4.3617   8.3246   9.1234  14.2420  14.7591  16.2988  18.9605  19.3090
    20.8657  21.3699

          k = 0.8333-0.1667 0.8333 (  8043 PWs)   bands (ev):

    -8.2205  -8.1052  -8.1020  -8.0848  -8.0624  -3.7307   0.3677   3.5261
     4.3588   8.4649   9.8620  13.9670  14.6555  16.8295  18.6812  19.0584
    20.5809  21.0156

          k = 0.7500-0.0833 0.7500 (  8040 PWs)   bands (ev):

    -8.2189  -8.1083  -8.1029  -8.0814  -8.0647  -3.5883   0.2082   3.0459
     4.4953   8.5878  11.1096  13.8144  14.2464  15.4562  17.2299  20.0850
    21.1229  22.0728

          k = 0.6667-0.0000 0.6667 (  8030 PWs)   bands (ev):

    -8.2139  -8.1121  -8.1063  -8.0770  -8.0675  -3.6789   0.3296   2.8743
     4.7554   8.8070  12.2274  13.5760  13.8299  14.2094  16.1612  20.4597
    20.9981  22.3088

          k = 0.0000 0.8333 0.0000 (  8044 PWs)   bands (ev):

    -8.2248  -8.0994  -8.0994  -8.0895  -8.0603  -3.7783   0.3927   4.1862
     4.1862   8.0589   8.5950  15.6492  15.6492  16.2677  19.2795  19.7795
    20.5976  20.5977

          k = 0.9167-0.0833 0.9167 (  8046 PWs)   bands (ev):

    -8.2273  -8.0992  -8.0979  -8.0891  -8.0604  -3.5720   0.1152   3.8608
     4.1501   8.2297   8.7140  15.5262  15.8188  16.9785  19.1117  19.1388
    20.3991  20.9244

          k = 0.8333 0.0000 0.8333 (  8042 PWs)   bands (ev):

    -8.2248  -8.1028  -8.0991  -8.0861  -8.0621  -3.4993   0.0732   3.3486
     4.2571   8.3604   9.7350  15.0101  15.2722  16.0251  17.9700  19.7141
    21.5342  21.8510

          k = 0.0000-1.0000 0.0000 (  7992 PWs)   bands (ev):

    -8.2298  -8.0965  -8.0965  -8.0910  -8.0596  -3.5056  -0.0039   4.0780
     4.0780   8.1334   8.2508  16.3451  16.3451  17.0993  19.3736  19.7518
    19.7518  19.9227

          k =-0.1667 0.3333 0.0000 (  8013 PWs)   bands (ev):

    -8.1674  -8.1286  -8.1267  -8.0739  -8.0682  -5.2992   3.3642   5.3002
     5.9604   8.9689   9.8734  11.5281  11.8965  14.3850  16.2262  16.4316
    18.5895  19.3161

          k =-0.2500 0.4167-0.0833 (  8025 PWs)   bands (ev):

    -8.1809  -8.1246  -8.1224  -8.0745  -8.0674  -4.9659   2.3446   4.7754
     5.7299   9.0404  10.3031  11.9275  12.1455  14.7010  16.4721  17.1528
    18.8853  20.8441

          k =-0.3333 0.5000-0.1667 (  8023 PWs)   bands (ev):

    -8.1933  -8.1213  -8.1189  -8.0737  -8.0668  -4.5623   1.3434   4.4500
     5.4555   8.9033  10.7468  11.9967  12.7037  15.4698  16.5416  18.0295
    19.3041  21.3490

          k = 0.5833-0.4167 0.7500 (  8021 PWs)   bands (ev):

    -8.2019  -8.1195  -8.1167  -8.0719  -8.0669  -4.1919   0.5813   4.2769
     5.2497   8.7819  10.8346  11.9983  13.6782  16.0147  16.9872  18.0419
    19.2124  20.7582

          k = 0.5000-0.3333 0.6667 (  8030 PWs)   bands (ev):

    -8.2050  -8.1190  -8.1159  -8.0706  -8.0673  -4.0304   0.2847   4.2233
     5.1742   8.7371  10.8242  11.9858  14.3935  15.9067  17.1715  18.1515
    18.8468  20.9974

          k =-0.1667 0.5000 0.0000 (  8027 PWs)   bands (ev):

    -8.1893  -8.1192  -8.1178  -8.0784  -8.0655  -4.8483   2.2504   4.6654
     5.2011   9.0977   9.8101  12.2219  12.8847  14.6273  17.3855  17.6825
    19.4267  20.5950

          k =-0.2500 0.5833-0.0833 (  8025 PWs)   bands (ev):

    -8.1997  -8.1166  -8.1136  -8.0787  -8.0649  -4.4772   1.4477   4.1540
     4.9651   9.2557  10.2254  11.9857  13.2889  15.5821  17.7493  18.3570
    19.6921  21.1053

          k = 0.6667-0.3333 0.8333 (  8042 PWs)   bands (ev):

    -8.2068  -8.1158  -8.1109  -8.0772  -8.0653  -4.1023   0.7399   3.7785
     4.7926   9.2326  10.8625  12.1077  13.3723  16.3122  17.7257  18.6696
    19.3603  20.9421

          k = 0.5833-0.2500 0.7500 (  8034 PWs)   bands (ev):

    -8.2096  -8.1160  -8.1101  -8.0748  -8.0667  -3.8714   0.3492   3.5378
     4.7758   9.2469  10.9951  12.7120  13.6549  15.4512  18.0544  18.4960
    19.0062  21.6318

          k = 0.5000-0.1667 0.6667 (  8037 PWs)   bands (ev):

    -8.2077  -8.1168  -8.1112  -8.0735  -8.0680  -3.9295   0.4492   3.4573
     4.9194   9.3361  11.0030  12.6301  13.8115  15.2338  16.9113  18.3820
    20.1558  22.1529

          k = 0.4167-0.0833 0.5833 (  8029 PWs)   bands (ev):

    -8.2016  -8.1182  -8.1141  -8.0744  -8.0676  -4.2345   0.9751   3.5894
     5.1855   9.4584  10.9856  12.0478  13.1328  15.4211  16.8641  18.6991
    19.7148  21.1128

          k = 0.3333 0.0000 0.5000 (  8017 PWs)   bands (ev):

    -8.1921  -8.1207  -8.1181  -8.0751  -8.0671  -4.6202   1.6798   4.0133
     5.5000   9.4604  10.5680  11.8614  12.5697  14.8927  17.3062  17.9725
    19.6489  20.4746

          k =-0.1667 0.6667 0.0000 (  8028 PWs)   bands (ev):

    -8.2091  -8.1099  -8.1078  -8.0833  -8.0630  -4.2893   1.2163   4.1833
     4.5415   8.7519   9.5303  13.0006  14.3091  15.7482  18.5850  18.8320
    20.6906  21.0955

          k = 0.7500-0.2500 0.9167 (  8038 PWs)   bands (ev):

    -8.2147  -8.1094  -8.1049  -8.0826  -8.0633  -3.9443   0.6703   3.6846
     4.3629   9.0031  10.0408  12.7198  14.5878  16.5093  18.2262  19.4703
    20.0577  21.2609

          k = 0.6667-0.1667 0.8333 (  8035 PWs)   bands (ev):

    -8.2161  -8.1110  -8.1041  -8.0801  -8.0650  -3.6960   0.3252   3.2368
     4.3653   9.0943  11.1349  12.5515  14.3449  15.6999  18.3363  19.1510
    20.0424  21.8953

          k = 0.5833-0.0833 0.7500 (  8036 PWs)   bands (ev):

    -8.2138  -8.1133  -8.1055  -8.0770  -8.0674  -3.6786   0.3148   2.9980
     4.5359   9.2571  11.8393  12.7445  13.8866  14.7846  16.9615  19.9359
    20.5723  22.6855

          k = 0.5000 0.0000 0.6667 (  8037 PWs)   bands (ev):

    -8.2087  -8.1157  -8.1090  -8.0748  -8.0686  -3.9000   0.5972   3.0874
     4.8334   9.4645  11.8434  11.9978  13.9439  15.0224  16.1368  19.9675
    20.2847  21.6750

          k = 0.8333-0.1667 1.0000 (  8041 PWs)   bands (ev):

    -8.2225  -8.1028  -8.1005  -8.0869  -8.0614  -3.7476   0.3856   3.9083
     4.0892   8.5892   9.0302  14.2189  15.5531  16.7601  18.6514  19.5472
    20.5719  21.3090

          k = 0.7500-0.0833 0.9167 (  8045 PWs)   bands (ev):

    -8.2229  -8.1050  -8.0998  -8.0848  -8.0628  -3.5489   0.1596   3.4252
     4.0504   8.8307   9.8098  13.9278  15.0623  16.5317  18.5517  19.2261
    20.7665  22.2888

          k = 0.6667-0.0000 0.8333 (  8055 PWs)   bands (ev):

    -8.2194  -8.1090  -8.1014  -8.0812  -8.0652  -3.5246   0.1693   3.0232
     4.2251   9.0075  11.1233  13.5448  13.8727  15.8055  17.4867  20.0604
    21.4146  22.5456

          k =-0.1667-1.0000-0.0000 (  8036 PWs)   bands (ev):

    -8.2272  -8.1001  -8.0980  -8.0880  -8.0609  -3.4941   0.0344   3.8496
     3.8996   8.6234   8.7473  15.3777  15.4799  17.1423  18.6870  19.6616
    19.7727  21.7024

          k = 0.6667-0.3333 1.0000 (  8030 PWs)   bands (ev):

    -8.2073  -8.1148  -8.1090  -8.0788  -8.0653  -4.1251   0.9284   3.5814
     4.6719   9.8934  10.3210  11.6616  14.1628  15.7598  17.4486  19.3600
    20.1205  20.7752

          k = 0.5833-0.2500 0.9167 (  8041 PWs)   bands (ev):

    -8.2121  -8.1144  -8.1059  -8.0777  -8.0665  -3.8112   0.4845   3.2556
     4.4001  10.0194  10.8774  11.8309  14.4016  15.3580  17.3927  19.7189
    20.0906  22.1495

          k = 0.5000-0.1667 0.8333 (  8032 PWs)   bands (ev):

    -8.2137  -8.1143  -8.1048  -8.0769  -8.0673  -3.6782   0.3005   3.1550
     4.2943  10.0245  10.9207  12.5929  13.8346  15.0133  18.4382  19.0211
    19.7128  22.9077

          k = 0.6667-0.1667 1.0000 (  8050 PWs)   bands (ev):

    -8.2179  -8.1098  -8.1019  -8.0817  -8.0645  -3.6706   0.3517   3.4003
     3.9702   9.8440  10.1114  12.4047  14.8561  16.2317  17.9761  19.8719
    20.6384  21.8510

          k = 0.5833-0.0833 0.9167 (  8037 PWs)   bands (ev):

    -8.2180  -8.1114  -8.1010  -8.0798  -8.0662  -3.5253   0.2059   3.1503
     3.8413  10.0778  11.1587  12.2009  13.5194  16.3810  18.5639  19.1847
    20.7422  22.3405

          k = 0.5000 0.0000 0.8333 (  8029 PWs)   bands (ev):

    -8.2158  -8.1131  -8.1023  -8.0782  -8.0672  -3.5845   0.2757   3.0467
     4.0294  10.2390  11.5774  11.7939  13.4495  15.9437  17.6399  20.0113
    20.9619  21.9805

          k =-0.3333-1.0000 0.0000 (  8028 PWs)   bands (ev):

    -8.2216  -8.1077  -8.0995  -8.0827  -8.0643  -3.4708   0.1173   3.4564
     3.6006   9.8522   9.9312  13.4893  13.8100  17.2025  18.5200  19.5895
    19.9130  23.3142

          k =-0.5000-1.0000 0.0000 (  8004 PWs)   bands (ev):

    -8.2185  -8.1118  -8.1000  -8.0794  -8.0668  -3.4590   0.1626   3.2793
     3.4708  10.9557  11.2685  11.8280  12.6018  17.2317  18.5042  19.5653
    19.9952  23.1077

     the Fermi energy is     6.6763 ev
     (compare with:     6.6834 eV, computed in scf)

     Writing all to output data dir out/mp-2534.save/
 
     init_run     :      0.05s CPU      0.38s WALL (       1 calls)
     electrons    :      5.44s CPU      8.07s WALL (       1 calls)

     Called by init_run:
     wfcinit      :      0.00s CPU      0.10s WALL (       1 calls)
     potinit      :      0.00s CPU      0.17s WALL (       1 calls)
     hinit0       :      0.01s CPU      0.05s WALL (       1 calls)

     Called by electrons:
     c_bands      :      5.44s CPU      8.07s WALL (       1 calls)
     v_of_rho     :      0.00s CPU      0.01s WALL (       1 calls)

     Called by c_bands:
     init_us_2    :      0.01s CPU      0.01s WALL (      72 calls)
     init_us_2:cp :      0.01s CPU      0.01s WALL (      72 calls)
     cegterg      :      5.07s CPU      5.17s WALL (     100 calls)

     Called by *egterg:
     cdiaghg      :      0.53s CPU      0.54s WALL (    1545 calls)
     h_psi        :      4.37s CPU      4.47s WALL (    1645 calls)
     g_psi        :      0.03s CPU      0.03s WALL (    1473 calls)

     Called by h_psi:
     h_psi:calbec :      0.10s CPU      0.11s WALL (    1645 calls)
     vloc_psi     :      4.18s CPU      4.28s WALL (    1645 calls)
     add_vuspsi   :      0.06s CPU      0.07s WALL (    1645 calls)

     General routines
     calbec       :      0.10s CPU      0.10s WALL (    1645 calls)
     fft          :      0.00s CPU      0.04s WALL (      10 calls)
     fftw         :      3.84s CPU      3.93s WALL (   42722 calls)
 
     Parallel routines
 
     PWSCF        :      6.01s CPU     14.05s WALL

 
   This run was terminated on:   9:52:12  11Apr2024            

=------------------------------------------------------------------------------=
   JOB DONE.
=------------------------------------------------------------------------------=
