
     Program PWSCF v.7.1 starts on  8Apr2024 at 15:10:26 

     This program is part of the open-source Quantum ESPRESSO suite
     for quantum simulation of materials; please cite
         "P. Giannozzi et al., J. Phys.:Condens. Matter 21 395502 (2009);
         "P. Giannozzi et al., J. Phys.:Condens. Matter 29 465901 (2017);
         "P. Giannozzi et al., J. Chem. Phys. 152 154105 (2020);
          URL http://www.quantum-espresso.org", 
     in publications or presentations arising from this work. More details at
     http://www.quantum-espresso.org/quote

     Parallel version (MPI), running on    16 processors

     MPI processes distributed on     1 nodes
     247128 MiB available memory on the printing compute node when the environment starts
 
     Reading input from pw_mp-8062_scf_k3000_E65.in
Warning: card &CELL ignored
Warning: card / ignored

     Current dimensions of program PWSCF are:
     Max number of different atomic species (ntypx) = 10
     Max number of k-points (npk) =  40000
     Max angular momentum in pseudopotentials (lmaxx) =  4
 
     K-points division:     npool     =       2
     R & G space division:  proc/nbgrp/npool/nimage =       8
     Subspace diagonalization in iterative solution of the eigenvalue problem:
     a serial algorithm will be used

 
     Parallelization info
     --------------------
     sticks:   dense  smooth     PW     G-vecs:    dense   smooth      PW
     Min          74      74     24                 1229     1229     225
     Max          75      75     25                 1233     1233     227
     Sum         595     595    199                 9841     9841    1807
 
     Using Slab Decomposition
 


     bravais-lattice index     =            2
     lattice parameter (alat)  =       8.2279  a.u.
     unit-cell volume          =     139.2515 (a.u.)^3
     number of atoms/cell      =            2
     number of atomic types    =            2
     number of electrons       =         8.00
     number of Kohn-Sham states=            8
     kinetic-energy cutoff     =      65.0000  Ry
     charge density cutoff     =     260.0000  Ry
     scf convergence threshold =      1.0E-10
     mixing beta               =       0.7000
     number of iterations used =            8  plain     mixing
     Exchange-correlation= PBE
                           (   1   4   3   4   0   0   0)

     celldm(1)=   8.227854  celldm(2)=   0.000000  celldm(3)=   0.000000
     celldm(4)=   0.000000  celldm(5)=   0.000000  celldm(6)=   0.000000

     crystal axes: (cart. coord. in units of alat)
               a(1) = (  -0.500000   0.000000   0.500000 )  
               a(2) = (   0.000000   0.500000   0.500000 )  
               a(3) = (  -0.500000   0.500000   0.000000 )  

     reciprocal axes: (cart. coord. in units 2 pi/alat)
               b(1) = ( -1.000000 -1.000000  1.000000 )  
               b(2) = (  1.000000  1.000000  1.000000 )  
               b(3) = ( -1.000000  1.000000 -1.000000 )  


     PseudoPot. # 1 for C  read from file:
     /usr/scratch4/magr4826/Promotion/Python/Code/devEb/pseudo/SG15/C.upf
     MD5 check sum: 1a5f83a7b1f58d24996abe00ed223ac6
     Pseudo is Norm-conserving, Zval =  4.0
     Generated using ONCVPSP code by D. R. Hamann
     Using radial grid of  602 points,  4 beta functions with: 
                l(1) =   0
                l(2) =   0
                l(3) =   1
                l(4) =   1

     PseudoPot. # 2 for Si read from file:
     /usr/scratch4/magr4826/Promotion/Python/Code/devEb/pseudo/SG15/Si.upf
     MD5 check sum: 7f029a58b69e3aa87b46a36c608bf45e
     Pseudo is Norm-conserving, Zval =  4.0
     Generated using ONCVPSP code by D. R. Hamann
     Using radial grid of  602 points,  4 beta functions with: 
                l(1) =   0
                l(2) =   0
                l(3) =   1
                l(4) =   1

     atomic species   valence    mass     pseudopotential
        C              4.00    12.01070     C ( 1.00)
        Si             4.00    28.08550     Si( 1.00)

     24 Sym. Ops. (no inversion) found



   Cartesian axes

     site n.     atom                  positions (alat units)
         1           Si  tau(   1) = (  -0.2500000   0.2500000   0.2500001  )
         2           C   tau(   2) = (   0.0000000   0.0000000   0.0000000  )

     number of k points=    72  Gaussian smearing, width (Ry)=  0.0005
                       cart. coord. in units 2pi/alat
        k(    1) = (   0.0000000   0.0000000   0.0000000), wk =   0.0011574
        k(    2) = (  -0.0833333   0.0833333  -0.0833333), wk =   0.0092593
        k(    3) = (  -0.1666667   0.1666667  -0.1666667), wk =   0.0092593
        k(    4) = (  -0.2500000   0.2500000  -0.2500000), wk =   0.0092593
        k(    5) = (  -0.3333333   0.3333333  -0.3333333), wk =   0.0092593
        k(    6) = (  -0.4166667   0.4166667  -0.4166667), wk =   0.0092593
        k(    7) = (   0.5000000  -0.5000000   0.5000000), wk =   0.0046296
        k(    8) = (   0.0000000   0.1666667   0.0000000), wk =   0.0069444
        k(    9) = (  -0.0833333   0.2500000  -0.0833333), wk =   0.0277778
        k(   10) = (  -0.1666667   0.3333333  -0.1666667), wk =   0.0277778
        k(   11) = (  -0.2500000   0.4166667  -0.2500000), wk =   0.0277778
        k(   12) = (  -0.3333333   0.5000000  -0.3333333), wk =   0.0277778
        k(   13) = (   0.5833333  -0.4166667   0.5833333), wk =   0.0277778
        k(   14) = (   0.5000000  -0.3333333   0.5000000), wk =   0.0277778
        k(   15) = (   0.4166667  -0.2500000   0.4166667), wk =   0.0277778
        k(   16) = (   0.3333333  -0.1666667   0.3333333), wk =   0.0277778
        k(   17) = (   0.2500000  -0.0833333   0.2500000), wk =   0.0277778
        k(   18) = (   0.1666667  -0.0000000   0.1666667), wk =   0.0138889
        k(   19) = (   0.0000000   0.3333333   0.0000000), wk =   0.0069444
        k(   20) = (  -0.0833333   0.4166667  -0.0833333), wk =   0.0277778
        k(   21) = (  -0.1666667   0.5000000  -0.1666667), wk =   0.0277778
        k(   22) = (  -0.2500000   0.5833333  -0.2500000), wk =   0.0277778
        k(   23) = (   0.6666667  -0.3333333   0.6666667), wk =   0.0277778
        k(   24) = (   0.5833333  -0.2500000   0.5833333), wk =   0.0277778
        k(   25) = (   0.5000000  -0.1666667   0.5000000), wk =   0.0277778
        k(   26) = (   0.4166667  -0.0833333   0.4166667), wk =   0.0277778
        k(   27) = (   0.3333333   0.0000000   0.3333333), wk =   0.0138889
        k(   28) = (   0.0000000   0.5000000   0.0000000), wk =   0.0069444
        k(   29) = (  -0.0833333   0.5833333  -0.0833333), wk =   0.0277778
        k(   30) = (  -0.1666667   0.6666667  -0.1666667), wk =   0.0277778
        k(   31) = (   0.7500000  -0.2500000   0.7500000), wk =   0.0277778
        k(   32) = (   0.6666667  -0.1666667   0.6666667), wk =   0.0277778
        k(   33) = (   0.5833333  -0.0833333   0.5833333), wk =   0.0277778
        k(   34) = (   0.5000000   0.0000000   0.5000000), wk =   0.0138889
        k(   35) = (   0.0000000   0.6666667   0.0000000), wk =   0.0069444
        k(   36) = (  -0.0833333   0.7500000  -0.0833333), wk =   0.0277778
        k(   37) = (   0.8333333  -0.1666667   0.8333333), wk =   0.0277778
        k(   38) = (   0.7500000  -0.0833333   0.7500000), wk =   0.0277778
        k(   39) = (   0.6666667  -0.0000000   0.6666667), wk =   0.0138889
        k(   40) = (   0.0000000   0.8333333   0.0000000), wk =   0.0069444
        k(   41) = (   0.9166667  -0.0833333   0.9166667), wk =   0.0277778
        k(   42) = (   0.8333333   0.0000000   0.8333333), wk =   0.0138889
        k(   43) = (   0.0000000  -1.0000000   0.0000000), wk =   0.0034722
        k(   44) = (  -0.1666667   0.3333333   0.0000000), wk =   0.0277778
        k(   45) = (  -0.2500000   0.4166667  -0.0833333), wk =   0.0555556
        k(   46) = (  -0.3333333   0.5000000  -0.1666667), wk =   0.0555556
        k(   47) = (   0.5833333  -0.4166667   0.7500000), wk =   0.0555556
        k(   48) = (   0.5000000  -0.3333333   0.6666667), wk =   0.0277778
        k(   49) = (  -0.1666667   0.5000000   0.0000000), wk =   0.0277778
        k(   50) = (  -0.2500000   0.5833333  -0.0833333), wk =   0.0555556
        k(   51) = (   0.6666667  -0.3333333   0.8333333), wk =   0.0555556
        k(   52) = (   0.5833333  -0.2500000   0.7500000), wk =   0.0555556
        k(   53) = (   0.5000000  -0.1666667   0.6666667), wk =   0.0555556
        k(   54) = (   0.4166667  -0.0833333   0.5833333), wk =   0.0555556
        k(   55) = (   0.3333333   0.0000000   0.5000000), wk =   0.0277778
        k(   56) = (  -0.1666667   0.6666667  -0.0000000), wk =   0.0277778
        k(   57) = (   0.7500000  -0.2500000   0.9166667), wk =   0.0555556
        k(   58) = (   0.6666667  -0.1666667   0.8333333), wk =   0.0555556
        k(   59) = (   0.5833333  -0.0833333   0.7500000), wk =   0.0555556
        k(   60) = (   0.5000000   0.0000000   0.6666667), wk =   0.0277778
        k(   61) = (   0.8333333  -0.1666667   1.0000000), wk =   0.0277778
        k(   62) = (   0.7500000  -0.0833333   0.9166667), wk =   0.0555556
        k(   63) = (   0.6666667   0.0000000   0.8333333), wk =   0.0277778
        k(   64) = (  -0.1666667  -1.0000000  -0.0000000), wk =   0.0138889
        k(   65) = (   0.6666667  -0.3333333   1.0000000), wk =   0.0277778
        k(   66) = (   0.5833333  -0.2500000   0.9166667), wk =   0.0555556
        k(   67) = (   0.5000000  -0.1666667   0.8333333), wk =   0.0277778
        k(   68) = (   0.6666667  -0.1666667   1.0000000), wk =   0.0277778
        k(   69) = (   0.5833333  -0.0833333   0.9166667), wk =   0.0555556
        k(   70) = (   0.5000000   0.0000000   0.8333333), wk =   0.0277778
        k(   71) = (  -0.3333333  -1.0000000   0.0000000), wk =   0.0138889
        k(   72) = (  -0.5000000  -1.0000000   0.0000000), wk =   0.0069444

     Dense  grid:     9841 G-vectors     FFT dimensions: (  30,  30,  30)

     Estimated max dynamical RAM per process >       2.36 MB

     Estimated total dynamical RAM >      35.34 MB

     Initial potential from superposition of free atoms

     starting charge       7.9468, renormalised to       8.0000
     Starting wfcs are random

     total cpu time spent up to now is        0.5 secs

     Self-consistent Calculation

     iteration #  1     ecut=    65.00 Ry     beta= 0.70
     Davidson diagonalization with overlap
     c_bands:  1 eigenvalues not converged
     c_bands:  1 eigenvalues not converged
     c_bands:  2 eigenvalues not converged
     ethr =  5.00E-06,  avg # of iterations = 17.9

     total cpu time spent up to now is        1.0 secs

     total energy              =     -19.17463717 Ry
     estimated scf accuracy    <       0.41140746 Ry

     iteration #  2     ecut=    65.00 Ry     beta= 0.70
     Davidson diagonalization with overlap
     ethr =  5.14E-03,  avg # of iterations =  2.4

     total cpu time spent up to now is        1.1 secs

     total energy              =     -19.29109823 Ry
     estimated scf accuracy    <       0.14307956 Ry

     iteration #  3     ecut=    65.00 Ry     beta= 0.70
     Davidson diagonalization with overlap
     ethr =  1.79E-03,  avg # of iterations =  1.5

     total cpu time spent up to now is        1.2 secs

     total energy              =     -19.31428384 Ry
     estimated scf accuracy    <       0.00159874 Ry

     iteration #  4     ecut=    65.00 Ry     beta= 0.70
     Davidson diagonalization with overlap
     ethr =  2.00E-05,  avg # of iterations =  4.7

     total cpu time spent up to now is        1.3 secs

     total energy              =     -19.31512245 Ry
     estimated scf accuracy    <       0.00057495 Ry

     iteration #  5     ecut=    65.00 Ry     beta= 0.70
     Davidson diagonalization with overlap
     ethr =  7.19E-06,  avg # of iterations =  1.8

     total cpu time spent up to now is        1.4 secs

     total energy              =     -19.31521712 Ry
     estimated scf accuracy    <       0.00000276 Ry

     iteration #  6     ecut=    65.00 Ry     beta= 0.70
     Davidson diagonalization with overlap
     ethr =  3.45E-08,  avg # of iterations =  8.0

     total cpu time spent up to now is        1.5 secs

     total energy              =     -19.31522094 Ry
     estimated scf accuracy    <       0.00000395 Ry

     iteration #  7     ecut=    65.00 Ry     beta= 0.70
     Davidson diagonalization with overlap
     ethr =  3.45E-08,  avg # of iterations =  1.9

     total cpu time spent up to now is        1.6 secs

     total energy              =     -19.31522129 Ry
     estimated scf accuracy    <       0.00000018 Ry

     iteration #  8     ecut=    65.00 Ry     beta= 0.70
     Davidson diagonalization with overlap
     ethr =  2.19E-09,  avg # of iterations =  4.1

     total cpu time spent up to now is        1.7 secs

     total energy              =     -19.31522133 Ry
     estimated scf accuracy    <          1.7E-09 Ry

     iteration #  9     ecut=    65.00 Ry     beta= 0.70
     Davidson diagonalization with overlap
     ethr =  2.10E-11,  avg # of iterations =  6.5

     total cpu time spent up to now is        1.8 secs

     total energy              =     -19.31522133 Ry
     estimated scf accuracy    <          1.2E-09 Ry

     iteration # 10     ecut=    65.00 Ry     beta= 0.70
     Davidson diagonalization with overlap
     ethr =  1.51E-11,  avg # of iterations =  1.4

     total cpu time spent up to now is        1.9 secs

     total energy              =     -19.31522133 Ry
     estimated scf accuracy    <          1.6E-10 Ry

     iteration # 11     ecut=    65.00 Ry     beta= 0.70
     Davidson diagonalization with overlap
     ethr =  2.04E-12,  avg # of iterations =  3.4

     total cpu time spent up to now is        2.1 secs

     End of self-consistent calculation

          k = 0.0000 0.0000 0.0000 (  1243 PWs)   bands (ev):

    -5.8970   9.4851   9.4851   9.4851  15.7705  16.8747  16.8747  16.8747

          k =-0.0833 0.0833-0.0833 (  1243 PWs)   bands (ev):

    -5.7610   8.7662   9.3922   9.3922  16.0131  17.0130  17.0489  17.0489

          k =-0.1667 0.1667-0.1667 (  1254 PWs)   bands (ev):

    -5.3569   7.1330   9.1615   9.1615  15.8891  17.3864  17.3864  17.8789

          k =-0.2500 0.2500-0.2500 (  1239 PWs)   bands (ev):

    -4.6993   5.2180   8.8901   8.8901  15.5305  17.4605  17.4605  18.8659

          k =-0.3333 0.3333-0.3333 (  1236 PWs)   bands (ev):

    -3.8272   3.3373   8.6559   8.6559  15.2221  17.1869  17.1869  19.4224

          k =-0.4167 0.4167-0.4167 (  1221 PWs)   bands (ev):

    -2.8665   1.7371   8.5030   8.5030  15.0298  16.8845  16.8845  19.5547

          k = 0.5000-0.5000 0.5000 (  1224 PWs)   bands (ev):

    -2.3213   0.9737   8.4501   8.4501  14.9656  16.7647  16.7647  19.5537

          k = 0.0000 0.1667 0.0000 (  1243 PWs)   bands (ev):

    -5.7156   8.9472   9.1507   9.1507  16.1138  16.5255  17.3710  17.3710

          k =-0.0833 0.2500-0.0833 (  1248 PWs)   bands (ev):

    -5.4007   7.6795   8.8174   9.0634  15.9318  16.7752  17.8740  17.9478

          k =-0.1667 0.3333-0.1667 (  1237 PWs)   bands (ev):

    -4.8269   5.8872   8.5047   8.8231  15.6577  17.1162  18.1416  18.3505

          k =-0.2500 0.4167-0.2500 (  1236 PWs)   bands (ev):

    -4.0222   4.0135   8.2863   8.4884  15.3783  16.9447  17.9412  19.0543

          k =-0.3333 0.5000-0.3333 (  1228 PWs)   bands (ev):

    -3.0697   2.3109   8.1634   8.1976  15.1979  16.6101  17.5343  19.7849

          k = 0.5833-0.4167 0.5833 (  1222 PWs)   bands (ev):

    -2.2923   1.1799   7.9138   8.2454  15.1712  16.4425  17.2081  20.1036

          k = 0.5000-0.3333 0.5000 (  1221 PWs)   bands (ev):

    -2.4878   1.4476   7.7805   8.4171  15.2913  16.5242  17.0875  20.1003

          k = 0.4167-0.2500 0.4167 (  1234 PWs)   bands (ev):

    -3.3941   2.8454   7.7889   8.6828  15.5150  16.8631  17.1817  19.7638

          k = 0.3333-0.1667 0.3333 (  1232 PWs)   bands (ev):

    -4.3137   4.6302   7.9518   8.9949  15.8172  17.3037  17.3631  19.0457

          k = 0.2500-0.0833 0.2500 (  1242 PWs)   bands (ev):

    -5.0463   6.4830   8.2715   9.2795  16.1747  17.2605  17.3371  18.4022

          k = 0.1667-0.0000 0.1667 (  1245 PWs)   bands (ev):

    -5.5355   8.0286   8.7879   9.4388  16.3209  16.7952  17.0938  17.8625

          k = 0.0000 0.3333 0.0000 (  1239 PWs)   bands (ev):

    -5.1764   7.7038   8.3925   8.3925  15.0952  16.8647  18.5927  18.5927

          k =-0.0833 0.4167-0.0833 (  1243 PWs)   bands (ev):

    -4.6912   6.4165   8.0158   8.1313  14.6495  16.7521  18.7443  19.1537

          k =-0.1667 0.5000-0.1667 (  1239 PWs)   bands (ev):

    -3.9665   4.7354   7.7076   7.7648  14.4427  17.0939  18.5267  19.1939

          k =-0.2500 0.5833-0.2500 (  1234 PWs)   bands (ev):

    -3.0610   3.0643   7.1928   7.6757  14.3043  17.4274  18.8275  19.0221

          k = 0.6667-0.3333 0.6667 (  1227 PWs)   bands (ev):

    -2.1792   1.7412   6.7365   7.7570  14.3562  17.3451  18.3918  20.1594

          k = 0.5833-0.2500 0.5833 (  1222 PWs)   bands (ev):

    -1.9981   1.5015   6.4240   7.9951  14.6627  17.2546  18.0756  20.6856

          k = 0.5000-0.1667 0.5000 (  1237 PWs)   bands (ev):

    -2.7545   2.5845   6.3096   8.3528  15.2106  17.2640  17.9273  20.1411

          k = 0.4167-0.0833 0.4167 (  1237 PWs)   bands (ev):

    -3.6879   4.1547   6.4597   8.7630  15.9171  17.3479  17.8573  19.0900

          k = 0.3333 0.0000 0.3333 (  1247 PWs)   bands (ev):

    -4.4801   5.6027   7.0747   9.1174  16.5572  17.1285  17.6318  18.4562

          k = 0.0000 0.5000 0.0000 (  1243 PWs)   bands (ev):

    -4.2965   6.1604   7.5749   7.5749  13.5936  15.8537  20.1226  20.1226

          k =-0.0833 0.5833-0.0833 (  1245 PWs)   bands (ev):

    -3.6600   5.0496   7.0764   7.2695  13.1546  15.6058  20.2166  20.5963

          k =-0.1667 0.6667-0.1667 (  1235 PWs)   bands (ev):

    -2.8271   3.7015   6.3062   7.1415  13.1094  16.2691  20.0283  20.4522

          k = 0.7500-0.2500 0.7500 (  1231 PWs)   bands (ev):

    -1.9381   2.4518   5.5573   7.2039  13.2411  17.4735  20.0189  20.0321

          k = 0.6667-0.1667 0.6667 (  1227 PWs)   bands (ev):

    -1.4790   1.8867   5.0172   7.4487  13.5988  18.3263  19.5595  20.5384

          k = 0.5833-0.0833 0.5833 (  1227 PWs)   bands (ev):

    -1.9804   2.5426   4.7941   7.8436  14.2106  18.5186  19.1266  20.3608

          k = 0.5000 0.0000 0.5000 (  1211 PWs)   bands (ev):

    -2.8664   3.5735   5.1743   8.3222  15.0441  18.2827  18.5810  19.3773

          k = 0.0000 0.6667 0.0000 (  1258 PWs)   bands (ev):

    -3.1168   4.4544   6.9045   6.9045  12.1611  14.7262  21.6794  21.6794

          k =-0.0833 0.7500-0.0833 (  1236 PWs)   bands (ev):

    -2.3770   3.5173   6.2626   6.7209  11.9631  14.7485  21.8056  22.0184

          k = 0.8333-0.1667 0.8333 (  1232 PWs)   bands (ev):

    -1.5573   2.6644   5.1717   6.7370  12.2398  15.7268  21.6292  21.7399

          k = 0.7500-0.0833 0.7500 (  1228 PWs)   bands (ev):

    -1.0168   2.2415   4.2048   6.9512  12.6863  17.3002  21.1594  21.4914

          k = 0.6667-0.0000 0.6667 (  1220 PWs)   bands (ev):

    -1.2530   2.4767   3.8781   7.3391  13.3366  18.6715  20.3097  21.0597

          k = 0.0000 0.8333 0.0000 (  1238 PWs)   bands (ev):

    -1.7563   2.7351   6.4762   6.4762  11.1971  14.0565  22.9885  22.9885

          k = 0.9167-0.0833 0.9167 (  1233 PWs)   bands (ev):

    -1.1088   2.0792   5.8484   6.4339  11.3419  14.3267  23.0694  23.0849

          k = 0.8333 0.0000 0.8333 (  1240 PWs)   bands (ev):

    -0.7958   1.9843   4.7667   6.5977  11.9485  15.5442  22.4198  22.7716

          k = 0.0000-1.0000 0.0000 (  1234 PWs)   bands (ev):

    -0.8645   1.7120   6.3295   6.3295  10.8676  13.8372  23.5533  23.5533

          k =-0.1667 0.3333 0.0000 (  1245 PWs)   bands (ev):

    -5.0006   6.8017   7.9766   8.9695  15.6778  17.0223  18.2153  18.2844

          k =-0.2500 0.4167-0.0833 (  1239 PWs)   bands (ev):

    -4.3504   5.2808   7.3855   8.7219  15.5373  17.2638  18.1017  18.5770

          k =-0.3333 0.5000-0.1667 (  1240 PWs)   bands (ev):

    -3.4906   3.5539   7.1006   8.3615  15.3240  16.9041  18.3903  19.0688

          k = 0.5833-0.4167 0.7500 (  1229 PWs)   bands (ev):

    -2.5498   2.0303   6.9893   8.0484  15.1639  16.5127  18.2254  20.1168

          k = 0.5000-0.3333 0.6667 (  1224 PWs)   bands (ev):

    -2.0225   1.3005   6.9686   7.9209  15.1113  16.3621  18.1484  20.5728

          k =-0.1667 0.5000 0.0000 (  1242 PWs)   bands (ev):

    -4.1296   5.5369   7.1136   7.9765  14.2307  16.4658  18.8446  19.8906

          k =-0.2500 0.5833-0.0833 (  1243 PWs)   bands (ev):

    -3.3473   4.2051   6.4865   7.6106  14.1650  16.8669  18.5465  20.2008

          k = 0.6667-0.3333 0.8333 (  1235 PWs)   bands (ev):

    -2.4333   2.7710   6.0829   7.3038  14.1845  17.3955  18.7666  20.1436

          k = 0.5833-0.2500 0.7500 (  1222 PWs)   bands (ev):

    -1.7115   1.7846   5.7576   7.2757  14.3522  17.2610  19.5226  20.3775

          k = 0.5000-0.1667 0.6667 (  1228 PWs)   bands (ev):

    -1.8999   2.0395   5.5541   7.5207  14.6973  17.1166  19.5368  20.3228

          k = 0.4167-0.0833 0.5833 (  1232 PWs)   bands (ev):

    -2.7554   3.2513   5.5957   7.9419  15.1529  17.1629  18.9137  19.6448

          k = 0.3333 0.0000 0.5000 (  1229 PWs)   bands (ev):

    -3.6397   4.5070   6.1436   8.4059  15.5144  17.3373  17.9988  19.2399

          k =-0.1667 0.6667-0.0000 (  1240 PWs)   bands (ev):

    -2.9678   4.1962   6.4138   6.9134  12.8802  15.4586  20.2097  21.5843

          k = 0.7500-0.2500 0.9167 (  1230 PWs)   bands (ev):

    -2.1239   3.2011   5.5919   6.5997  13.0988  16.1834  19.8333  21.8538

          k = 0.6667-0.1667 0.8333 (  1223 PWs)   bands (ev):

    -1.3544   2.3558   4.7906   6.6249  13.4320  17.4676  19.5880  21.6314

          k = 0.5833-0.0833 0.7500 (  1229 PWs)   bands (ev):

    -1.2445   2.2842   4.3035   6.9153  13.9017  18.1792  19.9702  20.9217

          k = 0.5000 0.0000 0.6667 (  1234 PWs)   bands (ev):

    -1.9107   2.8972   4.4582   7.3920  14.5233  17.9242  19.4353  20.4807

          k = 0.8333-0.1667 1.0000 (  1232 PWs)   bands (ev):

    -1.6463   2.7507   5.9774   6.1644  12.0078  14.8448  21.6390  22.9986

          k = 0.7500-0.0833 0.9167 (  1227 PWs)   bands (ev):

    -0.9842   2.2485   4.9339   6.1354  12.5609  15.8274  21.1753  22.8909

          k = 0.6667 0.0000 0.8333 (  1228 PWs)   bands (ev):

    -0.8214   2.2937   4.0482   6.4238  13.1821  17.4006  20.5161  21.7530

          k =-0.1667-1.0000-0.0000 (  1218 PWs)   bands (ev):

    -0.8108   1.8553   5.8598   5.8792  11.7163  14.6419  22.5167  23.5970

          k = 0.6667-0.3333 1.0000 (  1238 PWs)   bands (ev):

    -2.5408   3.5605   5.4128   7.0922  14.4014  17.2643  18.1230  21.1964

          k = 0.5833-0.2500 0.9167 (  1223 PWs)   bands (ev):

    -1.6874   2.6604   4.9068   6.5943  14.5726  17.5525  18.6547  21.3712

          k = 0.5000-0.1667 0.8333 (  1226 PWs)   bands (ev):

    -1.2358   2.1396   4.7994   6.3936  14.6155  17.4272  19.8287  20.7862

          k = 0.6667-0.1667 1.0000 (  1221 PWs)   bands (ev):

    -1.3563   2.7172   5.0052   5.7941  13.7167  16.7745  19.3519  22.4252

          k = 0.5833-0.0833 0.9167 (  1223 PWs)   bands (ev):

    -0.8447   2.4320   4.3793   5.5843  14.2650  17.8920  19.1840  20.9164

          k = 0.5000 0.0000 0.8333 (  1224 PWs)   bands (ev):

    -1.0194   2.5586   4.1869   5.9366  14.6021  18.0832  19.1882  20.5602

          k =-0.3333-1.0000 0.0000 (  1220 PWs)   bands (ev):

    -0.6957   2.2246   5.0032   5.1363  13.4920  16.6070  20.3675  21.7160

          k =-0.5000-1.0000 0.0000 (  1232 PWs)   bands (ev):

    -0.6337   2.4935   4.5177   4.8314  14.6937  18.9781  18.9932  19.2747

     the Fermi energy is    10.7012 ev

!    total energy              =     -19.31522133 Ry
     estimated scf accuracy    <          1.2E-11 Ry
     smearing contrib. (-TS)   =      -0.00000000 Ry
     internal energy E=F+TS    =     -19.31522133 Ry

     The total energy is F=E-TS. E is the sum of the following terms:
     one-electron contribution =       5.39340274 Ry
     hartree contribution      =       2.33852165 Ry
     xc contribution           =      -6.09666053 Ry
     ewald contribution        =     -20.95048519 Ry

     convergence has been achieved in  11 iterations

     Writing all to output data dir out/mp-8062.save/
 
     init_run     :      0.16s CPU      0.43s WALL (       1 calls)
     electrons    :      1.14s CPU      1.57s WALL (       1 calls)

     Called by init_run:
     wfcinit      :      0.14s CPU      0.30s WALL (       1 calls)
     potinit      :      0.00s CPU      0.10s WALL (       1 calls)
     hinit0       :      0.01s CPU      0.02s WALL (       1 calls)

     Called by electrons:
     c_bands      :      1.03s CPU      1.33s WALL (      11 calls)
     sum_band     :      0.10s CPU      0.10s WALL (      11 calls)
     v_of_rho     :      0.01s CPU      0.01s WALL (      12 calls)
     mix_rho      :      0.00s CPU      0.00s WALL (      11 calls)

     Called by c_bands:
     init_us_2    :      0.01s CPU      0.02s WALL (     828 calls)
     init_us_2:cp :      0.01s CPU      0.01s WALL (     828 calls)
     cegterg      :      0.93s CPU      1.00s WALL (     396 calls)

     Called by *egterg:
     cdiaghg      :      0.13s CPU      0.14s WALL (    2106 calls)
     h_psi        :      0.85s CPU      0.91s WALL (    2142 calls)
     g_psi        :      0.00s CPU      0.00s WALL (    1710 calls)

     Called by h_psi:
     h_psi:calbec :      0.02s CPU      0.02s WALL (    2142 calls)
     vloc_psi     :      0.80s CPU      0.87s WALL (    2142 calls)
     add_vuspsi   :      0.01s CPU      0.01s WALL (    2142 calls)

     General routines
     calbec       :      0.02s CPU      0.02s WALL (    2142 calls)
     fft          :      0.01s CPU      0.01s WALL (     119 calls)
     ffts         :      0.00s CPU      0.00s WALL (      11 calls)
     fftw         :      0.82s CPU      0.88s WALL (   29092 calls)
 
     Parallel routines
 
     PWSCF        :      1.69s CPU      2.52s WALL

 
   This run was terminated on:  15:10:28   8Apr2024            

=------------------------------------------------------------------------------=
   JOB DONE.
=------------------------------------------------------------------------------=
