
     Program PWSCF v.7.1 starts on  3Jan2024 at 14:31:58 

     This program is part of the open-source Quantum ESPRESSO suite
     for quantum simulation of materials; please cite
         "P. Giannozzi et al., J. Phys.:Condens. Matter 21 395502 (2009);
         "P. Giannozzi et al., J. Phys.:Condens. Matter 29 465901 (2017);
         "P. Giannozzi et al., J. Chem. Phys. 152 154105 (2020);
          URL http://www.quantum-espresso.org", 
     in publications or presentations arising from this work. More details at
     http://www.quantum-espresso.org/quote

     Parallel version (MPI), running on     8 processors

     MPI processes distributed on     1 nodes
     121141 MiB available memory on the printing compute node when the environment starts
 
     Reading input from pw_mp-1087_nscf_k3000_E130.in
Warning: card &IONS ignored
Warning: card / ignored
Warning: card &CELL ignored
Warning: card / ignored

     Current dimensions of program PWSCF are:
     Max number of different atomic species (ntypx) = 10
     Max number of k-points (npk) =  40000
     Max angular momentum in pseudopotentials (lmaxx) =  4

     Atomic positions and unit cell read from directory:
     out/mp-1087.save/
     Atomic positions from file used, from input discarded
 
 
     R & G space division:  proc/nbgrp/npool/nimage =       8
     Subspace diagonalization in iterative solution of the eigenvalue problem:
     a serial algorithm will be used

 
     Parallelization info
     --------------------
     sticks:   dense  smooth     PW     G-vecs:    dense   smooth      PW
     Min         293     293     83                 9370     9370    1413
     Max         294     294     85                 9373     9373    1414
     Sum        2347    2347    673                74969    74969   11311
 
     Using Slab Decomposition
 


     bravais-lattice index     =            2
     lattice parameter (alat)  =      11.4291  a.u.
     unit-cell volume          =     373.2322 (a.u.)^3
     number of atoms/cell      =            2
     number of atomic types    =            2
     number of electrons       =        16.00
     number of Kohn-Sham states=           16
     kinetic-energy cutoff     =     130.0000  Ry
     charge density cutoff     =     520.0000  Ry
     Exchange-correlation= PBE
                           (   1   4   3   4   0   0   0)

     celldm(1)=  11.429126  celldm(2)=   0.000000  celldm(3)=   0.000000
     celldm(4)=   0.000000  celldm(5)=   0.000000  celldm(6)=   0.000000

     crystal axes: (cart. coord. in units of alat)
               a(1) = (  -0.500000   0.000000   0.500000 )  
               a(2) = (   0.000000   0.500000   0.500000 )  
               a(3) = (  -0.500000   0.500000   0.000000 )  

     reciprocal axes: (cart. coord. in units 2 pi/alat)
               b(1) = ( -1.000000 -1.000000  1.000000 )  
               b(2) = (  1.000000  1.000000  1.000000 )  
               b(3) = ( -1.000000  1.000000 -1.000000 )  


     PseudoPot. # 1 for S  read from file:
     /usr/scratch4/magr4985/MG/devEb/pseudo/SG15/S.upf
     MD5 check sum: f71d1a2a52b6d571906ac9250480b432
     Pseudo is Norm-conserving, Zval =  6.0
     Generated using ONCVPSP code by D. R. Hamann
     Using radial grid of  602 points,  4 beta functions with: 
                l(1) =   0
                l(2) =   0
                l(3) =   1
                l(4) =   1

     PseudoPot. # 2 for Sr read from file:
     /usr/scratch4/magr4985/MG/devEb/pseudo/SG15/Sr.upf
     MD5 check sum: 7138e3241744793a1037e143c224f249
     Pseudo is Norm-conserving, Zval = 10.0
     Generated using ONCVPSP code by D. R. Hamann
     Using radial grid of  602 points,  6 beta functions with: 
                l(1) =   0
                l(2) =   0
                l(3) =   1
                l(4) =   1
                l(5) =   2
                l(6) =   2

     atomic species   valence    mass     pseudopotential
        S              6.00    32.06500     S ( 1.00)
        Sr            10.00    87.62000     Sr( 1.00)

     48 Sym. Ops., with inversion, found



   Cartesian axes

     site n.     atom                  positions (alat units)
         1           Sr  tau(   1) = (   0.0000000   0.0000000   0.0000000  )
         2           S   tau(   2) = (  -0.5000000   0.5000000   0.5000000  )

     number of k points=   413  Gaussian smearing, width (Ry)=  0.0005

     Number of k-points >= 100: set verbosity='high' to print them.

     Dense  grid:    74969 G-vectors     FFT dimensions: (  60,  60,  60)

     Estimated max dynamical RAM per process >       9.11 MB

     Estimated total dynamical RAM >      72.88 MB

     The potential is recalculated from file :
     out/mp-1087.save/charge-density

     Starting wfcs are random

     Band Structure Calculation
     Davidson diagonalization with overlap

     ethr =  5.00E-06,  avg # of iterations = 24.6

     total cpu time spent up to now is       78.4 secs

     End of band structure calculation

     Number of k-points >= 100: set verbosity='high' to print the bands.

     the Fermi energy is     6.9835 ev
     (compare with:     6.9905 eV, computed in scf)

     Writing all to output data dir out/mp-1087.save/
 
     init_run     :      0.20s CPU      0.22s WALL (       1 calls)
     electrons    :     74.57s CPU     77.95s WALL (       1 calls)

     Called by init_run:
     wfcinit      :      0.00s CPU      0.00s WALL (       1 calls)
     potinit      :      0.03s CPU      0.04s WALL (       1 calls)
     hinit0       :      0.02s CPU      0.03s WALL (       1 calls)

     Called by electrons:
     c_bands      :     74.57s CPU     77.95s WALL (       1 calls)
     v_of_rho     :      0.02s CPU      0.02s WALL (       1 calls)

     Called by c_bands:
     init_us_2    :      0.11s CPU      0.15s WALL (     413 calls)
     init_us_2:cp :      0.11s CPU      0.15s WALL (     413 calls)
     cegterg      :     69.25s CPU     70.74s WALL (     747 calls)

     Called by *egterg:
     cdiaghg      :      3.60s CPU      3.69s WALL (   10580 calls)
     h_psi        :     61.35s CPU     62.70s WALL (   11327 calls)
     g_psi        :      0.64s CPU      0.65s WALL (   10167 calls)

     Called by h_psi:
     h_psi:calbec :      1.49s CPU      1.58s WALL (   11327 calls)
     vloc_psi     :     58.35s CPU     59.58s WALL (   11327 calls)
     add_vuspsi   :      1.21s CPU      1.25s WALL (   11327 calls)

     General routines
     calbec       :      1.46s CPU      1.54s WALL (   11327 calls)
     fft          :      0.00s CPU      0.01s WALL (      10 calls)
     fftw         :     51.20s CPU     52.26s WALL (  212484 calls)
     davcio       :      0.10s CPU      0.37s WALL (     826 calls)
 
     Parallel routines
 
     PWSCF        :   1m15.91s CPU   1m20.77s WALL

 
   This run was terminated on:  14:33:19   3Jan2024            

=------------------------------------------------------------------------------=
   JOB DONE.
=------------------------------------------------------------------------------=
