
     Program PWSCF v.7.1 starts on  8Apr2024 at 15:10:37 

     This program is part of the open-source Quantum ESPRESSO suite
     for quantum simulation of materials; please cite
         "P. Giannozzi et al., J. Phys.:Condens. Matter 21 395502 (2009);
         "P. Giannozzi et al., J. Phys.:Condens. Matter 29 465901 (2017);
         "P. Giannozzi et al., J. Chem. Phys. 152 154105 (2020);
          URL http://www.quantum-espresso.org", 
     in publications or presentations arising from this work. More details at
     http://www.quantum-espresso.org/quote

     Parallel version (MPI), running on    16 processors

     MPI processes distributed on     1 nodes
     247375 MiB available memory on the printing compute node when the environment starts
 
     Reading input from pw_mp-2472_scf_k3000_E70.in
Warning: card &CELL ignored
Warning: card / ignored

     Current dimensions of program PWSCF are:
     Max number of different atomic species (ntypx) = 10
     Max number of k-points (npk) =  40000
     Max angular momentum in pseudopotentials (lmaxx) =  4
 
     R & G space division:  proc/nbgrp/npool/nimage =      16
     Subspace diagonalization in iterative solution of the eigenvalue problem:
     a serial algorithm will be used

 
     Parallelization info
     --------------------
     sticks:   dense  smooth     PW     G-vecs:    dense   smooth      PW
     Min          57      57     17                 1154     1154     194
     Max          58      58     18                 1158     1158     196
     Sum         925     925    283                18499    18499    3119
 
     Using Slab Decomposition
 


     bravais-lattice index     =            2
     lattice parameter (alat)  =       9.7653  a.u.
     unit-cell volume          =     232.8067 (a.u.)^3
     number of atoms/cell      =            2
     number of atomic types    =            2
     number of electrons       =        16.00
     number of Kohn-Sham states=           16
     kinetic-energy cutoff     =      70.0000  Ry
     charge density cutoff     =     280.0000  Ry
     scf convergence threshold =      1.0E-10
     mixing beta               =       0.7000
     number of iterations used =            8  plain     mixing
     Exchange-correlation= PBE
                           (   1   4   3   4   0   0   0)

     celldm(1)=   9.765290  celldm(2)=   0.000000  celldm(3)=   0.000000
     celldm(4)=   0.000000  celldm(5)=   0.000000  celldm(6)=   0.000000

     crystal axes: (cart. coord. in units of alat)
               a(1) = (  -0.500000   0.000000   0.500000 )  
               a(2) = (   0.000000   0.500000   0.500000 )  
               a(3) = (  -0.500000   0.500000   0.000000 )  

     reciprocal axes: (cart. coord. in units 2 pi/alat)
               b(1) = ( -1.000000 -1.000000  1.000000 )  
               b(2) = (  1.000000  1.000000  1.000000 )  
               b(3) = ( -1.000000  1.000000 -1.000000 )  


     PseudoPot. # 1 for O  read from file:
     /usr/scratch4/magr4826/Promotion/Python/Code/devEb/pseudo/SG15/O.upf
     MD5 check sum: e36c48deb68f4e355fffe4602be2c42c
     Pseudo is Norm-conserving, Zval =  6.0
     Generated using ONCVPSP code by D. R. Hamann
     Using radial grid of  602 points,  4 beta functions with: 
                l(1) =   0
                l(2) =   0
                l(3) =   1
                l(4) =   1

     PseudoPot. # 2 for Sr read from file:
     /usr/scratch4/magr4826/Promotion/Python/Code/devEb/pseudo/SG15/Sr.upf
     MD5 check sum: 3f9bc8d6f3e8472da0cbe0e6a3044a9f
     Pseudo is Norm-conserving, Zval = 10.0
     Generated using ONCVPSP code by D. R. Hamann
     Using radial grid of  602 points,  6 beta functions with: 
                l(1) =   0
                l(2) =   0
                l(3) =   1
                l(4) =   1
                l(5) =   2
                l(6) =   2

     atomic species   valence    mass     pseudopotential
        O              6.00    15.99940     O ( 1.00)
        Sr            10.00    87.62000     Sr( 1.00)

     48 Sym. Ops., with inversion, found



   Cartesian axes

     site n.     atom                  positions (alat units)
         1           Sr  tau(   1) = (  -0.5000000   0.5000000   0.5000000  )
         2           O   tau(   2) = (   0.0000000   0.0000000   0.0000000  )

     number of k points=    72  Gaussian smearing, width (Ry)=  0.0005
                       cart. coord. in units 2pi/alat
        k(    1) = (   0.0000000   0.0000000   0.0000000), wk =   0.0011574
        k(    2) = (  -0.0833333   0.0833333  -0.0833333), wk =   0.0092593
        k(    3) = (  -0.1666667   0.1666667  -0.1666667), wk =   0.0092593
        k(    4) = (  -0.2500000   0.2500000  -0.2500000), wk =   0.0092593
        k(    5) = (  -0.3333333   0.3333333  -0.3333333), wk =   0.0092593
        k(    6) = (  -0.4166667   0.4166667  -0.4166667), wk =   0.0092593
        k(    7) = (   0.5000000  -0.5000000   0.5000000), wk =   0.0046296
        k(    8) = (   0.0000000   0.1666667   0.0000000), wk =   0.0069444
        k(    9) = (  -0.0833333   0.2500000  -0.0833333), wk =   0.0277778
        k(   10) = (  -0.1666667   0.3333333  -0.1666667), wk =   0.0277778
        k(   11) = (  -0.2500000   0.4166667  -0.2500000), wk =   0.0277778
        k(   12) = (  -0.3333333   0.5000000  -0.3333333), wk =   0.0277778
        k(   13) = (   0.5833333  -0.4166667   0.5833333), wk =   0.0277778
        k(   14) = (   0.5000000  -0.3333333   0.5000000), wk =   0.0277778
        k(   15) = (   0.4166667  -0.2500000   0.4166667), wk =   0.0277778
        k(   16) = (   0.3333333  -0.1666667   0.3333333), wk =   0.0277778
        k(   17) = (   0.2500000  -0.0833333   0.2500000), wk =   0.0277778
        k(   18) = (   0.1666667  -0.0000000   0.1666667), wk =   0.0138889
        k(   19) = (   0.0000000   0.3333333   0.0000000), wk =   0.0069444
        k(   20) = (  -0.0833333   0.4166667  -0.0833333), wk =   0.0277778
        k(   21) = (  -0.1666667   0.5000000  -0.1666667), wk =   0.0277778
        k(   22) = (  -0.2500000   0.5833333  -0.2500000), wk =   0.0277778
        k(   23) = (   0.6666667  -0.3333333   0.6666667), wk =   0.0277778
        k(   24) = (   0.5833333  -0.2500000   0.5833333), wk =   0.0277778
        k(   25) = (   0.5000000  -0.1666667   0.5000000), wk =   0.0277778
        k(   26) = (   0.4166667  -0.0833333   0.4166667), wk =   0.0277778
        k(   27) = (   0.3333333   0.0000000   0.3333333), wk =   0.0138889
        k(   28) = (   0.0000000   0.5000000   0.0000000), wk =   0.0069444
        k(   29) = (  -0.0833333   0.5833333  -0.0833333), wk =   0.0277778
        k(   30) = (  -0.1666667   0.6666667  -0.1666667), wk =   0.0277778
        k(   31) = (   0.7500000  -0.2500000   0.7500000), wk =   0.0277778
        k(   32) = (   0.6666667  -0.1666667   0.6666667), wk =   0.0277778
        k(   33) = (   0.5833333  -0.0833333   0.5833333), wk =   0.0277778
        k(   34) = (   0.5000000   0.0000000   0.5000000), wk =   0.0138889
        k(   35) = (   0.0000000   0.6666667   0.0000000), wk =   0.0069444
        k(   36) = (  -0.0833333   0.7500000  -0.0833333), wk =   0.0277778
        k(   37) = (   0.8333333  -0.1666667   0.8333333), wk =   0.0277778
        k(   38) = (   0.7500000  -0.0833333   0.7500000), wk =   0.0277778
        k(   39) = (   0.6666667  -0.0000000   0.6666667), wk =   0.0138889
        k(   40) = (   0.0000000   0.8333333   0.0000000), wk =   0.0069444
        k(   41) = (   0.9166667  -0.0833333   0.9166667), wk =   0.0277778
        k(   42) = (   0.8333333   0.0000000   0.8333333), wk =   0.0138889
        k(   43) = (   0.0000000  -1.0000000   0.0000000), wk =   0.0034722
        k(   44) = (  -0.1666667   0.3333333   0.0000000), wk =   0.0277778
        k(   45) = (  -0.2500000   0.4166667  -0.0833333), wk =   0.0555556
        k(   46) = (  -0.3333333   0.5000000  -0.1666667), wk =   0.0555556
        k(   47) = (   0.5833333  -0.4166667   0.7500000), wk =   0.0555556
        k(   48) = (   0.5000000  -0.3333333   0.6666667), wk =   0.0277778
        k(   49) = (  -0.1666667   0.5000000   0.0000000), wk =   0.0277778
        k(   50) = (  -0.2500000   0.5833333  -0.0833333), wk =   0.0555556
        k(   51) = (   0.6666667  -0.3333333   0.8333333), wk =   0.0555556
        k(   52) = (   0.5833333  -0.2500000   0.7500000), wk =   0.0555556
        k(   53) = (   0.5000000  -0.1666667   0.6666667), wk =   0.0555556
        k(   54) = (   0.4166667  -0.0833333   0.5833333), wk =   0.0555556
        k(   55) = (   0.3333333   0.0000000   0.5000000), wk =   0.0277778
        k(   56) = (  -0.1666667   0.6666667  -0.0000000), wk =   0.0277778
        k(   57) = (   0.7500000  -0.2500000   0.9166667), wk =   0.0555556
        k(   58) = (   0.6666667  -0.1666667   0.8333333), wk =   0.0555556
        k(   59) = (   0.5833333  -0.0833333   0.7500000), wk =   0.0555556
        k(   60) = (   0.5000000   0.0000000   0.6666667), wk =   0.0277778
        k(   61) = (   0.8333333  -0.1666667   1.0000000), wk =   0.0277778
        k(   62) = (   0.7500000  -0.0833333   0.9166667), wk =   0.0555556
        k(   63) = (   0.6666667   0.0000000   0.8333333), wk =   0.0277778
        k(   64) = (  -0.1666667  -1.0000000  -0.0000000), wk =   0.0138889
        k(   65) = (   0.6666667  -0.3333333   1.0000000), wk =   0.0277778
        k(   66) = (   0.5833333  -0.2500000   0.9166667), wk =   0.0555556
        k(   67) = (   0.5000000  -0.1666667   0.8333333), wk =   0.0277778
        k(   68) = (   0.6666667  -0.1666667   1.0000000), wk =   0.0277778
        k(   69) = (   0.5833333  -0.0833333   0.9166667), wk =   0.0555556
        k(   70) = (   0.5000000   0.0000000   0.8333333), wk =   0.0277778
        k(   71) = (  -0.3333333  -1.0000000   0.0000000), wk =   0.0138889
        k(   72) = (  -0.5000000  -1.0000000   0.0000000), wk =   0.0069444

     Dense  grid:    18499 G-vectors     FFT dimensions: (  40,  40,  40)

     Estimated max dynamical RAM per process >       6.33 MB

     Estimated total dynamical RAM >     101.30 MB

     Initial potential from superposition of free atoms

     starting charge      15.7183, renormalised to      16.0000
     Starting wfcs are random

     total cpu time spent up to now is        0.4 secs

     Self-consistent Calculation

     iteration #  1     ecut=    70.00 Ry     beta= 0.70
     Davidson diagonalization with overlap
     c_bands:  1 eigenvalues not converged
     c_bands:  1 eigenvalues not converged
     c_bands:  1 eigenvalues not converged
     c_bands:  1 eigenvalues not converged
     c_bands:  1 eigenvalues not converged
     c_bands:  1 eigenvalues not converged
     ethr =  5.00E-06,  avg # of iterations = 16.7

     total cpu time spent up to now is        2.5 secs

     total energy              =     -94.27073683 Ry
     estimated scf accuracy    <       0.40271690 Ry

     iteration #  2     ecut=    70.00 Ry     beta= 0.70
     Davidson diagonalization with overlap
     ethr =  2.52E-03,  avg # of iterations =  2.4

     total cpu time spent up to now is        3.1 secs

     total energy              =     -94.23314088 Ry
     estimated scf accuracy    <       1.24028468 Ry

     iteration #  3     ecut=    70.00 Ry     beta= 0.70
     Davidson diagonalization with overlap
     ethr =  2.52E-03,  avg # of iterations =  2.0

     total cpu time spent up to now is        3.5 secs

     total energy              =     -94.46940523 Ry
     estimated scf accuracy    <       0.01257760 Ry

     iteration #  4     ecut=    70.00 Ry     beta= 0.70
     Davidson diagonalization with overlap
     ethr =  7.86E-05,  avg # of iterations =  2.2

     total cpu time spent up to now is        3.9 secs

     total energy              =     -94.47160207 Ry
     estimated scf accuracy    <       0.00053146 Ry

     iteration #  5     ecut=    70.00 Ry     beta= 0.70
     Davidson diagonalization with overlap
     ethr =  3.32E-06,  avg # of iterations =  3.4

     total cpu time spent up to now is        4.3 secs

     total energy              =     -94.47169474 Ry
     estimated scf accuracy    <       0.00000993 Ry

     iteration #  6     ecut=    70.00 Ry     beta= 0.70
     Davidson diagonalization with overlap
     ethr =  6.21E-08,  avg # of iterations =  4.3

     total cpu time spent up to now is        4.9 secs

     total energy              =     -94.47169717 Ry
     estimated scf accuracy    <       0.00000081 Ry

     iteration #  7     ecut=    70.00 Ry     beta= 0.70
     Davidson diagonalization with overlap
     ethr =  5.05E-09,  avg # of iterations =  2.7

     total cpu time spent up to now is        5.3 secs

     total energy              =     -94.47169728 Ry
     estimated scf accuracy    <       0.00000001 Ry

     iteration #  8     ecut=    70.00 Ry     beta= 0.70
     Davidson diagonalization with overlap
     ethr =  6.41E-11,  avg # of iterations =  5.2

     total cpu time spent up to now is        5.8 secs

     total energy              =     -94.47169728 Ry
     estimated scf accuracy    <          3.2E-10 Ry

     iteration #  9     ecut=    70.00 Ry     beta= 0.70
     Davidson diagonalization with overlap
     ethr =  1.99E-12,  avg # of iterations =  4.3

     total cpu time spent up to now is        6.8 secs

     End of self-consistent calculation

          k = 0.0000 0.0000 0.0000 (  2277 PWs)   bands (ev):

   -24.6558  -7.2948  -6.3025  -6.3025  -6.3025   7.7314   7.7314   7.7314
    11.6311  13.9604  13.9604  13.9604  16.0996  16.0996  20.2236  30.8663

          k =-0.0833 0.0833-0.0833 (  2298 PWs)   bands (ev):

   -24.6473  -7.4846  -6.3079  -6.3079  -6.1343   7.5145   7.6438   7.6438
    11.9571  13.8754  14.0944  14.0944  16.2792  16.2792  20.6830  30.1552

          k =-0.1667 0.1667-0.1667 (  2289 PWs)   bands (ev):

   -24.6240  -7.8520  -6.3225  -6.3225  -5.8255   7.0245   7.4188   7.4188
    12.7676  13.7483  14.4809  14.4809  16.7731  16.7731  21.8566  28.4753

          k =-0.2500 0.2500-0.2500 (  2289 PWs)   bands (ev):

   -24.5919  -8.2218  -6.3424  -6.3424  -5.5360   6.4826   7.1384   7.1384
    13.6849  13.8749  15.0678  15.0678  17.4789  17.4789  23.1679  26.9915

          k =-0.3333 0.3333-0.3333 (  2301 PWs)   bands (ev):

   -24.5594  -8.5244  -6.3620  -6.3620  -5.3138   6.0222   6.8818   6.8818
    13.9024  14.8844  15.7442  15.7442  18.2936  18.2936  23.3658  25.5190

          k =-0.4167 0.4167-0.4167 (  2316 PWs)   bands (ev):

   -24.5355  -8.7212  -6.3761  -6.3761  -5.1762   5.7183   6.7064   6.7064
    14.1377  15.7123  16.3128  16.3128  19.1105  19.1105  22.6772  23.8573

          k = 0.5000-0.5000 0.5000 (  2332 PWs)   bands (ev):

   -24.5267  -8.7894  -6.3813  -6.3813  -5.1298   5.6121   6.6443   6.6443
    14.2496  16.0368  16.5387  16.5387  19.5538  19.5538  22.3472  23.1056

          k = 0.0000 0.1667 0.0000 (  2297 PWs)   bands (ev):

   -24.6445  -7.5209  -6.3263  -6.3263  -6.0761   7.3327   7.6970   7.6970
    12.0228  13.6260  14.2524  14.2524  16.1932  16.4744  20.8260  30.3480

          k =-0.0833 0.2500-0.0833 (  2290 PWs)   bands (ev):

   -24.6262  -7.7808  -6.3523  -6.3390  -5.8588   6.9543   7.5411   7.5875
    12.5925  13.3938  14.5851  14.6524  16.4615  16.9506  21.7465  28.7152

          k =-0.1667 0.3333-0.1667 (  2282 PWs)   bands (ev):

   -24.5971  -8.1094  -6.3786  -6.3518  -5.6172   6.5440   7.2374   7.3606
    13.3603  13.4860  15.0491  15.2374  17.0393  17.5867  23.0471  26.8408

          k =-0.2500 0.4167-0.2500 (  2301 PWs)   bands (ev):

   -24.5648  -8.4090  -6.3983  -6.3747  -5.4130   6.1693   6.9405   7.0938
    13.5558  14.4407  15.6682  15.8921  17.8457  18.2744  23.5598  25.5703

          k =-0.3333 0.5000-0.3333 (  2298 PWs)   bands (ev):

   -24.5381  -8.6267  -6.4061  -6.4030  -5.2708   5.8845   6.7471   6.8599
    13.9042  15.1439  16.3909  16.4278  18.7668  18.9622  22.6673  23.9786

          k = 0.5833-0.4167 0.5833 (  2309 PWs)   bands (ev):

   -24.5242  -8.7326  -6.4290  -6.4002  -5.2007   5.7351   6.6910   6.7093
    14.1967  15.4447  16.6346  16.9085  19.4396  19.5419  21.9455  23.2133

          k = 0.5000-0.3333 0.5000 (  2310 PWs)   bands (ev):

   -24.5271  -8.7134  -6.4449  -6.3821  -5.2065   5.7526   6.6699   6.7718
    14.1823  15.4249  16.3981  16.8503  19.3086  19.4498  22.0292  23.5904

          k = 0.4167-0.2500 0.4167 (  2303 PWs)   bands (ev):

   -24.5460  -8.5721  -6.4453  -6.3565  -5.2904   5.9411   6.7486   6.9679
    13.9123  14.9951  15.8163  16.3719  18.6013  18.7150  22.9064  24.4059

          k = 0.3333-0.1667 0.3333 (  2309 PWs)   bands (ev):

   -24.5755  -8.3278  -6.4284  -6.3302  -5.4511   6.2774   6.9323   7.2346
    13.6493  14.1546  15.1374  15.7656  17.6701  18.0142  23.5919  25.2902

          k = 0.2500-0.0833 0.2500 (  2286 PWs)   bands (ev):

   -24.6077  -8.0165  -6.3958  -6.3102  -5.6777   6.7158   7.1861   7.4991
    13.1973  13.5674  14.5633  15.1187  16.9202  17.3033  22.6091  26.9281

          k = 0.1667-0.0000 0.1667 (  2303 PWs)   bands (ev):

   -24.6339  -7.6988  -6.3514  -6.3020  -5.9376   7.1771   7.4491   7.6569
    12.3996  13.6816  14.2005  14.5274  16.4341  16.6838  21.3710  28.9266

          k = 0.0000 0.3333 0.0000 (  2277 PWs)   bands (ev):

   -24.6137  -7.8482  -6.3912  -6.3912  -5.7926   6.6959   7.6308   7.6308
    12.7869  12.9015  15.0531  15.0531  16.4621  17.3448  22.3415  28.5682

          k =-0.0833 0.4167-0.0833 (  2287 PWs)   bands (ev):

   -24.5898  -8.0310  -6.4288  -6.4200  -5.6968   6.4676   7.4801   7.5315
    12.6608  13.3817  15.5641  15.6240  16.8084  17.8254  23.4460  26.7382

          k =-0.1667 0.5000-0.1667 (  2308 PWs)   bands (ev):

   -24.5607  -8.2526  -6.4550  -6.4502  -5.5927   6.3074   7.1814   7.3294
    12.7443  14.2090  16.0813  16.2390  17.4826  18.3297  23.9526  25.5015

          k =-0.2500 0.5833-0.2500 (  2309 PWs)   bands (ev):

   -24.5341  -8.4451  -6.4994  -6.4632  -5.4901   6.1917   6.9124   7.0931
    13.1265  14.9034  16.5857  16.7239  18.3774  18.9249  22.6129  24.2241

          k = 0.6667-0.3333 0.6667 (  2318 PWs)   bands (ev):

   -24.5174  -8.5670  -6.5568  -6.4512  -5.4032   6.0714   6.8187   6.8861
    13.6983  15.0622  16.9151  17.0232  19.1371  19.6617  21.5214  23.5068

          k = 0.5833-0.2500 0.5833 (  2305 PWs)   bands (ev):

   -24.5151  -8.5984  -6.6000  -6.4222  -5.3481   5.9800   6.7539   6.9086
    14.1747  14.8455  16.6881  17.0394  19.2942  20.1172  21.2500  23.8097

          k = 0.5000-0.1667 0.5000 (  2302 PWs)   bands (ev):

   -24.5280  -8.5386  -6.6091  -6.3837  -5.3415   5.9888   6.7209   7.1010
    14.0020  14.8153  16.1143  16.6293  19.0047  19.5453  21.8376  24.0672

          k = 0.4167-0.0833 0.4167 (  2304 PWs)   bands (ev):

   -24.5523  -8.4020  -6.5735  -6.3457  -5.3960   6.1245   6.7933   7.3174
    13.6498  14.4537  15.4493  16.2534  18.4227  18.5241  23.1077  24.4075

          k = 0.3333 0.0000 0.3333 (  2293 PWs)   bands (ev):

   -24.5815  -8.2156  -6.4957  -6.3188  -5.5142   6.3784   6.9596   7.4752
    13.4866  13.8017  14.8985  15.8012  17.4626  17.9275  23.6897  24.8952

          k = 0.0000 0.5000 0.0000 (  2293 PWs)   bands (ev):

   -24.5719  -8.0255  -6.4790  -6.4790  -5.7852   6.4236   7.5902   7.5902
    12.1538  13.6175  16.1806  16.1806  16.8665  18.0590  24.3533  26.6963

          k =-0.0833 0.5833-0.0833 (  2310 PWs)   bands (ev):

   -24.5481  -8.0955  -6.5265  -6.5163  -5.8449   6.4542   7.4639   7.5173
    11.9984  14.1990  16.6998  16.7530  17.2984  18.3141  24.4476  25.5195

          k =-0.1667 0.6667-0.1667 (  2307 PWs)   bands (ev):

   -24.5247  -8.2021  -6.6133  -6.5310  -5.8163   6.5326   7.1929   7.3447
    12.2191  14.9136  16.8426  17.1582  18.0597  18.9123  22.6444  24.4964

          k = 0.7500-0.2500 0.7500 (  2313 PWs)   bands (ev):

   -24.5081  -8.3045  -6.7263  -6.5196  -5.7093   6.5325   7.0045   7.1316
    12.7567  15.2755  16.7973  17.3513  18.7493  19.9235  21.2877  23.8855

          k = 0.6667-0.1667 0.6667 (  2304 PWs)   bands (ev):

   -24.5027  -8.3812  -6.8034  -6.4848  -5.5779   6.3453   6.9351   7.0711
    13.4922  14.9421  16.8510  17.1645  19.0663  20.5254  21.1129  23.9003

          k = 0.5833-0.0833 0.5833 (  2305 PWs)   bands (ev):

   -24.5102  -8.4258  -6.8018  -6.4354  -5.4651   6.1660   6.7976   7.2084
    14.1819  14.4031  16.6154  16.6335  19.0878  20.6053  21.2642  23.5819

          k = 0.5000 0.0000 0.5000 (  2305 PWs)   bands (ev):

   -24.5284  -8.4344  -6.7157  -6.3844  -5.3993   6.0859   6.7465   7.3064
    13.8872  14.5879  15.9735  16.3897  18.9022  19.6724  21.8191  24.1931

          k = 0.0000 0.6667 0.0000 (  2297 PWs)   bands (ev):

   -24.5304  -7.9822  -6.5659  -6.5659  -6.1157   6.6348   7.5955   7.5955
    11.5574  14.4700  17.3269  17.3915  17.3915  18.1680  24.1086  25.2787

          k =-0.0833 0.7500-0.0833 (  2314 PWs)   bands (ev):

   -24.5123  -7.9379  -6.6808  -6.5914  -6.2178   6.8307   7.4861   7.5412
    11.5213  14.9935  17.3471  17.5645  18.0082  18.6967  22.6225  24.5751

          k = 0.8333-0.1667 0.8333 (  2312 PWs)   bands (ev):

   -24.4987  -7.9665  -6.8948  -6.5864  -6.0800   6.9742   7.2335   7.3818
    11.8817  15.5665  16.7155  17.8325  18.4344  19.8839  21.3019  24.1436

          k = 0.7500-0.0833 0.7500 (  2299 PWs)   bands (ev):

   -24.4932  -8.0796  -7.0058  -6.5522  -5.8657   6.7740   7.1695   7.2070
    12.5549  15.5343  16.4674  17.7615  18.6944  20.4902  21.2686  23.7922

          k = 0.6667-0.0000 0.6667 (  2301 PWs)   bands (ev):

   -24.4975  -8.2556  -6.9576  -6.4971  -5.6481   6.4430   6.9590   7.2466
    13.4097  14.8859  16.6201  17.2366  18.9568  20.3315  22.5330  22.6098

          k = 0.0000 0.8333 0.0000 (  2305 PWs)   bands (ev):

   -24.5002  -7.7089  -6.6608  -6.6289  -6.6289   7.0663   7.6230   7.6230
    11.1817  15.1903  17.7124  17.9722  18.3705  18.3705  22.1159  24.3252

          k = 0.9167-0.0833 0.9167 (  2300 PWs)   bands (ev):

   -24.4917  -7.5872  -7.0405  -6.6345  -6.4538   7.2184   7.5077   7.5687
    11.2747  15.5345  17.2855  17.9311  18.5714  19.3625  21.3159  24.0974

          k = 0.8333 0.0000 0.8333 (  2304 PWs)   bands (ev):

   -24.4892  -7.7449  -7.1461  -6.6067  -6.1746   7.1882   7.2672   7.4006
    11.7664  15.9746  16.3837  18.2804  18.3218  20.5384  20.7368  23.9122

          k = 0.0000-1.0000 0.0000 (  2298 PWs)   bands (ev):

   -24.4892  -7.2625  -7.2170  -6.6519  -6.6519   7.2874   7.6377   7.6377
    11.0540  15.4661  17.8669  17.9380  18.7589  18.7589  21.2752  23.9880

          k =-0.1667 0.3333 0.0000 (  2280 PWs)   bands (ev):

   -24.6050  -7.9838  -6.4194  -6.3419  -5.6987   6.6281   7.3319   7.5790
    13.1378  13.1449  14.9009  15.2709  16.7616  17.4747  22.7429  26.9113

          k =-0.2500 0.4167-0.0833 (  2300 PWs)   bands (ev):

   -24.5759  -8.2273  -6.4795  -6.3551  -5.5380   6.3388   7.0577   7.4207
    13.1568  13.9151  15.3680  15.9014  17.4010  18.0753  23.8247  25.0431

          k =-0.3333 0.5000-0.1667 (  2315 PWs)   bands (ev):

   -24.5466  -8.4450  -6.5159  -6.3841  -5.4120   6.1148   6.8376   7.1787
    13.4368  14.6639  15.9756  16.3995  18.2977  18.7089  22.9973  24.5234

          k = 0.5833-0.4167 0.7500 (  2307 PWs)   bands (ev):

   -24.5249  -8.5927  -6.5289  -6.4170  -5.3341   5.9676   6.7393   6.9463
    13.8879  14.9936  16.5626  16.8322  19.0519  19.4808  21.8390  23.7469

          k = 0.5000-0.3333 0.6667 (  2306 PWs)   bands (ev):

   -24.5170  -8.6448  -6.5295  -6.4330  -5.3080   5.9147   6.7604   6.8077
    14.1869  14.9489  16.7816  17.1038  19.3816  19.8813  21.3867  23.5998

          k =-0.1667 0.5000 0.0000 (  2305 PWs)   bands (ev):

   -24.5659  -8.1413  -6.5113  -6.4311  -5.6798   6.3719   7.3025   7.5250
    12.4615  13.9192  16.0503  16.2278  17.2160  18.2164  24.4203  24.9346

          k =-0.2500 0.5833-0.0833 (  2306 PWs)   bands (ev):

   -24.5397  -8.2731  -6.5794  -6.4656  -5.6366   6.3460   7.0568   7.3881
    12.6052  14.5936  16.5084  16.6238  17.9507  18.7620  23.1156  24.7008

          k = 0.6667-0.3333 0.8333 (  2303 PWs)   bands (ev):

   -24.5182  -8.3862  -6.6315  -6.5099  -5.5713   6.3256   6.8948   7.1787
    13.0542  14.9973  16.6874  17.0612  18.6754  19.6160  21.7266  23.9504

          k = 0.5833-0.2500 0.7500 (  2302 PWs)   bands (ev):

   -24.5074  -8.4542  -6.6823  -6.5152  -5.5051   6.2440   6.9118   6.9861
    13.6990  14.7525  16.9174  17.2006  19.1580  20.3929  20.9490  23.8337

          k = 0.5000-0.1667 0.6667 (  2307 PWs)   bands (ev):

   -24.5101  -8.4663  -6.7089  -6.4786  -5.4589   6.1671   6.8225   7.0878
    14.0535  14.4699  16.8026  16.9399  19.1296  20.4648  21.0958  23.6922

          k = 0.4167-0.0833 0.5833 (  2306 PWs)   bands (ev):

   -24.5257  -8.4244  -6.6823  -6.4251  -5.4466   6.1518   6.7884   7.2668
    13.5577  14.7091  16.3912  16.4819  18.7936  19.6587  21.8256  24.1573

          k = 0.3333 0.0000 0.5000 (  2308 PWs)   bands (ev):

   -24.5498  -8.3395  -6.5986  -6.3781  -5.4745   6.2063   6.8754   7.3986
    13.2192  14.4128  15.8121  16.2986  18.1749  18.6677  23.1717  24.4619

          k =-0.1667 0.6667-0.0000 (  2305 PWs)   bands (ev):

   -24.5272  -8.0925  -6.6022  -6.5687  -5.9367   6.5911   7.3258   7.5189
    11.9019  14.7054  16.9153  17.3075  17.7103  18.6994  23.1286  24.8380

          k = 0.7500-0.2500 0.9167 (  2309 PWs)   bands (ev):

   -24.5088  -8.1208  -6.7266  -6.6235  -5.8873   6.7214   7.1173   7.3983
    12.1825  15.2183  16.6467  17.6871  18.2992  19.6195  21.7436  24.1155

          k = 0.6667-0.1667 0.8333 (  2300 PWs)   bands (ev):

   -24.4979  -8.1762  -6.8619  -6.6147  -5.7633   6.6488   7.0894   7.2075
    12.7746  15.1686  16.5401  17.7911  18.8178  20.6768  20.8249  23.7889

          k = 0.5833-0.0833 0.7500 (  2302 PWs)   bands (ev):

   -24.4975  -8.2600  -6.9026  -6.5652  -5.6306   6.4410   6.9992   7.2061
    13.5582  14.5541  16.6297  17.5228  19.0082  20.3978  21.7682  23.2094

          k = 0.5000 0.0000 0.6667 (  2299 PWs)   bands (ev):

   -24.5077  -8.3542  -6.8304  -6.4937  -5.5204   6.2660   6.8473   7.2766
    13.9487  14.3164  16.5252  16.9669  18.9909  20.5890  21.3660  23.4894

          k = 0.8333-0.1667 1.0000 (  2312 PWs)   bands (ev):

   -24.4991  -7.8358  -6.8497  -6.6680  -6.2282   7.0340   7.3656   7.5385
    11.5468  15.4016  16.9500  17.9716  18.3433  19.3849  21.6662  24.0743

          k = 0.7500-0.0833 0.9167 (  2306 PWs)   bands (ev):

   -24.4911  -7.8411  -7.0465  -6.6868  -6.0498   7.0481   7.2288   7.4179
    11.9602  15.7580  16.2499  18.2989  18.5480  20.4163  20.8775  23.6448

          k = 0.6667 0.0000 0.8333 (  2291 PWs)   bands (ev):

   -24.4905  -8.0158  -7.0489  -6.6443  -5.8350   6.7526   7.2190   7.2559
    12.6754  15.2195  16.3573  18.1282  18.7376  20.3810  21.6211  23.1993

          k =-0.1667-1.0000-0.0000 (  2306 PWs)   bands (ev):

   -24.4888  -7.5405  -7.1812  -6.6919  -6.3182   7.2770   7.3691   7.5502
    11.4259  15.7174  16.8006  18.0976  18.7628  19.7840  20.9893  23.7471

          k = 0.6667-0.3333 1.0000 (  2302 PWs)   bands (ev):

   -24.5187  -8.2774  -6.6998  -6.5389  -5.6411   6.4206   6.9347   7.3756
    12.7980  14.8830  16.4799  17.1096  18.4587  19.6862  21.8574  24.1933

          k = 0.5833-0.2500 0.9167 (  2298 PWs)   bands (ev):

   -24.5032  -8.2697  -6.7819  -6.6292  -5.6237   6.4475   6.9555   7.2668
    13.2876  14.6597  16.5147  17.5915  18.8740  20.5248  21.1912  23.5360

          k = 0.5000-0.1667 0.8333 (  2296 PWs)   bands (ev):

   -24.4975  -8.2643  -6.8098  -6.6700  -5.6141   6.4393   7.0740   7.1312
    13.9208  14.0434  16.6378  17.7689  19.0962  20.5378  21.2395  23.4903

          k = 0.6667-0.1667 1.0000 (  2296 PWs)   bands (ev):

   -24.4962  -8.0445  -6.8435  -6.7730  -5.8299   6.7663   7.1085   7.3856
    12.5023  15.1636  16.3037  18.2683  18.5803  20.4079  21.1679  23.4533

          k = 0.5833-0.0833 0.9167 (  2297 PWs)   bands (ev):

   -24.4904  -8.0320  -6.9507  -6.8044  -5.7412   6.6527   7.2170   7.2812
    13.1184  14.5212  16.3449  18.4391  18.9218  20.4045  21.5980  22.8938

          k = 0.5000 0.0000 0.8333 (  2293 PWs)   bands (ev):

   -24.4930  -8.1269  -6.9129  -6.7496  -5.6713   6.5414   7.1146   7.2839
    13.8060  13.9156  16.4370  18.1727  18.9696  20.3506  22.0824  22.6173

          k =-0.3333-1.0000 0.0000 (  2284 PWs)   bands (ev):

   -24.4880  -7.8469  -7.0818  -6.7996  -5.8960   6.8747   7.2652   7.3943
    12.3988  15.2636  16.1227  18.6599  18.7706  20.5331  21.0249  23.0944

          k =-0.5000-1.0000 0.0000 (  2268 PWs)   bands (ev):

   -24.4877  -7.9595  -6.9428  -6.9428  -5.7235   6.6438   7.2926   7.2926
    13.7405  13.7405  16.2872  18.7745  18.9888  20.3417  22.1540  22.1540

     the Fermi energy is    10.0612 ev

!    total energy              =     -94.47169728 Ry
     estimated scf accuracy    <          2.2E-12 Ry
     smearing contrib. (-TS)   =      -0.00000000 Ry
     internal energy E=F+TS    =     -94.47169728 Ry

     The total energy is F=E-TS. E is the sum of the following terms:
     one-electron contribution =     -18.77030208 Ry
     hartree contribution      =      17.45689637 Ry
     xc contribution           =     -15.91438212 Ry
     ewald contribution        =     -77.24390946 Ry

     convergence has been achieved in   9 iterations

     Writing all to output data dir out/mp-2472.save/
 
     init_run     :      0.19s CPU      0.23s WALL (       1 calls)
     electrons    :      5.24s CPU      6.39s WALL (       1 calls)

     Called by init_run:
     wfcinit      :      0.16s CPU      0.19s WALL (       1 calls)
     potinit      :      0.01s CPU      0.01s WALL (       1 calls)
     hinit0       :      0.01s CPU      0.02s WALL (       1 calls)

     Called by electrons:
     c_bands      :      4.74s CPU      5.85s WALL (       9 calls)
     sum_band     :      0.49s CPU      0.50s WALL (       9 calls)
     v_of_rho     :      0.02s CPU      0.02s WALL (      10 calls)
     mix_rho      :      0.00s CPU      0.00s WALL (       9 calls)

     Called by c_bands:
     init_us_2    :      0.04s CPU      0.04s WALL (    1368 calls)
     init_us_2:cp :      0.03s CPU      0.04s WALL (    1368 calls)
     cegterg      :      4.61s CPU      4.82s WALL (     648 calls)

     Called by *egterg:
     cdiaghg      :      0.85s CPU      0.88s WALL (    3763 calls)
     h_psi        :      3.61s CPU      3.79s WALL (    3835 calls)
     g_psi        :      0.01s CPU      0.01s WALL (    3115 calls)

     Called by h_psi:
     h_psi:calbec :      0.08s CPU      0.08s WALL (    3835 calls)
     vloc_psi     :      3.48s CPU      3.65s WALL (    3835 calls)
     add_vuspsi   :      0.04s CPU      0.04s WALL (    3835 calls)

     General routines
     calbec       :      0.07s CPU      0.08s WALL (    3835 calls)
     fft          :      0.01s CPU      0.02s WALL (      99 calls)
     ffts         :      0.00s CPU      0.00s WALL (       9 calls)
     fftw         :      3.66s CPU      3.84s WALL (   86678 calls)
 
     Parallel routines
 
     PWSCF        :      5.54s CPU      7.15s WALL

 
   This run was terminated on:  15:10:44   8Apr2024            

=------------------------------------------------------------------------------=
   JOB DONE.
=------------------------------------------------------------------------------=
