
     Program PWSCF v.7.1 starts on 11Apr2024 at 15: 4:55 

     This program is part of the open-source Quantum ESPRESSO suite
     for quantum simulation of materials; please cite
         "P. Giannozzi et al., J. Phys.:Condens. Matter 21 395502 (2009);
         "P. Giannozzi et al., J. Phys.:Condens. Matter 29 465901 (2017);
         "P. Giannozzi et al., J. Chem. Phys. 152 154105 (2020);
          URL http://www.quantum-espresso.org", 
     in publications or presentations arising from this work. More details at
     http://www.quantum-espresso.org/quote

     Parallel version (MPI), running on    16 processors

     MPI processes distributed on     1 nodes
     222961 MiB available memory on the printing compute node when the environment starts
 
     Reading input from pw_KRrBr2_scf_k3000_E65.in
Warning: card &CELL ignored
Warning: card / ignored

     Current dimensions of program PWSCF are:
     Max number of different atomic species (ntypx) = 10
     Max number of k-points (npk) =  40000
     Max angular momentum in pseudopotentials (lmaxx) =  4
 
     R & G space division:  proc/nbgrp/npool/nimage =      16
     Subspace diagonalization in iterative solution of the eigenvalue problem:
     a serial algorithm will be used

 
     Parallelization info
     --------------------
     sticks:   dense  smooth     PW     G-vecs:    dense   smooth      PW
     Min         135     135     38                 4180     4180     629
     Max         136     136     39                 4185     4185     631
     Sum        2173    2173    613                66923    66923   10081
 
     Using Slab Decomposition
 


     bravais-lattice index     =            2
     lattice parameter (alat)  =      15.5642  a.u.
     unit-cell volume          =     942.5781 (a.u.)^3
     number of atoms/cell      =            4
     number of atomic types    =            3
     number of electrons       =        32.00
     number of Kohn-Sham states=           32
     kinetic-energy cutoff     =      65.0000  Ry
     charge density cutoff     =     260.0000  Ry
     scf convergence threshold =      1.0E-10
     mixing beta               =       0.7000
     number of iterations used =            8  plain     mixing
     Exchange-correlation= PBE
                           (   1   4   3   4   0   0   0)

     celldm(1)=  15.564163  celldm(2)=   0.000000  celldm(3)=   0.000000
     celldm(4)=   0.000000  celldm(5)=   0.000000  celldm(6)=   0.000000

     crystal axes: (cart. coord. in units of alat)
               a(1) = (  -0.500000   0.000000   0.500000 )  
               a(2) = (   0.000000   0.500000   0.500000 )  
               a(3) = (  -0.500000   0.500000   0.000000 )  

     reciprocal axes: (cart. coord. in units 2 pi/alat)
               b(1) = ( -1.000000 -1.000000  1.000000 )  
               b(2) = (  1.000000  1.000000  1.000000 )  
               b(3) = ( -1.000000  1.000000 -1.000000 )  


     PseudoPot. # 1 for Br read from file:
     /usr/scratch4/magr4826/Promotion/Python/Code/devEb/pseudo/SG15/Br.upf
     MD5 check sum: 5b50323dbf1c0ae0ed9e7f1e72c3f86c
     Pseudo is Norm-conserving, Zval =  7.0
     Generated using ONCVPSP code by D. R. Hamann
     Using radial grid of  602 points,  6 beta functions with: 
                l(1) =   0
                l(2) =   0
                l(3) =   1
                l(4) =   1
                l(5) =   2
                l(6) =   2

     PseudoPot. # 2 for K  read from file:
     /usr/scratch4/magr4826/Promotion/Python/Code/devEb/pseudo/SG15/K.upf
     MD5 check sum: 254690d02b26e0029262a4c77e854448
     Pseudo is Norm-conserving, Zval =  9.0
     Generated using ONCVPSP code by D. R. Hamann
     Using radial grid of  602 points,  6 beta functions with: 
                l(1) =   0
                l(2) =   0
                l(3) =   1
                l(4) =   1
                l(5) =   2
                l(6) =   2

     PseudoPot. # 3 for Rb read from file:
     /usr/scratch4/magr4826/Promotion/Python/Code/devEb/pseudo/SG15/Rb.upf
     MD5 check sum: bb775b689f47c500e9d7b0b27148fdc3
     Pseudo is Norm-conserving, Zval =  9.0
     Generated using ONCVPSP code by D. R. Hamann
     Using radial grid of  602 points,  6 beta functions with: 
                l(1) =   0
                l(2) =   0
                l(3) =   1
                l(4) =   1
                l(5) =   2
                l(6) =   2

     atomic species   valence    mass     pseudopotential
        Br             7.00    79.90400     Br( 1.00)
        K              9.00    39.09830     K ( 1.00)
        Rb             9.00    85.46780     Rb( 1.00)

     48 Sym. Ops., with inversion, found



   Cartesian axes

     site n.     atom                  positions (alat units)
         1           K   tau(   1) = (   0.0000000   0.0000000   0.0000000  )
         2           Rb  tau(   2) = (  -0.5000000   0.5000000   0.5000000  )
         3           Br  tau(   3) = (  -0.7500000   0.7500001   0.7500001  )
         4           Br  tau(   4) = (  -0.2500000   0.2500000   0.2500001  )

     number of k points=    47  Gaussian smearing, width (Ry)=  0.0005
                       cart. coord. in units 2pi/alat
        k(    1) = (   0.0000000   0.0000000   0.0000000), wk =   0.0020000
        k(    2) = (  -0.1000000   0.1000000  -0.1000000), wk =   0.0160000
        k(    3) = (  -0.2000000   0.2000000  -0.2000000), wk =   0.0160000
        k(    4) = (  -0.3000000   0.3000000  -0.3000000), wk =   0.0160000
        k(    5) = (  -0.4000000   0.4000000  -0.4000000), wk =   0.0160000
        k(    6) = (   0.5000000  -0.5000000   0.5000000), wk =   0.0080000
        k(    7) = (   0.0000000   0.2000000   0.0000000), wk =   0.0120000
        k(    8) = (  -0.1000000   0.3000000  -0.1000000), wk =   0.0480000
        k(    9) = (  -0.2000000   0.4000000  -0.2000000), wk =   0.0480000
        k(   10) = (  -0.3000000   0.5000000  -0.3000000), wk =   0.0480000
        k(   11) = (   0.6000000  -0.4000000   0.6000000), wk =   0.0480000
        k(   12) = (   0.5000000  -0.3000000   0.5000000), wk =   0.0480000
        k(   13) = (   0.4000000  -0.2000000   0.4000000), wk =   0.0480000
        k(   14) = (   0.3000000  -0.1000000   0.3000000), wk =   0.0480000
        k(   15) = (   0.2000000   0.0000000   0.2000000), wk =   0.0240000
        k(   16) = (   0.0000000   0.4000000   0.0000000), wk =   0.0120000
        k(   17) = (  -0.1000000   0.5000000  -0.1000000), wk =   0.0480000
        k(   18) = (  -0.2000000   0.6000000  -0.2000000), wk =   0.0480000
        k(   19) = (   0.7000000  -0.3000000   0.7000000), wk =   0.0480000
        k(   20) = (   0.6000000  -0.2000000   0.6000000), wk =   0.0480000
        k(   21) = (   0.5000000  -0.1000000   0.5000000), wk =   0.0480000
        k(   22) = (   0.4000000   0.0000000   0.4000000), wk =   0.0240000
        k(   23) = (   0.0000000   0.6000000   0.0000000), wk =   0.0120000
        k(   24) = (  -0.1000000   0.7000000  -0.1000000), wk =   0.0480000
        k(   25) = (   0.8000000  -0.2000000   0.8000000), wk =   0.0480000
        k(   26) = (   0.7000000  -0.1000000   0.7000000), wk =   0.0480000
        k(   27) = (   0.6000000  -0.0000000   0.6000000), wk =   0.0240000
        k(   28) = (   0.0000000   0.8000000   0.0000000), wk =   0.0120000
        k(   29) = (   0.9000000  -0.1000000   0.9000000), wk =   0.0480000
        k(   30) = (   0.8000000   0.0000000   0.8000000), wk =   0.0240000
        k(   31) = (   0.0000000  -1.0000000   0.0000000), wk =   0.0060000
        k(   32) = (  -0.2000000   0.4000000   0.0000000), wk =   0.0480000
        k(   33) = (  -0.3000000   0.5000000  -0.1000000), wk =   0.0960000
        k(   34) = (   0.6000000  -0.4000000   0.8000000), wk =   0.0960000
        k(   35) = (   0.5000000  -0.3000000   0.7000000), wk =   0.0480000
        k(   36) = (  -0.2000000   0.6000000   0.0000000), wk =   0.0480000
        k(   37) = (   0.7000000  -0.3000000   0.9000000), wk =   0.0960000
        k(   38) = (   0.6000000  -0.2000000   0.8000000), wk =   0.0960000
        k(   39) = (   0.5000000  -0.1000000   0.7000000), wk =   0.0960000
        k(   40) = (   0.4000000   0.0000000   0.6000000), wk =   0.0480000
        k(   41) = (   0.8000000  -0.2000000   1.0000000), wk =   0.0480000
        k(   42) = (   0.7000000  -0.1000000   0.9000000), wk =   0.0960000
        k(   43) = (   0.6000000   0.0000000   0.8000000), wk =   0.0480000
        k(   44) = (  -0.2000000  -1.0000000   0.0000000), wk =   0.0240000
        k(   45) = (   0.6000000  -0.2000000   1.0000000), wk =   0.0480000
        k(   46) = (   0.5000000  -0.1000000   0.9000000), wk =   0.0480000
        k(   47) = (  -0.4000000  -1.0000000   0.0000000), wk =   0.0240000

     Dense  grid:    66923 G-vectors     FFT dimensions: (  60,  60,  60)

     Estimated max dynamical RAM per process >      20.18 MB

     Estimated total dynamical RAM >     322.91 MB

     Initial potential from superposition of free atoms

     starting charge      31.4092, renormalised to      32.0000
     Starting wfcs are random

     total cpu time spent up to now is        0.9 secs

     Self-consistent Calculation

     iteration #  1     ecut=    65.00 Ry     beta= 0.70
     ParO style diagonalization
     ethr =  5.00E-06,  avg # of iterations = 28.4

     total cpu time spent up to now is       13.4 secs

     total energy              =    -160.15499270 Ry
     estimated scf accuracy    <       0.12650715 Ry

     iteration #  2     ecut=    65.00 Ry     beta= 0.70
     ParO style diagonalization
     ethr =  3.95E-04,  avg # of iterations =  8.9

     total cpu time spent up to now is       16.8 secs

     total energy              =    -160.19069621 Ry
     estimated scf accuracy    <       0.02729656 Ry

     iteration #  3     ecut=    65.00 Ry     beta= 0.70
     ParO style diagonalization
     ethr =  8.53E-05,  avg # of iterations =  6.8

     total cpu time spent up to now is       19.3 secs

     total energy              =    -160.19609473 Ry
     estimated scf accuracy    <       0.00061320 Ry

     iteration #  4     ecut=    65.00 Ry     beta= 0.70
     ParO style diagonalization
     ethr =  1.92E-06,  avg # of iterations =  7.3

     total cpu time spent up to now is       22.6 secs

     total energy              =    -160.19618891 Ry
     estimated scf accuracy    <       0.00002938 Ry

     iteration #  5     ecut=    65.00 Ry     beta= 0.70
     ParO style diagonalization
     ethr =  9.18E-08,  avg # of iterations =  7.1

     total cpu time spent up to now is       25.4 secs

     total energy              =    -160.19619482 Ry
     estimated scf accuracy    <       0.00000074 Ry

     iteration #  6     ecut=    65.00 Ry     beta= 0.70
     ParO style diagonalization
     ethr =  2.32E-09,  avg # of iterations =  8.1

     total cpu time spent up to now is       29.9 secs

     total energy              =    -160.19619506 Ry
     estimated scf accuracy    <       0.00000002 Ry

     iteration #  7     ecut=    65.00 Ry     beta= 0.70
     ParO style diagonalization
     ethr =  6.38E-11,  avg # of iterations =  8.2

     total cpu time spent up to now is       33.4 secs

     total energy              =    -160.19619506 Ry
     estimated scf accuracy    <          1.1E-09 Ry

     iteration #  8     ecut=    65.00 Ry     beta= 0.70
     ParO style diagonalization
     ethr =  3.29E-12,  avg # of iterations =  8.3

     total cpu time spent up to now is       38.1 secs

     End of self-consistent calculation

          k = 0.0000 0.0000 0.0000 (  8363 PWs)   bands (ev):

   -26.4452 -22.7417 -10.3333 -10.0280  -9.9319  -9.9319  -9.9318  -6.8591
    -6.8591  -6.8591   1.0024   1.0024   1.0024   2.1189   2.1189   2.1189
     6.1936   8.0637   8.0637  10.0451  10.0451  10.0451  11.5057  11.5057
    11.5057  12.0990  12.0990  12.0990  13.4965  13.4965  14.2593  14.9316

          k =-0.1000 0.1000-0.1000 (  8348 PWs)   bands (ev):

   -26.4452 -22.7417 -10.3427 -10.0375  -9.9320  -9.9320  -9.9161  -6.8603
    -6.8603  -6.8545   1.0283   1.0283   1.0478   2.0255   2.0855   2.0855
     6.3849   8.1684   8.1684   9.8255  10.0145  10.0145  11.4382  11.5024
    11.5024  12.0298  12.0298  12.1822  13.5310  13.5310  14.5530  14.8054

          k =-0.2000 0.2000-0.2000 (  8321 PWs)   bands (ev):

   -26.4451 -22.7414 -10.3599 -10.0723  -9.9323  -9.9323  -9.8722  -6.8634
    -6.8634  -6.8421   1.1030   1.1030   1.1602   1.8160   1.9928   1.9928
     6.8798   8.4622   8.4622   9.4487   9.9513   9.9513  11.1163  11.4510
    11.4510  11.8252  11.8252  12.3723  13.6491  13.6491  14.4835  14.6177

          k =-0.3000 0.3000-0.3000 (  8333 PWs)   bands (ev):

   -26.4450 -22.7411 -10.3669 -10.1287  -9.9327  -9.9327  -9.8187  -6.8673
    -6.8673  -6.8261   1.2178   1.2178   1.2824   1.6102   1.8589   1.8589
     7.5332   8.8844   8.8844   9.2546   9.9063   9.9063  10.5702  11.2823
    11.2823  11.5472  11.5472  12.1102  13.8664  13.8664  13.9439  14.5620

          k =-0.4000 0.4000-0.4000 (  8330 PWs)   bands (ev):

   -26.4449 -22.7409 -10.3564 -10.1891  -9.9330  -9.9330  -9.7765  -6.8704
    -6.8704  -6.8129   1.3593   1.3593   1.3643   1.4770   1.7043   1.7043
     8.2349   9.2954   9.3169   9.3169   9.9021   9.9021  10.0454  11.0560
    11.0560  11.1524  11.2737  11.2737  14.1633  14.1633  14.4665  14.6448

          k = 0.5000-0.5000 0.5000 (  8388 PWs)   bands (ev):

   -26.4449 -22.7408 -10.3442 -10.2200  -9.9331  -9.9331  -9.7607  -6.8716
    -6.8716  -6.8079   1.3946   1.4291   1.4770   1.4770   1.5822   1.5822
     8.8302   9.0102   9.5273   9.5273   9.9103   9.9103  10.2523  10.3261
    10.9582  10.9582  11.1235  11.1235  14.3841  14.3841  14.7956  14.7956

          k = 0.0000 0.2000 0.0000 (  8336 PWs)   bands (ev):

   -26.4452 -22.7416 -10.3466 -10.0383  -9.9324  -9.9324  -9.9115  -6.8610
    -6.8610  -6.8523   1.0165   1.0165   1.1047   1.9138   2.1182   2.1182
     6.4417   8.1386   8.2654   9.6714  10.0470  10.0470  11.2619  11.5856
    11.5856  12.0826  12.0826  12.1040  13.4465  13.5591  14.4881  14.6586

          k =-0.1000 0.3000-0.1000 (  8316 PWs)   bands (ev):

   -26.4451 -22.7414 -10.3625 -10.0632  -9.9330  -9.9274  -9.8821  -6.8637
    -6.8627  -6.8428   1.0543   1.0572   1.2351   1.6981   2.0686   2.0839
     6.8183   8.3109   8.5421   9.3162   9.9917  10.0371  10.9983  11.5569
    11.6044  11.9076  11.9975  12.2917  13.4350  13.6208  14.1819  14.8425

          k =-0.2000 0.4000-0.2000 (  8323 PWs)   bands (ev):

   -26.4450 -22.7412 -10.3729 -10.1159  -9.9335  -9.9195  -9.8363  -6.8674
    -6.8641  -6.8296   1.1305   1.1351   1.4018   1.4799   1.9581   1.9903
     7.3941   8.6437   8.8706   9.1293   9.9060  10.0338  10.6229  11.3787
    11.4479  11.6487  11.7706  12.3279  13.5541  13.7414  13.9304  14.1307

          k =-0.3000 0.5000-0.3000 (  8348 PWs)   bands (ev):

   -26.4449 -22.7409 -10.3655 -10.1808  -9.9337  -9.9151  -9.7921  -6.8706
    -6.8652  -6.8173   1.2050   1.2492   1.3160   1.5683   1.8300   1.8536
     8.0447   8.9174   9.0471   9.4707   9.9060  10.0719  10.1094  11.1581
    11.1763  11.4062  11.4599  11.5840  13.7826  13.8993  14.1206  14.3364

          k = 0.6000-0.4000 0.6000 (  8351 PWs)   bands (ev):

   -26.4449 -22.7408 -10.3454 -10.2321  -9.9336  -9.9131  -9.7679  -6.8722
    -6.8657  -6.8110   1.2208   1.2621   1.3848   1.6831   1.6932   1.7419
     8.6358   8.9200   9.3794   9.5343   9.8263  10.1049  10.1838  10.6689
    10.9858  11.0866  11.1631  11.2978  14.0238  14.1103  14.4113  14.4374

          k = 0.5000-0.3000 0.5000 (  8339 PWs)   bands (ev):

   -26.4449 -22.7408 -10.3489 -10.2230  -9.9331  -9.9124  -9.7737  -6.8715
    -6.8652  -6.8131   1.1627   1.3230   1.4831   1.5751   1.5786   1.8683
     8.4283   9.0544   9.2810   9.5063   9.8756   9.9301  10.2814  10.8791
    10.9599  11.1720  11.1741  11.3610  13.9759  14.1206  14.1859  14.4768

          k = 0.4000-0.2000 0.4000 (  8331 PWs)   bands (ev):

   -26.4450 -22.7410 -10.3665 -10.1653  -9.9325  -9.9128  -9.8074  -6.8688
    -6.8640  -6.8229   1.1082   1.3419   1.4326   1.4521   1.7087   1.9928
     7.8126   8.8576   9.1387   9.2601   9.7765   9.9727  10.5260  11.1430
    11.2956  11.3740  11.5711  11.8960  13.7071  13.8316  13.9761  14.3146

          k = 0.3000-0.1000 0.3000 (  8308 PWs)   bands (ev):

   -26.4451 -22.7413 -10.3679 -10.1028  -9.9320  -9.9160  -9.8559  -6.8651
    -6.8627  -6.8363   1.0559   1.1992   1.2928   1.6258   1.8606   2.0846
     7.1867   8.5340   8.7934   9.2177   9.8271  10.0103  10.9919  11.3214
    11.4994  11.6329  11.8178  12.4100  13.5354  13.7927  13.9823  14.3183

          k = 0.2000 0.0000 0.2000 (  8336 PWs)   bands (ev):

   -26.4451 -22.7415 -10.3548 -10.0566  -9.9318  -9.9252  -9.8969  -6.8619
    -6.8615  -6.8480   1.0242   1.0909   1.1420   1.8546   1.9933   2.1193
     6.6676   8.2697   8.3995   9.5328   9.9275  10.0397  11.3004  11.4227
    11.5664  11.8743  12.0107  12.2708  13.4759  13.6471  14.4257  14.8721

          k = 0.0000 0.4000 0.0000 (  8320 PWs)   bands (ev):

   -26.4451 -22.7413 -10.3780 -10.0651  -9.9340  -9.9340  -9.8615  -6.8658
    -6.8658  -6.8332   1.0538   1.0538   1.3898   1.4591   2.1152   2.1152
     7.0411   8.3588   8.7053   9.0298  10.0764  10.0764  10.5637  11.7162
    11.7162  12.1364  12.1364  12.1939  13.1160  13.5428  13.8210  15.0043

          k =-0.1000 0.5000-0.1000 (  8319 PWs)   bands (ev):

   -26.4450 -22.7411 -10.3920 -10.1017  -9.9348  -9.9212  -9.8311  -6.8690
    -6.8667  -6.8213   1.0896   1.0968   1.2297   1.5829   2.0762   2.0798
     7.4847   8.5414   8.5850   9.2353   9.9642  10.1089  10.2834  11.6139
    11.6323  12.0201  12.0692  12.3755  12.9405  13.5623  13.7909  14.0642

          k =-0.2000 0.6000-0.2000 (  8364 PWs)   bands (ev):

   -26.4449 -22.7408 -10.3890 -10.1668  -9.9351  -9.8968  -9.8015  -6.8721
    -6.8634  -6.8132   1.0634   1.1292   1.1757   1.7763   1.9845   1.9945
     8.0317   8.4193   8.9186   9.5851   9.6620  10.1813  10.2594  11.3311
    11.3798  11.7606  11.7712  12.0352  13.0628  13.5562  13.8699  14.0702

          k = 0.7000-0.3000 0.7000 (  8355 PWs)   bands (ev):

   -26.4449 -22.7407 -10.3632 -10.2364  -9.9349  -9.8787  -9.7816  -6.8738
    -6.8574  -6.8121   0.9804   1.1544   1.2824   1.8446   1.8921   1.9437
     8.3930   8.6345   9.2356   9.3476   9.7689  10.3090  10.3827  11.0828
    11.1171  11.3384  11.3849  11.6091  13.3633  13.5359  14.0453  14.0800

          k = 0.6000-0.2000 0.6000 (  8357 PWs)   bands (ev):

   -26.4449 -22.7407 -10.3347 -10.2750  -9.9341  -9.8684  -9.7833  -6.8736
    -6.8515  -6.8180   0.9660   1.1813   1.4099   1.6781   1.7891   2.0550
     8.3838   8.9633   9.1004   9.4215   9.6731  10.3511  10.7050  10.8824
    10.9391  11.1265  11.3689  11.5561  13.2750  13.8366  13.8636  14.0055

          k = 0.5000-0.1000 0.5000 (  8348 PWs)   bands (ev):

   -26.4449 -22.7408 -10.3564 -10.2272  -9.9331  -9.8654  -9.8090  -6.8714
    -6.8501  -6.8264   0.9865   1.2543   1.4954   1.5612   1.6530   2.1231
     8.0883   8.8075   9.0676   9.4779   9.7632   9.9542  10.8111  10.9787
    11.2390  11.2885  11.5587  11.8672  13.0382  13.6194  13.9595  14.2480

          k = 0.4000 0.0000 0.4000 (  8334 PWs)   bands (ev):

   -26.4450 -22.7410 -10.3709 -10.1598  -9.9323  -9.8799  -9.8403  -6.8682
    -6.8562  -6.8317   1.0167   1.3358   1.4070   1.4788   1.7094   2.1367
     7.6311   8.6790   9.0311   9.2375   9.7348   9.9298  10.9349  11.1816
    11.4195  11.4406  11.7047  12.4117  13.2343  13.5086  13.8927  14.1889

          k = 0.0000 0.6000 0.0000 (  8308 PWs)   bands (ev):

   -26.4450 -22.7409 -10.4130 -10.0977  -9.9360  -9.9360  -9.8037  -6.8717
    -6.8717  -6.8066   0.9976   1.1004   1.1004   1.7868   2.1095   2.1095
     7.7947   8.1862   8.7061   9.4994   9.6773  10.1564  10.1564  11.7747
    11.7747  12.2864  12.3448  12.3448  12.3529  13.4510  13.6154  14.1496

          k =-0.1000 0.7000-0.1000 (  8331 PWs)   bands (ev):

   -26.4449 -22.7407 -10.4196 -10.1376  -9.9366  -9.9176  -9.7815  -6.8742
    -6.8710  -6.7968   0.8342   1.1214   1.1400   1.9823   2.0734   2.0825
     7.9881   8.2351   8.9544   9.2815   9.7402  10.2245  10.2619  11.5041
    11.6667  12.0949  12.2103  12.3655  12.3926  13.3532  13.7389  13.7697

          k = 0.8000-0.2000 0.8000 (  8335 PWs)   bands (ev):

   -26.4449 -22.7406 -10.4021 -10.2053  -9.9365  -9.8806  -9.7733  -6.8758
    -6.8634  -6.7976   0.7655   1.1255   1.2095   1.9776   2.0258   2.1281
     7.9953   8.6975   9.0204   9.2158   9.7731  10.3480  10.4885  11.1682
    11.4723  11.7350  11.7639  11.9674  12.6278  13.3697  13.6884  13.8572

          k = 0.7000-0.1000 0.7000 (  8355 PWs)   bands (ev):

   -26.4448 -22.7405 -10.3592 -10.2731  -9.9356  -9.8472  -9.7841  -6.8757
    -6.8508  -6.8095   0.7875   1.1216   1.3043   1.8368   1.9467   2.1985
     8.1310   8.8875   9.0896   9.3707   9.5206  10.5319  10.8712  11.0622
    11.1746  11.3062  11.4851  11.6421  13.0757  13.1893  13.6689  13.7147

          k = 0.6000-0.0000 0.6000 (  8350 PWs)   bands (ev):

   -26.4449 -22.7406 -10.3263 -10.2965  -9.9343  -9.8246  -9.8150  -6.8740
    -6.8377  -6.8286   0.8727   1.1506   1.4211   1.6704   1.8268   2.1944
     8.2103   8.8323   9.1234   9.4353   9.5110  10.5183  10.7649  11.0395
    11.1419  11.2873  11.5530  11.6065  12.8218  13.5405  13.7225  13.8447

          k = 0.0000 0.8000 0.0000 (  8352 PWs)   bands (ev):

   -26.4449 -22.7406 -10.4393 -10.1237  -9.9376  -9.9376  -9.7589  -6.8762
    -6.8762  -6.7828   0.6746   1.1386   1.1386   2.1031   2.1031   2.1595
     7.7259   8.5576   8.9396   9.1162   9.8607  10.2565  10.2565  11.4896
    11.8700  11.8700  12.4729  12.4729  12.5066  13.3111  13.5546  13.5978

          k = 0.9000-0.1000 0.9000 (  8340 PWs)   bands (ev):

   -26.4448 -22.7405 -10.4361 -10.1589  -9.9378  -9.9161  -9.7513  -6.8774
    -6.8737  -6.7802   0.6145   1.1409   1.1672   2.0682   2.0851   2.2666
     7.6813   8.7513   8.8886   9.2930   9.8189  10.3202  10.3725  11.1682
    11.8150  12.0718  12.1129  12.2493  12.4265  13.2133  13.4207  13.8046

          k = 0.8000 0.0000 0.8000 (  8340 PWs)   bands (ev):

   -26.4448 -22.7404 -10.4071 -10.2195  -9.9370  -9.8752  -9.7622  -6.8772
    -6.8635  -6.7909   0.6590   1.1236   1.2227   1.9743   2.0386   2.2772
     7.8474   8.7522   9.1206   9.3640   9.5898  10.4254  10.6373  11.0686
    11.6433  11.6822  11.7059  11.9647  12.4856  13.2697  13.4754  13.8039

          k = 0.0000-1.0000 0.0000 (  8336 PWs)   bands (ev):

   -26.4448 -22.7404 -10.4491 -10.1336  -9.9383  -9.9383  -9.7421  -6.8780
    -6.8780  -6.7731   0.5599   1.1534   1.1534   2.1002   2.1002   2.3190
     7.5639   8.6478   8.9846   9.3502   9.8461  10.3038  10.3038  11.1191
    11.9614  11.9614  12.4372  12.4372  12.5718  13.2238  13.4392  13.4392

          k =-0.2000 0.4000 0.0000 (  8326 PWs)   bands (ev):

   -26.4451 -22.7412 -10.3757 -10.0973  -9.9330  -9.9132  -9.8566  -6.8663
    -6.8631  -6.8333   1.0438   1.1401   1.4018   1.4665   1.9680   2.1213
     7.2162   8.4889   8.7996   9.0745   9.9467  10.0207  10.7233  11.5083
    11.5860  11.8285  11.9214  12.4020  13.3278  13.6391  13.9554  14.2312

          k =-0.3000 0.5000-0.1000 (  8338 PWs)   bands (ev):

   -26.4450 -22.7410 -10.3778 -10.1575  -9.9334  -9.8935  -9.8228  -6.8700
    -6.8600  -6.8241   1.0531   1.2574   1.2683   1.5902   1.8289   2.0953
     7.7462   8.6810   8.8250   9.3874   9.8674   9.9297  10.5443  11.2818
    11.4212  11.6327  11.7221  12.2495  13.2871  13.5352  13.8274  14.0628

          k = 0.6000-0.4000 0.8000 (  8343 PWs)   bands (ev):

   -26.4449 -22.7408 -10.3598 -10.2245  -9.9339  -9.8841  -9.7898  -6.8731
    -6.8564  -6.8176   1.0671   1.1437   1.3906   1.6820   1.7627   2.0177
     8.2774   8.7294   9.0672   9.6366   9.7726   9.9842  10.4811  11.0358
    11.1667  11.3832  11.4313  11.5913  13.4102  13.6724  13.9477  14.2853

          k = 0.5000-0.3000 0.7000 (  8350 PWs)   bands (ev):

   -26.4449 -22.7407 -10.3382 -10.2645  -9.9341  -9.8816  -9.7764  -6.8742
    -6.8549  -6.8152   1.0778   1.0981   1.5037   1.5656   1.8879   1.9205
     8.5487   8.8127   9.2908   9.3022   9.9433  10.1121  10.5797  10.7732
    10.9744  11.1535  11.2897  11.4591  13.5645  13.6995  14.1065  14.1527

          k =-0.2000 0.6000 0.0000 (  8341 PWs)   bands (ev):

   -26.4449 -22.7409 -10.4005 -10.1410  -9.9351  -9.9043  -9.8071  -6.8727
    -6.8651  -6.8113   1.0306   1.0674   1.1823   1.7846   1.9790   2.1220
     7.9046   8.3019   8.8015   9.5570   9.6489  10.1077  10.3209  11.4905
    11.5275  11.9050  12.1046  12.4006  12.7422  13.3655  13.6592  13.9311

          k = 0.7000-0.3000 0.9000 (  8343 PWs)   bands (ev):

   -26.4449 -22.7407 -10.3887 -10.2058  -9.9353  -9.8738  -9.7910  -6.8762
    -6.8570  -6.8086   0.9113   1.0474   1.2897   1.8530   1.9636   2.1062
     8.2153   8.3942   9.0237   9.3280   9.8507  10.1933  10.4743  11.2261
    11.3386  11.6079  11.8387  12.0085  12.8119  13.2724  13.6461  14.1966

          k = 0.6000-0.2000 0.8000 (  8349 PWs)   bands (ev):

   -26.4448 -22.7406 -10.3533 -10.2726  -9.9352  -9.8499  -9.7870  -6.8777
    -6.8461  -6.8144   0.8794   1.0307   1.4071   1.7140   2.0423   2.0895
     8.3043   8.7409   9.0941   9.1606   9.9490  10.3528  10.6981  11.0504
    11.1562  11.3374  11.4387  11.6493  13.0917  13.2892  13.6513  14.2343

          k = 0.5000-0.1000 0.7000 (  8359 PWs)   bands (ev):

   -26.4449 -22.7406 -10.3376 -10.2858  -9.9346  -9.8392  -9.7999  -6.8767
    -6.8390  -6.8241   0.9137   1.0399   1.5319   1.5678   1.9369   2.1515
     8.3206   8.7471   8.9592   9.3690   9.8413  10.3616  10.8149  10.8862
    11.1989  11.3877  11.4554  11.6130  12.9056  13.4544  13.8568  13.9933

          k = 0.4000 0.0000 0.6000 (  8345 PWs)   bands (ev):

   -26.4449 -22.7408 -10.3676 -10.2210  -9.9338  -9.8543  -9.8154  -6.8737
    -6.8483  -6.8240   0.9802   1.1120   1.4071   1.6782   1.7823   2.1543
     8.1098   8.6233   8.9140   9.6262   9.7418   9.9776  10.6810  11.0699
    11.3417  11.5719  11.5830  12.0974  12.7663  13.4359  13.8229  14.0899

          k = 0.8000-0.2000 1.0000 (  8332 PWs)   bands (ev):

   -26.4449 -22.7406 -10.4203 -10.1735  -9.9368  -9.8996  -9.7675  -6.8781
    -6.8667  -6.7909   0.7218   1.0857   1.2162   1.9879   2.1206   2.1438
     7.8711   8.6107   8.9850   9.1327   9.8630  10.3112  10.3793  11.3062
    11.5711  11.8669  12.1265  12.3249  12.4210  13.0712  13.5469  14.0073

          k = 0.7000-0.1000 0.9000 (  8348 PWs)   bands (ev):

   -26.4448 -22.7405 -10.3960 -10.2338  -9.9364  -9.8637  -9.7705  -6.8804
    -6.8554  -6.7971   0.7092   1.0418   1.3093   1.8692   2.1132   2.2290
     7.9627   8.8505   8.9146   9.1547   9.8949  10.4695  10.6204  11.1810
    11.4079  11.4460  11.6558  12.1128  12.6058  13.0703  13.5841  14.0709

          k = 0.6000 0.0000 0.8000 (  8362 PWs)   bands (ev):

   -26.4448 -22.7405 -10.3489 -10.2927  -9.9356  -9.8316  -9.7913  -6.8797
    -6.8414  -6.8134   0.7836   1.0146   1.4140   1.7258   2.0555   2.2272
     8.1712   8.8526   8.9190   9.1929   9.8575  10.6503  10.8924  10.9947
    11.1468  11.3770  11.4445  11.6695  13.0050  13.1258  13.4527  14.0433

          k =-0.2000-1.0000 0.0000 (  8338 PWs)   bands (ev):

   -26.4448 -22.7404 -10.4277 -10.1855  -9.9374  -9.8981  -9.7525  -6.8803
    -6.8673  -6.7825   0.6117   1.0926   1.2292   1.9909   2.1199   2.2968
     7.7200   8.7074   9.0308   9.2715   9.8223  10.4127  10.4276  11.1213
    11.7531  11.8482  11.8632  12.2493  12.5227  13.0001  13.5387  13.9728

          k = 0.6000-0.2000 1.0000 (  8343 PWs)   bands (ev):

   -26.4448 -22.7405 -10.3672 -10.2643  -9.9354  -9.8392  -9.7927  -6.8808
    -6.8423  -6.8129   0.8436   0.9552   1.4314   1.7123   2.1032   2.1675
     8.2476   8.5994   8.9917   9.1011  10.1804  10.3013  10.7063  11.0637
    11.2632  11.4077  11.5896  11.9343  12.6939  13.2022  13.6247  14.0294

          k = 0.5000-0.1000 0.9000 (  8350 PWs)   bands (ev):

   -26.4448 -22.7405 -10.3280 -10.3183  -9.9356  -9.8164  -9.8021  -6.8827
    -6.8283  -6.8229   0.8408   0.9032   1.5678   1.5774   2.1681   2.1718
     8.3354   8.6127   8.9937   8.9948  10.3716  10.3998  10.8754  10.9823
    11.1015  11.2367  11.6292  11.6419  12.9196  13.2490  13.5096  13.7296

          k =-0.4000-1.0000 0.0000 (  8342 PWs)   bands (ev):

   -26.4448 -22.7404 -10.3676 -10.2799  -9.9360  -9.8343  -9.7835  -6.8841
    -6.8401  -6.8077   0.7481   0.9421   1.4396   1.7279   2.1722   2.2405
     8.1357   8.7892   8.8602   9.0132  10.2077  10.7222  10.7663  10.9413
    11.2158  11.2900  11.4319  12.0298  12.9052  12.9470  13.5451  13.8323

     the Fermi energy is     4.6731 ev

!    total energy              =    -160.19619506 Ry
     estimated scf accuracy    <          7.2E-11 Ry
     smearing contrib. (-TS)   =      -0.00000000 Ry
     internal energy E=F+TS    =    -160.19619506 Ry

     The total energy is F=E-TS. E is the sum of the following terms:
     one-electron contribution =     -43.83583093 Ry
     hartree contribution      =      31.09324300 Ry
     xc contribution           =     -26.69090591 Ry
     ewald contribution        =    -120.76270122 Ry

     convergence has been achieved in   8 iterations

     Writing all to output data dir out/KRrBr2.save/
 
     init_run     :      0.59s CPU      0.64s WALL (       1 calls)
     electrons    :     29.19s CPU     37.42s WALL (       1 calls)

     Called by init_run:
     wfcinit      :      0.51s CPU      0.54s WALL (       1 calls)
     potinit      :      0.01s CPU      0.02s WALL (       1 calls)
     hinit0       :      0.02s CPU      0.04s WALL (       1 calls)

     Called by electrons:
     c_bands      :     28.03s CPU     36.03s WALL (       8 calls)
     sum_band     :      1.12s CPU      1.16s WALL (       8 calls)
     v_of_rho     :      0.04s CPU      0.04s WALL (       9 calls)
     mix_rho      :      0.00s CPU      0.00s WALL (       8 calls)

     Called by c_bands:
     init_us_2    :      0.11s CPU      0.11s WALL (     799 calls)
     init_us_2:cp :      0.11s CPU      0.11s WALL (     799 calls)
     paro_k       :     27.34s CPU     28.21s WALL (     376 calls)

     Called by paro_*:
     h_psi        :     22.67s CPU     23.36s WALL (   10736 calls)
     g_psi        :      0.25s CPU      0.26s WALL (  136428 calls)

     Called by h_psi:
     h_psi:calbec :      1.06s CPU      1.10s WALL (   10736 calls)
     vloc_psi     :     20.82s CPU     21.46s WALL (   10736 calls)
     add_vuspsi   :      0.70s CPU      0.72s WALL (   10736 calls)

     General routines
     calbec       :      1.05s CPU      1.09s WALL (   10736 calls)
     fft          :      0.01s CPU      0.03s WALL (      89 calls)
     ffts         :      0.00s CPU      0.00s WALL (       8 calls)
     fftw         :     19.94s CPU     20.55s WALL (  250576 calls)
 
     Parallel routines
 
     PWSCF        :     30.11s CPU     47.13s WALL

 
   This run was terminated on:  15: 5:42  11Apr2024            

=------------------------------------------------------------------------------=
   JOB DONE.
=------------------------------------------------------------------------------=
