
     Program PWSCF v.7.1 starts on  8Apr2024 at 15:10:35 

     This program is part of the open-source Quantum ESPRESSO suite
     for quantum simulation of materials; please cite
         "P. Giannozzi et al., J. Phys.:Condens. Matter 21 395502 (2009);
         "P. Giannozzi et al., J. Phys.:Condens. Matter 29 465901 (2017);
         "P. Giannozzi et al., J. Chem. Phys. 152 154105 (2020);
          URL http://www.quantum-espresso.org", 
     in publications or presentations arising from this work. More details at
     http://www.quantum-espresso.org/quote

     Parallel version (MPI), running on    16 processors

     MPI processes distributed on     1 nodes
     246985 MiB available memory on the printing compute node when the environment starts
 
     Reading input from pw_mp-2534_scf_k3000_E65.in
Warning: card &CELL ignored
Warning: card / ignored

     Current dimensions of program PWSCF are:
     Max number of different atomic species (ntypx) = 10
     Max number of k-points (npk) =  40000
     Max angular momentum in pseudopotentials (lmaxx) =  4
 
     R & G space division:  proc/nbgrp/npool/nimage =      16
     Subspace diagonalization in iterative solution of the eigenvalue problem:
     a serial algorithm will be used

 
     Parallelization info
     --------------------
     sticks:   dense  smooth     PW     G-vecs:    dense   smooth      PW
     Min          66      66     19                 1415     1415     231
     Max          67      67     20                 1417     1417     234
     Sum        1057    1057    313                22659    22659    3719
 
     Using Slab Decomposition
 


     bravais-lattice index     =            2
     lattice parameter (alat)  =      10.8663  a.u.
     unit-cell volume          =     320.7608 (a.u.)^3
     number of atoms/cell      =            2
     number of atomic types    =            2
     number of electrons       =        18.00
     number of Kohn-Sham states=           18
     kinetic-energy cutoff     =      65.0000  Ry
     charge density cutoff     =     260.0000  Ry
     scf convergence threshold =      1.0E-10
     mixing beta               =       0.7000
     number of iterations used =            8  plain     mixing
     Exchange-correlation= PBE
                           (   1   4   3   4   0   0   0)

     celldm(1)=  10.866269  celldm(2)=   0.000000  celldm(3)=   0.000000
     celldm(4)=   0.000000  celldm(5)=   0.000000  celldm(6)=   0.000000

     crystal axes: (cart. coord. in units of alat)
               a(1) = (  -0.500000   0.000000   0.500000 )  
               a(2) = (   0.000000   0.500000   0.500000 )  
               a(3) = (  -0.500000   0.500000   0.000000 )  

     reciprocal axes: (cart. coord. in units 2 pi/alat)
               b(1) = ( -1.000000 -1.000000  1.000000 )  
               b(2) = (  1.000000  1.000000  1.000000 )  
               b(3) = ( -1.000000  1.000000 -1.000000 )  


     PseudoPot. # 1 for As read from file:
     /usr/scratch4/magr4826/Promotion/Python/Code/devEb/pseudo/SG15/As.upf
     MD5 check sum: a2ff92a4799c87c945fff9e6739df4dd
     Pseudo is Norm-conserving, Zval =  5.0
     Generated using ONCVPSP code by D. R. Hamann
     Using radial grid of  602 points,  6 beta functions with: 
                l(1) =   0
                l(2) =   0
                l(3) =   1
                l(4) =   1
                l(5) =   2
                l(6) =   2

     PseudoPot. # 2 for Ga read from file:
     /usr/scratch4/magr4826/Promotion/Python/Code/devEb/pseudo/SG15/Ga.upf
     MD5 check sum: 9961a622ff199abf6dfec9a0a10b8555
     Pseudo is Norm-conserving, Zval = 13.0
     Generated using ONCVPSP code by D. R. Hamann
     Using radial grid of  602 points,  6 beta functions with: 
                l(1) =   0
                l(2) =   0
                l(3) =   1
                l(4) =   1
                l(5) =   2
                l(6) =   2

     atomic species   valence    mass     pseudopotential
        As             5.00    74.92160     As( 1.00)
        Ga            13.00    69.72300     Ga( 1.00)

     24 Sym. Ops. (no inversion) found



   Cartesian axes

     site n.     atom                  positions (alat units)
         1           Ga  tau(   1) = (   0.0000000   0.0000000   0.0000000  )
         2           As  tau(   2) = (  -0.2500000   0.2500000   0.2500001  )

     number of k points=    72  Gaussian smearing, width (Ry)=  0.0005
                       cart. coord. in units 2pi/alat
        k(    1) = (   0.0000000   0.0000000   0.0000000), wk =   0.0011574
        k(    2) = (  -0.0833333   0.0833333  -0.0833333), wk =   0.0092593
        k(    3) = (  -0.1666667   0.1666667  -0.1666667), wk =   0.0092593
        k(    4) = (  -0.2500000   0.2500000  -0.2500000), wk =   0.0092593
        k(    5) = (  -0.3333333   0.3333333  -0.3333333), wk =   0.0092593
        k(    6) = (  -0.4166667   0.4166667  -0.4166667), wk =   0.0092593
        k(    7) = (   0.5000000  -0.5000000   0.5000000), wk =   0.0046296
        k(    8) = (   0.0000000   0.1666667   0.0000000), wk =   0.0069444
        k(    9) = (  -0.0833333   0.2500000  -0.0833333), wk =   0.0277778
        k(   10) = (  -0.1666667   0.3333333  -0.1666667), wk =   0.0277778
        k(   11) = (  -0.2500000   0.4166667  -0.2500000), wk =   0.0277778
        k(   12) = (  -0.3333333   0.5000000  -0.3333333), wk =   0.0277778
        k(   13) = (   0.5833333  -0.4166667   0.5833333), wk =   0.0277778
        k(   14) = (   0.5000000  -0.3333333   0.5000000), wk =   0.0277778
        k(   15) = (   0.4166667  -0.2500000   0.4166667), wk =   0.0277778
        k(   16) = (   0.3333333  -0.1666667   0.3333333), wk =   0.0277778
        k(   17) = (   0.2500000  -0.0833333   0.2500000), wk =   0.0277778
        k(   18) = (   0.1666667  -0.0000000   0.1666667), wk =   0.0138889
        k(   19) = (   0.0000000   0.3333333   0.0000000), wk =   0.0069444
        k(   20) = (  -0.0833333   0.4166667  -0.0833333), wk =   0.0277778
        k(   21) = (  -0.1666667   0.5000000  -0.1666667), wk =   0.0277778
        k(   22) = (  -0.2500000   0.5833333  -0.2500000), wk =   0.0277778
        k(   23) = (   0.6666667  -0.3333333   0.6666667), wk =   0.0277778
        k(   24) = (   0.5833333  -0.2500000   0.5833333), wk =   0.0277778
        k(   25) = (   0.5000000  -0.1666667   0.5000000), wk =   0.0277778
        k(   26) = (   0.4166667  -0.0833333   0.4166667), wk =   0.0277778
        k(   27) = (   0.3333333   0.0000000   0.3333333), wk =   0.0138889
        k(   28) = (   0.0000000   0.5000000   0.0000000), wk =   0.0069444
        k(   29) = (  -0.0833333   0.5833333  -0.0833333), wk =   0.0277778
        k(   30) = (  -0.1666667   0.6666667  -0.1666667), wk =   0.0277778
        k(   31) = (   0.7500000  -0.2500000   0.7500000), wk =   0.0277778
        k(   32) = (   0.6666667  -0.1666667   0.6666667), wk =   0.0277778
        k(   33) = (   0.5833333  -0.0833333   0.5833333), wk =   0.0277778
        k(   34) = (   0.5000000   0.0000000   0.5000000), wk =   0.0138889
        k(   35) = (   0.0000000   0.6666667   0.0000000), wk =   0.0069444
        k(   36) = (  -0.0833333   0.7500000  -0.0833333), wk =   0.0277778
        k(   37) = (   0.8333333  -0.1666667   0.8333333), wk =   0.0277778
        k(   38) = (   0.7500000  -0.0833333   0.7500000), wk =   0.0277778
        k(   39) = (   0.6666667  -0.0000000   0.6666667), wk =   0.0138889
        k(   40) = (   0.0000000   0.8333333   0.0000000), wk =   0.0069444
        k(   41) = (   0.9166667  -0.0833333   0.9166667), wk =   0.0277778
        k(   42) = (   0.8333333   0.0000000   0.8333333), wk =   0.0138889
        k(   43) = (   0.0000000  -1.0000000   0.0000000), wk =   0.0034722
        k(   44) = (  -0.1666667   0.3333333   0.0000000), wk =   0.0277778
        k(   45) = (  -0.2500000   0.4166667  -0.0833333), wk =   0.0555556
        k(   46) = (  -0.3333333   0.5000000  -0.1666667), wk =   0.0555556
        k(   47) = (   0.5833333  -0.4166667   0.7500000), wk =   0.0555556
        k(   48) = (   0.5000000  -0.3333333   0.6666667), wk =   0.0277778
        k(   49) = (  -0.1666667   0.5000000   0.0000000), wk =   0.0277778
        k(   50) = (  -0.2500000   0.5833333  -0.0833333), wk =   0.0555556
        k(   51) = (   0.6666667  -0.3333333   0.8333333), wk =   0.0555556
        k(   52) = (   0.5833333  -0.2500000   0.7500000), wk =   0.0555556
        k(   53) = (   0.5000000  -0.1666667   0.6666667), wk =   0.0555556
        k(   54) = (   0.4166667  -0.0833333   0.5833333), wk =   0.0555556
        k(   55) = (   0.3333333   0.0000000   0.5000000), wk =   0.0277778
        k(   56) = (  -0.1666667   0.6666667  -0.0000000), wk =   0.0277778
        k(   57) = (   0.7500000  -0.2500000   0.9166667), wk =   0.0555556
        k(   58) = (   0.6666667  -0.1666667   0.8333333), wk =   0.0555556
        k(   59) = (   0.5833333  -0.0833333   0.7500000), wk =   0.0555556
        k(   60) = (   0.5000000   0.0000000   0.6666667), wk =   0.0277778
        k(   61) = (   0.8333333  -0.1666667   1.0000000), wk =   0.0277778
        k(   62) = (   0.7500000  -0.0833333   0.9166667), wk =   0.0555556
        k(   63) = (   0.6666667   0.0000000   0.8333333), wk =   0.0277778
        k(   64) = (  -0.1666667  -1.0000000  -0.0000000), wk =   0.0138889
        k(   65) = (   0.6666667  -0.3333333   1.0000000), wk =   0.0277778
        k(   66) = (   0.5833333  -0.2500000   0.9166667), wk =   0.0555556
        k(   67) = (   0.5000000  -0.1666667   0.8333333), wk =   0.0277778
        k(   68) = (   0.6666667  -0.1666667   1.0000000), wk =   0.0277778
        k(   69) = (   0.5833333  -0.0833333   0.9166667), wk =   0.0555556
        k(   70) = (   0.5000000   0.0000000   0.8333333), wk =   0.0277778
        k(   71) = (  -0.3333333  -1.0000000   0.0000000), wk =   0.0138889
        k(   72) = (  -0.5000000  -1.0000000   0.0000000), wk =   0.0069444

     Dense  grid:    22659 G-vectors     FFT dimensions: (  40,  40,  40)

     Estimated max dynamical RAM per process >       7.46 MB

     Estimated total dynamical RAM >     119.37 MB

     Initial potential from superposition of free atoms

     starting charge      17.8922, renormalised to      18.0000
     Starting wfcs are random

     total cpu time spent up to now is        0.4 secs

     Self-consistent Calculation

     iteration #  1     ecut=    65.00 Ry     beta= 0.70
     Davidson diagonalization with overlap
     c_bands:  1 eigenvalues not converged
     c_bands:  1 eigenvalues not converged
     c_bands:  1 eigenvalues not converged
     c_bands:  1 eigenvalues not converged
     c_bands:  1 eigenvalues not converged
     c_bands:  1 eigenvalues not converged
     c_bands:  1 eigenvalues not converged
     c_bands:  1 eigenvalues not converged
     c_bands:  2 eigenvalues not converged
     c_bands:  2 eigenvalues not converged
     c_bands:  1 eigenvalues not converged
     c_bands:  1 eigenvalues not converged
     c_bands:  1 eigenvalues not converged
     c_bands:  1 eigenvalues not converged
     c_bands:  1 eigenvalues not converged
     c_bands:  2 eigenvalues not converged
     c_bands:  1 eigenvalues not converged
     c_bands:  1 eigenvalues not converged
     c_bands:  1 eigenvalues not converged
     c_bands:  2 eigenvalues not converged
     c_bands:  1 eigenvalues not converged
     c_bands:  1 eigenvalues not converged
     c_bands:  1 eigenvalues not converged
     c_bands:  1 eigenvalues not converged
     c_bands:  1 eigenvalues not converged
     c_bands:  1 eigenvalues not converged
     c_bands:  1 eigenvalues not converged
     ethr =  5.00E-06,  avg # of iterations = 19.2

     total cpu time spent up to now is        3.0 secs

     total energy              =    -144.00415307 Ry
     estimated scf accuracy    <       0.06928061 Ry

     iteration #  2     ecut=    65.00 Ry     beta= 0.70
     Davidson diagonalization with overlap
     ethr =  3.85E-04,  avg # of iterations =  2.0

     total cpu time spent up to now is        3.5 secs

     total energy              =    -144.02100246 Ry
     estimated scf accuracy    <       0.01761133 Ry

     iteration #  3     ecut=    65.00 Ry     beta= 0.70
     Davidson diagonalization with overlap
     ethr =  9.78E-05,  avg # of iterations =  2.0

     total cpu time spent up to now is        4.0 secs

     total energy              =    -144.02452166 Ry
     estimated scf accuracy    <       0.00049250 Ry

     iteration #  4     ecut=    65.00 Ry     beta= 0.70
     Davidson diagonalization with overlap
     ethr =  2.74E-06,  avg # of iterations =  3.3

     total cpu time spent up to now is        4.6 secs

     total energy              =    -144.02457386 Ry
     estimated scf accuracy    <       0.00001652 Ry

     iteration #  5     ecut=    65.00 Ry     beta= 0.70
     Davidson diagonalization with overlap
     ethr =  9.18E-08,  avg # of iterations =  4.6

     total cpu time spent up to now is        5.4 secs

     total energy              =    -144.02457609 Ry
     estimated scf accuracy    <       0.00000111 Ry

     iteration #  6     ecut=    65.00 Ry     beta= 0.70
     Davidson diagonalization with overlap
     ethr =  6.14E-09,  avg # of iterations =  4.2

     total cpu time spent up to now is        6.0 secs

     total energy              =    -144.02457643 Ry
     estimated scf accuracy    <       0.00000004 Ry

     iteration #  7     ecut=    65.00 Ry     beta= 0.70
     Davidson diagonalization with overlap
     ethr =  2.11E-10,  avg # of iterations =  5.6

     total cpu time spent up to now is        6.7 secs

     total energy              =    -144.02457644 Ry
     estimated scf accuracy    <          1.6E-09 Ry

     iteration #  8     ecut=    65.00 Ry     beta= 0.70
     Davidson diagonalization with overlap
     ethr =  8.83E-12,  avg # of iterations =  4.8

     total cpu time spent up to now is        7.3 secs

     End of self-consistent calculation

          k = 0.0000 0.0000 0.0000 (  2741 PWs)   bands (ev):

    -8.1239  -8.1239  -8.1239  -8.0565  -8.0565  -5.7870   6.5785   6.5785
     6.5785   6.7138  10.2990  10.2990  10.2990  14.0207  16.6127  16.6127
    18.0336  18.0336

          k =-0.0833 0.0833-0.0833 (  2803 PWs)   bands (ev):

    -8.1288  -8.1226  -8.1226  -8.0567  -8.0567  -5.7113   5.2906   6.4743
     6.4743   7.6712  10.4234  10.4565  10.4565  14.4708  16.1051  16.1051
    17.6466  18.8416

          k =-0.1667 0.1667-0.1667 (  2806 PWs)   bands (ev):

    -8.1416  -8.1190  -8.1190  -8.0567  -8.0567  -5.4907   3.8759   6.2272
     6.2272   8.0000  10.8136  10.8136  11.1075  15.3536  15.5798  15.5798
    17.2906  20.3182

          k =-0.2500 0.2500-0.2500 (  2842 PWs)   bands (ev):

    -8.1581  -8.1147  -8.1146  -8.0564  -8.0564  -5.1475   2.5348   5.9495
     5.9495   7.8603  11.1249  11.1249  12.2897  15.4549  15.5539  15.5539
    18.2416  22.0573

          k =-0.3333 0.3333-0.3333 (  2824 PWs)   bands (ev):

    -8.1736  -8.1108  -8.1108  -8.0553  -8.0553  -4.7310   1.3751   5.7163
     5.7163   7.6440  11.2371  11.2371  13.5690  15.2368  16.1516  16.1516
    19.6521  22.6813

          k =-0.4167 0.4167-0.4167 (  2851 PWs)   bands (ev):

    -8.1845  -8.1085  -8.1085  -8.0541  -8.0541  -4.3467   0.5343   5.5655
     5.5655   7.4899  11.2193  11.2193  14.2367  15.7795  17.2442  17.2442
    19.4505  20.7828

          k = 0.5000-0.5000 0.5000 (  2824 PWs)   bands (ev):

    -8.1883  -8.1077  -8.1077  -8.0535  -8.0535  -4.1781   0.2120   5.5137
     5.5137   7.4358  11.1977  11.1977  14.2793  16.5962  18.2499  18.2499
    18.6140  19.5097

          k = 0.0000 0.1667 0.0000 (  2794 PWs)   bands (ev):

    -8.1319  -8.1214  -8.1214  -8.0576  -8.0558  -5.6860   5.2139   6.2743
     6.2743   8.0490   9.9613  10.7331  10.7331  14.5994  15.3935  16.7232
    18.2639  18.2639

          k =-0.0833 0.2500-0.0833 (  2810 PWs)   bands (ev):

    -8.1423  -8.1185  -8.1178  -8.0586  -8.0552  -5.5136   4.1587   5.9765
     6.0446   8.5318   9.9380  11.1840  11.2805  14.7153  15.4585  16.4414
    17.8841  19.2169

          k =-0.1667 0.3333-0.1667 (  2827 PWs)   bands (ev):

    -8.1568  -8.1148  -8.1133  -8.0592  -8.0545  -5.2101   2.8966   5.6900
     5.7349   8.5217  10.3797  11.5686  12.0067  14.6562  16.0890  16.2872
    18.0702  20.7938

          k =-0.2500 0.4167-0.2500 (  2847 PWs)   bands (ev):

    -8.1718  -8.1112  -8.1093  -8.0586  -8.0537  -4.8136   1.7181   5.4006
     5.4783   8.3252  10.7874  11.7019  12.8123  15.2350  16.0557  16.7224
    19.3144  22.3296

          k =-0.3333 0.5000-0.3333 (  2837 PWs)   bands (ev):

    -8.1834  -8.1084  -8.1068  -8.0570  -8.0530  -4.4062   0.7808   5.1225
     5.3712   8.1494  10.9323  11.6244  13.7765  15.6073  16.7802  17.6817
    19.4284  20.6149

          k = 0.5833-0.4167 0.5833 (  2843 PWs)   bands (ev):

    -8.1892  -8.1071  -8.1059  -8.0552  -8.0532  -4.1470   0.2760   4.9404
     5.3781   8.0553  10.9996  11.4884  14.4122  16.1548  17.6007  18.2457
    18.7040  19.6506

          k = 0.5000-0.3333 0.5000 (  2840 PWs)   bands (ev):

    -8.1878  -8.1070  -8.1067  -8.0546  -8.0542  -4.2049   0.3843   4.8743
     5.4955   8.0602  11.1119  11.3788  14.3944  16.0826  16.9463  17.9610
    18.9855  20.6257

          k = 0.4167-0.2500 0.4167 (  2843 PWs)   bands (ev):

    -8.1796  -8.1090  -8.1083  -8.0565  -8.0542  -4.5363   1.0591   4.9356
     5.7081   8.1614  11.2546  11.2836  13.6396  15.6712  15.7490  17.6693
    19.3872  21.5160

          k = 0.3333-0.1667 0.3333 (  2848 PWs)   bands (ev):

    -8.1663  -8.1129  -8.1110  -8.0579  -8.0549  -4.9535   2.0922   5.1306
     5.9854   8.3283  11.1086  11.2427  12.5832  15.0247  15.6735  16.7803
    18.8674  21.7693

          k = 0.2500-0.0833 0.2500 (  2832 PWs)   bands (ev):

    -8.1507  -8.1174  -8.1150  -8.0582  -8.0555  -5.3249   3.2998   5.4646
     6.2712   8.4471  10.7749  10.7959  11.8449  14.9113  15.5902  16.1948
    18.0039  19.9370

          k = 0.1667-0.0000 0.1667 (  2814 PWs)   bands (ev):

    -8.1368  -8.1211  -8.1193  -8.0575  -8.0560  -5.5872   4.4826   5.9515
     6.4699   8.2058  10.3630  10.4996  11.1654  15.0858  15.3377  15.9611
    18.1611  18.5265

          k = 0.0000 0.3333 0.0000 (  2814 PWs)   bands (ev):

    -8.1517  -8.1142  -8.1142  -8.0608  -8.0539  -5.3913   3.8292   5.6433
     5.6433   8.9798   9.5445  11.7485  11.7485  14.0306  16.0147  17.0555
    18.9578  18.9578

          k =-0.0833 0.4167-0.0833 (  2842 PWs)   bands (ev):

    -8.1643  -8.1101  -8.1094  -8.0627  -8.0528  -5.1349   2.9551   5.2793
     5.3372   9.0096   9.7301  12.1840  12.2731  14.0987  16.8640  17.0822
    18.8148  19.9987

          k =-0.1667 0.5000-0.1667 (  2844 PWs)   bands (ev):

    -8.1769  -8.1070  -8.1050  -8.0632  -8.0519  -4.7733   1.9392   4.8312
     5.1204   8.9882  10.2176  12.1876  12.5255  15.1459  17.1747  17.3837
    19.3462  21.5861

          k =-0.2500 0.5833-0.2500 (  2837 PWs)   bands (ev):

    -8.1869  -8.1051  -8.1021  -8.0620  -8.0515  -4.3702   1.0267   4.4083
     5.0221   8.8692  10.7666  12.4721  12.5017  16.2274  17.2923  18.1970
    19.4611  20.6024

          k = 0.6667-0.3333 0.6667 (  2859 PWs)   bands (ev):

    -8.1926  -8.1044  -8.1011  -8.0597  -8.0523  -4.0547   0.4234   4.0902
     5.0518   8.7928  10.9726  12.2741  13.4742  16.2606  17.8453  18.2779
    18.9142  20.0019

          k = 0.5833-0.2500 0.5833 (  2843 PWs)   bands (ev):

    -8.1925  -8.1045  -8.1018  -8.0573  -8.0543  -4.0046   0.3378   3.9155
     5.2043   8.8038  11.0895  12.0552  14.2926  15.8870  16.8197  17.5086
    19.9875  21.4979

          k = 0.5000-0.1667 0.5000 (  2834 PWs)   bands (ev):

    -8.1868  -8.1054  -8.1044  -8.0569  -8.0556  -4.2562   0.8038   3.9137
     5.4600   8.8939  11.2644  11.8280  13.4884  15.5605  16.4085  18.1044
    19.5364  21.6989

          k = 0.4167-0.0833 0.4167 (  2838 PWs)   bands (ev):

    -8.1765  -8.1085  -8.1074  -8.0587  -8.0548  -4.6492   1.6187   4.1276
     5.7786   9.0035  11.3823  11.5175  12.4140  14.7793  16.7308  17.9943
    19.3351  20.8039

          k = 0.3333 0.0000 0.3333 (  2838 PWs)   bands (ev):

    -8.1635  -8.1134  -8.1106  -8.0590  -8.0549  -5.0320   2.5235   4.6333
     6.0871   8.9414  10.9790  11.1065  12.1198  14.5928  16.2765  16.9753
    18.9147  20.3032

          k = 0.0000 0.5000 0.0000 (  2858 PWs)   bands (ev):

    -8.1757  -8.1041  -8.1041  -8.0659  -8.0512  -4.9281   2.5194   5.0081
     5.0081   8.5842   9.7029  13.0092  13.0092  13.8547  17.6064  17.7082
    20.1161  20.1161

          k =-0.0833 0.5833-0.0833 (  2843 PWs)   bands (ev):

    -8.1868  -8.1000  -8.0992  -8.0679  -8.0500  -4.6123   1.8024   4.5976
     4.7700   8.6153   9.6543  13.0005  13.5012  14.9761  17.9626  18.3941
    20.1864  21.2253

          k =-0.1667 0.6667-0.1667 (  2834 PWs)   bands (ev):

    -8.1950  -8.0984  -8.0959  -8.0676  -8.0497  -4.2381   1.0666   4.0421
     4.6559   8.7443  10.1558  12.7346  13.5843  16.4335  18.4204  18.6657
    20.0302  20.7305

          k = 0.7500-0.2500 0.7500 (  2843 PWs)   bands (ev):

    -8.1991  -8.0989  -8.0947  -8.0655  -8.0507  -3.9082   0.5069   3.5470
     4.6779   8.7682  11.1191  12.6982  13.3873  16.6365  18.4108  18.8065
    19.3958  20.3960

          k = 0.6667-0.1667 0.6667 (  2846 PWs)   bands (ev):

    -8.1987  -8.1004  -8.0955  -8.0622  -8.0531  -3.7813   0.3174   3.2290
     4.8327   8.8583  11.7433  13.0788  13.3500  15.3921  16.8941  18.9351
    20.3896  21.9068

          k = 0.5833-0.0833 0.5833 (  2838 PWs)   bands (ev):

    -8.1942  -8.1024  -8.0984  -8.0589  -8.0560  -3.9411   0.5706   3.1616
     5.1015   9.0319  11.9340  12.6841  13.3982  15.2930  15.6516  19.0780
    20.6363  22.0891

          k = 0.5000 0.0000 0.5000 (  2840 PWs)   bands (ev):

    -8.1863  -8.1046  -8.1031  -8.0581  -8.0563  -4.2808   1.0861   3.4360
     5.4427   9.1839  12.0523  12.1358  12.2650  14.9377  16.6756  18.9413
    19.6896  20.6242

          k = 0.0000 0.6667 0.0000 (  2854 PWs)   bands (ev):

    -8.1971  -8.0939  -8.0939  -8.0714  -8.0485  -4.3489   1.3322   4.5042
     4.5042   8.2041   9.1955  14.3580  14.3580  14.8863  18.3656  19.2917
    21.7035  21.7035

          k =-0.0833 0.7500-0.0833 (  2833 PWs)   bands (ev):

    -8.2044  -8.0910  -8.0901  -8.0726  -8.0478  -4.0263   0.7882   4.1112
     4.3618   8.3249   9.1237  14.2425  14.7597  16.2994  18.9620  19.3096
    20.8685  21.3704

          k = 0.8333-0.1667 0.8333 (  2842 PWs)   bands (ev):

    -8.2073  -8.0919  -8.0887  -8.0711  -8.0486  -3.7304   0.3678   3.5261
     4.3588   8.4652   9.8623  13.9674  14.6561  16.8303  18.6826  19.0591
    20.5835  21.0161

          k = 0.7500-0.0833 0.7500 (  2844 PWs)   bands (ev):

    -8.2058  -8.0949  -8.0897  -8.0676  -8.0509  -3.5881   0.2082   3.0459
     4.4953   8.5881  11.1099  13.8148  14.2469  15.4570  17.2315  20.0854
    21.1236  22.0747

          k = 0.6667-0.0000 0.6667 (  2858 PWs)   bands (ev):

    -8.2009  -8.0988  -8.0931  -8.0633  -8.0538  -3.6787   0.3296   2.8743
     4.7554   8.8073  12.2276  13.5764  13.8304  14.2103  16.1627  20.4600
    20.9988  22.3102

          k = 0.0000 0.8333 0.0000 (  2842 PWs)   bands (ev):

    -8.2115  -8.0862  -8.0862  -8.0756  -8.0465  -3.7781   0.3928   4.1862
     4.1862   8.0591   8.5953  15.6498  15.6498  16.2682  19.2809  19.7799
    20.5999  20.5999

          k = 0.9167-0.0833 0.9167 (  2840 PWs)   bands (ev):

    -8.2140  -8.0860  -8.0847  -8.0753  -8.0466  -3.5717   0.1153   3.8608
     4.1501   8.2300   8.7144  15.5266  15.8194  16.9792  19.1125  19.1402
    20.4009  20.9258

          k = 0.8333 0.0000 0.8333 (  2848 PWs)   bands (ev):

    -8.2117  -8.0895  -8.0859  -8.0723  -8.0483  -3.4990   0.0732   3.3486
     4.2571   8.3607   9.7354  15.0104  15.2727  16.0260  17.9717  19.7146
    21.5352  21.8519

          k = 0.0000-1.0000 0.0000 (  2874 PWs)   bands (ev):

    -8.2166  -8.0834  -8.0834  -8.0772  -8.0459  -3.5053  -0.0038   4.0780
     4.0780   8.1337   8.2511  16.3455  16.3455  17.0996  19.3742  19.7535
    19.7535  19.9227

          k =-0.1667 0.3333 0.0000 (  2827 PWs)   bands (ev):

    -8.1540  -8.1151  -8.1133  -8.0601  -8.0543  -5.2991   3.3643   5.3003
     5.9606   8.9691   9.8735  11.5284  11.8969  14.3862  16.2266  16.4329
    18.5909  19.3169

          k =-0.2500 0.4167-0.0833 (  2835 PWs)   bands (ev):

    -8.1677  -8.1112  -8.1090  -8.0607  -8.0535  -4.9657   2.3446   4.7755
     5.7301   9.0406  10.3032  11.9278  12.1459  14.7022  16.4729  17.1536
    18.8863  20.8452

          k =-0.3333 0.5000-0.1667 (  2845 PWs)   bands (ev):

    -8.1802  -8.1079  -8.1055  -8.0600  -8.0531  -4.5621   1.3434   4.4501
     5.4556   8.9035  10.7471  11.9971  12.7042  15.4709  16.5421  18.0307
    19.3046  21.3508

          k = 0.5833-0.4167 0.7500 (  2843 PWs)   bands (ev):

    -8.1888  -8.1061  -8.1033  -8.0582  -8.0532  -4.1916   0.5814   4.2770
     5.2498   8.7820  10.8350  11.9988  13.6788  16.0155  16.9881  18.0429
    19.2132  20.7606

          k = 0.5000-0.3333 0.6667 (  2848 PWs)   bands (ev):

    -8.1920  -8.1055  -8.1026  -8.0569  -8.0536  -4.0301   0.2847   4.2234
     5.1743   8.7372  10.8246  11.9863  14.3940  15.9075  17.1722  18.1526
    18.8478  20.9993

          k =-0.1667 0.5000 0.0000 (  2841 PWs)   bands (ev):

    -8.1761  -8.1058  -8.1044  -8.0646  -8.0516  -4.8482   2.2505   4.6655
     5.2012   9.0980   9.8102  12.2223  12.8850  14.6282  17.3872  17.6826
    19.4280  20.5958

          k =-0.2500 0.5833-0.0833 (  2831 PWs)   bands (ev):

    -8.1865  -8.1032  -8.1002  -8.0648  -8.0511  -4.4770   1.4478   4.1540
     4.9652   9.2560  10.2256  11.9862  13.2894  15.5832  17.7501  18.3580
    19.6930  21.1068

          k = 0.6667-0.3333 0.8333 (  2833 PWs)   bands (ev):

    -8.1936  -8.1024  -8.0976  -8.0634  -8.0516  -4.1020   0.7399   3.7785
     4.7927   9.2329  10.8628  12.1082  13.3730  16.3131  17.7267  18.6705
    19.3610  20.9445

          k = 0.5833-0.2500 0.7500 (  2838 PWs)   bands (ev):

    -8.1965  -8.1026  -8.0968  -8.0611  -8.0530  -3.8711   0.3493   3.5378
     4.7759   9.2472  10.9955  12.7124  13.6556  15.4522  18.0557  18.4967
    19.0072  21.6340

          k = 0.5000-0.1667 0.6667 (  2842 PWs)   bands (ev):

    -8.1947  -8.1034  -8.0978  -8.0598  -8.0543  -3.9293   0.4492   3.4573
     4.9195   9.3363  11.0034  12.6305  13.8122  15.2347  16.9126  18.3827
    20.1565  22.1551

          k = 0.4167-0.0833 0.5833 (  2840 PWs)   bands (ev):

    -8.1885  -8.1048  -8.1007  -8.0606  -8.0539  -4.2342   0.9752   3.5894
     5.1856   9.4586  10.9859  12.0481  13.1334  15.4224  16.8650  18.6999
    19.7156  21.1143

          k = 0.3333 0.0000 0.5000 (  2841 PWs)   bands (ev):

    -8.1790  -8.1073  -8.1048  -8.0613  -8.0534  -4.6200   1.6799   4.0133
     5.5002   9.4605  10.5683  11.8618  12.5701  14.8939  17.3070  17.9729
    19.6503  20.4756

          k =-0.1667 0.6667-0.0000 (  2833 PWs)   bands (ev):

    -8.1959  -8.0966  -8.0946  -8.0694  -8.0492  -4.2891   1.2164   4.1833
     4.5416   8.7522   9.5306  13.0011  14.3096  15.7490  18.5868  18.8325
    20.6914  21.0972

          k = 0.7500-0.2500 0.9167 (  2835 PWs)   bands (ev):

    -8.2015  -8.0961  -8.0916  -8.0688  -8.0496  -3.9440   0.6703   3.6846
     4.3630   9.0034  10.0411  12.7203  14.5883  16.5102  18.2275  19.4711
    20.0587  21.2630

          k = 0.6667-0.1667 0.8333 (  2841 PWs)   bands (ev):

    -8.2030  -8.0977  -8.0908  -8.0663  -8.0513  -3.6957   0.3252   3.2369
     4.3653   9.0946  11.1352  12.5520  14.3453  15.7010  18.3379  19.1518
    20.0430  21.8971

          k = 0.5833-0.0833 0.7500 (  2842 PWs)   bands (ev):

    -8.2008  -8.1000  -8.0922  -8.0632  -8.0537  -3.6783   0.3149   2.9980
     4.5360   9.2574  11.8397  12.7450  13.8871  14.7856  16.9629  19.9364
    20.5732  22.6869

          k = 0.5000 0.0000 0.6667 (  2840 PWs)   bands (ev):

    -8.1956  -8.1023  -8.0957  -8.0611  -8.0549  -3.8997   0.5972   3.0874
     4.8335   9.4648  11.8438  11.9981  13.9445  15.0234  16.1382  19.9679
    20.2854  21.6765

          k = 0.8333-0.1667 1.0000 (  2848 PWs)   bands (ev):

    -8.2094  -8.0896  -8.0872  -8.0731  -8.0477  -3.7473   0.3856   3.9084
     4.0892   8.5894   9.0305  14.2194  15.5536  16.7609  18.6526  19.5482
    20.5732  21.3112

          k = 0.7500-0.0833 0.9167 (  2844 PWs)   bands (ev):

    -8.2097  -8.0917  -8.0866  -8.0710  -8.0490  -3.5486   0.1596   3.4253
     4.0504   8.8311   9.8102  13.9283  15.0626  16.5329  18.5531  19.2269
    20.7674  22.2899

          k = 0.6667 0.0000 0.8333 (  2832 PWs)   bands (ev):

    -8.2063  -8.0957  -8.0882  -8.0674  -8.0514  -3.5243   0.1694   3.0232
     4.2252   9.0078  11.1237  13.5454  13.8731  15.8065  17.4884  20.0611
    21.4153  22.5473

          k =-0.1667-1.0000-0.0000 (  2846 PWs)   bands (ev):

    -8.2140  -8.0869  -8.0847  -8.0743  -8.0472  -3.4938   0.0344   3.8497
     3.8996   8.6237   8.7476  15.3783  15.4802  17.1433  18.6879  19.6639
    19.7730  21.7036

          k = 0.6667-0.3333 1.0000 (  2834 PWs)   bands (ev):

    -8.1942  -8.1015  -8.0957  -8.0650  -8.0516  -4.1248   0.9284   3.5814
     4.6720   9.8938  10.3212  11.6621  14.1633  15.7608  17.4498  19.3608
    20.1207  20.7772

          k = 0.5833-0.2500 0.9167 (  2835 PWs)   bands (ev):

    -8.1990  -8.1010  -8.0926  -8.0640  -8.0528  -3.8110   0.4846   3.2556
     4.4002  10.0197  10.8778  11.8313  14.4021  15.3591  17.3942  19.7194
    20.0914  22.1505

          k = 0.5000-0.1667 0.8333 (  2846 PWs)   bands (ev):

    -8.2007  -8.1010  -8.0916  -8.0632  -8.0535  -3.6779   0.3005   3.1551
     4.2943  10.0247  10.9211  12.5932  13.8351  15.0144  18.4399  19.0219
    19.7133  22.9093

          k = 0.6667-0.1667 1.0000 (  2842 PWs)   bands (ev):

    -8.2048  -8.0965  -8.0886  -8.0680  -8.0507  -3.6703   0.3517   3.4003
     3.9702   9.8444  10.1117  12.4052  14.8565  16.2328  17.9775  19.8727
    20.6389  21.8531

          k = 0.5833-0.0833 0.9167 (  2834 PWs)   bands (ev):

    -8.2049  -8.0981  -8.0877  -8.0660  -8.0525  -3.5251   0.2060   3.1503
     3.8413  10.0781  11.1591  12.2014  13.5199  16.3822  18.5654  19.1857
    20.7428  22.3421

          k = 0.5000 0.0000 0.8333 (  2829 PWs)   bands (ev):

    -8.2028  -8.0997  -8.0890  -8.0645  -8.0535  -3.5842   0.2758   3.0468
     4.0295  10.2394  11.5780  11.7942  13.4501  15.9448  17.6415  20.0121
    20.9623  21.9825

          k =-0.3333-1.0000 0.0000 (  2830 PWs)   bands (ev):

    -8.2085  -8.0944  -8.0862  -8.0689  -8.0505  -3.4705   0.1173   3.4565
     3.6006   9.8526   9.9315  13.4899  13.8104  17.2038  18.5209  19.5918
    19.9134  23.3146

          k =-0.5000-1.0000 0.0000 (  2832 PWs)   bands (ev):

    -8.2054  -8.0984  -8.0867  -8.0657  -8.0530  -3.4587   0.1626   3.2794
     3.4708  10.9560  11.2693  11.8283  12.6023  17.2330  18.5051  19.5676
    19.9956  23.1078

     the Fermi energy is     6.6834 ev

!    total energy              =    -144.02457644 Ry
     estimated scf accuracy    <          3.9E-11 Ry
     smearing contrib. (-TS)   =      -0.00000000 Ry
     internal energy E=F+TS    =    -144.02457644 Ry

     The total energy is F=E-TS. E is the sum of the following terms:
     one-electron contribution =     -85.16864469 Ry
     hartree contribution      =      53.79523835 Ry
     xc contribution           =     -21.20166158 Ry
     ewald contribution        =     -91.44950852 Ry

     convergence has been achieved in   8 iterations

     Writing all to output data dir out/mp-2534.save/
 
     init_run     :      0.17s CPU      0.27s WALL (       1 calls)
     electrons    :      6.09s CPU      6.86s WALL (       1 calls)

     Called by init_run:
     wfcinit      :      0.14s CPU      0.17s WALL (       1 calls)
     potinit      :      0.00s CPU      0.03s WALL (       1 calls)
     hinit0       :      0.01s CPU      0.04s WALL (       1 calls)

     Called by electrons:
     c_bands      :      5.60s CPU      6.32s WALL (       8 calls)
     sum_band     :      0.47s CPU      0.49s WALL (       8 calls)
     v_of_rho     :      0.01s CPU      0.03s WALL (       9 calls)
     mix_rho      :      0.00s CPU      0.00s WALL (       8 calls)

     Called by c_bands:
     init_us_2    :      0.04s CPU      0.04s WALL (    1224 calls)
     init_us_2:cp :      0.04s CPU      0.04s WALL (    1224 calls)
     cegterg      :      5.40s CPU      5.59s WALL (     576 calls)

     Called by *egterg:
     cdiaghg      :      1.09s CPU      1.13s WALL (    3865 calls)
     h_psi        :      4.04s CPU      4.20s WALL (    3937 calls)
     g_psi        :      0.02s CPU      0.02s WALL (    3289 calls)

     Called by h_psi:
     h_psi:calbec :      0.10s CPU      0.10s WALL (    3937 calls)
     vloc_psi     :      3.87s CPU      4.02s WALL (    3937 calls)
     add_vuspsi   :      0.06s CPU      0.06s WALL (    3937 calls)

     General routines
     calbec       :      0.09s CPU      0.10s WALL (    3937 calls)
     fft          :      0.01s CPU      0.04s WALL (      89 calls)
     ffts         :      0.00s CPU      0.00s WALL (       8 calls)
     fftw         :      4.00s CPU      4.15s WALL (  103226 calls)
 
     Parallel routines
 
     PWSCF        :      6.47s CPU      9.15s WALL

 
   This run was terminated on:  15:10:44   8Apr2024            

=------------------------------------------------------------------------------=
   JOB DONE.
=------------------------------------------------------------------------------=
