
     Program PWSCF v.7.1 starts on  8Apr2024 at 15:12:17 

     This program is part of the open-source Quantum ESPRESSO suite
     for quantum simulation of materials; please cite
         "P. Giannozzi et al., J. Phys.:Condens. Matter 21 395502 (2009);
         "P. Giannozzi et al., J. Phys.:Condens. Matter 29 465901 (2017);
         "P. Giannozzi et al., J. Chem. Phys. 152 154105 (2020);
          URL http://www.quantum-espresso.org", 
     in publications or presentations arising from this work. More details at
     http://www.quantum-espresso.org/quote

     Parallel version (MPI), running on    16 processors

     MPI processes distributed on     1 nodes
     243487 MiB available memory on the printing compute node when the environment starts
 
     Reading input from pw_mp-612118_scf_k3000_E65.in
Warning: card &CELL ignored
Warning: card / ignored

     Current dimensions of program PWSCF are:
     Max number of different atomic species (ntypx) = 10
     Max number of k-points (npk) =  40000
     Max angular momentum in pseudopotentials (lmaxx) =  4
 
     R & G space division:  proc/nbgrp/npool/nimage =      16
     Subspace diagonalization in iterative solution of the eigenvalue problem:
     a serial algorithm will be used

 
     Parallelization info
     --------------------
     sticks:   dense  smooth     PW     G-vecs:    dense   smooth      PW
     Min          66      66     19                 1453     1453     237
     Max          67      67     20                 1457     1457     242
     Sum        1069    1069    313                23289    23289    3839
 
     Using Slab Decomposition
 


     bravais-lattice index     =            2
     lattice parameter (alat)  =      10.9472  a.u.
     unit-cell volume          =     327.9847 (a.u.)^3
     number of atoms/cell      =            1
     number of atomic types    =            1
     number of electrons       =         8.00
     number of Kohn-Sham states=            8
     kinetic-energy cutoff     =      65.0000  Ry
     charge density cutoff     =     260.0000  Ry
     scf convergence threshold =      1.0E-10
     mixing beta               =       0.7000
     number of iterations used =            8  plain     mixing
     Exchange-correlation= PBE
                           (   1   4   3   4   0   0   0)

     celldm(1)=  10.947237  celldm(2)=   0.000000  celldm(3)=   0.000000
     celldm(4)=   0.000000  celldm(5)=   0.000000  celldm(6)=   0.000000

     crystal axes: (cart. coord. in units of alat)
               a(1) = (  -0.500000   0.000000   0.500000 )  
               a(2) = (   0.000000   0.500000   0.500000 )  
               a(3) = (  -0.500000   0.500000   0.000000 )  

     reciprocal axes: (cart. coord. in units 2 pi/alat)
               b(1) = ( -1.000000 -1.000000  1.000000 )  
               b(2) = (  1.000000  1.000000  1.000000 )  
               b(3) = ( -1.000000  1.000000 -1.000000 )  


     PseudoPot. # 1 for Kr read from file:
     /usr/scratch4/magr4826/Promotion/Python/Code/devEb/pseudo/SG15/Kr.upf
     MD5 check sum: 4a275f71d3bc7366299250ec96e82e35
     Pseudo is Norm-conserving, Zval =  8.0
     Generated using ONCVPSP code by D. R. Hamann
     Using radial grid of  602 points,  6 beta functions with: 
                l(1) =   0
                l(2) =   0
                l(3) =   1
                l(4) =   1
                l(5) =   2
                l(6) =   2

     atomic species   valence    mass     pseudopotential
        Kr             8.00    83.79800     Kr( 1.00)

     48 Sym. Ops., with inversion, found



   Cartesian axes

     site n.     atom                  positions (alat units)
         1           Kr  tau(   1) = (   0.0000000   0.0000000   0.0000000  )

     number of k points=   104  Gaussian smearing, width (Ry)=  0.0005

     Number of k-points >= 100: set verbosity='high' to print them.

     Dense  grid:    23289 G-vectors     FFT dimensions: (  40,  40,  40)

     Estimated max dynamical RAM per process >       4.70 MB

     Estimated total dynamical RAM >      75.23 MB

     Initial potential from superposition of free atoms

     starting charge       7.9946, renormalised to       8.0000
     Starting wfcs are random

     total cpu time spent up to now is        0.3 secs

     Self-consistent Calculation

     iteration #  1     ecut=    65.00 Ry     beta= 0.70
     Davidson diagonalization with overlap
     c_bands:  1 eigenvalues not converged
     c_bands:  1 eigenvalues not converged
     c_bands:  1 eigenvalues not converged
     c_bands:  1 eigenvalues not converged
     c_bands:  1 eigenvalues not converged
     c_bands:  1 eigenvalues not converged
     c_bands:  1 eigenvalues not converged
     c_bands:  1 eigenvalues not converged
     c_bands:  1 eigenvalues not converged
     ethr =  5.00E-06,  avg # of iterations = 15.3

     Threshold (ethr) on eigenvalues was too large:
     Diagonalizing with lowered threshold

     Davidson diagonalization with overlap
     c_bands:  1 eigenvalues not converged
     ethr =  9.76E-09,  avg # of iterations =  7.1

     total cpu time spent up to now is        2.3 secs

     total energy              =     -37.17791084 Ry
     estimated scf accuracy    <       0.00000078 Ry

     iteration #  2     ecut=    65.00 Ry     beta= 0.70
     Davidson diagonalization with overlap
     ethr =  9.74E-09,  avg # of iterations =  3.1

     total cpu time spent up to now is        2.7 secs

     total energy              =     -37.17791160 Ry
     estimated scf accuracy    <       0.00000006 Ry

     iteration #  3     ecut=    65.00 Ry     beta= 0.70
     Davidson diagonalization with overlap
     ethr =  7.83E-10,  avg # of iterations =  3.8

     total cpu time spent up to now is        3.1 secs

     total energy              =     -37.17791173 Ry
     estimated scf accuracy    <          4.0E-09 Ry

     iteration #  4     ecut=    65.00 Ry     beta= 0.70
     Davidson diagonalization with overlap
     ethr =  4.98E-11,  avg # of iterations =  5.5

     total cpu time spent up to now is        4.7 secs

     End of self-consistent calculation

     Number of k-points >= 100: set verbosity='high' to print the bands.

     the Fermi energy is    -1.7524 ev

!    total energy              =     -37.17791174 Ry
     estimated scf accuracy    <          4.1E-11 Ry
     smearing contrib. (-TS)   =      -0.00000000 Ry
     internal energy E=F+TS    =     -37.17791174 Ry

     The total energy is F=E-TS. E is the sum of the following terms:
     one-electron contribution =     -12.09017375 Ry
     hartree contribution      =       8.07790560 Ry
     xc contribution           =      -6.36151348 Ry
     ewald contribution        =     -26.80413011 Ry

     convergence has been achieved in   4 iterations

     Writing all to output data dir out/mp-612118.save/
 
     init_run     :      0.15s CPU      0.25s WALL (       1 calls)
     electrons    :      2.75s CPU      4.40s WALL (       1 calls)

     Called by init_run:
     wfcinit      :      0.12s CPU      0.13s WALL (       1 calls)
     potinit      :      0.01s CPU      0.09s WALL (       1 calls)
     hinit0       :      0.01s CPU      0.02s WALL (       1 calls)

     Called by electrons:
     c_bands      :      2.53s CPU      4.12s WALL (       5 calls)
     sum_band     :      0.21s CPU      0.21s WALL (       5 calls)
     v_of_rho     :      0.01s CPU      0.01s WALL (       5 calls)
     mix_rho      :      0.00s CPU      0.00s WALL (       5 calls)

     Called by c_bands:
     init_us_2    :      0.03s CPU      0.03s WALL (    1144 calls)
     init_us_2:cp :      0.03s CPU      0.03s WALL (    1144 calls)
     cegterg      :      2.43s CPU      2.55s WALL (     520 calls)

     Called by *egterg:
     cdiaghg      :      0.29s CPU      0.30s WALL (    4049 calls)
     h_psi        :      2.05s CPU      2.16s WALL (    4257 calls)
     g_psi        :      0.01s CPU      0.01s WALL (    3633 calls)

     Called by h_psi:
     h_psi:calbec :      0.06s CPU      0.06s WALL (    4257 calls)
     vloc_psi     :      1.95s CPU      2.06s WALL (    4257 calls)
     add_vuspsi   :      0.02s CPU      0.03s WALL (    4257 calls)

     General routines
     calbec       :      0.05s CPU      0.06s WALL (    4257 calls)
     fft          :      0.01s CPU      0.01s WALL (      50 calls)
     ffts         :      0.00s CPU      0.00s WALL (       5 calls)
     fftw         :      1.99s CPU      2.10s WALL (   48844 calls)
 
     Parallel routines
 
     PWSCF        :      3.06s CPU      5.89s WALL

 
   This run was terminated on:  15:12:23   8Apr2024            

=------------------------------------------------------------------------------=
   JOB DONE.
=------------------------------------------------------------------------------=
