
     Program PWSCF v.7.1 starts on  3Jan2024 at 17:48:44 

     This program is part of the open-source Quantum ESPRESSO suite
     for quantum simulation of materials; please cite
         "P. Giannozzi et al., J. Phys.:Condens. Matter 21 395502 (2009);
         "P. Giannozzi et al., J. Phys.:Condens. Matter 29 465901 (2017);
         "P. Giannozzi et al., J. Chem. Phys. 152 154105 (2020);
          URL http://www.quantum-espresso.org", 
     in publications or presentations arising from this work. More details at
     http://www.quantum-espresso.org/quote

     Parallel version (MPI), running on     8 processors

     MPI processes distributed on     1 nodes
     242915 MiB available memory on the printing compute node when the environment starts
 
     Reading input from pw_mp-732337_scf_k3000_E65.in
Warning: card &CELL ignored
Warning: card / ignored

     Current dimensions of program PWSCF are:
     Max number of different atomic species (ntypx) = 10
     Max number of k-points (npk) =  40000
     Max angular momentum in pseudopotentials (lmaxx) =  4
 
     R & G space division:  proc/nbgrp/npool/nimage =       8
     Subspace diagonalization in iterative solution of the eigenvalue problem:
     one sub-group per band group will be used
     scalapack distributed-memory algorithm (size of sub-group:  2*  2 procs)

 
     Parallelization info
     --------------------
     sticks:   dense  smooth     PW     G-vecs:    dense   smooth      PW
     Min         653     653    176                51085    51085    7154
     Max         654     654    177                51088    51088    7158
     Sum        5227    5227   1409               408691   408691   57249
 
     Using Slab Decomposition
 


     bravais-lattice index     =            8
     lattice parameter (alat)  =      15.2399  a.u.
     unit-cell volume          =    5771.0237 (a.u.)^3
     number of atoms/cell      =           48
     number of atomic types    =            5
     number of electrons       =       200.00
     number of Kohn-Sham states=          200
     kinetic-energy cutoff     =      65.0000  Ry
     charge density cutoff     =     260.0000  Ry
     scf convergence threshold =      1.0E-10
     mixing beta               =       0.7000
     number of iterations used =            8  plain     mixing
     Exchange-correlation= PBE
                           (   1   4   3   4   0   0   0)

     celldm(1)=  15.239867  celldm(2)=   1.088215  celldm(3)=   1.498286
     celldm(4)=   0.000000  celldm(5)=   0.000000  celldm(6)=   0.000000

     crystal axes: (cart. coord. in units of alat)
               a(1) = (   1.000000   0.000000   0.000000 )  
               a(2) = (   0.000000   1.088215   0.000000 )  
               a(3) = (   0.000000   0.000000   1.498286 )  

     reciprocal axes: (cart. coord. in units 2 pi/alat)
               b(1) = (  1.000000  0.000000  0.000000 )  
               b(2) = (  0.000000  0.918936  0.000000 )  
               b(3) = (  0.000000  0.000000  0.667429 )  


     PseudoPot. # 1 for Br read from file:
     /usr/scratch4/magr4985/MG/devEb/pseudo/SG15/Br.upf
     MD5 check sum: d26c51d81abb03042b648ee3fecf55db
     Pseudo is Norm-conserving, Zval =  7.0
     Generated using ONCVPSP code by D. R. Hamann
     Using radial grid of  602 points,  6 beta functions with: 
                l(1) =   0
                l(2) =   0
                l(3) =   1
                l(4) =   1
                l(5) =   2
                l(6) =   2

     PseudoPot. # 2 for C  read from file:
     /usr/scratch4/magr4985/MG/devEb/pseudo/SG15/C.upf
     MD5 check sum: 3d2597e5eef38528f7293c089e88409c
     Pseudo is Norm-conserving, Zval =  4.0
     Generated using ONCVPSP code by D. R. Hamann
     Using radial grid of  602 points,  4 beta functions with: 
                l(1) =   0
                l(2) =   0
                l(3) =   1
                l(4) =   1

     PseudoPot. # 3 for H  read from file:
     /usr/scratch4/magr4985/MG/devEb/pseudo/SG15/H.upf
     MD5 check sum: ae0d01b4bdfb70e4e0e3a1de63306ab0
     Pseudo is Norm-conserving, Zval =  1.0
     Generated using ONCVPSP code by D. R. Hamann
     Using radial grid of  602 points,  2 beta functions with: 
                l(1) =   0
                l(2) =   0

     PseudoPot. # 4 for N  read from file:
     /usr/scratch4/magr4985/MG/devEb/pseudo/SG15/N.upf
     MD5 check sum: 505747f69e3b1670e9a20de136ca1593
     Pseudo is Norm-conserving, Zval =  5.0
     Generated using ONCVPSP code by D. R. Hamann
     Using radial grid of  602 points,  4 beta functions with: 
                l(1) =   0
                l(2) =   0
                l(3) =   1
                l(4) =   1

     PseudoPot. # 5 for Pb read from file:
     /usr/scratch4/magr4985/MG/devEb/pseudo/SG15/Pb.upf
     MD5 check sum: 18da7c9819a8d2a15024df9e07e1e14a
     Pseudo is Norm-conserving, Zval = 14.0
     Generated using ONCVPSP code by D. R. Hamann
     Using radial grid of  602 points,  8 beta functions with: 
                l(1) =   0
                l(2) =   0
                l(3) =   1
                l(4) =   1
                l(5) =   2
                l(6) =   2
                l(7) =   3
                l(8) =   3

     atomic species   valence    mass     pseudopotential
        Br             7.00    79.90400     Br( 1.00)
        C              4.00    12.01070     C ( 1.00)
        H              1.00     1.00790     H ( 1.00)
        N              5.00    14.00670     N ( 1.00)
        Pb            14.00   207.20000     Pb( 1.00)

      8 Sym. Ops., with inversion, found ( 6 have fractional translation)



   Cartesian axes

     site n.     atom                  positions (alat units)
         1           H   tau(   1) = (   0.5087350   0.7130256   1.0199282  )
         2           H   tau(   2) = (   0.0087350   0.9192967   1.2275008  )
         3           H   tau(   3) = (   0.4912650   0.3751893   0.2707852  )
         4           H   tau(   4) = (   0.9912651   0.1689181   0.4783578  )
         5           H   tau(   5) = (   0.4912650   0.3751893   0.4783578  )
         6           H   tau(   6) = (   0.9912651   0.1689181   0.2707852  )
         7           H   tau(   7) = (   0.5087350   0.7130256   1.2275008  )
         8           H   tau(   8) = (   0.0087350   0.9192967   1.0199282  )
         9           H   tau(   9) = (   0.6782721   0.6478187   1.1237145  )
        10           H   tau(  10) = (   0.1782720   0.9845036   1.1237145  )
        11           H   tau(  11) = (   0.3217280   0.4403962   0.3745715  )
        12           H   tau(  12) = (   0.8217281   0.1037112   0.3745715  )
        13           H   tau(  13) = (   0.5240280   0.4117925   1.0122945  )
        14           H   tau(  14) = (   0.0240280   0.1323150   1.2351345  )
        15           H   tau(  15) = (   0.4759720   0.6764224   0.2631515  )
        16           H   tau(  16) = (   0.9759721   0.9558999   0.4859915  )
        17           H   tau(  17) = (   0.4759720   0.6764224   0.4859915  )
        18           H   tau(  18) = (   0.9759721   0.9558999   0.2631515  )
        19           H   tau(  19) = (   0.5240280   0.4117925   1.2351345  )
        20           H   tau(  20) = (   0.0240280   0.1323150   1.0122945  )
        21           H   tau(  21) = (   0.3458690   0.4830172   1.1237145  )
        22           H   tau(  22) = (   0.8458691   0.0610902   1.1237145  )
        23           H   tau(  23) = (   0.6541311   0.6051976   0.3745715  )
        24           H   tau(  24) = (   0.1541310   1.0271246   0.3745715  )
        25           Pb  tau(  25) = (   0.5000000   0.0000000   0.0000000  )
        26           Pb  tau(  26) = (   0.0000000   0.5441074   0.7491430  )
        27           Pb  tau(  27) = (   0.5000000   0.0000000   0.7491430  )
        28           Pb  tau(  28) = (   0.0000000   0.5441074   0.0000000  )
        29           C   tau(  29) = (   0.4810650   0.4763639   1.1237145  )
        30           C   tau(  30) = (   0.9810651   0.0677435   1.1237145  )
        31           C   tau(  31) = (   0.5189350   0.6118510   0.3745715  )
        32           C   tau(  32) = (   0.0189350   1.0204713   0.3745715  )
        33           Br  tau(  33) = (   0.4669710   0.0197130   1.1237145  )
        34           Br  tau(  34) = (   0.9669711   0.5243944   1.1237145  )
        35           Br  tau(  35) = (   0.5330290   1.0685018   0.3745715  )
        36           Br  tau(  36) = (   0.0330290   0.5638204   0.3745715  )
        37           Br  tau(  37) = (   0.7957761   0.8585504   1.4542963  )
        38           Br  tau(  38) = (   0.2957760   0.7737719   0.7931327  )
        39           Br  tau(  39) = (   0.2042240   0.2296645   0.7051533  )
        40           Br  tau(  40) = (   0.7042240   0.3144429   0.0439897  )
        41           Br  tau(  41) = (   0.2042240   0.2296645   0.0439897  )
        42           Br  tau(  42) = (   0.7042240   0.3144429   0.7051533  )
        43           Br  tau(  43) = (   0.7957761   0.8585504   0.7931327  )
        44           Br  tau(  44) = (   0.2957760   0.7737719   1.4542963  )
        45           N   tau(  45) = (   0.5491350   0.6488481   1.1237145  )
        46           N   tau(  46) = (   0.0491350   0.9834742   1.1237145  )
        47           N   tau(  47) = (   0.4508650   0.4393667   0.3745715  )
        48           N   tau(  48) = (   0.9508651   0.1047407   0.3745715  )

     number of k points=    27  Gaussian smearing, width (Ry)=  0.0005
                       cart. coord. in units 2pi/alat
        k(    1) = (   0.0000000   0.0000000   0.0000000), wk =   0.0312500
        k(    2) = (   0.0000000   0.0000000   0.1668573), wk =   0.0625000
        k(    3) = (   0.0000000   0.0000000  -0.3337147), wk =   0.0312500
        k(    4) = (   0.0000000   0.2297341   0.0000000), wk =   0.0625000
        k(    5) = (   0.0000000   0.2297341   0.1668573), wk =   0.1250000
        k(    6) = (   0.0000000   0.2297341  -0.3337147), wk =   0.0625000
        k(    7) = (   0.0000000  -0.4594681   0.0000000), wk =   0.0312500
        k(    8) = (   0.0000000  -0.4594681   0.1668573), wk =   0.0625000
        k(    9) = (   0.0000000  -0.4594681  -0.3337147), wk =   0.0312500
        k(   10) = (   0.2500000   0.0000000   0.0000000), wk =   0.0625000
        k(   11) = (   0.2500000   0.0000000   0.1668573), wk =   0.1250000
        k(   12) = (   0.2500000   0.0000000  -0.3337147), wk =   0.0625000
        k(   13) = (   0.2500000   0.2297341   0.0000000), wk =   0.1250000
        k(   14) = (   0.2500000   0.2297341   0.1668573), wk =   0.2500000
        k(   15) = (   0.2500000   0.2297341  -0.3337147), wk =   0.1250000
        k(   16) = (   0.2500000  -0.4594681   0.0000000), wk =   0.0625000
        k(   17) = (   0.2500000  -0.4594681   0.1668573), wk =   0.1250000
        k(   18) = (   0.2500000  -0.4594681  -0.3337147), wk =   0.0625000
        k(   19) = (  -0.5000000   0.0000000   0.0000000), wk =   0.0312500
        k(   20) = (  -0.5000000   0.0000000   0.1668573), wk =   0.0625000
        k(   21) = (  -0.5000000   0.0000000  -0.3337147), wk =   0.0312500
        k(   22) = (  -0.5000000   0.2297341   0.0000000), wk =   0.0625000
        k(   23) = (  -0.5000000   0.2297341   0.1668573), wk =   0.1250000
        k(   24) = (  -0.5000000   0.2297341  -0.3337147), wk =   0.0625000
        k(   25) = (  -0.5000000  -0.4594681   0.0000000), wk =   0.0312500
        k(   26) = (  -0.5000000  -0.4594681   0.1668573), wk =   0.0625000
        k(   27) = (  -0.5000000  -0.4594681  -0.3337147), wk =   0.0312500

     Dense  grid:   408691 G-vectors     FFT dimensions: (  80,  90, 120)

     Estimated max dynamical RAM per process >     680.14 MB

     Estimated total dynamical RAM >       5.31 GB

     Initial potential from superposition of free atoms

     starting charge     199.3841, renormalised to     200.0000
     Starting wfcs are random

     total cpu time spent up to now is       29.0 secs

     Self-consistent Calculation

     iteration #  1     ecut=    65.00 Ry     beta= 0.70
     ParO style diagonalization
     ethr =  5.00E-06,  avg # of iterations = 29.4

     total cpu time spent up to now is     1025.5 secs

     total energy              =    -929.52383276 Ry
     estimated scf accuracy    <       2.89536115 Ry

     iteration #  2     ecut=    65.00 Ry     beta= 0.70
     ParO style diagonalization
     ethr =  1.45E-03,  avg # of iterations =  8.7

     total cpu time spent up to now is     1352.0 secs

     total energy              =    -930.09736118 Ry
     estimated scf accuracy    <       0.89588393 Ry

     iteration #  3     ecut=    65.00 Ry     beta= 0.70
     ParO style diagonalization
     ethr =  4.48E-04,  avg # of iterations =  8.0

     total cpu time spent up to now is     1649.1 secs

     total energy              =    -930.30726518 Ry
     estimated scf accuracy    <       0.03937123 Ry

     iteration #  4     ecut=    65.00 Ry     beta= 0.70
     ParO style diagonalization
     ethr =  1.97E-05,  avg # of iterations =  8.6

     total cpu time spent up to now is     1963.2 secs

     total energy              =    -930.31354008 Ry
     estimated scf accuracy    <       0.00480210 Ry

     iteration #  5     ecut=    65.00 Ry     beta= 0.70
     ParO style diagonalization
     ethr =  2.40E-06,  avg # of iterations =  7.8

     total cpu time spent up to now is     2254.5 secs

     total energy              =    -930.31476473 Ry
     estimated scf accuracy    <       0.00036220 Ry

     iteration #  6     ecut=    65.00 Ry     beta= 0.70
     ParO style diagonalization
     ethr =  1.81E-07,  avg # of iterations =  8.1

     total cpu time spent up to now is     2556.6 secs

     total energy              =    -930.31484164 Ry
     estimated scf accuracy    <       0.00001380 Ry

     iteration #  7     ecut=    65.00 Ry     beta= 0.70
     ParO style diagonalization
     ethr =  6.90E-09,  avg # of iterations =  9.7

     total cpu time spent up to now is     2909.4 secs

     total energy              =    -930.31484548 Ry
     estimated scf accuracy    <       0.00000267 Ry

     iteration #  8     ecut=    65.00 Ry     beta= 0.70
     ParO style diagonalization
     ethr =  1.34E-09,  avg # of iterations =  9.0

     total cpu time spent up to now is     3243.1 secs

     total energy              =    -930.31484610 Ry
     estimated scf accuracy    <       0.00000009 Ry

     iteration #  9     ecut=    65.00 Ry     beta= 0.70
     ParO style diagonalization
     ethr =  4.71E-11,  avg # of iterations =  9.5

     total cpu time spent up to now is     3588.9 secs

     total energy              =    -930.31484612 Ry
     estimated scf accuracy    <          8.5E-09 Ry

     iteration # 10     ecut=    65.00 Ry     beta= 0.70
     ParO style diagonalization
     ethr =  4.26E-12,  avg # of iterations =  9.5

     total cpu time spent up to now is     3938.6 secs

     total energy              =    -930.31484613 Ry
     estimated scf accuracy    <          9.0E-10 Ry

     iteration # 11     ecut=    65.00 Ry     beta= 0.70
     ParO style diagonalization
     ethr =  4.51E-13,  avg # of iterations =  8.5

     total cpu time spent up to now is     4257.9 secs

     End of self-consistent calculation

          k = 0.0000 0.0000 0.0000 ( 51119 PWs)   bands (ev):

   -17.2664 -17.2655 -17.2576 -17.2571 -14.3086 -14.3005 -14.3003 -14.2929
   -14.2747 -14.2573 -14.2500 -14.2498 -14.2374 -14.2369 -14.2367 -14.2363
   -14.2235 -14.2218 -14.2212 -14.2205 -14.2123 -14.2118 -14.2117 -14.2114
   -11.8057 -11.6536 -11.5748 -11.5593 -11.5418 -11.5145 -11.5118 -11.4586
   -11.4512 -11.3166 -11.2936 -11.2909 -10.2595 -10.2468 -10.2430 -10.2418
    -6.8084  -6.7966  -6.7670  -6.7633  -6.7595  -6.7592  -6.7469  -6.7234
    -5.9759  -5.5293  -5.1033  -4.6441  -4.6239  -4.6166  -4.6077  -4.5676
    -2.6196  -2.6191  -2.6073  -2.5881  -2.5630  -2.5613  -2.5496  -2.5435
    -1.3651  -1.2803  -1.2796  -1.0640  -0.9395  -0.8793  -0.0709  -0.0501
     0.0819   0.0947   0.1430   0.2538   0.3832   0.4564   0.4598   0.4960
     0.5107   0.5616   0.5759   0.5896   0.6227   0.6229   0.6330   0.6737
     0.7203   0.7456   0.8448   0.9506   0.9707   0.9991   1.0504   1.1117
     1.1290   1.2502   1.6516   2.0996   4.2134   4.2344   4.3353   4.6667
     4.7022   4.9149   6.4030   6.9718   6.9920   7.3923   7.5716   7.6930
     7.7066   7.8484   7.8583   7.9024   7.9690   8.0444   8.2661   8.3883
     8.5206   8.6369   8.7084   8.8279   9.0361   9.0398   9.0689   9.0777
     9.1260   9.1709   9.2260   9.4101   9.4915   9.4954   9.6889   9.6914
     9.8618   9.9221  10.0243  10.0281  10.0406  10.1862  10.2205  10.5864
    10.5962  10.6052  10.6060  10.6390  10.7780  10.8705  10.9665  11.0627
    11.1115  11.2280  11.3381  11.3637  11.4617  11.5020  11.5129  11.5876
    11.6756  11.6904  11.8721  12.0847  12.1754  12.3368  12.4563  12.5222
    12.6483  12.7166  12.7710  12.8328  13.0598  13.1563  13.1699  13.3349
    13.3847  13.5451  13.6020  13.6955  13.7269  13.8571  13.9585  14.1592
    14.2293  14.2448  14.3580  14.5164  14.5499  14.8424  14.9036  14.9585
    14.9638  15.0526  15.2282  15.2826  15.4006  15.4088  15.4170  15.4391

          k = 0.0000 0.0000 0.1669 ( 51079 PWs)   bands (ev):

   -17.2662 -17.2656 -17.2575 -17.2572 -14.3036 -14.3004 -14.3003 -14.2876
   -14.2796 -14.2624 -14.2500 -14.2499 -14.2374 -14.2370 -14.2367 -14.2364
   -14.2233 -14.2217 -14.2217 -14.2207 -14.2123 -14.2119 -14.2117 -14.2115
   -11.7935 -11.7002 -11.5539 -11.5533 -11.5428 -11.5220 -11.4749 -11.4565
   -11.4516 -11.3388 -11.2932 -11.2913 -10.2569 -10.2463 -10.2444 -10.2436
    -6.8067  -6.7984  -6.7656  -6.7627  -6.7603  -6.7598  -6.7432  -6.7264
    -5.9192  -5.6051  -5.0409  -4.6756  -4.6401  -4.6175  -4.6156  -4.6092
    -2.6131  -2.6122  -2.6059  -2.5904  -2.5735  -2.5712  -2.5435  -2.5424
    -1.3400  -1.2528  -1.1012  -1.0494  -0.8546  -0.7856  -0.0313  -0.0260
    -0.0003   0.0485   0.1606   0.2284   0.2687   0.2806   0.4010   0.4852
     0.5193   0.5580   0.5720   0.5883   0.6026   0.6216   0.7081   0.7118
     0.7342   0.7395   0.8216   0.9345   0.9459   0.9853   1.0023   1.0835
     1.1323   1.1813   1.6654   1.9085   4.2977   4.3912   4.6028   4.6596
     4.7370   5.3395   6.5019   6.6264   6.9699   7.2642   7.3760   7.5017
     7.5904   7.6242   7.9453   7.9908   8.0360   8.1109   8.3005   8.3388
     8.6099   8.7008   8.7122   8.7610   8.8544   8.9462   8.9608   9.0415
     9.0799   9.3162   9.4746   9.5002   9.5495   9.5616   9.7363   9.7607
     9.7646   9.8521   9.9502  10.0438  10.1250  10.2500  10.2735  10.3727
    10.5299  10.5800  10.6176  10.6198  10.6994  10.8945  10.9817  11.0279
    11.0629  11.2063  11.3004  11.3543  11.4140  11.5084  11.5704  11.6172
    11.8085  11.8953  12.0592  12.0614  12.0870  12.3320  12.3407  12.5749
    12.6427  12.7258  12.7771  12.8069  12.8657  12.9295  13.2639  13.3030
    13.3589  13.7161  13.7669  13.7798  13.9193  14.0600  14.0728  14.1699
    14.2080  14.3622  14.3997  14.4140  14.4755  14.7231  14.7342  14.8371
    14.9824  15.0183  15.1126  15.1861  15.1957  15.2986  15.3771  15.4473

          k = 0.0000 0.0000-0.3337 ( 51058 PWs)   bands (ev):

   -17.2659 -17.2659 -17.2574 -17.2574 -14.3003 -14.3003 -14.2916 -14.2916
   -14.2750 -14.2749 -14.2500 -14.2499 -14.2372 -14.2372 -14.2365 -14.2365
   -14.2227 -14.2227 -14.2213 -14.2213 -14.2121 -14.2121 -14.2116 -14.2116
   -11.7573 -11.7572 -11.5458 -11.5458 -11.5382 -11.5382 -11.4533 -11.4533
   -11.3989 -11.3989 -11.2923 -11.2923 -10.2506 -10.2506 -10.2449 -10.2449
    -6.8026  -6.8026  -6.7627  -6.7627  -6.7613  -6.7613  -6.7347  -6.7346
    -5.7715  -5.7715  -4.8732  -4.8732  -4.6304  -4.6304  -4.6126  -4.6126
    -2.6042  -2.6042  -2.5940  -2.5940  -2.5876  -2.5876  -2.5410  -2.5410
    -1.2835  -1.2834  -1.0181  -1.0181  -0.4486  -0.4486  -0.3048  -0.3047
     0.0205   0.0206   0.0881   0.0882   0.2054   0.2055   0.4416   0.4417
     0.5277   0.5277   0.5711   0.5711   0.6149   0.6149   0.7545   0.7545
     0.7574   0.7574   0.8420   0.8421   0.9325   0.9325   1.0262   1.0262
     1.1463   1.1463   1.7279   1.7280   4.4502   4.4502   4.5262   4.5262
     5.7400   5.7400   6.2643   6.2643   6.8768   6.8768   7.2489   7.2489
     7.6004   7.6004   7.9785   7.9785   8.1559   8.1559   8.4467   8.4467
     8.4507   8.4507   8.7618   8.7618   8.8554   8.8554   8.9461   8.9461
     9.3251   9.3251   9.5736   9.5736   9.6438   9.6438   9.6809   9.6809
     9.8575   9.8575   9.9288   9.9288  10.1978  10.1978  10.3636  10.3637
    10.5197  10.5197  10.5822  10.5822  10.6587  10.6587  10.9952  10.9953
    11.0915  11.0915  11.3694  11.3694  11.5375  11.5375  11.6460  11.6460
    11.8915  11.8915  12.1426  12.1426  12.2169  12.2169  12.4008  12.4008
    12.5470  12.5470  12.7477  12.7477  13.0555  13.0556  13.1413  13.1413
    13.6487  13.6487  13.8439  13.8439  14.0964  14.0964  14.1613  14.1613
    14.2049  14.2049  14.4856  14.4856  14.7000  14.7000  14.7012  14.7013
    14.8193  14.8193  15.0983  15.0983  15.2591  15.2591  15.4331  15.4331

          k = 0.0000 0.2297 0.0000 ( 51101 PWs)   bands (ev):

   -17.2661 -17.2655 -17.2577 -17.2573 -14.3062 -14.2956 -14.2930 -14.2926
   -14.2721 -14.2597 -14.2572 -14.2570 -14.2374 -14.2370 -14.2369 -14.2366
   -14.2234 -14.2224 -14.2213 -14.2209 -14.2123 -14.2118 -14.2118 -14.2115
   -11.7853 -11.6387 -11.6381 -11.5591 -11.5569 -11.5460 -11.4341 -11.4311
   -11.4309 -11.3287 -11.3179 -11.3156 -10.2538 -10.2430 -10.2425 -10.2384
    -6.8035  -6.7942  -6.7659  -6.7656  -6.7616  -6.7607  -6.7430  -6.7264
    -5.8697  -5.4193  -5.2616  -4.7618  -4.6477  -4.6247  -4.6232  -4.6210
    -2.6196  -2.6030  -2.5955  -2.5904  -2.5842  -2.5613  -2.5580  -2.5544
    -1.2259  -1.1489  -1.0506  -0.9243  -0.8443  -0.7463  -0.1074  -0.0320
     0.0455   0.0588   0.0954   0.1480   0.1560   0.3363   0.4028   0.4150
     0.5153   0.5917   0.6102   0.6104   0.6120   0.6166   0.6672   0.6731
     0.7022   0.7217   0.8753   0.9247   0.9665   1.0089   1.0381   1.0562
     1.1248   1.2863   1.3438   1.7686   4.3143   4.6518   4.8017   4.9053
     5.0428   5.2156   6.4613   6.5634   6.8026   6.9012   7.3320   7.3502
     7.3766   7.7009   7.7638   7.9296   8.0891   8.1154   8.2161   8.4032
     8.4382   8.6548   8.6627   8.6652   8.8593   8.9348   8.9674   9.0057
     9.2114   9.2519   9.2833   9.4686   9.5023   9.5429   9.7606   9.8687
     9.9256   9.9262   9.9518  10.1748  10.2800  10.2997  10.3079  10.4470
    10.4483  10.5341  10.7021  10.7452  10.8035  10.8541  10.8799  11.1013
    11.1981  11.2923  11.2949  11.3385  11.4171  11.5574  11.7093  11.8446
    11.9229  12.0470  12.0588  12.2806  12.3671  12.3769  12.4325  12.5316
    12.7046  12.7260  12.9225  12.9317  13.0408  13.0747  13.2363  13.4112
    13.4322  13.5773  13.6131  13.6805  13.7711  13.9193  13.9207  14.0153
    14.0844  14.1944  14.2653  14.4233  14.4321  14.6180  14.6447  14.7353
    14.7782  14.9699  14.9865  15.0951  15.1838  15.2883  15.2995  15.3095

          k = 0.0000 0.2297 0.1669 ( 51079 PWs)   bands (ev):

   -17.2660 -17.2655 -17.2576 -17.2574 -14.3012 -14.2933 -14.2930 -14.2897
   -14.2770 -14.2648 -14.2572 -14.2570 -14.2373 -14.2370 -14.2370 -14.2366
   -14.2232 -14.2222 -14.2218 -14.2212 -14.2122 -14.2119 -14.2118 -14.2116
   -11.7738 -11.6856 -11.6299 -11.5909 -11.5204 -11.4981 -11.4431 -11.4301
   -11.4271 -11.3497 -11.3175 -11.3156 -10.2519 -10.2440 -10.2422 -10.2396
    -6.8020  -6.7955  -6.7653  -6.7647  -6.7623  -6.7610  -6.7404  -6.7286
    -5.8128  -5.4964  -5.2011  -4.8507  -4.6444  -4.6277  -4.6246  -4.6225
    -2.6115  -2.6021  -2.5961  -2.5887  -2.5823  -2.5741  -2.5535  -2.5521
    -1.1265  -1.0445  -0.9417  -0.9088  -0.7750  -0.7418  -0.0836  -0.0254
     0.0001   0.0338   0.0739   0.0954   0.2014   0.2610   0.3411   0.3455
     0.4832   0.4992   0.5497   0.5864   0.6218   0.6317   0.7151   0.7194
     0.7362   0.7506   0.8608   0.9051   0.9554   0.9832   1.0114   1.0532
     1.1288   1.1862   1.3528   1.5654   4.7060   4.7954   4.9523   4.9931
     5.1564   5.2516   6.5050   6.6058   6.6071   6.8543   7.0132   7.2761
     7.3790   7.4544   7.7761   7.7935   8.1298   8.1374   8.2994   8.3180
     8.4430   8.5893   8.6780   8.7370   8.8792   8.9572   9.0107   9.1139
     9.1831   9.2427   9.2812   9.4308   9.5129   9.6627   9.6672   9.7308
     9.8857   9.9760   9.9875  10.1713  10.1956  10.3767  10.3841  10.4182
    10.4628  10.6133  10.6476  10.6614  10.8631  10.8929  10.9390  11.0944
    11.1265  11.1687  11.1927  11.3855  11.4617  11.5813  11.8436  11.9081
    11.9667  12.0270  12.1671  12.1719  12.2656  12.2677  12.4244  12.6077
    12.6362  12.7765  12.7974  12.8902  12.9431  13.0750  13.2473  13.3246
    13.4587  13.5675  13.5964  13.7764  13.8054  13.9334  14.0115  14.1775
    14.3122  14.3406  14.3484  14.4176  14.5108  14.5328  14.6643  14.6946
    14.7129  14.8891  14.9880  15.1165  15.1899  15.2888  15.3500  15.4183

          k = 0.0000 0.2297-0.3337 ( 51122 PWs)   bands (ev):

   -17.2658 -17.2658 -17.2575 -17.2575 -14.2931 -14.2930 -14.2891 -14.2891
   -14.2773 -14.2772 -14.2572 -14.2571 -14.2372 -14.2372 -14.2368 -14.2368
   -14.2226 -14.2226 -14.2218 -14.2218 -14.2121 -14.2120 -14.2117 -14.2117
   -11.7396 -11.7396 -11.6153 -11.6153 -11.4868 -11.4868 -11.4286 -11.4285
   -11.4040 -11.4039 -11.3166 -11.3165 -10.2476 -10.2476 -10.2413 -10.2413
    -6.7987  -6.7987  -6.7639  -6.7639  -6.7626  -6.7626  -6.7345  -6.7345
    -5.6645  -5.6645  -5.0400  -5.0400  -4.6366  -4.6366  -4.6239  -4.6239
    -2.6003  -2.6003  -2.5924  -2.5924  -2.5837  -2.5837  -2.5516  -2.5516
    -1.0448  -1.0447  -0.8681  -0.8681  -0.3903  -0.3903  -0.3609  -0.3608
    -0.0084  -0.0084   0.0748   0.0749   0.1611   0.1611   0.3136   0.3136
     0.4604   0.4604   0.5480   0.5481   0.6122   0.6122   0.7471   0.7471
     0.8045   0.8045   0.8446   0.8446   0.9290   0.9290   1.0288   1.0288
     1.1399   1.1399   1.3893   1.3893   4.8399   4.8399   5.0483   5.0483
     5.7866   5.7866   6.1625   6.1625   6.7679   6.7679   6.8192   6.8192
     7.3591   7.3591   7.8125   7.8125   8.1867   8.1867   8.2179   8.2179
     8.4986   8.4986   8.6867   8.6867   9.0349   9.0349   9.0993   9.0993
     9.2234   9.2235   9.3693   9.3693   9.5607   9.5607   9.6662   9.6662
     9.8816   9.8816  10.1486  10.1486  10.2202  10.2202  10.4000  10.4000
    10.5562  10.5562  10.6626  10.6626  10.8248  10.8248  10.9738  10.9738
    11.2179  11.2179  11.3027  11.3027  11.6239  11.6239  11.8710  11.8710
    12.0817  12.0817  12.1486  12.1486  12.2532  12.2532  12.4109  12.4109
    12.5505  12.5505  12.7216  12.7216  13.0361  13.0361  13.3089  13.3089
    13.6499  13.6499  13.7880  13.7880  13.9865  13.9865  14.0994  14.0994
    14.2199  14.2199  14.4520  14.4520  14.5215  14.5215  14.6538  14.6538
    14.8327  14.8327  15.1548  15.1548  15.2249  15.2249  15.3588  15.3588

          k = 0.0000-0.4595 0.0000 ( 51118 PWs)   bands (ev):

   -17.2656 -17.2656 -17.2576 -17.2576 -14.3007 -14.3007 -14.2753 -14.2752
   -14.2751 -14.2751 -14.2655 -14.2655 -14.2373 -14.2373 -14.2368 -14.2368
   -14.2230 -14.2230 -14.2213 -14.2213 -14.2121 -14.2121 -14.2117 -14.2117
   -11.7262 -11.7262 -11.5995 -11.5995 -11.5529 -11.5529 -11.3806 -11.3806
   -11.3750 -11.3750 -11.3621 -11.3620 -10.2452 -10.2452 -10.2370 -10.2369
    -6.7947  -6.7947  -6.7664  -6.7664  -6.7634  -6.7634  -6.7344  -6.7344
    -5.5898  -5.5898  -5.1232  -5.1232  -4.6442  -4.6441  -4.6323  -4.6323
    -2.6099  -2.6099  -2.5940  -2.5940  -2.5699  -2.5699  -2.5679  -2.5679
    -1.1366  -1.1366  -0.5627  -0.5627  -0.3733  -0.3733  -0.3621  -0.3621
    -0.3321  -0.3321   0.0759   0.0760   0.2080   0.2081   0.3969   0.3970
     0.4675   0.4675   0.6061   0.6061   0.6104   0.6104   0.6877   0.6877
     0.7925   0.7925   0.8488   0.8488   0.9932   0.9932   1.0048   1.0048
     1.1242   1.1243   1.4234   1.4234   4.5564   4.5564   5.5917   5.5917
     5.9335   5.9335   5.9463   5.9463   6.1570   6.1570   7.0027   7.0027
     7.4110   7.4110   7.7942   7.7942   8.0761   8.0761   8.4290   8.4290
     8.6507   8.6507   8.6752   8.6752   8.7896   8.7896   8.8357   8.8357
     8.9617   8.9617   9.5019   9.5019   9.6738   9.6738   9.7953   9.7953
     9.9666   9.9666  10.0219  10.0220  10.4437  10.4437  10.4901  10.4901
    10.5450  10.5450  10.6067  10.6067  10.8276  10.8276  11.0218  11.0218
    11.2896  11.2896  11.4407  11.4407  11.5313  11.5313  11.8222  11.8222
    12.2789  12.2789  12.3225  12.3225  12.4712  12.4712  12.5084  12.5084
    13.0108  13.0108  13.0557  13.0557  13.2197  13.2197  13.3007  13.3007
    13.4873  13.4873  13.6053  13.6053  13.6539  13.6539  13.9981  13.9981
    13.9996  13.9996  14.1550  14.1550  14.2440  14.2440  14.4095  14.4095
    14.5198  14.5198  14.8288  14.8289  15.2050  15.2050  15.3213  15.3214

          k = 0.0000-0.4595 0.1669 ( 51102 PWs)   bands (ev):

   -17.2656 -17.2656 -17.2576 -17.2576 -14.2956 -14.2956 -14.2754 -14.2754
   -14.2751 -14.2751 -14.2704 -14.2704 -14.2372 -14.2372 -14.2369 -14.2369
   -14.2229 -14.2229 -14.2217 -14.2217 -14.2120 -14.2120 -14.2117 -14.2117
   -11.7174 -11.7174 -11.6418 -11.6418 -11.5043 -11.5043 -11.3882 -11.3882
   -11.3755 -11.3754 -11.3689 -11.3689 -10.2449 -10.2449 -10.2374 -10.2374
    -6.7944  -6.7944  -6.7668  -6.7667  -6.7630  -6.7630  -6.7343  -6.7343
    -5.5323  -5.5323  -5.2044  -5.2044  -4.6428  -4.6428  -4.6344  -4.6343
    -2.6032  -2.6032  -2.5919  -2.5919  -2.5774  -2.5774  -2.5639  -2.5639
    -0.9607  -0.9607  -0.5427  -0.5427  -0.4203  -0.4203  -0.3602  -0.3601
    -0.3139  -0.3139   0.0618   0.0618   0.2333   0.2334   0.3736   0.3736
     0.4262   0.4262   0.4678   0.4678   0.6284   0.6285   0.7256   0.7256
     0.7983   0.7983   0.8707   0.8707   0.9737   0.9737   0.9947   0.9947
     1.1227   1.1227   1.2522   1.2522   5.0088   5.0088   5.6261   5.6261
     5.8897   5.8897   5.9529   5.9529   6.1383   6.1383   6.8657   6.8657
     7.2280   7.2280   7.7832   7.7832   8.0180   8.0180   8.3801   8.3801
     8.6083   8.6083   8.6994   8.6994   8.7564   8.7564   8.9415   8.9415
     9.1565   9.1565   9.3562   9.3562   9.6777   9.6777   9.7454   9.7454
     9.8583   9.8583  10.1700  10.1700  10.4179  10.4180  10.5135  10.5135
    10.6077  10.6077  10.6502  10.6503  10.8310  10.8310  11.0237  11.0237
    11.2406  11.2406  11.3086  11.3086  11.5321  11.5321  11.8654  11.8654
    12.1746  12.1746  12.3843  12.3843  12.5264  12.5264  12.6424  12.6424
    12.6998  12.6998  13.0082  13.0082  13.2037  13.2037  13.3880  13.3880
    13.4119  13.4119  13.5390  13.5390  13.7836  13.7836  13.9949  13.9949
    14.0202  14.0202  14.1734  14.1734  14.2809  14.2809  14.5492  14.5492
    14.6158  14.6158  15.1254  15.1254  15.3513  15.3513  15.3822  15.3822

          k = 0.0000-0.4595-0.3337 ( 51076 PWs)   bands (ev):

   -17.2656 -17.2656 -17.2576 -17.2576 -14.2834 -14.2834 -14.2831 -14.2831
   -14.2750 -14.2750 -14.2749 -14.2749 -14.2371 -14.2371 -14.2371 -14.2371
   -14.2224 -14.2224 -14.2224 -14.2224 -14.2119 -14.2119 -14.2119 -14.2119
   -11.6979 -11.6979 -11.6785 -11.6785 -11.4607 -11.4607 -11.4114 -11.4113
   -11.3748 -11.3747 -11.3725 -11.3725 -10.2445 -10.2444 -10.2378 -10.2378
    -6.7941  -6.7941  -6.7672  -6.7671  -6.7625  -6.7625  -6.7342  -6.7342
    -5.3913  -5.3913  -5.3683  -5.3683  -4.6404  -4.6404  -4.6373  -4.6373
    -2.5986  -2.5986  -2.5861  -2.5861  -2.5834  -2.5834  -2.5638  -2.5638
    -0.6698  -0.6698  -0.5781  -0.5781  -0.4475  -0.4475  -0.4133  -0.4133
    -0.1662  -0.1662  -0.1172  -0.1172   0.2761   0.2761   0.2817   0.2817
     0.3873   0.3873   0.4153   0.4153   0.6008   0.6008   0.7764   0.7764
     0.7891   0.7891   0.8847   0.8847   0.9227   0.9227   0.9957   0.9957
     1.1278   1.1278   1.1488   1.1489   5.6669   5.6669   5.7285   5.7285
     5.8700   5.8701   5.9393   5.9393   6.1632   6.1632   6.2205   6.2205
     7.2242   7.2242   7.7116   7.7116   8.0418   8.0418   8.3016   8.3016
     8.5968   8.5968   8.7228   8.7228   8.7281   8.7282   9.0560   9.0560
     9.2078   9.2078   9.4693   9.4693   9.5826   9.5826   9.6801   9.6801
     9.8006   9.8006  10.2307  10.2307  10.4093  10.4093  10.5101  10.5101
    10.6209  10.6209  10.6287  10.6287  10.8640  10.8640  11.0835  11.0835
    11.1541  11.1541  11.2704  11.2704  11.6123  11.6123  11.8541  11.8542
    12.2453  12.2453  12.3196  12.3196  12.4099  12.4099  12.5255  12.5255
    12.7392  12.7392  12.9663  12.9663  13.2860  13.2860  13.3495  13.3495
    13.4581  13.4581  13.4728  13.4728  13.8344  13.8344  13.9767  13.9767
    13.9802  13.9802  14.1175  14.1175  14.3191  14.3191  14.6606  14.6606
    15.0036  15.0036  15.2546  15.2546  15.2873  15.2873  15.4769  15.4769

          k = 0.2500 0.0000 0.0000 ( 51079 PWs)   bands (ev):

   -17.2650 -17.2642 -17.2588 -17.2583 -14.3062 -14.2956 -14.2931 -14.2927
   -14.2720 -14.2596 -14.2573 -14.2571 -14.2374 -14.2370 -14.2369 -14.2366
   -14.2234 -14.2224 -14.2213 -14.2209 -14.2123 -14.2119 -14.2118 -14.2115
   -11.7803 -11.6270 -11.6101 -11.5644 -11.5465 -11.5058 -11.4893 -11.4889
   -11.3953 -11.3291 -11.3285 -11.3234 -10.2562 -10.2469 -10.2411 -10.2399
    -6.7961  -6.7865  -6.7640  -6.7591  -6.7590  -6.7575  -6.7493  -6.7280
    -5.8645  -5.4115  -5.2533  -4.7484  -4.6416  -4.6212  -4.6211  -4.6153
    -2.6159  -2.6094  -2.6035  -2.5991  -2.5774  -2.5719  -2.5615  -2.5614
    -1.2382  -1.1981  -1.1819  -0.8856  -0.7884  -0.6571  -0.1199   0.0194
     0.0599   0.0918   0.0929   0.1365   0.1842   0.2785   0.3302   0.3548
     0.5878   0.5888   0.5902   0.6296   0.6513   0.6663   0.6889   0.7092
     0.7318   0.7664   0.8157   0.8413   0.8618   0.9538   0.9766   1.0310
     1.0951   1.2819   1.3216   1.7745   4.3167   4.7549   4.7990   4.8389
     5.1319   5.1870   6.5464   6.5974   6.8812   7.1342   7.3538   7.3572
     7.6521   7.7039   7.7301   8.1094   8.2040   8.2056   8.2555   8.3665
     8.4967   8.7191   8.7578   8.8021   9.0140   9.0838   9.0976   9.1390
     9.1466   9.2209   9.2426   9.4909   9.5186   9.5247   9.5358   9.7166
     9.8024   9.8979   9.8983   9.9709  10.0947  10.1974  10.2367  10.2979
    10.4768  10.4952  10.5241  10.5593  10.6668  10.7627  10.8884  10.8962
    11.0096  11.0179  11.1888  11.2066  11.4247  11.7049  11.7544  11.7667
    11.7837  11.9748  12.0993  12.1597  12.3130  12.4998  12.5383  12.5444
    12.6844  12.7719  12.9095  12.9188  12.9431  13.2567  13.4322  13.4372
    13.4841  13.5234  13.6032  13.6719  13.7191  13.7567  13.8872  13.9651
    14.2057  14.2924  14.3658  14.4965  14.5815  14.6393  14.6595  14.8083
    14.8204  14.9151  14.9397  15.0133  15.0793  15.1226  15.2105  15.3889

          k = 0.2500 0.0000 0.1669 ( 51056 PWs)   bands (ev):

   -17.2649 -17.2643 -17.2588 -17.2584 -14.3012 -14.2934 -14.2931 -14.2896
   -14.2770 -14.2647 -14.2573 -14.2572 -14.2373 -14.2370 -14.2370 -14.2366
   -14.2232 -14.2222 -14.2218 -14.2212 -14.2122 -14.2119 -14.2118 -14.2116
   -11.7686 -11.6774 -11.6045 -11.5641 -11.5260 -11.5070 -11.4672 -11.4664
   -11.4053 -11.3442 -11.3290 -11.3283 -10.2538 -10.2460 -10.2423 -10.2419
    -6.7949  -6.7881  -6.7633  -6.7599  -6.7586  -6.7574  -6.7459  -6.7308
    -5.8071  -5.4888  -5.1925  -4.8391  -4.6390  -4.6243  -4.6205  -4.6163
    -2.6129  -2.6091  -2.6049  -2.5939  -2.5805  -2.5742  -2.5643  -2.5618
    -1.1601  -1.1104  -1.0432  -0.7935  -0.7671  -0.6645  -0.0906  -0.0090
     0.0306   0.0520   0.0662   0.1718   0.1738   0.1984   0.2789   0.3540
     0.3900   0.5367   0.5792   0.6216   0.6254   0.6852   0.7285   0.7388
     0.7580   0.7912   0.8336   0.8596   0.8746   0.9390   0.9524   1.0384
     1.0651   1.1569   1.3264   1.5681   4.7658   4.8522   4.8875   5.0798
     5.1334   5.2445   6.5634   6.6300   6.6623   7.1069   7.1907   7.2869
     7.2942   7.5765   7.7263   8.1265   8.1371   8.2173   8.3180   8.3561
     8.5399   8.7608   8.8011   8.8868   8.8932   8.9331   9.0524   9.0737
     9.2692   9.3156   9.3824   9.4249   9.5591   9.6516   9.6753   9.7220
     9.7703   9.8364   9.8887  10.0066  10.0687  10.1746  10.1865  10.3321
    10.3341  10.4508  10.4944  10.5773  10.6324  10.7538  10.9729  10.9819
    11.0172  11.0599  11.1939  11.2484  11.3636  11.6106  11.6662  11.7162
    11.7779  12.0030  12.1073  12.2591  12.3143  12.3193  12.3927  12.5082
    12.6244  12.7516  12.8773  12.9622  13.1467  13.3073  13.3159  13.4212
    13.5470  13.6405  13.6934  13.7871  13.8559  13.8788  13.9315  13.9544
    14.1198  14.2644  14.3810  14.4096  14.5013  14.5256  14.6752  14.8525
    14.9121  15.0223  15.0877  15.0877  15.1407  15.1501  15.2877  15.3332

          k = 0.2500 0.0000-0.3337 ( 51066 PWs)   bands (ev):

   -17.2646 -17.2646 -17.2586 -17.2586 -14.2931 -14.2931 -14.2890 -14.2890
   -14.2772 -14.2772 -14.2573 -14.2572 -14.2372 -14.2372 -14.2368 -14.2368
   -14.2226 -14.2226 -14.2218 -14.2218 -14.2121 -14.2120 -14.2117 -14.2117
   -11.7335 -11.7335 -11.5884 -11.5883 -11.5111 -11.5111 -11.4322 -11.4322
   -11.4001 -11.4000 -11.3286 -11.3286 -10.2480 -10.2480 -10.2440 -10.2440
    -6.7918  -6.7918  -6.7617  -6.7617  -6.7577  -6.7577  -6.7382  -6.7381
    -5.6577  -5.6577  -5.0302  -5.0302  -4.6318  -4.6318  -4.6186  -4.6186
    -2.6116  -2.6116  -2.5935  -2.5935  -2.5823  -2.5823  -2.5643  -2.5643
    -1.1107  -1.1107  -0.7954  -0.7954  -0.3969  -0.3969  -0.3512  -0.3512
    -0.0222  -0.0222   0.0655   0.0656   0.2334   0.2334   0.2357   0.2358
     0.4348   0.4348   0.5782   0.5782   0.6421   0.6421   0.7668   0.7668
     0.8150   0.8150   0.8652   0.8652   0.8718   0.8719   0.9896   0.9896
     1.0660   1.0660   1.3733   1.3733   4.9314   4.9315   5.0085   5.0086
     5.8151   5.8151   6.1732   6.1732   6.7123   6.7123   7.1913   7.1913
     7.2687   7.2688   7.9174   7.9174   8.2098   8.2099   8.4141   8.4141
     8.5679   8.5680   8.8305   8.8305   8.8970   8.8970   9.0687   9.0687
     9.4203   9.4203   9.4823   9.4823   9.5975   9.5975   9.7074   9.7074
     9.8296   9.8296   9.9338   9.9338  10.1741  10.1741  10.2077  10.2077
    10.3153  10.3153  10.3942  10.3942  10.8372  10.8372  10.9325  10.9325
    11.0778  11.0778  11.1812  11.1812  11.5928  11.5928  11.6021  11.6021
    11.9025  11.9025  12.1147  12.1148  12.1430  12.1430  12.5449  12.5449
    12.6810  12.6810  12.9570  12.9570  13.2993  13.2993  13.3049  13.3049
    13.6226  13.6226  13.6896  13.6897  13.9754  13.9754  14.0114  14.0114
    14.2103  14.2103  14.4445  14.4445  14.5746  14.5746  14.6935  14.6935
    14.9451  14.9451  15.0803  15.0803  15.2291  15.2291  15.5216  15.5216

          k = 0.2500 0.2297 0.0000 ( 51075 PWs)   bands (ev):

   -17.2648 -17.2642 -17.2588 -17.2585 -14.3071 -14.2981 -14.2907 -14.2854
   -14.2699 -14.2668 -14.2613 -14.2547 -14.2373 -14.2371 -14.2369 -14.2366
   -14.2233 -14.2226 -14.2213 -14.2208 -14.2122 -14.2119 -14.2118 -14.2115
   -11.7603 -11.6365 -11.6105 -11.5671 -11.5514 -11.5261 -11.4861 -11.4645
   -11.3811 -11.3589 -11.3520 -11.3048 -10.2508 -10.2434 -10.2394 -10.2372
    -6.7924  -6.7848  -6.7651  -6.7609  -6.7596  -6.7582  -6.7451  -6.7305
    -5.7808  -5.3496  -5.3233  -4.8553  -4.6472  -4.6304  -4.6291  -4.6272
    -2.6176  -2.6089  -2.6039  -2.5918  -2.5890  -2.5841  -2.5712  -2.5590
    -1.2413  -1.1605  -1.1569  -0.9138  -0.4983  -0.4152  -0.3611  -0.2792
     0.0239   0.0408   0.0793   0.1442   0.2185   0.3265   0.4379   0.4833
     0.5270   0.5632   0.5864   0.5949   0.6492   0.6686   0.6903   0.6912
     0.7425   0.7766   0.8366   0.8593   0.8677   0.9397   0.9497   1.0112
     1.0818   1.2783   1.3392   1.7481   4.3826   4.4552   4.6837   4.8800
     5.6702   5.9356   6.0058   6.2126   6.8134   6.9395   7.3860   7.4071
     7.5047   7.6784   7.6891   7.9821   8.0744   8.2189   8.3401   8.3889
     8.4616   8.6278   8.7044   8.9122   8.9796   8.9961   9.0718   9.1025
     9.1278   9.2051   9.2830   9.3715   9.3895   9.5850   9.7245   9.7420
     9.8854   9.9180  10.0280  10.0644  10.1339  10.1347  10.3000  10.3322
    10.4488  10.4626  10.4759  10.6118  10.7640  10.7802  10.8214  10.9739
    11.0848  11.1367  11.2304  11.5566  11.5601  11.6398  11.7509  11.8045
    11.8489  11.9931  12.1217  12.3083  12.4487  12.5406  12.6268  12.6776
    12.6869  12.7754  12.9154  13.0133  13.2006  13.2425  13.2664  13.3479
    13.3530  13.5503  13.6048  13.7007  13.8264  13.8971  13.9888  14.0130
    14.1173  14.1663  14.2964  14.3717  14.4036  14.5144  14.5463  14.6939
    14.7534  14.7804  14.8206  14.8756  14.9967  15.0637  15.1680  15.2275

          k = 0.2500 0.2297 0.1669 ( 51081 PWs)   bands (ev):

   -17.2647 -17.2643 -17.2588 -17.2585 -14.3028 -14.2932 -14.2913 -14.2845
   -14.2730 -14.2708 -14.2611 -14.2571 -14.2373 -14.2370 -14.2370 -14.2367
   -14.2231 -14.2224 -14.2217 -14.2212 -14.2121 -14.2118 -14.2118 -14.2116
   -11.7492 -11.6631 -11.6271 -11.5801 -11.5232 -11.5156 -11.4721 -11.4440
   -11.3863 -11.3713 -11.3490 -11.3178 -10.2490 -10.2430 -10.2403 -10.2385
    -6.7913  -6.7860  -6.7648  -6.7617  -6.7587  -6.7578  -6.7431  -6.7327
    -5.7233  -5.4020  -5.2894  -4.9435  -4.6447  -4.6323  -4.6299  -4.6279
    -2.6114  -2.6106  -2.6047  -2.5901  -2.5859  -2.5823  -2.5718  -2.5640
    -1.1572  -1.1309  -0.9749  -0.8181  -0.4732  -0.4268  -0.3623  -0.3032
     0.0044   0.0457   0.0742   0.0913   0.2362   0.2988   0.3199   0.3758
     0.4764   0.5401   0.5497   0.6046   0.6331   0.6582   0.7052   0.7358
     0.7589   0.8048   0.8428   0.8755   0.8859   0.9304   0.9427   1.0185
     1.0565   1.1808   1.2900   1.5499   4.5110   4.7733   4.8693   5.1741
     5.7041   5.9284   5.9968   6.1781   6.7001   6.8452   7.1563   7.3438
     7.3735   7.4783   7.7480   7.9582   8.0089   8.1386   8.2876   8.3914
     8.5871   8.7080   8.7588   8.8496   8.9326   9.0178   9.0689   9.1011
     9.1606   9.2855   9.2932   9.3975   9.5367   9.6386   9.7164   9.7430
     9.8201   9.8653   9.8953   9.9329  10.1389  10.2376  10.3151  10.3687
    10.4326  10.4736  10.5503  10.6586  10.6610  10.8212  10.8847  10.9377
    11.0558  11.1468  11.1882  11.4103  11.5453  11.5988  11.7980  11.8496
    11.8997  11.9878  12.2373  12.3099  12.4147  12.4505  12.5678  12.6320
    12.6642  12.7588  12.8452  13.0442  13.1309  13.1921  13.3125  13.3440
    13.4427  13.5707  13.6078  13.7383  13.7672  13.9101  13.9720  14.0423
    14.1289  14.2344  14.2575  14.4674  14.5431  14.5658  14.6230  14.6409
    14.7197  14.8193  14.9221  14.9622  15.0869  15.1347  15.2201  15.3046

          k = 0.2500 0.2297-0.3337 ( 51056 PWs)   bands (ev):

   -17.2645 -17.2645 -17.2587 -17.2587 -14.2949 -14.2948 -14.2821 -14.2821
   -14.2799 -14.2798 -14.2600 -14.2600 -14.2371 -14.2371 -14.2368 -14.2368
   -14.2226 -14.2225 -14.2220 -14.2219 -14.2120 -14.2120 -14.2117 -14.2117
   -11.7159 -11.7159 -11.6085 -11.6085 -11.5131 -11.5131 -11.4245 -11.4245
   -11.3975 -11.3974 -11.3397 -11.3397 -10.2450 -10.2449 -10.2405 -10.2405
    -6.7887  -6.7887  -6.7634  -6.7634  -6.7577  -6.7577  -6.7380  -6.7380
    -5.5729  -5.5729  -5.1301  -5.1300  -4.6386  -4.6386  -4.6292  -4.6292
    -2.6112  -2.6112  -2.5930  -2.5930  -2.5829  -2.5829  -2.5711  -2.5711
    -1.1179  -1.1178  -0.6065  -0.6064  -0.4356  -0.4355  -0.2838  -0.2838
    -0.2445  -0.2444   0.0849   0.0849   0.2087   0.2087   0.3005   0.3005
     0.4798   0.4799   0.5882   0.5882   0.6113   0.6113   0.7458   0.7458
     0.8211   0.8211   0.8632   0.8632   0.8904   0.8904   0.9933   0.9934
     1.0536   1.0536   1.3479   1.3479   4.6459   4.6459   5.7356   5.7356
     5.8817   5.8817   6.0207   6.0208   6.2496   6.2496   7.1708   7.1708
     7.3221   7.3222   7.8639   7.8639   8.0538   8.0538   8.3184   8.3184
     8.6593   8.6593   8.7965   8.7965   8.9742   8.9742   9.1573   9.1573
     9.2584   9.2585   9.4325   9.4325   9.5984   9.5984   9.6979   9.6979
     9.8126   9.8126   9.8838   9.8838  10.2000  10.2001  10.2979  10.2979
    10.4029  10.4029  10.6434  10.6434  10.7855  10.7855  10.8551  10.8551
    11.1095  11.1095  11.3745  11.3745  11.5093  11.5093  11.8261  11.8262
    11.9474  11.9474  12.3047  12.3047  12.4312  12.4312  12.5622  12.5622
    12.6362  12.6362  12.8633  12.8633  13.1965  13.1965  13.2852  13.2852
    13.5052  13.5052  13.7392  13.7392  13.9317  13.9318  14.0123  14.0123
    14.1944  14.1944  14.3798  14.3798  14.4863  14.4863  14.6988  14.6988
    14.7774  14.7774  14.9736  14.9736  15.2448  15.2448  15.3040  15.3041

          k = 0.2500-0.4595 0.0000 ( 51116 PWs)   bands (ev):

   -17.2644 -17.2644 -17.2587 -17.2587 -14.3040 -14.3040 -14.2822 -14.2822
   -14.2721 -14.2721 -14.2590 -14.2590 -14.2372 -14.2372 -14.2367 -14.2367
   -14.2230 -14.2230 -14.2211 -14.2211 -14.2120 -14.2120 -14.2116 -14.2116
   -11.7052 -11.7052 -11.5694 -11.5694 -11.5591 -11.5591 -11.4446 -11.4446
   -11.4085 -11.4084 -11.3184 -11.3184 -10.2431 -10.2431 -10.2358 -10.2358
    -6.7856  -6.7856  -6.7648  -6.7647  -6.7593  -6.7593  -6.7372  -6.7372
    -5.5715  -5.5715  -5.0989  -5.0989  -4.6472  -4.6471  -4.6372  -4.6372
    -2.6118  -2.6118  -2.6098  -2.6097  -2.5886  -2.5886  -2.5648  -2.5648
    -1.1670  -1.1670  -0.8861  -0.8861  -0.7441  -0.7441  -0.0861  -0.0861
     0.0614   0.0614   0.0783   0.0783   0.2707   0.2707   0.4579   0.4579
     0.5162   0.5162   0.6133   0.6133   0.6665   0.6665   0.7030   0.7030
     0.7240   0.7240   0.8719   0.8719   0.8781   0.8781   0.9918   0.9918
     1.0979   1.0979   1.5268   1.5268   4.5440   4.5440   4.9894   4.9894
     5.3307   5.3307   6.5326   6.5326   6.8149   6.8149   7.1238   7.1238
     7.4984   7.4984   7.7412   7.7412   8.1799   8.1799   8.3308   8.3308
     8.6639   8.6639   8.8502   8.8502   8.8571   8.8571   8.9989   8.9989
     9.1322   9.1322   9.3920   9.3920   9.3948   9.3948   9.7338   9.7338
     9.8933   9.8933  10.0399  10.0399  10.2595  10.2595  10.3732  10.3732
    10.4959  10.4960  10.5008  10.5008  10.7666  10.7666  11.0023  11.0023
    11.2591  11.2591  11.5468  11.5468  11.5671  11.5671  11.8768  11.8768
    12.1480  12.1480  12.2599  12.2599  12.5984  12.5984  12.6039  12.6039
    12.8547  12.8547  12.9448  12.9448  13.2126  13.2126  13.2883  13.2883
    13.3404  13.3405  13.7700  13.7700  13.8524  13.8524  13.9214  13.9214
    14.0083  14.0083  14.3222  14.3222  14.3758  14.3759  14.6512  14.6512
    14.7147  14.7147  14.8675  14.8675  14.9836  14.9836  15.0507  15.0507

          k = 0.2500-0.4595 0.1669 ( 51076 PWs)   bands (ev):

   -17.2644 -17.2644 -17.2587 -17.2587 -14.2996 -14.2996 -14.2838 -14.2838
   -14.2713 -14.2713 -14.2624 -14.2624 -14.2371 -14.2371 -14.2368 -14.2368
   -14.2228 -14.2228 -14.2215 -14.2215 -14.2119 -14.2119 -14.2117 -14.2117
   -11.6962 -11.6962 -11.6200 -11.6200 -11.5128 -11.5128 -11.4462 -11.4462
   -11.3976 -11.3976 -11.3320 -11.3320 -10.2425 -10.2425 -10.2364 -10.2364
    -6.7854  -6.7854  -6.7653  -6.7652  -6.7585  -6.7585  -6.7375  -6.7375
    -5.5131  -5.5131  -5.1814  -5.1814  -4.6460  -4.6459  -4.6388  -4.6388
    -2.6114  -2.6114  -2.5999  -2.5998  -2.5903  -2.5903  -2.5682  -2.5682
    -1.0184  -1.0184  -0.8679  -0.8679  -0.7171  -0.7171  -0.0676  -0.0676
    -0.0195  -0.0195   0.0635   0.0635   0.2827   0.2827   0.4011   0.4011
     0.4573   0.4573   0.5920   0.5920   0.6299   0.6299   0.7412   0.7412
     0.7631   0.7631   0.8739   0.8739   0.8902   0.8902   0.9973   0.9973
     1.0890   1.0890   1.3393   1.3393   4.9924   4.9924   5.0411   5.0411
     5.2833   5.2833   6.4922   6.4922   6.7887   6.7887   7.0274   7.0275
     7.2883   7.2883   7.7604   7.7605   8.0692   8.0692   8.3228   8.3228
     8.7475   8.7476   8.8356   8.8356   8.8735   8.8735   8.9682   8.9682
     9.2579   9.2579   9.3455   9.3455   9.5011   9.5011   9.6583   9.6583
     9.7953   9.7953  10.0221  10.0221  10.2386  10.2386  10.3945  10.3945
    10.5558  10.5558  10.6259  10.6259  10.7918  10.7918  10.9308  10.9308
    11.1638  11.1638  11.4713  11.4713  11.6475  11.6475  11.9318  11.9318
    12.1032  12.1032  12.2769  12.2769  12.4927  12.4927  12.6599  12.6599
    12.7524  12.7524  12.9424  12.9424  13.2118  13.2118  13.3540  13.3540
    13.4312  13.4312  13.6092  13.6092  13.7404  13.7404  13.8923  13.8923
    14.2241  14.2241  14.3205  14.3205  14.4552  14.4552  14.5850  14.5850
    14.7140  14.7140  14.8610  14.8610  15.0316  15.0316  15.1031  15.1032

          k = 0.2500-0.4595-0.3337 ( 51040 PWs)   bands (ev):

   -17.2644 -17.2644 -17.2587 -17.2587 -14.2902 -14.2902 -14.2901 -14.2901
   -14.2684 -14.2684 -14.2683 -14.2683 -14.2370 -14.2370 -14.2370 -14.2370
   -14.2223 -14.2223 -14.2223 -14.2223 -14.2118 -14.2118 -14.2118 -14.2118
   -11.6771 -11.6771 -11.6560 -11.6560 -11.4917 -11.4917 -11.4481 -11.4481
   -11.3674 -11.3674 -11.3643 -11.3642 -10.2418 -10.2418 -10.2371 -10.2371
    -6.7851  -6.7851  -6.7657  -6.7657  -6.7577  -6.7576  -6.7378  -6.7378
    -5.3674  -5.3674  -5.3507  -5.3506  -4.6437  -4.6437  -4.6413  -4.6413
    -2.6104  -2.6104  -2.5941  -2.5941  -2.5843  -2.5842  -2.5763  -2.5763
    -0.9083  -0.9083  -0.8523  -0.8523  -0.3953  -0.3952  -0.3844  -0.3844
    -0.0374  -0.0374   0.0456   0.0456   0.2944   0.2944   0.3107   0.3107
     0.4560   0.4560   0.5258   0.5258   0.6562   0.6562   0.7620   0.7620
     0.7817   0.7817   0.8685   0.8685   0.9227   0.9227   0.9866   0.9866
     1.0980   1.0980   1.1799   1.1799   5.1378   5.1378   5.1567   5.1567
     5.8934   5.8934   5.9857   5.9857   6.7563   6.7563   6.7812   6.7812
     7.2848   7.2848   7.7601   7.7601   7.9477   7.9477   8.3674   8.3674
     8.7356   8.7356   8.8147   8.8147   8.9572   8.9572   8.9726   8.9726
     9.3261   9.3261   9.3781   9.3781   9.5528   9.5528   9.6230   9.6230
     9.6862   9.6862   9.9902   9.9903  10.2952  10.2952  10.3301  10.3302
    10.5423  10.5423  10.7165  10.7165  10.8727  10.8727  10.9145  10.9145
    11.0722  11.0722  11.5145  11.5145  11.5747  11.5747  11.9495  11.9495
    12.1153  12.1153  12.2870  12.2870  12.4871  12.4871  12.5767  12.5767
    12.7534  12.7534  12.9030  12.9030  13.2576  13.2576  13.3861  13.3861
    13.4222  13.4222  13.5482  13.5482  13.7272  13.7272  13.8216  13.8216
    14.2079  14.2079  14.3379  14.3379  14.5556  14.5556  14.5686  14.5686
    14.8272  14.8272  14.8328  14.8328  15.0835  15.0835  15.2599  15.2599

          k =-0.5000 0.0000 0.0000 ( 51120 PWs)   bands (ev):

   -17.2619 -17.2619 -17.2612 -17.2612 -14.3006 -14.3006 -14.2755 -14.2755
   -14.2753 -14.2753 -14.2655 -14.2654 -14.2373 -14.2373 -14.2368 -14.2368
   -14.2231 -14.2230 -14.2213 -14.2213 -14.2121 -14.2121 -14.2117 -14.2117
   -11.7088 -11.7088 -11.5602 -11.5602 -11.5554 -11.5554 -11.4179 -11.4179
   -11.4134 -11.4134 -11.3466 -11.3466 -10.2501 -10.2500 -10.2385 -10.2385
    -6.7743  -6.7742  -6.7676  -6.7676  -6.7546  -6.7546  -6.7412  -6.7412
    -5.5771  -5.5771  -5.1053  -5.1053  -4.6334  -4.6334  -4.6236  -4.6236
    -2.6049  -2.6049  -2.5997  -2.5997  -2.5981  -2.5981  -2.5718  -2.5718
    -1.1829  -1.1829  -0.6919  -0.6919  -0.4912  -0.4912  -0.2033  -0.2033
    -0.1115  -0.1115   0.0364   0.0364   0.1555   0.1555   0.4747   0.4747
     0.4820   0.4820   0.6126   0.6126   0.6820   0.6820   0.7080   0.7081
     0.7203   0.7203   0.8218   0.8218   0.8479   0.8479   0.8981   0.8981
     1.0537   1.0537   1.4148   1.4148   4.5604   4.5604   5.7225   5.7226
     5.9249   5.9249   6.0322   6.0322   6.2567   6.2567   7.3175   7.3175
     7.4331   7.4331   7.9922   7.9922   8.2594   8.2594   8.6346   8.6346
     8.6963   8.6963   8.6988   8.6988   9.0992   9.0992   9.1191   9.1191
     9.2694   9.2695   9.4376   9.4376   9.5175   9.5175   9.6094   9.6094
     9.7207   9.7207   9.8899   9.8899  10.1032  10.1032  10.2693  10.2693
    10.2832  10.2832  10.4785  10.4785  10.5559  10.5559  10.6847  10.6847
    10.9519  10.9519  11.1643  11.1643  11.6589  11.6589  11.7199  11.7199
    11.9780  11.9780  12.3999  12.3999  12.6888  12.6888  12.6891  12.6891
    12.8491  12.8491  13.0577  13.0577  13.0701  13.0701  13.2319  13.2319
    13.3768  13.3768  13.6470  13.6470  13.8800  13.8800  13.8803  13.8803
    14.0816  14.0816  14.2406  14.2406  14.4809  14.4809  14.5022  14.5022
    14.6434  14.6434  14.9872  14.9872  15.1932  15.1932  15.3030  15.3030

          k =-0.5000 0.0000 0.1669 ( 51034 PWs)   bands (ev):

   -17.2618 -17.2618 -17.2613 -17.2613 -14.2954 -14.2954 -14.2756 -14.2756
   -14.2753 -14.2753 -14.2704 -14.2704 -14.2372 -14.2372 -14.2369 -14.2369
   -14.2229 -14.2229 -14.2217 -14.2217 -14.2120 -14.2120 -14.2117 -14.2117
   -11.6991 -11.6991 -11.6214 -11.6214 -11.4884 -11.4883 -11.4203 -11.4203
   -11.4110 -11.4109 -11.3620 -11.3620 -10.2483 -10.2483 -10.2402 -10.2402
    -6.7735  -6.7735  -6.7689  -6.7688  -6.7521  -6.7521  -6.7427  -6.7427
    -5.5185  -5.5185  -5.1874  -5.1874  -4.6321  -4.6321  -4.6252  -4.6251
    -2.6084  -2.6083  -2.6048  -2.6048  -2.5886  -2.5886  -2.5733  -2.5733
    -0.9851  -0.9851  -0.6757  -0.6757  -0.5176  -0.5176  -0.1861  -0.1861
    -0.1630  -0.1630   0.0129   0.0129   0.1801   0.1801   0.4057   0.4057
     0.4810   0.4810   0.5244   0.5244   0.6605   0.6605   0.6996   0.6996
     0.7785   0.7785   0.8382   0.8382   0.8719   0.8719   0.9147   0.9147
     1.0329   1.0329   1.2172   1.2172   5.0217   5.0217   5.7568   5.7568
     5.9428   5.9428   6.0056   6.0056   6.2112   6.2112   6.9808   6.9808
     7.4407   7.4407   7.8829   7.8829   8.2880   8.2880   8.4908   8.4908
     8.6589   8.6589   8.9279   8.9279   9.0087   9.0087   9.2279   9.2280
     9.3087   9.3087   9.3590   9.3590   9.5692   9.5692   9.6240   9.6240
     9.7371   9.7371   9.9735   9.9735  10.0880  10.0880  10.2029  10.2029
    10.3468  10.3468  10.4671  10.4671  10.5456  10.5456  10.7215  10.7215
    10.9751  10.9751  11.1149  11.1149  11.3603  11.3603  11.8628  11.8628
    11.9693  11.9694  12.2810  12.2810  12.5388  12.5388  12.6976  12.6976
    12.8400  12.8400  12.9576  12.9576  13.0612  13.0612  13.4616  13.4616
    13.5257  13.5257  13.6195  13.6195  13.7088  13.7089  13.9431  13.9431
    14.1551  14.1551  14.4421  14.4421  14.5033  14.5033  14.7409  14.7409
    14.7889  14.7889  14.9729  14.9729  15.2125  15.2125  15.3176  15.3176

          k =-0.5000 0.0000-0.3337 ( 51060 PWs)   bands (ev):

   -17.2616 -17.2616 -17.2616 -17.2615 -14.2831 -14.2831 -14.2831 -14.2831
   -14.2752 -14.2752 -14.2752 -14.2752 -14.2371 -14.2371 -14.2371 -14.2370
   -14.2224 -14.2224 -14.2224 -14.2224 -14.2119 -14.2119 -14.2119 -14.2119
   -11.6697 -11.6697 -11.6697 -11.6697 -11.4349 -11.4349 -11.4349 -11.4349
   -11.3963 -11.3963 -11.3963 -11.3963 -10.2443 -10.2443 -10.2442 -10.2442
    -6.7715  -6.7715  -6.7715  -6.7715  -6.7472  -6.7472  -6.7472  -6.7471
    -5.3644  -5.3644  -5.3644  -5.3644  -4.6288  -4.6288  -4.6288  -4.6288
    -2.6090  -2.6090  -2.6090  -2.6090  -2.5789  -2.5789  -2.5789  -2.5789
    -0.6644  -0.6644  -0.6644  -0.6644  -0.4368  -0.4368  -0.4368  -0.4368
    -0.1044  -0.1044  -0.1044  -0.1044   0.2597   0.2597   0.2597   0.2597
     0.4814   0.4814   0.4814   0.4814   0.6721   0.6721   0.6721   0.6721
     0.8252   0.8252   0.8252   0.8252   0.9287   0.9287   0.9287   0.9287
     1.0268   1.0268   1.0269   1.0269   5.8002   5.8002   5.8002   5.8002
     5.9781   5.9781   5.9782   5.9782   6.1951   6.1951   6.1951   6.1951
     7.6402   7.6402   7.6403   7.6403   8.3656   8.3656   8.3656   8.3656
     8.8052   8.8052   8.8052   8.8052   9.0951   9.0951   9.0951   9.0951
     9.4126   9.4126   9.4126   9.4126   9.6197   9.6197   9.6197   9.6197
     9.8666   9.8666   9.8666   9.8666  10.1765  10.1765  10.1765  10.1765
    10.4533  10.4533  10.4533  10.4533  10.6081  10.6081  10.6081  10.6081
    10.8932  10.8932  10.8932  10.8932  11.6349  11.6349  11.6349  11.6349
    12.0670  12.0670  12.0670  12.0670  12.5865  12.5865  12.5865  12.5865
    12.8411  12.8411  12.8411  12.8412  13.2793  13.2793  13.2793  13.2793
    13.5816  13.5816  13.5816  13.5816  13.9175  13.9175  13.9175  13.9175
    14.3937  14.3937  14.3937  14.3937  14.6826  14.6826  14.6826  14.6826
    15.0052  15.0052  15.0052  15.0052  15.4584  15.4584  15.4584  15.4584

          k =-0.5000 0.2297 0.0000 ( 51042 PWs)   bands (ev):

   -17.2619 -17.2618 -17.2612 -17.2612 -14.3039 -14.3039 -14.2822 -14.2822
   -14.2721 -14.2721 -14.2590 -14.2590 -14.2372 -14.2372 -14.2367 -14.2367
   -14.2230 -14.2230 -14.2211 -14.2211 -14.2120 -14.2120 -14.2116 -14.2116
   -11.6946 -11.6946 -11.5617 -11.5617 -11.5420 -11.5420 -11.4541 -11.4541
   -11.4377 -11.4377 -11.3181 -11.3181 -10.2456 -10.2456 -10.2364 -10.2364
    -6.7734  -6.7734  -6.7671  -6.7671  -6.7540  -6.7540  -6.7415  -6.7414
    -5.5651  -5.5651  -5.0897  -5.0897  -4.6418  -4.6417  -4.6329  -4.6329
    -2.6152  -2.6152  -2.6061  -2.6061  -2.6024  -2.6023  -2.5677  -2.5677
    -1.1895  -1.1895  -0.9145  -0.9145  -0.7473  -0.7473  -0.0267  -0.0267
     0.0513   0.0513   0.1648   0.1648   0.2290   0.2290   0.5026   0.5026
     0.5199   0.5199   0.5796   0.5797   0.6501   0.6501   0.7130   0.7130
     0.7330   0.7330   0.8034   0.8035   0.8194   0.8194   0.9385   0.9385
     1.1075   1.1075   1.5183   1.5183   4.5437   4.5437   5.0179   5.0179
     5.3707   5.3707   6.5623   6.5623   6.8837   6.8837   7.3205   7.3205
     7.5054   7.5054   7.7149   7.7149   8.3404   8.3404   8.4916   8.4916
     8.7117   8.7117   8.9336   8.9337   8.9494   8.9494   9.0289   9.0289
     9.2620   9.2620   9.3486   9.3486   9.4596   9.4596   9.6220   9.6220
     9.8175   9.8175   9.9709   9.9709  10.1301  10.1301  10.1895  10.1895
    10.3641  10.3641  10.5078  10.5078  10.5503  10.5503  10.8596  10.8596
    10.8774  10.8774  11.4068  11.4068  11.7278  11.7278  11.7575  11.7575
    12.0080  12.0080  12.3243  12.3243  12.6616  12.6616  12.7510  12.7510
    12.8362  12.8362  13.0920  13.0920  13.1468  13.1468  13.4635  13.4635
    13.4794  13.4794  13.5957  13.5958  13.6665  13.6665  13.7633  13.7633
    13.9522  13.9522  14.2492  14.2492  14.4383  14.4383  14.5996  14.5996
    14.6660  14.6660  14.7854  14.7854  14.8789  14.8789  15.0734  15.0734

          k =-0.5000 0.2297 0.1669 ( 51058 PWs)   bands (ev):

   -17.2618 -17.2617 -17.2613 -17.2613 -14.2995 -14.2995 -14.2838 -14.2838
   -14.2714 -14.2714 -14.2624 -14.2624 -14.2371 -14.2371 -14.2368 -14.2368
   -14.2228 -14.2228 -14.2215 -14.2215 -14.2119 -14.2119 -14.2117 -14.2117
   -11.6849 -11.6849 -11.6100 -11.6100 -11.5004 -11.5003 -11.4617 -11.4617
   -11.4176 -11.4176 -11.3334 -11.3334 -10.2442 -10.2442 -10.2378 -10.2378
    -6.7728  -6.7728  -6.7683  -6.7683  -6.7519  -6.7519  -6.7431  -6.7431
    -5.5062  -5.5062  -5.1728  -5.1728  -4.6406  -4.6406  -4.6343  -4.6343
    -2.6165  -2.6165  -2.6070  -2.6070  -2.5949  -2.5949  -2.5709  -2.5709
    -1.0229  -1.0229  -0.9019  -0.9019  -0.7271  -0.7271  -0.0132  -0.0132
     0.0183   0.0183   0.0577   0.0578   0.2586   0.2586   0.4106   0.4106
     0.4995   0.4995   0.5846   0.5846   0.6692   0.6692   0.6929   0.6929
     0.7535   0.7535   0.8012   0.8012   0.8646   0.8646   0.9519   0.9519
     1.0906   1.0906   1.3219   1.3219   4.9947   4.9947   5.0716   5.0717
     5.3238   5.3238   6.5352   6.5352   6.8490   6.8490   7.0864   7.0864
     7.4316   7.4316   7.6834   7.6834   8.3215   8.3215   8.3682   8.3682
     8.7949   8.7949   8.9019   8.9019   8.9606   8.9606   9.1463   9.1463
     9.2959   9.2959   9.3918   9.3918   9.4868   9.4868   9.6495   9.6495
     9.7967   9.7967   9.9398   9.9398  10.0771  10.0771  10.2586  10.2586
    10.3019  10.3019  10.4980  10.4980  10.5366  10.5366  10.8131  10.8131
    10.9735  10.9735  11.3297  11.3297  11.6029  11.6029  11.8435  11.8435
    12.0376  12.0376  12.3272  12.3272  12.6193  12.6193  12.7225  12.7225
    12.8746  12.8746  13.0362  13.0362  13.1097  13.1097  13.2706  13.2706
    13.4953  13.4953  13.5701  13.5701  13.8007  13.8007  13.8832  13.8832
    14.0322  14.0322  14.2523  14.2523  14.5011  14.5011  14.5598  14.5598
    14.7201  14.7201  14.8704  14.8704  15.0677  15.0677  15.2203  15.2203

          k =-0.5000 0.2297-0.3337 ( 51040 PWs)   bands (ev):

   -17.2616 -17.2615 -17.2615 -17.2615 -14.2901 -14.2901 -14.2901 -14.2901
   -14.2684 -14.2684 -14.2684 -14.2684 -14.2370 -14.2370 -14.2370 -14.2370
   -14.2223 -14.2223 -14.2223 -14.2223 -14.2118 -14.2118 -14.2118 -14.2118
   -11.6561 -11.6561 -11.6561 -11.6560 -11.4745 -11.4745 -11.4745 -11.4745
   -11.3733 -11.3733 -11.3732 -11.3732 -10.2410 -10.2410 -10.2410 -10.2410
    -6.7708  -6.7708  -6.7708  -6.7708  -6.7472  -6.7472  -6.7472  -6.7472
    -5.3512  -5.3512  -5.3512  -5.3512  -4.6375  -4.6375  -4.6375  -4.6375
    -2.6131  -2.6130  -2.6130  -2.6130  -2.5807  -2.5807  -2.5807  -2.5807
    -0.8895  -0.8895  -0.8894  -0.8894  -0.4011  -0.4011  -0.4011  -0.4011
     0.0207   0.0207   0.0207   0.0207   0.3101   0.3101   0.3101   0.3101
     0.5293   0.5293   0.5293   0.5293   0.6875   0.6875   0.6875   0.6875
     0.7875   0.7875   0.7875   0.7875   0.9365   0.9365   0.9366   0.9366
     1.1151   1.1151   1.1151   1.1151   5.1800   5.1800   5.1800   5.1800
     5.9641   5.9641   5.9642   5.9642   6.8038   6.8038   6.8038   6.8038
     7.5577   7.5577   7.5577   7.5577   8.3009   8.3009   8.3009   8.3009
     8.8499   8.8499   8.8500   8.8500   9.0690   9.0690   9.0690   9.0690
     9.4493   9.4493   9.4493   9.4493   9.5846   9.5846   9.5846   9.5846
     9.8314   9.8314   9.8314   9.8314  10.1266  10.1266  10.1266  10.1266
    10.3907  10.3907  10.3907  10.3907  10.6575  10.6575  10.6575  10.6575
    11.1641  11.1641  11.1641  11.1641  11.7009  11.7009  11.7009  11.7009
    12.1621  12.1621  12.1621  12.1621  12.7621  12.7621  12.7621  12.7621
    12.8688  12.8688  12.8688  12.8688  13.0982  13.0982  13.0982  13.0982
    13.6109  13.6109  13.6109  13.6109  13.8741  13.8741  13.8741  13.8741
    14.1723  14.1723  14.1723  14.1723  14.5435  14.5435  14.5435  14.5435
    14.8086  14.8086  14.8086  14.8086  15.1402  15.1402  15.1402  15.1402

          k =-0.5000-0.4595 0.0000 ( 51044 PWs)   bands (ev):

   -17.2618 -17.2618 -17.2612 -17.2612 -14.3067 -14.3067 -14.2864 -14.2864
   -14.2696 -14.2696 -14.2552 -14.2552 -14.2371 -14.2371 -14.2366 -14.2366
   -14.2230 -14.2230 -14.2209 -14.2209 -14.2119 -14.2119 -14.2115 -14.2115
   -11.6762 -11.6762 -11.5719 -11.5719 -11.5100 -11.5100 -11.4833 -11.4833
   -11.4713 -11.4712 -11.3014 -11.3013 -10.2408 -10.2408 -10.2347 -10.2347
    -6.7727  -6.7726  -6.7666  -6.7666  -6.7534  -6.7534  -6.7419  -6.7419
    -5.5529  -5.5529  -5.0739  -5.0739  -4.6500  -4.6500  -4.6425  -4.6424
    -2.6257  -2.6257  -2.6137  -2.6137  -2.6067  -2.6067  -2.5617  -2.5617
    -1.2128  -1.2128  -1.0590  -1.0590  -0.8766  -0.8766   0.0050   0.0050
     0.1237   0.1237   0.3251   0.3251   0.3682   0.3682   0.4670   0.4670
     0.5421   0.5421   0.5749   0.5749   0.6479   0.6479   0.6499   0.6499
     0.7241   0.7241   0.7807   0.7807   0.7977   0.7977   1.0177   1.0177
     1.1796   1.1796   1.6467   1.6467   4.5122   4.5122   4.6400   4.6401
     5.0430   5.0430   6.8409   6.8409   7.1722   7.1722   7.2657   7.2657
     7.6136   7.6136   7.6175   7.6175   8.3454   8.3454   8.4448   8.4448
     8.6034   8.6034   9.0134   9.0134   9.0407   9.0407   9.0599   9.0599
     9.1922   9.1922   9.2536   9.2536   9.3804   9.3804   9.5963   9.5963
     9.7103   9.7103  10.0752  10.0752  10.1236  10.1236  10.2466  10.2466
    10.3408  10.3408  10.3581  10.3581  10.7062  10.7062  10.9503  10.9503
    11.2347  11.2348  11.4370  11.4370  11.6149  11.6149  11.8731  11.8731
    12.1508  12.1508  12.3844  12.3844  12.6320  12.6320  12.8885  12.8885
    12.8918  12.8918  12.9246  12.9246  13.0265  13.0265  13.3180  13.3180
    13.4543  13.4543  13.5097  13.5097  13.7058  13.7058  13.7870  13.7870
    14.1842  14.1842  14.2083  14.2083  14.3218  14.3218  14.6415  14.6416
    14.6604  14.6604  14.8344  14.8344  15.1016  15.1016  15.2006  15.2006

          k =-0.5000-0.4595 0.1669 ( 50992 PWs)   bands (ev):

   -17.2617 -17.2617 -17.2613 -17.2613 -14.3027 -14.3027 -14.2881 -14.2881
   -14.2685 -14.2685 -14.2584 -14.2584 -14.2370 -14.2370 -14.2367 -14.2367
   -14.2228 -14.2228 -14.2214 -14.2214 -14.2118 -14.2118 -14.2116 -14.2116
   -11.6666 -11.6666 -11.5979 -11.5978 -11.5091 -11.5091 -11.5006 -11.5006
   -11.4221 -11.4221 -11.3174 -11.3174 -10.2399 -10.2399 -10.2356 -10.2356
    -6.7720  -6.7719  -6.7676  -6.7676  -6.7515  -6.7515  -6.7433  -6.7433
    -5.4937  -5.4937  -5.1579  -5.1579  -4.6490  -4.6490  -4.6436  -4.6435
    -2.6232  -2.6232  -2.6115  -2.6115  -2.6010  -2.6010  -2.5671  -2.5671
    -1.0974  -1.0974  -1.0511  -1.0511  -0.7993  -0.7993   0.0259   0.0259
     0.0761   0.0761   0.1564   0.1564   0.3642   0.3643   0.4154   0.4154
     0.5605   0.5605   0.5877   0.5877   0.6553   0.6553   0.6864   0.6864
     0.7201   0.7201   0.7707   0.7707   0.8398   0.8398   1.0049   1.0049
     1.1795   1.1795   1.4577   1.4577   4.6926   4.6926   4.8757   4.8757
     5.0896   5.0896   6.6955   6.6955   7.2057   7.2057   7.2218   7.2218
     7.3908   7.3908   7.5700   7.5700   8.2860   8.2860   8.3913   8.3913
     8.7443   8.7444   8.9452   8.9452   8.9838   8.9838   9.1418   9.1418
     9.2418   9.2418   9.4052   9.4052   9.4775   9.4775   9.5283   9.5283
     9.6668   9.6668   9.9679   9.9679  10.0246  10.0246  10.2799  10.2799
    10.3584  10.3584  10.4583  10.4583  10.6098  10.6098  10.9133  10.9133
    11.3515  11.3515  11.4411  11.4411  11.7346  11.7346  11.8987  11.8987
    12.0864  12.0864  12.3863  12.3863  12.4461  12.4461  12.6203  12.6203
    12.7320  12.7320  13.0474  13.0474  13.1855  13.1855  13.3329  13.3329
    13.5107  13.5107  13.6033  13.6033  13.8099  13.8099  13.9290  13.9290
    14.0430  14.0430  14.2055  14.2055  14.5245  14.5245  14.5295  14.5295
    14.7585  14.7585  14.8425  14.8425  14.8930  14.8930  14.9840  14.9840

          k =-0.5000-0.4595-0.3337 ( 51096 PWs)   bands (ev):

   -17.2615 -17.2615 -17.2615 -17.2615 -14.2942 -14.2942 -14.2942 -14.2942
   -14.2646 -14.2646 -14.2646 -14.2646 -14.2369 -14.2369 -14.2369 -14.2369
   -14.2222 -14.2222 -14.2222 -14.2222 -14.2117 -14.2117 -14.2117 -14.2117
   -11.6385 -11.6385 -11.6385 -11.6385 -11.5065 -11.5065 -11.5065 -11.5065
   -11.3617 -11.3617 -11.3617 -11.3617 -10.2378 -10.2378 -10.2378 -10.2378
    -6.7701  -6.7700  -6.7700  -6.7700  -6.7474  -6.7474  -6.7474  -6.7474
    -5.3378  -5.3378  -5.3378  -5.3378  -4.6464  -4.6464  -4.6463  -4.6463
    -2.6172  -2.6172  -2.6172  -2.6172  -2.5822  -2.5822  -2.5822  -2.5821
    -1.0393  -1.0393  -1.0393  -1.0393  -0.3834  -0.3834  -0.3834  -0.3834
     0.0772   0.0772   0.0772   0.0772   0.3686   0.3686   0.3687   0.3687
     0.5919   0.5919   0.5919   0.5919   0.6664   0.6664   0.6664   0.6664
     0.7526   0.7526   0.7526   0.7526   0.9357   0.9358   0.9358   0.9358
     1.2452   1.2452   1.2452   1.2452   4.8191   4.8191   4.8191   4.8191
     5.9597   5.9597   5.9597   5.9597   7.1599   7.1599   7.1599   7.1599
     7.4446   7.4446   7.4446   7.4446   8.2900   8.2900   8.2900   8.2900
     8.8974   8.8974   8.8974   8.8974   9.0580   9.0580   9.0580   9.0580
     9.3933   9.3933   9.3933   9.3933   9.5419   9.5419   9.5419   9.5419
     9.7578   9.7578   9.7578   9.7578  10.0726  10.0726  10.0726  10.0726
    10.3969  10.3969  10.3969  10.3969  10.8003  10.8003  10.8003  10.8003
    11.5406  11.5406  11.5406  11.5406  11.7473  11.7473  11.7473  11.7473
    12.2006  12.2006  12.2006  12.2006  12.3805  12.3805  12.3805  12.3806
    12.9235  12.9235  12.9235  12.9235  13.3307  13.3307  13.3307  13.3307
    13.6900  13.6901  13.6901  13.6901  13.8019  13.8019  13.8019  13.8019
    14.1214  14.1214  14.1214  14.1214  14.4824  14.4824  14.4824  14.4824
    14.7529  14.7529  14.7529  14.7529  14.9011  14.9011  14.9012  14.9012

     the Fermi energy is     3.2417 ev

!    total energy              =    -930.31484613 Ry
     estimated scf accuracy    <          7.1E-11 Ry
     smearing contrib. (-TS)   =      -0.00000000 Ry
     internal energy E=F+TS    =    -930.31484613 Ry

     The total energy is F=E-TS. E is the sum of the following terms:
     one-electron contribution =    -416.44926456 Ry
     hartree contribution      =     271.70958964 Ry
     xc contribution           =    -169.76093435 Ry
     ewald contribution        =    -615.81423687 Ry

     convergence has been achieved in  11 iterations

     Writing all to output data dir out/mp-732337.save/
 
     init_run     :     28.26s CPU     28.95s WALL (       1 calls)
     electrons    :   4183.26s CPU   4228.87s WALL (       1 calls)

     Called by init_run:
     wfcinit      :     26.90s CPU     27.54s WALL (       1 calls)
     potinit      :      0.72s CPU      0.73s WALL (       1 calls)
     hinit0       :      0.51s CPU      0.53s WALL (       1 calls)

     Called by electrons:
     c_bands      :   4105.77s CPU   4150.75s WALL (      11 calls)
     sum_band     :     76.74s CPU     77.27s WALL (      11 calls)
     v_of_rho     :      0.63s CPU      0.69s WALL (      12 calls)
     mix_rho      :      0.15s CPU      0.17s WALL (      11 calls)

     Called by c_bands:
     init_us_2    :      7.72s CPU      7.74s WALL (     621 calls)
     init_us_2:cp :      7.71s CPU      7.73s WALL (     621 calls)
     paro_k       :   4034.86s CPU   4079.53s WALL (     297 calls)

     Called by paro_*:
     h_psi        :   2218.41s CPU   2242.45s WALL (   11637 calls)
     g_psi        :     26.52s CPU     27.54s WALL (  673861 calls)

     Called by h_psi:
     h_psi:calbec :    434.92s CPU    440.85s WALL (   11637 calls)
     vloc_psi     :   1291.39s CPU   1299.06s WALL (   11637 calls)
     add_vuspsi   :    477.47s CPU    477.57s WALL (   11637 calls)

     General routines
     calbec       :    434.87s CPU    440.81s WALL (   11637 calls)
     fft          :      0.25s CPU      0.31s WALL (     119 calls)
     ffts         :      0.02s CPU      0.02s WALL (      11 calls)
     fftw         :   1188.54s CPU   1195.89s WALL ( 1239756 calls)
 
     Parallel routines
 
     PWSCF        :      1h10m CPU      1h11m WALL

 
   This run was terminated on:  18:59:47   3Jan2024            

=------------------------------------------------------------------------------=
   JOB DONE.
=------------------------------------------------------------------------------=
