
     Program PWSCF v.7.1 starts on  3Jan2024 at 14:27:17 

     This program is part of the open-source Quantum ESPRESSO suite
     for quantum simulation of materials; please cite
         "P. Giannozzi et al., J. Phys.:Condens. Matter 21 395502 (2009);
         "P. Giannozzi et al., J. Phys.:Condens. Matter 29 465901 (2017);
         "P. Giannozzi et al., J. Chem. Phys. 152 154105 (2020);
          URL http://www.quantum-espresso.org", 
     in publications or presentations arising from this work. More details at
     http://www.quantum-espresso.org/quote

     Parallel version (MPI), running on     8 processors

     MPI processes distributed on     1 nodes
     122737 MiB available memory on the printing compute node when the environment starts
 
     Reading input from pw_mp-1087_scf_k3000_E65.in
Warning: card &CELL ignored
Warning: card / ignored

     Current dimensions of program PWSCF are:
     Max number of different atomic species (ntypx) = 10
     Max number of k-points (npk) =  40000
     Max angular momentum in pseudopotentials (lmaxx) =  4
 
     R & G space division:  proc/nbgrp/npool/nimage =       8
     Subspace diagonalization in iterative solution of the eigenvalue problem:
     a serial algorithm will be used

 
     Parallelization info
     --------------------
     sticks:   dense  smooth     PW     G-vecs:    dense   smooth      PW
     Min         144     144     43                 3305     3305     533
     Max         145     145     44                 3310     3310     536
     Sum        1159    1159    349                26469    26469    4279
 
     Using Slab Decomposition
 


     bravais-lattice index     =            2
     lattice parameter (alat)  =      11.4291  a.u.
     unit-cell volume          =     373.2322 (a.u.)^3
     number of atoms/cell      =            2
     number of atomic types    =            2
     number of electrons       =        16.00
     number of Kohn-Sham states=           16
     kinetic-energy cutoff     =      65.0000  Ry
     charge density cutoff     =     260.0000  Ry
     scf convergence threshold =      1.0E-10
     mixing beta               =       0.7000
     number of iterations used =            8  plain     mixing
     Exchange-correlation= PBE
                           (   1   4   3   4   0   0   0)

     celldm(1)=  11.429126  celldm(2)=   0.000000  celldm(3)=   0.000000
     celldm(4)=   0.000000  celldm(5)=   0.000000  celldm(6)=   0.000000

     crystal axes: (cart. coord. in units of alat)
               a(1) = (  -0.500000   0.000000   0.500000 )  
               a(2) = (   0.000000   0.500000   0.500000 )  
               a(3) = (  -0.500000   0.500000   0.000000 )  

     reciprocal axes: (cart. coord. in units 2 pi/alat)
               b(1) = ( -1.000000 -1.000000  1.000000 )  
               b(2) = (  1.000000  1.000000  1.000000 )  
               b(3) = ( -1.000000  1.000000 -1.000000 )  


     PseudoPot. # 1 for S  read from file:
     /usr/scratch4/magr4985/MG/devEb/pseudo/SG15/S.upf
     MD5 check sum: f71d1a2a52b6d571906ac9250480b432
     Pseudo is Norm-conserving, Zval =  6.0
     Generated using ONCVPSP code by D. R. Hamann
     Using radial grid of  602 points,  4 beta functions with: 
                l(1) =   0
                l(2) =   0
                l(3) =   1
                l(4) =   1

     PseudoPot. # 2 for Sr read from file:
     /usr/scratch4/magr4985/MG/devEb/pseudo/SG15/Sr.upf
     MD5 check sum: 7138e3241744793a1037e143c224f249
     Pseudo is Norm-conserving, Zval = 10.0
     Generated using ONCVPSP code by D. R. Hamann
     Using radial grid of  602 points,  6 beta functions with: 
                l(1) =   0
                l(2) =   0
                l(3) =   1
                l(4) =   1
                l(5) =   2
                l(6) =   2

     atomic species   valence    mass     pseudopotential
        S              6.00    32.06500     S ( 1.00)
        Sr            10.00    87.62000     Sr( 1.00)

     48 Sym. Ops., with inversion, found



   Cartesian axes

     site n.     atom                  positions (alat units)
         1           Sr  tau(   1) = (   0.0000000   0.0000000   0.0000000  )
         2           S   tau(   2) = (  -0.5000000   0.5000000   0.5000000  )

     number of k points=    72  Gaussian smearing, width (Ry)=  0.0005
                       cart. coord. in units 2pi/alat
        k(    1) = (   0.0000000   0.0000000   0.0000000), wk =   0.0011574
        k(    2) = (  -0.0833333   0.0833333  -0.0833333), wk =   0.0092593
        k(    3) = (  -0.1666667   0.1666667  -0.1666667), wk =   0.0092593
        k(    4) = (  -0.2500000   0.2500000  -0.2500000), wk =   0.0092593
        k(    5) = (  -0.3333333   0.3333333  -0.3333333), wk =   0.0092593
        k(    6) = (  -0.4166667   0.4166667  -0.4166667), wk =   0.0092593
        k(    7) = (   0.5000000  -0.5000000   0.5000000), wk =   0.0046296
        k(    8) = (   0.0000000   0.1666667   0.0000000), wk =   0.0069444
        k(    9) = (  -0.0833333   0.2500000  -0.0833333), wk =   0.0277778
        k(   10) = (  -0.1666667   0.3333333  -0.1666667), wk =   0.0277778
        k(   11) = (  -0.2500000   0.4166667  -0.2500000), wk =   0.0277778
        k(   12) = (  -0.3333333   0.5000000  -0.3333333), wk =   0.0277778
        k(   13) = (   0.5833333  -0.4166667   0.5833333), wk =   0.0277778
        k(   14) = (   0.5000000  -0.3333333   0.5000000), wk =   0.0277778
        k(   15) = (   0.4166667  -0.2500000   0.4166667), wk =   0.0277778
        k(   16) = (   0.3333333  -0.1666667   0.3333333), wk =   0.0277778
        k(   17) = (   0.2500000  -0.0833333   0.2500000), wk =   0.0277778
        k(   18) = (   0.1666667  -0.0000000   0.1666667), wk =   0.0138889
        k(   19) = (   0.0000000   0.3333333   0.0000000), wk =   0.0069444
        k(   20) = (  -0.0833333   0.4166667  -0.0833333), wk =   0.0277778
        k(   21) = (  -0.1666667   0.5000000  -0.1666667), wk =   0.0277778
        k(   22) = (  -0.2500000   0.5833333  -0.2500000), wk =   0.0277778
        k(   23) = (   0.6666667  -0.3333333   0.6666667), wk =   0.0277778
        k(   24) = (   0.5833333  -0.2500000   0.5833333), wk =   0.0277778
        k(   25) = (   0.5000000  -0.1666667   0.5000000), wk =   0.0277778
        k(   26) = (   0.4166667  -0.0833333   0.4166667), wk =   0.0277778
        k(   27) = (   0.3333333   0.0000000   0.3333333), wk =   0.0138889
        k(   28) = (   0.0000000   0.5000000   0.0000000), wk =   0.0069444
        k(   29) = (  -0.0833333   0.5833333  -0.0833333), wk =   0.0277778
        k(   30) = (  -0.1666667   0.6666667  -0.1666667), wk =   0.0277778
        k(   31) = (   0.7500000  -0.2500000   0.7500000), wk =   0.0277778
        k(   32) = (   0.6666667  -0.1666667   0.6666667), wk =   0.0277778
        k(   33) = (   0.5833333  -0.0833333   0.5833333), wk =   0.0277778
        k(   34) = (   0.5000000   0.0000000   0.5000000), wk =   0.0138889
        k(   35) = (   0.0000000   0.6666667   0.0000000), wk =   0.0069444
        k(   36) = (  -0.0833333   0.7500000  -0.0833333), wk =   0.0277778
        k(   37) = (   0.8333333  -0.1666667   0.8333333), wk =   0.0277778
        k(   38) = (   0.7500000  -0.0833333   0.7500000), wk =   0.0277778
        k(   39) = (   0.6666667  -0.0000000   0.6666667), wk =   0.0138889
        k(   40) = (   0.0000000   0.8333333   0.0000000), wk =   0.0069444
        k(   41) = (   0.9166667  -0.0833333   0.9166667), wk =   0.0277778
        k(   42) = (   0.8333333   0.0000000   0.8333333), wk =   0.0138889
        k(   43) = (   0.0000000  -1.0000000   0.0000000), wk =   0.0034722
        k(   44) = (  -0.1666667   0.3333333   0.0000000), wk =   0.0277778
        k(   45) = (  -0.2500000   0.4166667  -0.0833333), wk =   0.0555556
        k(   46) = (  -0.3333333   0.5000000  -0.1666667), wk =   0.0555556
        k(   47) = (   0.5833333  -0.4166667   0.7500000), wk =   0.0555556
        k(   48) = (   0.5000000  -0.3333333   0.6666667), wk =   0.0277778
        k(   49) = (  -0.1666667   0.5000000   0.0000000), wk =   0.0277778
        k(   50) = (  -0.2500000   0.5833333  -0.0833333), wk =   0.0555556
        k(   51) = (   0.6666667  -0.3333333   0.8333333), wk =   0.0555556
        k(   52) = (   0.5833333  -0.2500000   0.7500000), wk =   0.0555556
        k(   53) = (   0.5000000  -0.1666667   0.6666667), wk =   0.0555556
        k(   54) = (   0.4166667  -0.0833333   0.5833333), wk =   0.0555556
        k(   55) = (   0.3333333   0.0000000   0.5000000), wk =   0.0277778
        k(   56) = (  -0.1666667   0.6666667  -0.0000000), wk =   0.0277778
        k(   57) = (   0.7500000  -0.2500000   0.9166667), wk =   0.0555556
        k(   58) = (   0.6666667  -0.1666667   0.8333333), wk =   0.0555556
        k(   59) = (   0.5833333  -0.0833333   0.7500000), wk =   0.0555556
        k(   60) = (   0.5000000   0.0000000   0.6666667), wk =   0.0277778
        k(   61) = (   0.8333333  -0.1666667   1.0000000), wk =   0.0277778
        k(   62) = (   0.7500000  -0.0833333   0.9166667), wk =   0.0555556
        k(   63) = (   0.6666667   0.0000000   0.8333333), wk =   0.0277778
        k(   64) = (  -0.1666667  -1.0000000  -0.0000000), wk =   0.0138889
        k(   65) = (   0.6666667  -0.3333333   1.0000000), wk =   0.0277778
        k(   66) = (   0.5833333  -0.2500000   0.9166667), wk =   0.0555556
        k(   67) = (   0.5000000  -0.1666667   0.8333333), wk =   0.0277778
        k(   68) = (   0.6666667  -0.1666667   1.0000000), wk =   0.0277778
        k(   69) = (   0.5833333  -0.0833333   0.9166667), wk =   0.0555556
        k(   70) = (   0.5000000   0.0000000   0.8333333), wk =   0.0277778
        k(   71) = (  -0.3333333  -1.0000000   0.0000000), wk =   0.0138889
        k(   72) = (  -0.5000000  -1.0000000   0.0000000), wk =   0.0069444

     Dense  grid:    26469 G-vectors     FFT dimensions: (  45,  45,  45)

     Estimated max dynamical RAM per process >      12.86 MB

     Estimated total dynamical RAM >     102.90 MB

     Initial potential from superposition of free atoms

     starting charge      15.7089, renormalised to      16.0000
     Starting wfcs are random

     total cpu time spent up to now is        0.6 secs

     Self-consistent Calculation

     iteration #  1     ecut=    65.00 Ry     beta= 0.70
     Davidson diagonalization with overlap
     c_bands:  1 eigenvalues not converged
     c_bands:  1 eigenvalues not converged
     c_bands:  1 eigenvalues not converged
     c_bands:  1 eigenvalues not converged
     c_bands:  1 eigenvalues not converged
     c_bands:  1 eigenvalues not converged
     c_bands:  1 eigenvalues not converged
     c_bands:  1 eigenvalues not converged
     c_bands:  1 eigenvalues not converged
     c_bands:  2 eigenvalues not converged
     c_bands:  2 eigenvalues not converged
     c_bands:  1 eigenvalues not converged
     c_bands:  2 eigenvalues not converged
     c_bands:  1 eigenvalues not converged
     c_bands:  1 eigenvalues not converged
     c_bands:  1 eigenvalues not converged
     c_bands:  2 eigenvalues not converged
     c_bands:  1 eigenvalues not converged
     c_bands:  2 eigenvalues not converged
     c_bands:  1 eigenvalues not converged
     c_bands:  2 eigenvalues not converged
     c_bands:  2 eigenvalues not converged
     c_bands:  1 eigenvalues not converged
     c_bands:  2 eigenvalues not converged
     c_bands:  1 eigenvalues not converged
     c_bands:  1 eigenvalues not converged
     c_bands:  1 eigenvalues not converged
     c_bands:  2 eigenvalues not converged
     c_bands:  1 eigenvalues not converged
     c_bands:  1 eigenvalues not converged
     c_bands:  1 eigenvalues not converged
     c_bands:  1 eigenvalues not converged
     c_bands:  1 eigenvalues not converged
     c_bands:  1 eigenvalues not converged
     c_bands:  2 eigenvalues not converged
     c_bands:  1 eigenvalues not converged
     c_bands:  1 eigenvalues not converged
     c_bands:  2 eigenvalues not converged
     c_bands:  2 eigenvalues not converged
     c_bands:  1 eigenvalues not converged
     c_bands:  1 eigenvalues not converged
     c_bands:  1 eigenvalues not converged
     c_bands:  1 eigenvalues not converged
     c_bands:  1 eigenvalues not converged
     c_bands:  1 eigenvalues not converged
     c_bands:  1 eigenvalues not converged
     c_bands:  1 eigenvalues not converged
     c_bands:  1 eigenvalues not converged
     c_bands:  1 eigenvalues not converged
     c_bands:  1 eigenvalues not converged
     c_bands:  1 eigenvalues not converged
     c_bands:  1 eigenvalues not converged
     c_bands:  1 eigenvalues not converged
     c_bands:  2 eigenvalues not converged
     c_bands:  1 eigenvalues not converged
     c_bands:  1 eigenvalues not converged
     ethr =  5.00E-06,  avg # of iterations = 19.7

     total cpu time spent up to now is        6.2 secs

     total energy              =     -83.00111039 Ry
     estimated scf accuracy    <       0.10709658 Ry

     iteration #  2     ecut=    65.00 Ry     beta= 0.70
     Davidson diagonalization with overlap
     ethr =  6.69E-04,  avg # of iterations =  3.5

     total cpu time spent up to now is        7.7 secs

     total energy              =     -83.02846014 Ry
     estimated scf accuracy    <       0.05048473 Ry

     iteration #  3     ecut=    65.00 Ry     beta= 0.70
     Davidson diagonalization with overlap
     ethr =  3.16E-04,  avg # of iterations =  2.1

     total cpu time spent up to now is        8.9 secs

     total energy              =     -83.03955840 Ry
     estimated scf accuracy    <       0.00074806 Ry

     iteration #  4     ecut=    65.00 Ry     beta= 0.70
     Davidson diagonalization with overlap
     ethr =  4.68E-06,  avg # of iterations =  5.8

     total cpu time spent up to now is       10.5 secs

     total energy              =     -83.03964489 Ry
     estimated scf accuracy    <       0.00000985 Ry

     iteration #  5     ecut=    65.00 Ry     beta= 0.70
     Davidson diagonalization with overlap
     c_bands:  1 eigenvalues not converged
     ethr =  6.16E-08,  avg # of iterations =  8.2

     total cpu time spent up to now is       12.4 secs

     total energy              =     -83.03964770 Ry
     estimated scf accuracy    <       0.00000040 Ry

     iteration #  6     ecut=    65.00 Ry     beta= 0.70
     Davidson diagonalization with overlap
     ethr =  2.49E-09,  avg # of iterations =  5.8

     total cpu time spent up to now is       14.1 secs

     total energy              =     -83.03964786 Ry
     estimated scf accuracy    <       0.00000001 Ry

     iteration #  7     ecut=    65.00 Ry     beta= 0.70
     Davidson diagonalization with overlap
     ethr =  7.55E-11,  avg # of iterations =  6.1

     total cpu time spent up to now is       15.8 secs

     total energy              =     -83.03964786 Ry
     estimated scf accuracy    <          9.0E-10 Ry

     iteration #  8     ecut=    65.00 Ry     beta= 0.70
     Davidson diagonalization with overlap
     ethr =  5.62E-12,  avg # of iterations =  5.5

     total cpu time spent up to now is       17.4 secs

     End of self-consistent calculation

          k = 0.0000 0.0000 0.0000 (  3287 PWs)   bands (ev):

   -27.8248  -9.7674  -9.7674  -9.7674  -5.1095   5.6598   5.6598   5.6598
     9.2514  10.1074  10.1074  10.1074  10.9836  10.9836  15.4275  20.5759

          k =-0.0833 0.0833-0.0833 (  3320 PWs)   bands (ev):

   -27.8237  -9.7946  -9.7689  -9.7689  -5.0585   5.3971   5.5670   5.5670
     9.5326  10.1406  10.2192  10.2192  11.1775  11.1775  15.7272  19.8752

          k =-0.1667 0.1667-0.1667 (  3317 PWs)   bands (ev):

   -27.8206  -9.8668  -9.7729  -9.7729  -4.9198   4.8159   5.3376   5.3376
     9.8954  10.5359  10.5359  10.5579  11.7193  11.7193  16.4892  18.6925

          k =-0.2500 0.2500-0.2500 (  3317 PWs)   bands (ev):

   -27.8163  -9.9608  -9.7783  -9.7783  -4.7307   4.1882   5.0666   5.0666
    10.0691  11.0283  11.0283  11.3979  12.5064  12.5064  16.7783  18.0499

          k =-0.3333 0.3333-0.3333 (  3305 PWs)   bands (ev):

   -27.8121 -10.0499  -9.7838  -9.7838  -4.5404   3.6593   4.8301   4.8301
    10.3487  11.6606  11.6606  12.0835  13.4104  13.4104  16.2007  16.8022

          k =-0.4167 0.4167-0.4167 (  3308 PWs)   bands (ev):

   -27.8090 -10.1125  -9.7878  -9.7878  -4.3995   3.3097   4.6733   4.6733
    10.7429  12.2079  12.3342  12.3342  14.2482  14.2482  15.7234  15.7234

          k = 0.5000-0.5000 0.5000 (  3316 PWs)   bands (ev):

   -27.8078 -10.1348  -9.7892  -9.7892  -4.3474   3.1875   4.6188   4.6188
    11.0049  12.0484  12.6994  12.6994  14.6574  14.6574  15.1956  15.1956

          k = 0.0000 0.1667 0.0000 (  3327 PWs)   bands (ev):

   -27.8233  -9.7948  -9.7735  -9.7735  -5.0443   5.2395   5.5963   5.5963
     9.5807   9.9019  10.3725  10.3725  11.0454  11.4574  15.8209  19.7859

          k =-0.0833 0.2500-0.0833 (  3309 PWs)   bands (ev):

   -27.8208  -9.8472  -9.7802  -9.7758  -4.9424   4.8066   5.4175   5.4615
     9.7794  10.0256  10.7129  10.7133  11.3049  12.0803  16.4285  18.7636

          k =-0.1667 0.3333-0.1667 (  3321 PWs)   bands (ev):

   -27.8170  -9.9305  -9.7872  -9.7796  -4.7809   4.2962   5.1198   5.2270
     9.8332  10.6627  11.1956  11.2536  11.9057  12.8891  16.9379  17.9109

          k =-0.2500 0.4167-0.2500 (  3316 PWs)   bands (ev):

   -27.8127 -10.0175  -9.7927  -9.7861  -4.6026   3.8172   4.8491   4.9770
    10.0588  11.3374  11.8099  11.9177  12.6977  13.6790  16.2413  16.8952

          k =-0.3333 0.5000-0.3333 (  3300 PWs)   bands (ev):

   -27.8093 -10.0860  -9.7951  -9.7937  -4.4542   3.4568   4.6705   4.7738
    10.4501  11.9734  12.2927  12.4637  13.5204  14.3031  15.7535  15.9394

          k = 0.5833-0.4167 0.5833 (  3299 PWs)   bands (ev):

   -27.8075 -10.1203  -9.8003  -9.7939  -4.3759   3.2768   4.6054   4.6540
    10.8860  11.9436  12.6987  12.7524  14.3254  14.7117  15.1182  15.4152

          k = 0.5000-0.3333 0.5000 (  3301 PWs)   bands (ev):

   -27.8078 -10.1134  -9.8040  -9.7893  -4.3899   3.3085   4.6350   4.6564
    10.8526  12.0030  12.3360  12.8265  13.8851  15.0135  15.3622  15.5144

          k = 0.4167-0.2500 0.4167 (  3309 PWs)   bands (ev):

   -27.8103 -10.0668  -9.8035  -9.7826  -4.4924   3.5491   4.7197   4.8139
    10.4570  11.6676  12.0401  12.3752  13.1805  14.2593  15.9221  16.4989

          k = 0.3333-0.1667 0.3333 (  3319 PWs)   bands (ev):

   -27.8142  -9.9908  -9.7989  -9.7756  -4.6547   3.9634   4.8969   5.0530
    10.1524  11.0483  11.3552  11.7532  12.6490  13.3109  16.4179  17.2693

          k = 0.2500-0.0833 0.2500 (  3312 PWs)   bands (ev):

   -27.8184  -9.9040  -9.7907  -9.7701  -4.8332   4.4874   5.1375   5.3219
    10.0157  10.5502  10.5754  11.1459  11.9518  12.4017  16.9090  17.7281

          k = 0.1667-0.0000 0.1667 (  3311 PWs)   bands (ev):

   -27.8219  -9.8311  -9.7797  -9.7676  -4.9811   5.0234   5.3878   5.5256
     9.8662  10.0655  10.2903  10.6334  11.3584  11.6573  16.1819  18.9416

          k = 0.0000 0.3333 0.0000 (  3315 PWs)   bands (ev):

   -27.8192  -9.8595  -9.7900  -9.7900  -4.8954   4.5276   5.4572   5.4572
     9.4362  10.0882  11.0916  11.0916  11.2221  12.7586  16.8284  18.5579

          k =-0.0833 0.4167-0.0833 (  3309 PWs)   bands (ev):

   -27.8160  -9.9136  -9.7998  -9.7967  -4.7929   4.2095   5.2722   5.3265
     9.3200  10.4960  11.4390  11.5789  11.6712  13.5406  17.1825  17.6410

          k =-0.1667 0.5000-0.1667 (  3312 PWs)   bands (ev):

   -27.8122  -9.9829  -9.8069  -9.8045  -4.6628   3.9225   4.9682   5.1236
     9.4584  11.1570  11.9568  12.1131  12.3246  14.1186  16.1243  16.9799

          k =-0.2500 0.5833-0.2500 (  3307 PWs)   bands (ev):

   -27.8087 -10.0438  -9.8164  -9.8093  -4.5392   3.6875   4.7083   4.9152
     9.8137  11.8612  12.5473  12.6492  12.9376  14.1839  15.4502  16.1964

          k = 0.6667-0.3333 0.6667 (  3293 PWs)   bands (ev):

   -27.8065 -10.0810  -9.8295  -9.8066  -4.4536   3.5253   4.5818   4.7522
    10.3492  11.9424  12.9064  12.9142  13.7203  14.2797  14.9846  15.8375

          k = 0.5833-0.2500 0.5833 (  3295 PWs)   bands (ev):

   -27.8062 -10.0869  -9.8395  -9.7993  -4.4291   3.4714   4.6010   4.6652
    10.8851  11.5660  12.4780  13.0198  13.8697  14.7490  15.4062  15.7984

          k = 0.5000-0.1667 0.5000 (  3300 PWs)   bands (ev):

   -27.8079 -10.0617  -9.8421  -9.7895  -4.4729   3.5533   4.6681   4.7402
    10.7182  11.7910  11.8448  12.5619  13.2963  15.0850  15.8278  16.1440

          k = 0.4167-0.0833 0.4167 (  3319 PWs)   bands (ev):

   -27.8111 -10.0132  -9.8345  -9.7798  -4.5744   3.7718   4.7606   4.9562
    10.4159  11.2615  11.3368  12.4827  12.7404  14.2332  15.9347  16.9973

          k = 0.3333 0.0000 0.3333 (  3309 PWs)   bands (ev):

   -27.8149  -9.9555  -9.8158  -9.7726  -4.7065   4.1006   4.9278   5.1817
    10.2235  10.7559  10.8244  11.7610  12.5189  13.2720  16.5367  17.2929

          k = 0.0000 0.5000 0.0000 (  3327 PWs)   bands (ev):

   -27.8136  -9.9266  -9.8127  -9.8127  -4.7654   4.0644   5.3256   5.3256
     8.9357  10.6112  11.4841  12.0866  12.0866  14.2463  16.6918  17.5447

          k =-0.0833 0.5833-0.0833 (  3312 PWs)   bands (ev):

   -27.8104  -9.9646  -9.8242  -9.8225  -4.7070   3.9554   5.1591   5.2242
     8.8712  11.0434  11.7746  12.5956  12.6339  14.6423  15.6836  17.0616

          k =-0.1667 0.6667-0.1667 (  3305 PWs)   bands (ev):

   -27.8074 -10.0041  -9.8414  -9.8265  -4.6324   3.9003   4.8592   5.0620
     9.1091  11.7199  12.3330  12.9505  13.0807  14.2023  15.1508  16.5739

          k = 0.7500-0.2500 0.7500 (  3295 PWs)   bands (ev):

   -27.8052 -10.0301  -9.8645  -9.8239  -4.5597   3.8630   4.5999   4.8918
     9.5846  12.1847  13.0733  13.0865  13.1550  13.6943  15.0109  16.4287

          k = 0.6667-0.1667 0.6667 (  3286 PWs)   bands (ev):

   -27.8045 -10.0386  -9.8850  -9.8151  -4.5070   3.7814   4.5218   4.7565
    10.2503  11.7655  12.7462  12.9833  13.8069  14.0102  15.3612  16.6245

          k = 0.5833-0.0833 0.5833 (  3294 PWs)   bands (ev):

   -27.8055 -10.0349  -9.8898  -9.8026  -4.4894   3.6907   4.6164   4.6835
    10.9864  11.3017  12.1793  12.3265  14.0186  14.9275  15.7558  16.3596

          k = 0.5000 0.0000 0.5000 (  3310 PWs)   bands (ev):

   -27.8079 -10.0266  -9.8705  -9.7896  -4.5136   3.6767   4.6850   4.7878
    10.8085  11.4415  11.6524  12.2484  13.3660  15.0836  15.8925  16.5439

          k = 0.0000 0.6667 0.0000 (  3302 PWs)   bands (ev):

   -27.8081  -9.9720  -9.8354  -9.8354  -4.7245   3.9816   5.2417   5.2417
     8.5271  11.1754  11.7759  13.0734  13.0734  14.7306  15.2711  17.0820

          k =-0.0833 0.7500-0.0833 (  3307 PWs)   bands (ev):

   -27.8057  -9.9883  -9.8509  -9.8421  -4.7101   4.0406   5.0887   5.1703
     8.5429  11.5992  12.0532  13.3396  13.4032  14.0342  15.1758  17.0570

          k = 0.8333-0.1667 0.8333 (  3302 PWs)   bands (ev):

   -27.8039  -9.9942  -9.8821  -9.8410  -4.6660   4.1306   4.7622   5.0386
     8.8812  12.2545  12.5746  13.0184  13.4222  13.5133  15.2085  17.1877

          k = 0.7500-0.0833 0.7500 (  3290 PWs)   bands (ev):

   -27.8032  -9.9846  -9.9239  -9.8323  -4.6027   4.1771   4.4544   4.8896
     9.4583  12.3107  12.9135  13.0944  13.2699  13.2898  15.5917  17.0835

          k = 0.6667-0.0000 0.6667 (  3298 PWs)   bands (ev):

   -27.8038  -9.9953  -9.9311  -9.8182  -4.5374   3.9413   4.4816   4.7623
    10.2146  11.7685  12.4919  12.6286  13.9761  14.1068  16.0370  16.1545

          k = 0.0000 0.8333 0.0000 (  3302 PWs)   bands (ev):

   -27.8040  -9.9925  -9.8520  -9.8520  -4.7512   4.1410   5.2037   5.2037
     8.2665  11.6387  12.0140  13.6365  13.6365  13.6561  15.1327  17.5697

          k = 0.9167-0.0833 0.9167 (  3304 PWs)   bands (ev):

   -27.8029  -9.9927  -9.8686  -9.8535  -4.7440   4.2298   5.0496   5.1514
     8.3722  11.9266  12.2289  13.3116  13.5325  13.6593  15.1314  18.0597

          k = 0.8333 0.0000 0.8333 (  3292 PWs)   bands (ev):

   -27.8026  -9.9790  -9.9061  -9.8463  -4.6896   4.3058   4.6877   5.0341
     8.8029  12.4498  12.6698  12.9379  13.1434  13.4460  15.4463  17.7901

          k = 0.0000-1.0000 0.0000 (  3306 PWs)   bands (ev):

   -27.8026  -9.9973  -9.8581  -9.8581  -4.7726   4.2504   5.1940   5.1940
     8.1776  11.7700  12.1075  13.3455  13.7557  13.7557  14.9214  18.7277

          k =-0.1667 0.3333 0.0000 (  3314 PWs)   bands (ev):

   -27.8180  -9.8952  -9.7969  -9.7774  -4.8373   4.4232   5.2235   5.3704
     9.7059  10.3399  10.9486  11.2428  11.6742  12.8268  17.0432  17.6232

          k =-0.2500 0.4167-0.0833 (  3309 PWs)   bands (ev):

   -27.8142  -9.9643  -9.8117  -9.7815  -4.6947   4.0361   4.9689   5.1594
     9.8084  10.8841  11.3805  11.8113  12.3346  13.6120  16.4706  17.3043

          k =-0.3333 0.5000-0.1667 (  3308 PWs)   bands (ev):

   -27.8103 -10.0328  -9.8206  -9.7890  -4.5527   3.7076   4.7531   4.9228
    10.0835  11.5247  11.9711  12.4931  12.7951  14.2425  15.8403  16.5876

          k = 0.5833-0.4167 0.7500 (  3294 PWs)   bands (ev):

   -27.8075 -10.0819  -9.8241  -9.7968  -4.4489   3.4856   4.6274   4.7392
    10.5192  11.8747  12.3993  12.8767  13.3881  14.8626  15.2800  15.8464

          k = 0.5000-0.3333 0.6667 (  3294 PWs)   bands (ev):

   -27.8065 -10.0996  -9.8245  -9.8004  -4.4109   3.4069   4.5956   4.6627
    10.8806  11.5878  12.8034  12.9426  14.0494  14.5702  15.4212  15.4464

          k =-0.1667 0.5000 0.0000 (  3307 PWs)   bands (ev):

   -27.8128  -9.9535  -9.8204  -9.8004  -4.7133   4.0035   5.1141   5.2210
     9.2364  10.8482  11.7803  11.9650  12.3020  14.1764  16.2957  17.2980

          k =-0.2500 0.5833-0.0833 (  3303 PWs)   bands (ev):

   -27.8094  -9.9998  -9.8373  -9.8075  -4.6201   3.8518   4.8713   5.0378
     9.4288  11.3811  12.3827  12.4323  12.7792  14.3501  15.5369  16.7620

          k = 0.6667-0.3333 0.8333 (  3295 PWs)   bands (ev):

   -27.8066 -10.0373  -9.8495  -9.8154  -4.5373   3.7501   4.6555   4.8582
     9.8360  11.8969  12.6041  12.9017  13.2340  14.3380  15.0828  16.2569

          k = 0.5833-0.2500 0.7500 (  3295 PWs)   bands (ev):

   -27.8051 -10.0562  -9.8603  -9.8163  -4.4858   3.6804   4.5623   4.7308
    10.4163  11.5338  13.0072  13.0877  13.4478  14.4274  15.2280  16.1123

          k = 0.5000-0.1667 0.6667 (  3296 PWs)   bands (ev):

   -27.8055 -10.0532  -9.8667  -9.8089  -4.4791   3.6511   4.6049   4.6902
    10.7777  11.2749  12.5687  12.7745  13.7550  14.8247  15.5130  15.9958

          k = 0.4167-0.0833 0.5833 (  3307 PWs)   bands (ev):

   -27.8076 -10.0317  -9.8616  -9.7975  -4.5201   3.6927   4.6872   4.8021
    10.3529  11.5774  12.1658  12.3584  13.3336  14.9524  15.4228  16.4966

          k = 0.3333 0.0000 0.5000 (  3322 PWs)   bands (ev):

   -27.8107  -9.9996  -9.8416  -9.7871  -4.5989   3.8229   4.8047   4.9990
    10.0082  11.1869  11.6923  12.5271  12.6552  14.2651  15.8688  17.0205

          k =-0.1667 0.6667-0.0000 (  3309 PWs)   bands (ev):

   -27.8077  -9.9853  -9.8440  -9.8293  -4.6776   3.9512   5.0435   5.1210
     8.8499  11.3943  12.1177  12.9963  13.0601  14.4360  15.2053  16.9406

          k = 0.7500-0.2500 0.9167 (  3307 PWs)   bands (ev):

   -27.8052 -10.0009  -9.8651  -9.8379  -4.6320   3.9947   4.7910   4.9754
     9.1367  11.8751  12.5755  13.0791  13.3145  13.8918  15.1470  16.7711

          k = 0.6667-0.1667 0.8333 (  3300 PWs)   bands (ev):

   -27.8038 -10.0051  -9.8935  -9.8370  -4.5808   4.0312   4.5480   4.8384
     9.6537  11.9339  12.6676  13.2328  13.3593  13.8653  15.3921  16.8664

          k = 0.5833-0.0833 0.7500 (  3282 PWs)   bands (ev):

   -27.8038 -10.0051  -9.9130  -9.8266  -4.5374   3.9371   4.5125   4.7329
    10.3510  11.3364  12.6052  13.0240  13.4352  14.7002  15.7251  16.3488

          k = 0.5000 0.0000 0.6667 (  3293 PWs)   bands (ev):

   -27.8052 -10.0174  -9.8993  -9.8116  -4.5146   3.7812   4.6409   4.6802
    10.7928  11.1443  12.1779  12.5771  13.9160  14.9736  15.5416  16.3630

          k = 0.8333-0.1667 1.0000 (  3308 PWs)   bands (ev):

   -27.8039  -9.9908  -9.8612  -9.8560  -4.7078   4.1447   4.9949   5.0712
     8.6039  11.8444  12.4090  13.1554  13.6137  13.6190  15.2252  17.3692

          k = 0.7500-0.0833 0.9167 (  3301 PWs)   bands (ev):

   -27.8029  -9.9804  -9.8954  -9.8561  -4.6704   4.2625   4.6938   4.9517
     8.9835  12.1890  12.5264  13.1154  13.2401  13.6361  15.5057  17.5680

          k = 0.6667 0.0000 0.8333 (  3281 PWs)   bands (ev):

   -27.8028  -9.9543  -9.9472  -9.8442  -4.6078   4.2990   4.3954   4.8334
     9.5892  11.9145  12.6203  12.9446  13.3905  13.9847  15.8555  16.8747

          k =-0.1667-1.0000-0.0000 (  3316 PWs)   bands (ev):

   -27.8025  -9.9881  -9.8681  -9.8675  -4.7303   4.2782   4.9677   5.0572
     8.5201  11.9706  12.5389  13.1180  13.2423  13.7612  15.2659  18.2805

          k = 0.6667-0.3333 1.0000 (  3301 PWs)   bands (ev):

   -27.8066 -10.0092  -9.8674  -9.8180  -4.5783   3.8504   4.7524   4.8720
     9.6828  11.6207  12.4015  12.7984  13.2703  14.4725  15.1637  16.6688

          k = 0.5833-0.2500 0.9167 (  3299 PWs)   bands (ev):

   -27.8045 -10.0121  -9.8874  -9.8318  -4.5482   3.8988   4.6265   4.7334
    10.1355  11.4614  12.3063  13.1700  13.5837  14.5434  15.4275  16.4360

          k = 0.5000-0.1667 0.8333 (  3308 PWs)   bands (ev):

   -27.8038 -10.0124  -9.8939  -9.8384  -4.5374   3.9330   4.5548   4.6920
    10.6624  10.8461  12.8632  12.9834  13.3566  15.0675  15.5681  16.2782

          k = 0.6667-0.1667 1.0000 (  3307 PWs)   bands (ev):

   -27.8036  -9.9866  -9.8862  -9.8594  -4.6184   4.1271   4.6807   4.8043
     9.4667  11.8906  12.1708  13.3691  13.5645  13.8422  15.5916  16.9121

          k = 0.5833-0.0833 0.9167 (  3299 PWs)   bands (ev):

   -27.8028  -9.9656  -9.9160  -9.8671  -4.5953   4.2340   4.5150   4.6980
    10.0098  11.2594  12.4077  12.9190  13.6470  14.7863  15.9718  16.7395

          k = 0.5000 0.0000 0.8333 (  3292 PWs)   bands (ev):

   -27.8032  -9.9751  -9.9203  -9.8531  -4.5695   4.1046   4.5613   4.6540
    10.6340  10.7054  12.3988  13.0937  13.4777  15.4720  15.5864  16.3755

          k =-0.3333-1.0000 0.0000 (  3306 PWs)   bands (ev):

   -27.8025  -9.9628  -9.8931  -9.8879  -4.6442   4.3689   4.5644   4.7839
     9.3926  11.8913  12.1721  12.9748  13.7724  13.9564  15.8678  17.4507

          k =-0.5000-1.0000 0.0000 (  3268 PWs)   bands (ev):

   -27.8025  -9.9280  -9.9280  -9.8976  -4.6004   4.3811   4.5369   4.5369
    10.5736  10.5736  12.3125  12.8013  13.7780  15.6042  15.9753  16.6081

     the Fermi energy is     6.9905 ev

!    total energy              =     -83.03964786 Ry
     estimated scf accuracy    <          5.4E-11 Ry
     smearing contrib. (-TS)   =      -0.00000000 Ry
     internal energy E=F+TS    =     -83.03964786 Ry

     The total energy is F=E-TS. E is the sum of the following terms:
     one-electron contribution =     -17.61372460 Ry
     hartree contribution      =      13.90711320 Ry
     xc contribution           =     -13.33418533 Ry
     ewald contribution        =     -65.99885114 Ry

     convergence has been achieved in   8 iterations

     Writing all to output data dir out/mp-1087.save/
 
     init_run     :      0.47s CPU      0.51s WALL (       1 calls)
     electrons    :     16.35s CPU     16.88s WALL (       1 calls)

     Called by init_run:
     wfcinit      :      0.43s CPU      0.45s WALL (       1 calls)
     potinit      :      0.02s CPU      0.02s WALL (       1 calls)
     hinit0       :      0.01s CPU      0.02s WALL (       1 calls)

     Called by electrons:
     c_bands      :     14.78s CPU     15.26s WALL (       8 calls)
     sum_band     :      1.52s CPU      1.56s WALL (       8 calls)
     v_of_rho     :      0.05s CPU      0.05s WALL (       9 calls)
     mix_rho      :      0.01s CPU      0.01s WALL (       8 calls)

     Called by c_bands:
     init_us_2    :      0.14s CPU      0.15s WALL (    1224 calls)
     init_us_2:cp :      0.14s CPU      0.15s WALL (    1224 calls)
     cegterg      :     14.33s CPU     14.75s WALL (     576 calls)

     Called by *egterg:
     cdiaghg      :      1.41s CPU      1.46s WALL (    4657 calls)
     h_psi        :     12.12s CPU     12.48s WALL (    4729 calls)
     g_psi        :      0.08s CPU      0.09s WALL (    4081 calls)

     Called by h_psi:
     h_psi:calbec :      0.29s CPU      0.30s WALL (    4729 calls)
     vloc_psi     :     11.60s CPU     11.93s WALL (    4729 calls)
     add_vuspsi   :      0.18s CPU      0.19s WALL (    4729 calls)

     General routines
     calbec       :      0.27s CPU      0.29s WALL (    4729 calls)
     fft          :      0.02s CPU      0.03s WALL (      89 calls)
     ffts         :      0.00s CPU      0.00s WALL (       8 calls)
     fftw         :     11.73s CPU     12.06s WALL (   93064 calls)
 
     Parallel routines
 
     PWSCF        :     16.93s CPU     17.75s WALL

 
   This run was terminated on:  14:27:35   3Jan2024            

=------------------------------------------------------------------------------=
   JOB DONE.
=------------------------------------------------------------------------------=
