
     Program PWSCF v.7.1 starts on  3Jan2024 at 14:28:37 

     This program is part of the open-source Quantum ESPRESSO suite
     for quantum simulation of materials; please cite
         "P. Giannozzi et al., J. Phys.:Condens. Matter 21 395502 (2009);
         "P. Giannozzi et al., J. Phys.:Condens. Matter 29 465901 (2017);
         "P. Giannozzi et al., J. Chem. Phys. 152 154105 (2020);
          URL http://www.quantum-espresso.org", 
     in publications or presentations arising from this work. More details at
     http://www.quantum-espresso.org/quote

     Parallel version (MPI), running on     8 processors

     MPI processes distributed on     1 nodes
     248990 MiB available memory on the printing compute node when the environment starts
 
     Reading input from pw_mp-2605_scf_k3000_E70.in
Warning: card &CELL ignored
Warning: card / ignored

     Current dimensions of program PWSCF are:
     Max number of different atomic species (ntypx) = 10
     Max number of k-points (npk) =  40000
     Max angular momentum in pseudopotentials (lmaxx) =  4
 
     R & G space division:  proc/nbgrp/npool/nimage =       8
     Subspace diagonalization in iterative solution of the eigenvalue problem:
     a serial algorithm will be used

 
     Parallelization info
     --------------------
     sticks:   dense  smooth     PW     G-vecs:    dense   smooth      PW
     Min         100     100     31                 1855     1855     320
     Max         101     101     32                 1856     1856     321
     Sum         805     805    253                14841    14841    2565
 
     Using Slab Decomposition
 


     bravais-lattice index     =            2
     lattice parameter (alat)  =       9.0841  a.u.
     unit-cell volume          =     187.4084 (a.u.)^3
     number of atoms/cell      =            2
     number of atomic types    =            2
     number of electrons       =        16.00
     number of Kohn-Sham states=           16
     kinetic-energy cutoff     =      70.0000  Ry
     charge density cutoff     =     280.0000  Ry
     scf convergence threshold =      1.0E-10
     mixing beta               =       0.7000
     number of iterations used =            8  plain     mixing
     Exchange-correlation= PBE
                           (   1   4   3   4   0   0   0)

     celldm(1)=   9.084123  celldm(2)=   0.000000  celldm(3)=   0.000000
     celldm(4)=   0.000000  celldm(5)=   0.000000  celldm(6)=   0.000000

     crystal axes: (cart. coord. in units of alat)
               a(1) = (  -0.500000   0.000000   0.500000 )  
               a(2) = (   0.000000   0.500000   0.500000 )  
               a(3) = (  -0.500000   0.500000   0.000000 )  

     reciprocal axes: (cart. coord. in units 2 pi/alat)
               b(1) = ( -1.000000 -1.000000  1.000000 )  
               b(2) = (  1.000000  1.000000  1.000000 )  
               b(3) = ( -1.000000  1.000000 -1.000000 )  


     PseudoPot. # 1 for Ca read from file:
     /usr/scratch4/magr4985/MG/devEb/pseudo/SG15/Ca.upf
     MD5 check sum: d3df06507a1658a66563533e58c348d1
     Pseudo is Norm-conserving, Zval = 10.0
     Generated using ONCVPSP code by D. R. Hamann
     Using radial grid of  602 points,  6 beta functions with: 
                l(1) =   0
                l(2) =   0
                l(3) =   1
                l(4) =   1
                l(5) =   2
                l(6) =   2

     PseudoPot. # 2 for O  read from file:
     /usr/scratch4/magr4985/MG/devEb/pseudo/SG15/O.upf
     MD5 check sum: 9d2d0a8c71a1ad34a0c43284618bc51d
     Pseudo is Norm-conserving, Zval =  6.0
     Generated using ONCVPSP code by D. R. Hamann
     Using radial grid of  602 points,  4 beta functions with: 
                l(1) =   0
                l(2) =   0
                l(3) =   1
                l(4) =   1

     atomic species   valence    mass     pseudopotential
        Ca            10.00    40.07800     Ca( 1.00)
        O              6.00    15.99940     O ( 1.00)

     48 Sym. Ops., with inversion, found



   Cartesian axes

     site n.     atom                  positions (alat units)
         1           Ca  tau(   1) = (   0.0000000   0.0000000   0.0000000  )
         2           O   tau(   2) = (  -0.5000000   0.5000000   0.5000000  )

     number of k points=    72  Gaussian smearing, width (Ry)=  0.0005
                       cart. coord. in units 2pi/alat
        k(    1) = (   0.0000000   0.0000000   0.0000000), wk =   0.0011574
        k(    2) = (  -0.0833333   0.0833333  -0.0833333), wk =   0.0092593
        k(    3) = (  -0.1666667   0.1666667  -0.1666667), wk =   0.0092593
        k(    4) = (  -0.2500000   0.2500000  -0.2500000), wk =   0.0092593
        k(    5) = (  -0.3333333   0.3333333  -0.3333333), wk =   0.0092593
        k(    6) = (  -0.4166667   0.4166667  -0.4166667), wk =   0.0092593
        k(    7) = (   0.5000000  -0.5000000   0.5000000), wk =   0.0046296
        k(    8) = (   0.0000000   0.1666667   0.0000000), wk =   0.0069444
        k(    9) = (  -0.0833333   0.2500000  -0.0833333), wk =   0.0277778
        k(   10) = (  -0.1666667   0.3333333  -0.1666667), wk =   0.0277778
        k(   11) = (  -0.2500000   0.4166667  -0.2500000), wk =   0.0277778
        k(   12) = (  -0.3333333   0.5000000  -0.3333333), wk =   0.0277778
        k(   13) = (   0.5833333  -0.4166667   0.5833333), wk =   0.0277778
        k(   14) = (   0.5000000  -0.3333333   0.5000000), wk =   0.0277778
        k(   15) = (   0.4166667  -0.2500000   0.4166667), wk =   0.0277778
        k(   16) = (   0.3333333  -0.1666667   0.3333333), wk =   0.0277778
        k(   17) = (   0.2500000  -0.0833333   0.2500000), wk =   0.0277778
        k(   18) = (   0.1666667  -0.0000000   0.1666667), wk =   0.0138889
        k(   19) = (   0.0000000   0.3333333   0.0000000), wk =   0.0069444
        k(   20) = (  -0.0833333   0.4166667  -0.0833333), wk =   0.0277778
        k(   21) = (  -0.1666667   0.5000000  -0.1666667), wk =   0.0277778
        k(   22) = (  -0.2500000   0.5833333  -0.2500000), wk =   0.0277778
        k(   23) = (   0.6666667  -0.3333333   0.6666667), wk =   0.0277778
        k(   24) = (   0.5833333  -0.2500000   0.5833333), wk =   0.0277778
        k(   25) = (   0.5000000  -0.1666667   0.5000000), wk =   0.0277778
        k(   26) = (   0.4166667  -0.0833333   0.4166667), wk =   0.0277778
        k(   27) = (   0.3333333   0.0000000   0.3333333), wk =   0.0138889
        k(   28) = (   0.0000000   0.5000000   0.0000000), wk =   0.0069444
        k(   29) = (  -0.0833333   0.5833333  -0.0833333), wk =   0.0277778
        k(   30) = (  -0.1666667   0.6666667  -0.1666667), wk =   0.0277778
        k(   31) = (   0.7500000  -0.2500000   0.7500000), wk =   0.0277778
        k(   32) = (   0.6666667  -0.1666667   0.6666667), wk =   0.0277778
        k(   33) = (   0.5833333  -0.0833333   0.5833333), wk =   0.0277778
        k(   34) = (   0.5000000   0.0000000   0.5000000), wk =   0.0138889
        k(   35) = (   0.0000000   0.6666667   0.0000000), wk =   0.0069444
        k(   36) = (  -0.0833333   0.7500000  -0.0833333), wk =   0.0277778
        k(   37) = (   0.8333333  -0.1666667   0.8333333), wk =   0.0277778
        k(   38) = (   0.7500000  -0.0833333   0.7500000), wk =   0.0277778
        k(   39) = (   0.6666667  -0.0000000   0.6666667), wk =   0.0138889
        k(   40) = (   0.0000000   0.8333333   0.0000000), wk =   0.0069444
        k(   41) = (   0.9166667  -0.0833333   0.9166667), wk =   0.0277778
        k(   42) = (   0.8333333   0.0000000   0.8333333), wk =   0.0138889
        k(   43) = (   0.0000000  -1.0000000   0.0000000), wk =   0.0034722
        k(   44) = (  -0.1666667   0.3333333   0.0000000), wk =   0.0277778
        k(   45) = (  -0.2500000   0.4166667  -0.0833333), wk =   0.0555556
        k(   46) = (  -0.3333333   0.5000000  -0.1666667), wk =   0.0555556
        k(   47) = (   0.5833333  -0.4166667   0.7500000), wk =   0.0555556
        k(   48) = (   0.5000000  -0.3333333   0.6666667), wk =   0.0277778
        k(   49) = (  -0.1666667   0.5000000   0.0000000), wk =   0.0277778
        k(   50) = (  -0.2500000   0.5833333  -0.0833333), wk =   0.0555556
        k(   51) = (   0.6666667  -0.3333333   0.8333333), wk =   0.0555556
        k(   52) = (   0.5833333  -0.2500000   0.7500000), wk =   0.0555556
        k(   53) = (   0.5000000  -0.1666667   0.6666667), wk =   0.0555556
        k(   54) = (   0.4166667  -0.0833333   0.5833333), wk =   0.0555556
        k(   55) = (   0.3333333   0.0000000   0.5000000), wk =   0.0277778
        k(   56) = (  -0.1666667   0.6666667  -0.0000000), wk =   0.0277778
        k(   57) = (   0.7500000  -0.2500000   0.9166667), wk =   0.0555556
        k(   58) = (   0.6666667  -0.1666667   0.8333333), wk =   0.0555556
        k(   59) = (   0.5833333  -0.0833333   0.7500000), wk =   0.0555556
        k(   60) = (   0.5000000   0.0000000   0.6666667), wk =   0.0277778
        k(   61) = (   0.8333333  -0.1666667   1.0000000), wk =   0.0277778
        k(   62) = (   0.7500000  -0.0833333   0.9166667), wk =   0.0555556
        k(   63) = (   0.6666667   0.0000000   0.8333333), wk =   0.0277778
        k(   64) = (  -0.1666667  -1.0000000  -0.0000000), wk =   0.0138889
        k(   65) = (   0.6666667  -0.3333333   1.0000000), wk =   0.0277778
        k(   66) = (   0.5833333  -0.2500000   0.9166667), wk =   0.0555556
        k(   67) = (   0.5000000  -0.1666667   0.8333333), wk =   0.0277778
        k(   68) = (   0.6666667  -0.1666667   1.0000000), wk =   0.0277778
        k(   69) = (   0.5833333  -0.0833333   0.9166667), wk =   0.0555556
        k(   70) = (   0.5000000   0.0000000   0.8333333), wk =   0.0277778
        k(   71) = (  -0.3333333  -1.0000000   0.0000000), wk =   0.0138889
        k(   72) = (  -0.5000000  -1.0000000   0.0000000), wk =   0.0069444

     Dense  grid:    14841 G-vectors     FFT dimensions: (  36,  36,  36)

     Estimated max dynamical RAM per process >       8.45 MB

     Estimated total dynamical RAM >      67.58 MB

     Initial potential from superposition of free atoms

     starting charge      15.7951, renormalised to      16.0000
     Starting wfcs are random

     total cpu time spent up to now is        0.4 secs

     Self-consistent Calculation

     iteration #  1     ecut=    70.00 Ry     beta= 0.70
     Davidson diagonalization with overlap
     c_bands:  1 eigenvalues not converged
     c_bands:  1 eigenvalues not converged
     c_bands:  1 eigenvalues not converged
     c_bands:  1 eigenvalues not converged
     c_bands:  1 eigenvalues not converged
     c_bands:  1 eigenvalues not converged
     c_bands:  1 eigenvalues not converged
     c_bands:  1 eigenvalues not converged
     c_bands:  1 eigenvalues not converged
     c_bands:  1 eigenvalues not converged
     c_bands:  1 eigenvalues not converged
     c_bands:  1 eigenvalues not converged
     c_bands:  1 eigenvalues not converged
     c_bands:  1 eigenvalues not converged
     c_bands:  1 eigenvalues not converged
     c_bands:  1 eigenvalues not converged
     c_bands:  1 eigenvalues not converged
     c_bands:  1 eigenvalues not converged
     ethr =  5.00E-06,  avg # of iterations = 17.8

     total cpu time spent up to now is        3.4 secs

     total energy              =    -105.80986859 Ry
     estimated scf accuracy    <       0.35577631 Ry

     iteration #  2     ecut=    70.00 Ry     beta= 0.70
     Davidson diagonalization with overlap
     ethr =  2.22E-03,  avg # of iterations =  2.3

     total cpu time spent up to now is        4.1 secs

     total energy              =    -105.80110852 Ry
     estimated scf accuracy    <       0.92139138 Ry

     iteration #  3     ecut=    70.00 Ry     beta= 0.70
     Davidson diagonalization with overlap
     ethr =  2.22E-03,  avg # of iterations =  2.1

     total cpu time spent up to now is        4.7 secs

     total energy              =    -105.98212006 Ry
     estimated scf accuracy    <       0.00868643 Ry

     iteration #  4     ecut=    70.00 Ry     beta= 0.70
     Davidson diagonalization with overlap
     ethr =  5.43E-05,  avg # of iterations =  2.1

     total cpu time spent up to now is        5.3 secs

     total energy              =    -105.98378599 Ry
     estimated scf accuracy    <       0.00054928 Ry

     iteration #  5     ecut=    70.00 Ry     beta= 0.70
     Davidson diagonalization with overlap
     ethr =  3.43E-06,  avg # of iterations =  2.6

     total cpu time spent up to now is        6.0 secs

     total energy              =    -105.98384511 Ry
     estimated scf accuracy    <       0.00001558 Ry

     iteration #  6     ecut=    70.00 Ry     beta= 0.70
     Davidson diagonalization with overlap
     ethr =  9.74E-08,  avg # of iterations =  3.8

     total cpu time spent up to now is        6.7 secs

     total energy              =    -105.98384720 Ry
     estimated scf accuracy    <       0.00000034 Ry

     iteration #  7     ecut=    70.00 Ry     beta= 0.70
     Davidson diagonalization with overlap
     ethr =  2.13E-09,  avg # of iterations =  3.6

     total cpu time spent up to now is        7.4 secs

     total energy              =    -105.98384722 Ry
     estimated scf accuracy    <       0.00000013 Ry

     iteration #  8     ecut=    70.00 Ry     beta= 0.70
     Davidson diagonalization with overlap
     ethr =  7.82E-10,  avg # of iterations =  2.1

     total cpu time spent up to now is        8.1 secs

     total energy              =    -105.98384724 Ry
     estimated scf accuracy    <          1.2E-09 Ry

     iteration #  9     ecut=    70.00 Ry     beta= 0.70
     Davidson diagonalization with overlap
     ethr =  7.53E-12,  avg # of iterations =  4.4

     total cpu time spent up to now is        8.9 secs

     total energy              =    -105.98384724 Ry
     estimated scf accuracy    <          1.6E-10 Ry

     iteration # 10     ecut=    70.00 Ry     beta= 0.70
     Davidson diagonalization with overlap
     ethr =  9.86E-13,  avg # of iterations =  2.9

     total cpu time spent up to now is        9.5 secs

     End of self-consistent calculation

          k = 0.0000 0.0000 0.0000 (  1837 PWs)   bands (ev):

   -29.8977 -10.6671 -10.6671 -10.6671  -7.7163   7.7784   7.7784   7.7784
    12.5105  13.9965  13.9965  13.9965  15.4925  15.4925  22.8677  30.1848

          k =-0.0833 0.0833-0.0833 (  1868 PWs)   bands (ev):

   -29.8910 -10.7643 -10.6707 -10.6707  -7.6149   7.5209   7.6794   7.6794
    12.8347  13.9710  14.1150  14.1150  15.6599  15.6599  23.1497  29.6743

          k =-0.1667 0.1667-0.1667 (  1874 PWs)   bands (ev):

   -29.8726 -11.0033 -10.6806 -10.6806  -7.3630   6.9241   7.4293   7.4293
    13.6100  13.9790  14.4508  14.4508  16.1126  16.1126  23.7005  28.7942

          k =-0.2500 0.2500-0.2500 (  1880 PWs)   bands (ev):

   -29.8473 -11.2861 -10.6939 -10.6939  -7.0613   6.2518   7.1199   7.1199
    14.0293  14.6423  14.9452  14.9452  16.7340  16.7340  23.7105  27.6939

          k =-0.3333 0.3333-0.3333 (  1853 PWs)   bands (ev):

   -29.8218 -11.5352 -10.7071 -10.7071  -6.7912   5.6732   6.8405   6.8405
    14.3078  15.4923  15.4923  15.5295  17.3912  17.3912  22.9862  26.2748

          k =-0.4167 0.4167-0.4167 (  1862 PWs)   bands (ev):

   -29.8030 -11.7022 -10.7168 -10.7168  -6.6080   5.2874   6.6495   6.6495
    14.6459  15.9335  15.9335  16.1129  17.9346  17.9346  22.2668  25.1696

          k = 0.5000-0.5000 0.5000 (  1850 PWs)   bands (ev):

   -29.7961 -11.7606 -10.7203 -10.7203  -6.5431   5.1529   6.5828   6.5828
    14.8154  16.1046  16.1046  16.2930  18.1605  18.1605  21.9972  24.7366

          k = 0.0000 0.1667 0.0000 (  1852 PWs)   bands (ev):

   -29.8888 -10.7718 -10.6822 -10.6822  -7.5883   7.3418   7.7194   7.7194
    12.8992  13.7475  14.2583  14.2583  15.5612  15.8699  23.2511  29.4854

          k =-0.0833 0.2500-0.0833 (  1864 PWs)   bands (ev):

   -29.8743 -10.9449 -10.6989 -10.6888  -7.4062   6.8881   7.5324   7.5807
    13.4469  13.6029  14.5547  14.6056  15.7894  16.3476  23.7476  28.5732

          k =-0.1667 0.3333-0.1667 (  1862 PWs)   bands (ev):

   -29.8513 -11.1976 -10.7162 -10.6980  -7.1471   6.3549   7.1975   7.3221
    13.6203  14.3322  14.9439  15.0950  16.2839  16.9571  23.9675  27.5484

          k =-0.2500 0.4167-0.2500 (  1862 PWs)   bands (ev):

   -29.8259 -11.4439 -10.7295 -10.7141  -6.8917   5.8484   6.8771   7.0314
    13.8744  15.1471  15.5012  15.6206  16.9317  17.5657  23.3306  26.3335

          k =-0.3333 0.5000-0.3333 (  1867 PWs)   bands (ev):

   -29.8050 -11.6285 -10.7352 -10.7331  -6.6972   5.4621   6.6623   6.7846
    14.2994  15.4730  16.0285  16.2855  17.5914  18.0655  22.4558  25.3096

          k = 0.5833-0.4167 0.5833 (  1855 PWs)   bands (ev):

   -29.7941 -11.7188 -10.7495 -10.7320  -6.5992   5.2671   6.5874   6.6346
    14.7148  15.4955  16.1683  16.7556  18.0539  18.3302  21.9604  24.6305

          k = 0.5000-0.3333 0.5000 (  1862 PWs)   bands (ev):

   -29.7964 -11.7012 -10.7588 -10.7207  -6.6149   5.2996   6.6059   6.6558
    14.6940  15.5248  15.9761  16.6791  18.1177  18.1718  22.0622  24.5380

          k = 0.4167-0.2500 0.4167 (  1862 PWs)   bands (ev):

   -29.8112 -11.5787 -10.7579 -10.7042  -6.7418   5.5586   6.7051   6.8521
    14.3137  15.4589  15.5266  16.1570  17.5980  17.8019  22.7177  25.1310

          k = 0.3333-0.1667 0.3333 (  1873 PWs)   bands (ev):

   -29.8344 -11.3718 -10.7464 -10.6869  -6.9589   6.0052   6.9144   7.1376
    13.9746  14.9131  14.9861  15.5446  16.8814  17.2587  23.5889  26.0816

          k = 0.2500-0.0833 0.2500 (  1867 PWs)   bands (ev):

   -29.8597 -11.1207 -10.7258 -10.6735  -7.2238   6.5663   7.1952   7.4413
    13.8081  14.0610  14.5109  15.0019  16.2376  16.6307  23.9364  27.2492

          k = 0.1667-0.0000 0.1667 (  1863 PWs)   bands (ev):

   -29.8804 -10.8910 -10.6980 -10.6675  -7.4712   7.1319   7.4793   7.6521
    13.2703  13.8528  14.2029  14.5000  15.7943  16.0526  23.5345  28.6493

          k = 0.0000 0.3333 0.0000 (  1848 PWs)   bands (ev):

   -29.8644 -10.9889 -10.7234 -10.7234  -7.3396   6.5775   7.5922   7.5922
    13.1549  13.6318  14.9444  14.9444  15.7542  16.8155  24.1636  28.1570

          k =-0.0833 0.4167-0.0833 (  1861 PWs)   bands (ev):

   -29.8455 -11.1456 -10.7476 -10.7410  -7.1949   6.2463   7.4001   7.4580
    12.9634  14.1939  15.3603  15.4051  16.0248  17.3607  24.5029  27.0548

          k =-0.1667 0.5000-0.1667 (  1862 PWs)   bands (ev):

   -29.8226 -11.3379 -10.7650 -10.7614  -7.0217   5.9652   7.0603   7.2298
    13.0768  14.9623  15.7790  15.8840  16.5431  17.8824  23.8936  26.0419

          k =-0.2500 0.5833-0.2500 (  1863 PWs)   bands (ev):

   -29.8017 -11.5021 -10.7923 -10.7709  -6.8647   5.7425   6.7557   6.9814
    13.4688  15.4446  16.2401  16.3198  17.1901  18.3736  22.7649  25.1866

          k = 0.6667-0.3333 0.6667 (  1847 PWs)   bands (ev):

   -29.7886 -11.6018 -10.8266 -10.7639  -6.7558   5.5805   6.6126   6.7779
    14.0558  15.3566  16.3496  16.8033  17.7700  18.8616  21.9459  24.3269

          k = 0.5833-0.2500 0.5833 (  1846 PWs)   bands (ev):

   -29.7869 -11.6206 -10.8524 -10.7459  -6.7162   5.5137   6.6512   6.6617
    14.6478  14.9810  16.1550  16.7927  18.0834  19.0445  21.7880  23.8196

          k = 0.5000-0.1667 0.5000 (  1851 PWs)   bands (ev):

   -29.7970 -11.5590 -10.8586 -10.7215  -6.7558   5.5851   6.6541   6.8291
    14.4000  15.1641  15.7250  16.3938  18.0531  18.4958  22.3939  23.9193

          k = 0.4167-0.0833 0.4167 (  1865 PWs)   bands (ev):

   -29.8161 -11.4333 -10.8379 -10.6972  -6.8711   5.8046   6.7566   7.0805
    14.0134  15.0731  15.2179  15.9795  17.5734  17.7295  23.3917  24.4564

          k = 0.3333 0.0000 0.3333 (  1873 PWs)   bands (ev):

   -29.8391 -11.2744 -10.7895 -10.6796  -7.0410   6.1494   6.9504   7.3188
    13.8157  14.5661  14.7816  15.5761  16.7420  17.2143  24.0138  25.5723

          k = 0.0000 0.5000 0.0000 (  1876 PWs)   bands (ev):

   -29.8313 -11.1734 -10.7797 -10.7797  -7.1961   6.1033   7.4774   7.4774
    12.4850  14.3977  15.8188  15.8188  16.0319  17.7786  25.1378  26.6121

          k =-0.0833 0.5833-0.0833 (  1857 PWs)   bands (ev):

   -29.8126 -11.2667 -10.8095 -10.8039  -7.1525   6.0194   7.3099   7.3756
    12.3541  14.9204  16.2036  16.2192  16.3407  18.1591  24.6388  25.4100

          k =-0.1667 0.6667-0.1667 (  1856 PWs)   bands (ev):

   -29.7942 -11.3675 -10.8567 -10.8139  -7.0746   6.0017   6.9843   7.1885
    12.5908  15.5014  16.4288  16.5142  16.8520  18.6225  23.1716  24.8032

          k = 0.7500-0.2500 0.7500 (  1857 PWs)   bands (ev):

   -29.7811 -11.4388 -10.9205 -10.8071  -6.9800   5.9917   6.6963   6.9785
    13.1249  15.6203  16.5893  16.6155  17.3969  19.3371  22.1207  23.9394

          k = 0.6667-0.1667 0.6667 (  1847 PWs)   bands (ev):

   -29.7770 -11.4718 -10.9738 -10.7853  -6.8916   5.8910   6.6314   6.8010
    13.8439  15.2215  16.4417  16.6154  17.8434  20.1094  21.5833  23.1001

          k = 0.5833-0.0833 0.5833 (  1846 PWs)   bands (ev):

   -29.7829 -11.4772 -10.9824 -10.7541  -6.8339   5.7619   6.6943   6.7540
    14.5683  14.7006  16.0555  16.3924  18.0724  19.8230  22.0097  22.8294

          k = 0.5000 0.0000 0.5000 (  1845 PWs)   bands (ev):

   -29.7972 -11.4659 -10.9302 -10.7219  -6.8252   5.7210   6.6788   6.9328
    14.2639  15.0358  15.6027  16.1444  18.0282  18.6926  23.0171  23.1506

          k = 0.0000 0.6667 0.0000 (  1864 PWs)   bands (ev):

   -29.7985 -11.2614 -10.8359 -10.8359  -7.2479   6.0837   7.4175   7.4175
    11.9195  15.1372  16.3279  16.6093  16.6093  18.3456  24.1107  25.8521

          k =-0.0833 0.7500-0.0833 (  1846 PWs)   bands (ev):

   -29.7843 -11.2871 -10.8793 -10.8526  -7.2740   6.1855   7.2691   7.3449
    11.8971  15.5430  16.5671  16.7667  16.8889  18.6747  22.9508  25.0947

          k = 0.8333-0.1667 0.8333 (  1849 PWs)   bands (ev):

   -29.7736 -11.2957 -10.9740 -10.8498  -7.2193   6.3072   6.9300   7.1859
    12.2711  15.9062  16.5214  16.8742  17.0696  19.4233  22.0601  24.0864

          k = 0.7500-0.0833 0.7500 (  1848 PWs)   bands (ev):

   -29.7694 -11.2862 -11.0884 -10.8281  -7.1019   6.3486   6.6128   6.9928
    12.9380  15.7320  16.3772  16.7736  17.4719  20.4795  21.6362  22.8521

          k = 0.6667-0.0000 0.6667 (  1866 PWs)   bands (ev):

   -29.7728 -11.3571 -11.0881 -10.7932  -6.9601   6.0560   6.6492   6.8151
    13.7646  15.1746  16.3998  16.4444  17.8560  21.1969  21.5531  21.9687

          k = 0.0000 0.8333 0.0000 (  1844 PWs)   bands (ev):

   -29.7747 -11.2703 -10.8770 -10.8770  -7.4008   6.3258   7.4015   7.4015
    11.5522  15.6575  16.5582  17.1105  17.1105  18.7162  22.1570  25.8249

          k = 0.9167-0.0833 0.9167 (  1834 PWs)   bands (ev):

   -29.7680 -11.2563 -10.9313 -10.8807  -7.4077   6.4364   7.2536   7.3429
    11.6561  15.8630  16.7374  16.9536  17.1826  19.2265  21.5147  24.9885

          k = 0.8333 0.0000 0.8333 (  1842 PWs)   bands (ev):

   -29.7661 -11.2135 -11.0629 -10.8629  -7.2937   6.5085   6.8818   7.1908
    12.1608  16.1104  16.3803  17.0544  17.0695  20.0353  21.3328  23.8479

          k = 0.0000-1.0000 0.0000 (  1868 PWs)   bands (ev):

   -29.7660 -11.2613 -10.8920 -10.8920  -7.4809   6.4690   7.3998   7.3998
    11.4258  15.8073  16.6457  17.2716  17.2716  19.0416  21.2373  25.7584

          k =-0.1667 0.3333 0.0000 (  1861 PWs)   bands (ev):

   -29.8576 -11.0953 -10.7412 -10.6923  -7.2403   6.4790   7.3133   7.5060
    13.4116  13.9709  14.8203  15.1272  16.0416  16.8912  24.1386  27.1084

          k =-0.2500 0.4167-0.0833 (  1866 PWs)   bands (ev):

   -29.8346 -11.2947 -10.7788 -10.7021  -7.0358   6.0773   7.0192   7.2844
    13.4717  14.6867  15.1973  15.6490  16.5807  17.4787  24.0006  25.7447

          k =-0.3333 0.5000-0.1667 (  1859 PWs)   bands (ev):

   -29.8116 -11.4815 -10.8018 -10.7207  -6.8505   5.7424   6.7691   7.0088
    13.7766  15.2614  15.6831  16.1072  17.2912  18.0275  23.0730  24.8923

          k = 0.5833-0.4167 0.7500 (  1851 PWs)   bands (ev):

   -29.7946 -11.6108 -10.8111 -10.7402  -6.7243   5.5167   6.6320   6.7759
    14.2675  15.2933  16.1042  16.6173  17.8700  18.5359  22.1689  24.3302

          k = 0.5000-0.3333 0.6667 (  1854 PWs)   bands (ev):

   -29.7884 -11.6566 -10.8125 -10.7492  -6.6800   5.4362   6.6178   6.6587
    14.6934  15.0251  16.2554  16.8801  18.0577  18.8071  21.8024  24.1376

          k =-0.1667 0.5000 0.0000 (  1870 PWs)   bands (ev):

   -29.8267 -11.2534 -10.8000 -10.7497  -7.1064   6.0450   7.2202   7.3709
    12.8016  14.6740  15.7270  15.8862  16.3322  17.8410  24.5803  25.4645

          k =-0.2500 0.5833-0.0833 (  1860 PWs)   bands (ev):

   -29.8060 -11.3754 -10.8435 -10.7683  -7.0017   5.9165   6.9495   7.1736
    12.9680  15.2272  16.0973  16.1934  16.9238  18.3350  23.6125  24.5746

          k = 0.6667-0.3333 0.8333 (  1851 PWs)   bands (ev):

   -29.7892 -11.4735 -10.8764 -10.7893  -6.9062   5.8400   6.7165   6.9511
    13.4155  15.4039  16.4258  16.4452  17.5084  18.9582  22.4288  24.0811

          k = 0.5833-0.2500 0.7500 (  1847 PWs)   bands (ev):

   -29.7807 -11.5248 -10.9060 -10.7917  -6.8402   5.7735   6.6351   6.7767
    14.0519  15.0267  16.5107  16.6886  17.8651  19.6189  21.7078  23.6118

          k = 0.5000-0.1667 0.6667 (  1847 PWs)   bands (ev):

   -29.7828 -11.5222 -10.9224 -10.7723  -6.8181   5.7275   6.6692   6.7459
    14.4419  14.7257  16.3284  16.5602  17.9945  19.5878  21.8314  23.3753

          k = 0.4167-0.0833 0.5833 (  1852 PWs)   bands (ev):

   -29.7951 -11.4726 -10.9076 -10.7430  -6.8476   5.7496   6.6994   6.9312
    13.9201  15.1423  15.9504  16.2287  17.8313  18.7882  22.7343  23.5649

          k = 0.3333 0.0000 0.5000 (  1856 PWs)   bands (ev):

   -29.8141 -11.3914 -10.8552 -10.7163  -6.9258   5.8656   6.8255   7.1433
    13.5751  15.0425  15.5332  16.0034  17.2483  18.0364  23.7556  24.1831

          k =-0.1667 0.6667-0.0000 (  1855 PWs)   bands (ev):

   -29.7961 -11.3075 -10.8587 -10.8241  -7.1586   6.0532   7.1805   7.2918
    12.2769  15.3219  16.4044  16.5610  16.6878  18.5191  23.7262  24.6629

          k = 0.7500-0.2500 0.9167 (  1848 PWs)   bands (ev):

   -29.7816 -11.3410 -10.9176 -10.8495  -7.1193   6.1357   6.9170   7.1263
    12.5715  15.6368  16.3710  16.8038  17.1340  19.1472  22.6231  24.0266

          k = 0.6667-0.1667 0.8333 (  1848 PWs)   bands (ev):

   -29.7731 -11.3554 -10.9983 -10.8467  -7.0455   6.1881   6.6729   6.9467
    13.1550  15.4171  16.3989  16.8520  17.5457  20.0761  21.8816  23.2231

          k = 0.5833-0.0833 0.7500 (  1848 PWs)   bands (ev):

   -29.7728 -11.3748 -11.0446 -10.8193  -6.9595   6.0596   6.6641   6.7966
    13.9091  14.8460  16.4140  16.6654  17.8440  20.8724  21.5210  22.4866

          k = 0.5000 0.0000 0.6667 (  1846 PWs)   bands (ev):

   -29.7809 -11.4253 -11.0048 -10.7800  -6.8869   5.8688   6.7072   6.7974
    14.2990  14.6547  16.3029  16.3199  17.9767  19.9686  22.4209  22.4321

          k = 0.8333-0.1667 1.0000 (  1842 PWs)   bands (ev):

   -29.7738 -11.2739 -10.9016 -10.9015  -7.3070   6.3247   7.1674   7.2619
    11.9347  15.7878  16.6144  16.8535  17.0983  19.1395  22.1295  24.6355

          k = 0.7500-0.0833 0.9167 (  1845 PWs)   bands (ev):

   -29.7676 -11.2343 -11.0213 -10.8964  -7.2463   6.4568   6.8645   7.1170
    12.3599  15.9278  16.2086  17.1341  17.2014  19.9978  21.6105  23.7590

          k = 0.6667 0.0000 0.8333 (  1850 PWs)   bands (ev):

   -29.7672 -11.2005 -11.1486 -10.8656  -7.1163   6.4538   6.5801   6.9513
    13.0629  15.4180  16.2640  16.9807  17.5468  20.9291  21.5314  22.6008

          k =-0.1667-1.0000-0.0000 (  1830 PWs)   bands (ev):

   -29.7657 -11.2371 -10.9433 -10.9173  -7.3837   6.4894   7.1589   7.2565
    11.8168  15.9452  16.6341  16.8869  17.2730  19.6226  21.2847  24.6362

          k = 0.6667-0.3333 1.0000 (  1849 PWs)   bands (ev):

   -29.7895 -11.3926 -10.9207 -10.7989  -6.9807   5.9478   6.8096   7.0312
    13.1808  15.3212  16.2175  16.4378  17.4595  19.0169  23.0462  23.4658

          k = 0.5833-0.2500 0.9167 (  1850 PWs)   bands (ev):

   -29.7773 -11.3926 -10.9736 -10.8386  -6.9650   6.0210   6.7097   6.8609
    13.6591  14.9645  16.3274  16.7271  17.7559  19.9583  22.1455  23.0378

          k = 0.5000-0.1667 0.8333 (  1850 PWs)   bands (ev):

   -29.7728 -11.3898 -10.9916 -10.8577  -6.9591   6.0626   6.6843   6.7715
    14.3067  14.3107  16.4283  16.8398  17.8345  20.6522  21.5254  22.9135

          k = 0.6667-0.1667 1.0000 (  1850 PWs)   bands (ev):

   -29.7717 -11.2873 -10.9685 -10.9242  -7.1225   6.2935   6.7935   6.9799
    12.9020  15.4089  16.1977  17.0636  17.4525  19.9999  22.1273  23.2923

          k = 0.5833-0.0833 0.9167 (  1846 PWs)   bands (ev):

   -29.7672 -11.2292 -11.0576 -10.9434  -7.0877   6.3890   6.6672   6.8431
    13.4997  14.7977  16.2103  17.1493  17.6761  21.0233  21.7697  22.5474

          k = 0.5000 0.0000 0.8333 (  1850 PWs)   bands (ev):

   -29.7692 -11.2791 -11.0590 -10.9016  -7.0299   6.2419   6.7332   6.7532
    14.1514  14.2474  16.2590  17.0160  17.7832  21.1009  22.0394  22.0713

          k =-0.3333-1.0000 0.0000 (  1844 PWs)   bands (ev):

   -29.7652 -11.1706 -11.0395 -10.9860  -7.1948   6.5613   6.7093   6.9669
    12.8040  15.4322  16.0955  17.2758  17.4451  20.6856  21.4942  23.2493

          k =-0.5000-1.0000 0.0000 (  1856 PWs)   bands (ev):

   -29.7650 -11.0847 -11.0788 -11.0788  -7.1021   6.4985   6.7157   6.7157
    14.0875  14.0875  16.1433  17.2772  17.7217  21.6966  21.9129  21.9129

     the Fermi energy is     9.5510 ev

!    total energy              =    -105.98384724 Ry
     estimated scf accuracy    <          1.6E-12 Ry
     smearing contrib. (-TS)   =      -0.00000000 Ry
     internal energy E=F+TS    =    -105.98384724 Ry

     The total energy is F=E-TS. E is the sum of the following terms:
     one-electron contribution =     -26.31366872 Ry
     hartree contribution      =      20.83426467 Ry
     xc contribution           =     -17.46845160 Ry
     ewald contribution        =     -83.03599159 Ry

     convergence has been achieved in  10 iterations

     Writing all to output data dir out/mp-2605.save/
 
     init_run     :      0.22s CPU      0.27s WALL (       1 calls)
     electrons    :      8.69s CPU      9.13s WALL (       1 calls)

     Called by init_run:
     wfcinit      :      0.20s CPU      0.23s WALL (       1 calls)
     potinit      :      0.01s CPU      0.01s WALL (       1 calls)
     hinit0       :      0.01s CPU      0.02s WALL (       1 calls)

     Called by electrons:
     c_bands      :      7.78s CPU      8.17s WALL (      10 calls)
     sum_band     :      0.87s CPU      0.92s WALL (      10 calls)
     v_of_rho     :      0.03s CPU      0.03s WALL (      11 calls)
     mix_rho      :      0.00s CPU      0.00s WALL (      10 calls)

     Called by c_bands:
     init_us_2    :      0.10s CPU      0.11s WALL (    1512 calls)
     init_us_2:cp :      0.10s CPU      0.10s WALL (    1512 calls)
     cegterg      :      7.45s CPU      7.79s WALL (     720 calls)

     Called by *egterg:
     cdiaghg      :      1.13s CPU      1.17s WALL (    3862 calls)
     h_psi        :      5.81s CPU      6.11s WALL (    3934 calls)
     g_psi        :      0.04s CPU      0.05s WALL (    3142 calls)

     Called by h_psi:
     h_psi:calbec :      0.15s CPU      0.16s WALL (    3934 calls)
     vloc_psi     :      5.51s CPU      5.79s WALL (    3934 calls)
     add_vuspsi   :      0.10s CPU      0.11s WALL (    3934 calls)

     General routines
     calbec       :      0.15s CPU      0.16s WALL (    3934 calls)
     fft          :      0.01s CPU      0.03s WALL (     109 calls)
     ffts         :      0.00s CPU      0.00s WALL (      10 calls)
     fftw         :      5.64s CPU      5.93s WALL (   96916 calls)
 
     Parallel routines
 
     PWSCF        :      9.00s CPU     10.39s WALL

 
   This run was terminated on:  14:28:48   3Jan2024            

=------------------------------------------------------------------------------=
   JOB DONE.
=------------------------------------------------------------------------------=
