
     Program PWSCF v.7.1 starts on  3Jan2024 at 14:40:40 

     This program is part of the open-source Quantum ESPRESSO suite
     for quantum simulation of materials; please cite
         "P. Giannozzi et al., J. Phys.:Condens. Matter 21 395502 (2009);
         "P. Giannozzi et al., J. Phys.:Condens. Matter 29 465901 (2017);
         "P. Giannozzi et al., J. Chem. Phys. 152 154105 (2020);
          URL http://www.quantum-espresso.org", 
     in publications or presentations arising from this work. More details at
     http://www.quantum-espresso.org/quote

     Parallel version (MPI), running on     8 processors

     MPI processes distributed on     1 nodes
     118731 MiB available memory on the printing compute node when the environment starts
 
     Reading input from pw_mp-22903_nscf_k3000_E130.in
Warning: card &IONS ignored
Warning: card / ignored
Warning: card &CELL ignored
Warning: card / ignored

     Current dimensions of program PWSCF are:
     Max number of different atomic species (ntypx) = 10
     Max number of k-points (npk) =  40000
     Max angular momentum in pseudopotentials (lmaxx) =  4

     Atomic positions and unit cell read from directory:
     out/mp-22903.save/
     Atomic positions from file used, from input discarded
 
 
     R & G space division:  proc/nbgrp/npool/nimage =       8
     Subspace diagonalization in iterative solution of the eigenvalue problem:
     a serial algorithm will be used

 
     Parallelization info
     --------------------
     sticks:   dense  smooth     PW     G-vecs:    dense   smooth      PW
     Min         434     434    119                16957    16957    2472
     Max         438     438    120                16958    16958    2477
     Sum        3481    3481    955               135659   135659   19795
 
     Using Slab Decomposition
 


     bravais-lattice index     =            2
     lattice parameter (alat)  =      13.9506  a.u.
     unit-cell volume          =     678.7623 (a.u.)^3
     number of atoms/cell      =            2
     number of atomic types    =            2
     number of electrons       =        26.00
     number of Kohn-Sham states=           26
     kinetic-energy cutoff     =     130.0000  Ry
     charge density cutoff     =     520.0000  Ry
     Exchange-correlation= PBE
                           (   1   4   3   4   0   0   0)

     celldm(1)=  13.950590  celldm(2)=   0.000000  celldm(3)=   0.000000
     celldm(4)=   0.000000  celldm(5)=   0.000000  celldm(6)=   0.000000

     crystal axes: (cart. coord. in units of alat)
               a(1) = (  -0.500000   0.000000   0.500000 )  
               a(2) = (   0.000000   0.500000   0.500000 )  
               a(3) = (  -0.500000   0.500000   0.000000 )  

     reciprocal axes: (cart. coord. in units 2 pi/alat)
               b(1) = ( -1.000000 -1.000000  1.000000 )  
               b(2) = (  1.000000  1.000000  1.000000 )  
               b(3) = ( -1.000000  1.000000 -1.000000 )  


     PseudoPot. # 1 for I  read from file:
     /usr/scratch4/magr4985/MG/devEb/pseudo/SG15/I.upf
     MD5 check sum: 2bc24df9af9f874725967c58cc477d99
     Pseudo is Norm-conserving, Zval = 17.0
     Generated using ONCVPSP code by D. R. Hamann
     Using radial grid of  602 points,  6 beta functions with: 
                l(1) =   0
                l(2) =   0
                l(3) =   1
                l(4) =   1
                l(5) =   2
                l(6) =   2

     PseudoPot. # 2 for Rb read from file:
     /usr/scratch4/magr4985/MG/devEb/pseudo/SG15/Rb.upf
     MD5 check sum: 083fcde99d2d8624b357fda38a9b1c57
     Pseudo is Norm-conserving, Zval =  9.0
     Generated using ONCVPSP code by D. R. Hamann
     Using radial grid of  602 points,  6 beta functions with: 
                l(1) =   0
                l(2) =   0
                l(3) =   1
                l(4) =   1
                l(5) =   2
                l(6) =   2

     atomic species   valence    mass     pseudopotential
        I             17.00   126.90450     I ( 1.00)
        Rb             9.00    85.46780     Rb( 1.00)

     48 Sym. Ops., with inversion, found



   Cartesian axes

     site n.     atom                  positions (alat units)
         1           Rb  tau(   1) = (   0.0000000   0.0000000   0.0000000  )
         2           I   tau(   2) = (  -0.5000000   0.5000000   0.5000000  )

     number of k points=   413  Gaussian smearing, width (Ry)=  0.0005

     Number of k-points >= 100: set verbosity='high' to print them.

     Dense  grid:   135659 G-vectors     FFT dimensions: (  72,  72,  72)

     Estimated max dynamical RAM per process >      15.19 MB

     Estimated total dynamical RAM >     121.54 MB

     The potential is recalculated from file :
     out/mp-22903.save/charge-density

     Starting wfcs are random

     Band Structure Calculation
     Davidson diagonalization with overlap

     ethr =  5.00E-06,  avg # of iterations = 21.5

     total cpu time spent up to now is      208.3 secs

     End of band structure calculation

     Number of k-points >= 100: set verbosity='high' to print the bands.

     the Fermi energy is     3.1547 ev
     (compare with:     3.1402 eV, computed in scf)

     Writing all to output data dir out/mp-22903.save/
 
     init_run     :      0.41s CPU      0.44s WALL (       1 calls)
     electrons    :    204.65s CPU    207.61s WALL (       1 calls)

     Called by init_run:
     wfcinit      :      0.00s CPU      0.00s WALL (       1 calls)
     potinit      :      0.03s CPU      0.04s WALL (       1 calls)
     hinit0       :      0.03s CPU      0.04s WALL (       1 calls)

     Called by electrons:
     c_bands      :    204.65s CPU    207.61s WALL (       1 calls)
     v_of_rho     :      0.02s CPU      0.03s WALL (       1 calls)

     Called by c_bands:
     init_us_2    :      0.25s CPU      0.33s WALL (     413 calls)
     init_us_2:cp :      0.25s CPU      0.33s WALL (     413 calls)
     cegterg      :    189.11s CPU    191.26s WALL (     628 calls)

     Called by *egterg:
     cdiaghg      :      9.13s CPU      9.21s WALL (    9307 calls)
     h_psi        :    159.25s CPU    161.28s WALL (    9935 calls)
     g_psi        :      1.68s CPU      1.69s WALL (    8894 calls)

     Called by h_psi:
     h_psi:calbec :      5.00s CPU      5.08s WALL (    9935 calls)
     vloc_psi     :    148.46s CPU    150.36s WALL (    9935 calls)
     add_vuspsi   :      4.85s CPU      4.90s WALL (    9935 calls)

     General routines
     calbec       :      4.97s CPU      5.05s WALL (    9935 calls)
     fft          :      0.01s CPU      0.02s WALL (      10 calls)
     fftw         :    130.02s CPU    131.71s WALL (  309338 calls)
     davcio       :      0.22s CPU      1.03s WALL (     826 calls)
 
     Parallel routines
 
     PWSCF        :   3m27.74s CPU   3m33.64s WALL

 
   This run was terminated on:  14:44:14   3Jan2024            

=------------------------------------------------------------------------------=
   JOB DONE.
=------------------------------------------------------------------------------=
