
     Program PWSCF v.7.1 starts on  3Jan2024 at 14:31: 5 

     This program is part of the open-source Quantum ESPRESSO suite
     for quantum simulation of materials; please cite
         "P. Giannozzi et al., J. Phys.:Condens. Matter 21 395502 (2009);
         "P. Giannozzi et al., J. Phys.:Condens. Matter 29 465901 (2017);
         "P. Giannozzi et al., J. Chem. Phys. 152 154105 (2020);
          URL http://www.quantum-espresso.org", 
     in publications or presentations arising from this work. More details at
     http://www.quantum-espresso.org/quote

     Parallel version (MPI), running on     8 processors

     MPI processes distributed on     1 nodes
     247756 MiB available memory on the printing compute node when the environment starts
 
     Reading input from pw_mp-1550_nscf_k3000_E130.in
Warning: card &IONS ignored
Warning: card / ignored
Warning: card &CELL ignored
Warning: card / ignored

     Current dimensions of program PWSCF are:
     Max number of different atomic species (ntypx) = 10
     Max number of k-points (npk) =  40000
     Max angular momentum in pseudopotentials (lmaxx) =  4

     Atomic positions and unit cell read from directory:
     out/mp-1550.save/
     Atomic positions from file used, from input discarded
 
 
     R & G space division:  proc/nbgrp/npool/nimage =       8
     Subspace diagonalization in iterative solution of the eigenvalue problem:
     a serial algorithm will be used

 
     Parallelization info
     --------------------
     sticks:   dense  smooth     PW     G-vecs:    dense   smooth      PW
     Min         239     239     69                 6919     6919    1055
     Max         240     240     71                 6922     6922    1056
     Sum        1915    1915    559                55369    55369    8441
 
     Using Slab Decomposition
 


     bravais-lattice index     =            2
     lattice parameter (alat)  =      10.3424  a.u.
     unit-cell volume          =     276.5700 (a.u.)^3
     number of atoms/cell      =            2
     number of atomic types    =            2
     number of electrons       =        16.00
     number of Kohn-Sham states=           16
     kinetic-energy cutoff     =     130.0000  Ry
     charge density cutoff     =     520.0000  Ry
     Exchange-correlation= PBE
                           (   1   4   3   4   0   0   0)

     celldm(1)=  10.342409  celldm(2)=   0.000000  celldm(3)=   0.000000
     celldm(4)=   0.000000  celldm(5)=   0.000000  celldm(6)=   0.000000

     crystal axes: (cart. coord. in units of alat)
               a(1) = (  -0.500000   0.000000   0.500000 )  
               a(2) = (   0.000000   0.500000   0.500000 )  
               a(3) = (  -0.500000   0.500000   0.000000 )  

     reciprocal axes: (cart. coord. in units 2 pi/alat)
               b(1) = ( -1.000000 -1.000000  1.000000 )  
               b(2) = (  1.000000  1.000000  1.000000 )  
               b(3) = ( -1.000000  1.000000 -1.000000 )  


     PseudoPot. # 1 for Al read from file:
     /usr/scratch4/magr4985/MG/devEb/pseudo/SG15/Al.upf
     MD5 check sum: 61098d588df6d88baccfd5e59f8f1e90
     Pseudo is Norm-conserving, Zval = 11.0
     Generated using ONCVPSP code by D. R. Hamann
     Using radial grid of  602 points,  4 beta functions with: 
                l(1) =   0
                l(2) =   0
                l(3) =   1
                l(4) =   1

     PseudoPot. # 2 for P  read from file:
     /usr/scratch4/magr4985/MG/devEb/pseudo/SG15/P.upf
     MD5 check sum: db4c1ff9730a9c3aae4012f169f0bf25
     Pseudo is Norm-conserving, Zval =  5.0
     Generated using ONCVPSP code by D. R. Hamann
     Using radial grid of  602 points,  4 beta functions with: 
                l(1) =   0
                l(2) =   0
                l(3) =   1
                l(4) =   1

     atomic species   valence    mass     pseudopotential
        Al            11.00    26.98150     Al( 1.00)
        P              5.00    30.97380     P ( 1.00)

     24 Sym. Ops. (no inversion) found



   Cartesian axes

     site n.     atom                  positions (alat units)
         1           Al  tau(   1) = (   0.0000000   0.0000000   0.0000000  )
         2           P   tau(   2) = (  -0.7500000   0.7500000   0.7500000  )

     number of k points=    72  Gaussian smearing, width (Ry)=  0.0005
                       cart. coord. in units 2pi/alat
        k(    1) = (   0.0000000   0.0000000   0.0000000), wk =   0.0011574
        k(    2) = (  -0.0833333   0.0833333  -0.0833333), wk =   0.0092593
        k(    3) = (  -0.1666667   0.1666667  -0.1666667), wk =   0.0092593
        k(    4) = (  -0.2500000   0.2500000  -0.2500000), wk =   0.0092593
        k(    5) = (  -0.3333333   0.3333333  -0.3333333), wk =   0.0092593
        k(    6) = (  -0.4166667   0.4166667  -0.4166667), wk =   0.0092593
        k(    7) = (   0.5000000  -0.5000000   0.5000000), wk =   0.0046296
        k(    8) = (   0.0000000   0.1666667   0.0000000), wk =   0.0069444
        k(    9) = (  -0.0833333   0.2500000  -0.0833333), wk =   0.0277778
        k(   10) = (  -0.1666667   0.3333333  -0.1666667), wk =   0.0277778
        k(   11) = (  -0.2500000   0.4166667  -0.2500000), wk =   0.0277778
        k(   12) = (  -0.3333333   0.5000000  -0.3333333), wk =   0.0277778
        k(   13) = (   0.5833333  -0.4166667   0.5833333), wk =   0.0277778
        k(   14) = (   0.5000000  -0.3333333   0.5000000), wk =   0.0277778
        k(   15) = (   0.4166667  -0.2500000   0.4166667), wk =   0.0277778
        k(   16) = (   0.3333333  -0.1666667   0.3333333), wk =   0.0277778
        k(   17) = (   0.2500000  -0.0833333   0.2500000), wk =   0.0277778
        k(   18) = (   0.1666667  -0.0000000   0.1666667), wk =   0.0138889
        k(   19) = (   0.0000000   0.3333333   0.0000000), wk =   0.0069444
        k(   20) = (  -0.0833333   0.4166667  -0.0833333), wk =   0.0277778
        k(   21) = (  -0.1666667   0.5000000  -0.1666667), wk =   0.0277778
        k(   22) = (  -0.2500000   0.5833333  -0.2500000), wk =   0.0277778
        k(   23) = (   0.6666667  -0.3333333   0.6666667), wk =   0.0277778
        k(   24) = (   0.5833333  -0.2500000   0.5833333), wk =   0.0277778
        k(   25) = (   0.5000000  -0.1666667   0.5000000), wk =   0.0277778
        k(   26) = (   0.4166667  -0.0833333   0.4166667), wk =   0.0277778
        k(   27) = (   0.3333333   0.0000000   0.3333333), wk =   0.0138889
        k(   28) = (   0.0000000   0.5000000   0.0000000), wk =   0.0069444
        k(   29) = (  -0.0833333   0.5833333  -0.0833333), wk =   0.0277778
        k(   30) = (  -0.1666667   0.6666667  -0.1666667), wk =   0.0277778
        k(   31) = (   0.7500000  -0.2500000   0.7500000), wk =   0.0277778
        k(   32) = (   0.6666667  -0.1666667   0.6666667), wk =   0.0277778
        k(   33) = (   0.5833333  -0.0833333   0.5833333), wk =   0.0277778
        k(   34) = (   0.5000000   0.0000000   0.5000000), wk =   0.0138889
        k(   35) = (   0.0000000   0.6666667   0.0000000), wk =   0.0069444
        k(   36) = (  -0.0833333   0.7500000  -0.0833333), wk =   0.0277778
        k(   37) = (   0.8333333  -0.1666667   0.8333333), wk =   0.0277778
        k(   38) = (   0.7500000  -0.0833333   0.7500000), wk =   0.0277778
        k(   39) = (   0.6666667  -0.0000000   0.6666667), wk =   0.0138889
        k(   40) = (   0.0000000   0.8333333   0.0000000), wk =   0.0069444
        k(   41) = (   0.9166667  -0.0833333   0.9166667), wk =   0.0277778
        k(   42) = (   0.8333333   0.0000000   0.8333333), wk =   0.0138889
        k(   43) = (   0.0000000  -1.0000000   0.0000000), wk =   0.0034722
        k(   44) = (  -0.1666667   0.3333333  -0.0000000), wk =   0.0277778
        k(   45) = (  -0.2500000   0.4166667  -0.0833333), wk =   0.0555556
        k(   46) = (  -0.3333333   0.5000000  -0.1666667), wk =   0.0555556
        k(   47) = (   0.5833333  -0.4166667   0.7500000), wk =   0.0555556
        k(   48) = (   0.5000000  -0.3333333   0.6666667), wk =   0.0277778
        k(   49) = (  -0.1666667   0.5000000   0.0000000), wk =   0.0277778
        k(   50) = (  -0.2500000   0.5833333  -0.0833333), wk =   0.0555556
        k(   51) = (   0.6666667  -0.3333333   0.8333333), wk =   0.0555556
        k(   52) = (   0.5833333  -0.2500000   0.7500000), wk =   0.0555556
        k(   53) = (   0.5000000  -0.1666667   0.6666667), wk =   0.0555556
        k(   54) = (   0.4166667  -0.0833333   0.5833333), wk =   0.0555556
        k(   55) = (   0.3333333   0.0000000   0.5000000), wk =   0.0277778
        k(   56) = (  -0.1666667   0.6666667  -0.0000000), wk =   0.0277778
        k(   57) = (   0.7500000  -0.2500000   0.9166667), wk =   0.0555556
        k(   58) = (   0.6666667  -0.1666667   0.8333333), wk =   0.0555556
        k(   59) = (   0.5833333  -0.0833333   0.7500000), wk =   0.0555556
        k(   60) = (   0.5000000  -0.0000000   0.6666667), wk =   0.0277778
        k(   61) = (   0.8333333  -0.1666667   1.0000000), wk =   0.0277778
        k(   62) = (   0.7500000  -0.0833333   0.9166667), wk =   0.0555556
        k(   63) = (   0.6666667   0.0000000   0.8333333), wk =   0.0277778
        k(   64) = (  -0.1666667  -1.0000000  -0.0000000), wk =   0.0138889
        k(   65) = (   0.6666667  -0.3333333   1.0000000), wk =   0.0277778
        k(   66) = (   0.5833333  -0.2500000   0.9166667), wk =   0.0555556
        k(   67) = (   0.5000000  -0.1666667   0.8333333), wk =   0.0277778
        k(   68) = (   0.6666667  -0.1666667   1.0000000), wk =   0.0277778
        k(   69) = (   0.5833333  -0.0833333   0.9166667), wk =   0.0555556
        k(   70) = (   0.5000000   0.0000000   0.8333333), wk =   0.0277778
        k(   71) = (  -0.3333333  -1.0000000   0.0000000), wk =   0.0138889
        k(   72) = (  -0.5000000  -1.0000000   0.0000000), wk =   0.0069444

     Dense  grid:    55369 G-vectors     FFT dimensions: (  54,  54,  54)

     Estimated max dynamical RAM per process >      20.11 MB

     Estimated total dynamical RAM >     160.87 MB

     The potential is recalculated from file :
     out/mp-1550.save/charge-density

     Starting wfcs are random

     Band Structure Calculation
     Davidson diagonalization with overlap

     ethr =  5.00E-06,  avg # of iterations = 19.8

     total cpu time spent up to now is        9.5 secs

     End of band structure calculation

          k = 0.0000 0.0000 0.0000 (  6879 PWs)   bands (ev):

   -96.2830 -57.7719 -57.7719 -57.7719  -5.2918   6.1828   6.1828   6.1828
     9.4031  10.7283  10.7283  10.7283  15.0371  15.0371  16.4294  18.4353

          k =-0.0833 0.0833-0.0833 (  6912 PWs)   bands (ev):

   -96.2830 -57.7719 -57.7719 -57.7719  -5.2152   5.5496   6.1125   6.1125
     9.7559  10.8662  10.8662  10.8717  14.7639  14.7639  16.7886  18.1164

          k =-0.1667 0.1667-0.1667 (  6928 PWs)   bands (ev):

   -96.2830 -57.7720 -57.7719 -57.7719  -4.9912   4.3120   5.9403   5.9403
     9.7637  11.1617  11.1617  11.7974  14.3973  14.3973  17.0168  18.3112

          k =-0.2500 0.2500-0.2500 (  6916 PWs)   bands (ev):

   -96.2830 -57.7720 -57.7719 -57.7719  -4.6399   3.0157   5.7400   5.7400
     9.4739  11.3213  11.3213  13.0609  14.5222  14.5222  16.5354  19.8222

          k =-0.3333 0.3333-0.3333 (  6904 PWs)   bands (ev):

   -96.2830 -57.7721 -57.7719 -57.7719  -4.2096   1.8606   5.5686   5.5686
     9.2034  11.2268  11.2268  14.0708  15.3148  15.3148  16.4757  21.4124

          k =-0.4167 0.4167-0.4167 (  6925 PWs)   bands (ev):

   -96.2830 -57.7722 -57.7719 -57.7719  -3.8083   1.0093   5.4571   5.4571
     9.0272  11.0709  11.0709  14.4133  16.5619  16.5619  17.2415  20.1285

          k = 0.5000-0.5000 0.5000 (  6934 PWs)   bands (ev):

   -96.2830 -57.7722 -57.7719 -57.7719  -3.6306   0.6795   5.4187   5.4187
     8.9669  11.0050  11.0050  14.4383  17.6967  17.6968  17.9490  18.7897

          k = 0.0000 0.1667 0.0000 (  6923 PWs)   bands (ev):

   -96.2830 -57.7719 -57.7719 -57.7719  -5.1896   5.6018   5.9519   5.9519
    10.0101  10.4302  11.0991  11.0991  14.2370  15.1675  16.9360  18.6469

          k =-0.0833 0.2500-0.0833 (  6920 PWs)   bands (ev):

   -96.2830 -57.7719 -57.7719 -57.7719  -5.0144   4.6499   5.7208   5.8362
    10.1497  10.5452  11.4934  11.6837  13.7533  15.1054  17.5216  18.3582

          k =-0.1667 0.3333-0.1667 (  6931 PWs)   bands (ev):

   -96.2830 -57.7720 -57.7719 -57.7719  -4.7043   3.4185   5.5003   5.6385
     9.8900  10.9407  11.7652  12.2756  14.0704  15.1689  17.1889  19.4150

          k =-0.2500 0.4167-0.2500 (  6928 PWs)   bands (ev):

   -96.2830 -57.7721 -57.7719 -57.7719  -4.2960   2.2411   5.3420   5.3893
     9.6338  11.0080  11.7148  12.9557  15.0636  15.8236  16.8828  20.9361

          k =-0.3333 0.5000-0.3333 (  6921 PWs)   bands (ev):

   -96.2830 -57.7722 -57.7719 -57.7719  -3.8726   1.2918   5.1615   5.2704
     9.4518  10.8807  11.4941  13.9242  15.7270  16.9671  17.4526  19.9231

          k = 0.5833-0.4167 0.5833 (  6932 PWs)   bands (ev):

   -96.2830 -57.7722 -57.7719 -57.7719  -3.6007   0.7752   4.9979   5.2915
     9.3737  10.8294  11.3025  14.5656  16.4147  17.6807  18.3511  18.9144

          k = 0.5000-0.3333 0.5000 (  6926 PWs)   bands (ev):

   -96.2830 -57.7722 -57.7719 -57.7719  -3.6616   0.8863   4.9225   5.3988
     9.4075  10.9253  11.2256  14.5766  16.2676  16.8873  18.4226  18.8077

          k = 0.4167-0.2500 0.4167 (  6918 PWs)   bands (ev):

   -96.2830 -57.7721 -57.7719 -57.7719  -4.0083   1.5746   4.9493   5.5756
     9.5500  11.1462  11.2632  14.0118  14.9237  16.4512  17.4935  19.9313

          k = 0.3333-0.1667 0.3333 (  6903 PWs)   bands (ev):

   -96.2830 -57.7721 -57.7719 -57.7719  -4.4404   2.6167   5.0845   5.7923
     9.7869  11.3112  11.3527  13.0649  13.9998  15.8272  17.0066  20.2389

          k = 0.2500-0.0833 0.2500 (  6925 PWs)   bands (ev):

   -96.2830 -57.7720 -57.7719 -57.7719  -4.8219   3.8136   5.3302   6.0004
    10.0715  11.1591  11.1724  12.2729  13.7510  15.0223  17.4328  18.8031

          k = 0.1667-0.0000 0.1667 (  6919 PWs)   bands (ev):

   -96.2830 -57.7719 -57.7719 -57.7719  -5.0893   4.9209   5.7031   6.1290
    10.1153  10.7403  10.9231  11.5796  14.1315  14.8404  17.3162  18.2517

          k = 0.0000 0.3333 0.0000 (  6951 PWs)   bands (ev):

   -96.2830 -57.7720 -57.7719 -57.7719  -4.8897   4.4811   5.4399   5.4399
     9.7662  10.8149  12.0244  12.0244  13.3050  15.5575  18.2209  19.2669

          k =-0.0833 0.4167-0.0833 (  6931 PWs)   bands (ev):

   -96.2830 -57.7720 -57.7719 -57.7719  -4.6274   3.6217   5.1864   5.1891
     9.6081  10.8191  12.1662  12.4857  13.9739  15.7791  18.5246  19.5131

          k =-0.1667 0.5000-0.1667 (  6919 PWs)   bands (ev):

   -96.2830 -57.7721 -57.7719 -57.7719  -4.2558   2.5855   4.8520   5.0130
     9.5780  11.1205  11.9536  12.5859  15.3323  16.3521  18.0601  20.7525

          k =-0.2500 0.5833-0.2500 (  6922 PWs)   bands (ev):

   -96.2830 -57.7721 -57.7720 -57.7719  -3.8394   1.6502   4.4889   4.9442
     9.4965  11.3494  12.3807  12.4089  16.3508  17.4149  18.1322  19.8121

          k = 0.6667-0.3333 0.6667 (  6919 PWs)   bands (ev):

   -96.2830 -57.7722 -57.7720 -57.7719  -3.5117   1.0291   4.1899   4.9865
     9.4980  11.2506  12.1150  13.5692  16.4068  17.6835  18.8794  19.2046

          k = 0.5833-0.2500 0.5833 (  6931 PWs)   bands (ev):

   -96.2830 -57.7722 -57.7720 -57.7719  -3.4592   0.9405   4.0045   5.1324
     9.6399  11.2145  11.9209  14.4633  16.1179  16.2765  18.3236  20.4562

          k = 0.5000-0.1667 0.5000 (  6918 PWs)   bands (ev):

   -96.2830 -57.7722 -57.7720 -57.7719  -3.7206   1.4213   3.9668   5.3604
     9.9100  11.2944  11.8264  13.8728  14.7028  17.0405  18.5652  19.4735

          k = 0.4167-0.0833 0.4167 (  6924 PWs)   bands (ev):

   -96.2830 -57.7721 -57.7720 -57.7719  -4.1273   2.2548   4.1221   5.6301
    10.2491  11.4332  11.7448  12.8033  13.7062  17.3529  18.2860  19.4617

          k = 0.3333 0.0000 0.3333 (  6933 PWs)   bands (ev):

   -96.2830 -57.7720 -57.7719 -57.7719  -4.5216   3.1386   4.5668   5.8741
    10.4888  11.2098  11.4759  12.3260  13.4141  16.1253  18.5685  18.6509

          k = 0.0000 0.5000 0.0000 (  6899 PWs)   bands (ev):

   -96.2830 -57.7720 -57.7719 -57.7719  -4.4155   3.2910   4.8990   4.8990
     9.0451  10.2667  13.2390  13.2390  14.1234  16.2031  19.8548  20.1813

          k =-0.0833 0.5833-0.0833 (  6931 PWs)   bands (ev):

   -96.2830 -57.7721 -57.7720 -57.7720  -4.0915   2.5926   4.5485   4.6964
     8.9290  10.0318  13.3088  13.6526  15.4456  16.7509  19.5900  20.6677

          k =-0.1667 0.6667-0.1667 (  6933 PWs)   bands (ev):

   -96.2830 -57.7721 -57.7720 -57.7720  -3.7075   1.8579   4.0298   4.6068
     8.9469  10.5092  13.1163  13.5772  16.8498  17.7802  19.1264  19.7680

          k = 0.7500-0.2500 0.7500 (  6928 PWs)   bands (ev):

   -96.2830 -57.7722 -57.7720 -57.7720  -3.3692   1.2975   3.5348   4.6391
     8.9840  11.4863  13.0462  13.2950  16.9662  17.7670  19.4860  19.6409

          k = 0.6667-0.1667 0.6667 (  6910 PWs)   bands (ev):

   -96.2830 -57.7722 -57.7720 -57.7720  -3.2383   1.1134   3.1937   4.7889
     9.1624  12.2047  13.0117  13.5121  15.9325  16.1320  19.7092  21.0886

          k = 0.5833-0.0833 0.5833 (  6936 PWs)   bands (ev):

   -96.2830 -57.7721 -57.7720 -57.7719  -3.4006   1.3747   3.0932   5.0366
     9.5012  12.3676  12.7605  13.6599  14.7110  15.8144  19.7451  21.2445

          k = 0.5000 0.0000 0.5000 (  6919 PWs)   bands (ev):

   -96.2830 -57.7721 -57.7720 -57.7719  -3.7487   1.8500   3.3716   5.3417
     9.9492  12.2697  12.3697  12.7447  13.8372  17.2283  19.4139  19.8624

          k = 0.0000 0.6667 0.0000 (  6951 PWs)   bands (ev):

   -96.2830 -57.7721 -57.7720 -57.7720  -3.8225   2.1714   4.4607   4.4607
     8.4080   9.3831  14.6034  14.6034  15.7408  17.0922  20.5908  20.5909

          k =-0.0833 0.7500-0.0833 (  6939 PWs)   bands (ev):

   -96.2830 -57.7722 -57.7720 -57.7720  -3.4943   1.6555   4.0754   4.3391
     8.3619   9.3455  14.7440  14.9253  17.0253  17.9429  19.6887  19.7477

          k = 0.8333-0.1667 0.8333 (  6937 PWs)   bands (ev):

   -96.2830 -57.7722 -57.7720 -57.7720  -3.1952   1.2816   3.4414   4.3447
     8.4728  10.0875  14.5651  14.7163  17.3183  17.9409  19.5727  19.5831

          k = 0.7500-0.0833 0.7500 (  6917 PWs)   bands (ev):

   -96.2830 -57.7722 -57.7721 -57.7720  -3.0511   1.1791   2.8824   4.4762
     8.6699  11.3186  14.3377  14.3920  15.9753  16.3412  20.8644  21.3006

          k = 0.6667-0.0000 0.6667 (  6895 PWs)   bands (ev):

   -96.2830 -57.7721 -57.7721 -57.7720  -3.1386   1.2997   2.6800   4.7187
     9.0206  12.5706  13.7402  13.9554  15.0613  15.1513  21.4004  21.8358

          k = 0.0000 0.8333 0.0000 (  6954 PWs)   bands (ev):

   -96.2830 -57.7722 -57.7720 -57.7720  -3.2451   1.2713   4.1820   4.1820
     7.9481   8.8374  16.0510  16.0510  17.3228  18.1758  19.4236  19.4236

          k = 0.9167-0.0833 0.9167 (  6930 PWs)   bands (ev):

   -96.2830 -57.7722 -57.7720 -57.7720  -3.0398   1.0237   3.8294   4.1530
     8.0344   9.0149  16.2271  16.2362  17.5629  18.1528  19.1732  19.3516

          k = 0.8333 0.0000 0.8333 (  6920 PWs)   bands (ev):

   -96.2830 -57.7722 -57.7720 -57.7720  -2.9669   1.0364   3.2324   4.2546
     8.3034   9.9495  15.5983  15.9168  16.2335  16.9159  20.2974  20.8426

          k = 0.0000-1.0000 0.0000 (  6918 PWs)   bands (ev):

   -96.2830 -57.7722 -57.7720 -57.7720  -2.9749   0.8918   4.0870   4.0870
     7.7778   8.6636  17.1895  17.1895  18.1399  18.2485  18.2485  18.9867

          k =-0.1667 0.3333-0.0000 (  6928 PWs)   bands (ev):

   -96.2830 -57.7720 -57.7719 -57.7719  -4.7955   3.9526   5.1598   5.7679
    10.2023  10.6970  11.8285  12.0089  13.6679  15.3608  18.2580  18.5743

          k =-0.2500 0.4167-0.0833 (  6919 PWs)   bands (ev):

   -96.2830 -57.7721 -57.7719 -57.7719  -4.4535   2.9534   4.7310   5.5917
    10.1592  10.9799  11.9398  12.1768  14.1647  16.1428  17.9578  19.6399

          k =-0.3333 0.5000-0.1667 (  6932 PWs)   bands (ev):

   -96.2830 -57.7721 -57.7720 -57.7719  -4.0370   1.9367   4.4881   5.3576
    10.0033  10.9237  12.0812  12.6768  15.0451  17.0776  17.9342  19.7880

          k = 0.5833-0.4167 0.7500 (  6922 PWs)   bands (ev):

   -96.2830 -57.7722 -57.7720 -57.7719  -3.6522   1.1556   4.3695   5.1688
     9.8901  10.7074  11.9720  13.7759  15.8856  17.2536  18.4379  19.1751

          k = 0.5000-0.3333 0.6667 (  6916 PWs)   bands (ev):

   -96.2830 -57.7722 -57.7720 -57.7719  -3.4835   0.8500   4.3358   5.0966
     9.8529  10.6175  11.9166  14.5182  16.0224  17.1134  18.6527  19.0165

          k =-0.1667 0.5000 0.0000 (  6918 PWs)   bands (ev):

   -96.2830 -57.7721 -57.7719 -57.7719  -4.3332   2.9765   4.5955   5.1100
     9.5240  10.6223  12.2079  13.1168  14.6523  16.4352  19.2931  19.4117

          k =-0.2500 0.5833-0.0833 (  6924 PWs)   bands (ev):

   -96.2830 -57.7721 -57.7720 -57.7719  -3.9516   2.1874   4.1427   4.8933
     9.6168  10.9006  11.9665  13.4029  15.5025  17.6397  18.7859  19.8370

          k = 0.6667-0.3333 0.8333 (  6932 PWs)   bands (ev):

   -96.2830 -57.7722 -57.7720 -57.7720  -3.5655   1.4675   3.8139   4.7246
     9.6264  11.3348  12.1810  13.3395  16.3117  17.8849  18.7761  19.6582

          k = 0.5833-0.2500 0.7500 (  6915 PWs)   bands (ev):

   -96.2830 -57.7722 -57.7720 -57.7720  -3.3274   1.0669   3.5838   4.7102
     9.7212  11.1958  12.9672  13.5566  15.6012  17.6208  18.9628  19.6250

          k = 0.5000-0.1667 0.6667 (  6925 PWs)   bands (ev):

   -96.2830 -57.7722 -57.7720 -57.7720  -3.3868   1.1717   3.4813   4.8519
     9.9504  11.0765  12.9692  13.6740  15.3095  16.6979  19.0165  20.5880

          k = 0.4167-0.0833 0.5833 (  6926 PWs)   bands (ev):

   -96.2830 -57.7721 -57.7720 -57.7719  -3.7008   1.7096   3.5727   5.1044
    10.2744  11.0693  12.3663  13.1170  14.8650  17.3230  19.1528  19.7493

          k = 0.3333 0.0000 0.5000 (  6922 PWs)   bands (ev):

   -96.2830 -57.7721 -57.7720 -57.7719  -4.0980   2.3876   3.9719   5.3912
    10.5043  11.0114  11.7262  12.7871  14.1900  17.6000  18.7967  19.2916

          k =-0.1667 0.6667-0.0000 (  6918 PWs)   bands (ev):

   -96.2830 -57.7721 -57.7720 -57.7720  -3.7608   2.0523   4.1484   4.4832
     8.9037   9.8388  13.3221  14.5523  16.0475  17.7937  19.4113  20.4020

          k = 0.7500-0.2500 0.9167 (  6926 PWs)   bands (ev):

   -96.2830 -57.7722 -57.7720 -57.7720  -3.4091   1.5476   3.6357   4.3060
     9.0659  10.3548  13.0384  14.8070  16.6490  18.2466  19.1586  20.0709

          k = 0.6667-0.1667 0.8333 (  6917 PWs)   bands (ev):

   -96.2830 -57.7722 -57.7720 -57.7720  -3.1573   1.2399   3.1403   4.3140
     9.2083  11.4129  12.8317  14.6075  15.7335  17.9397  19.2807  20.9072

          k = 0.5833-0.0833 0.7500 (  6913 PWs)   bands (ev):

   -96.2830 -57.7721 -57.7721 -57.7720  -3.1382   1.2511   2.8562   4.4834
     9.4701  12.0912  13.1520  13.9192  14.9493  16.5606  20.4889  21.1171

          k = 0.5000-0.0000 0.6667 (  6931 PWs)   bands (ev):

   -96.2830 -57.7721 -57.7721 -57.7720  -3.3605   1.4847   2.9629   4.7703
     9.8629  11.9183  12.5619  13.9531  14.8494  16.0681  20.6379  20.9618

          k = 0.8333-0.1667 1.0000 (  6938 PWs)   bands (ev):

   -96.2830 -57.7722 -57.7720 -57.7720  -3.2136   1.2921   3.8806   4.0461
     8.4566   9.3494  14.6159  16.0564  17.0189  18.5501  19.1739  19.5815

          k = 0.7500-0.0833 0.9167 (  6924 PWs)   bands (ev):

   -96.2830 -57.7722 -57.7720 -57.7720  -3.0154   1.1302   3.3158   4.0123
     8.7551  10.0809  14.2953  15.6458  16.4611  18.0909  19.3583  20.6477

          k = 0.6667 0.0000 0.8333 (  6909 PWs)   bands (ev):

   -96.2830 -57.7722 -57.7721 -57.7720  -2.9893   1.1949   2.8290   4.1837
     9.0571  11.3406  13.8555  14.2779  16.0160  16.8819  20.4905  21.6382

          k =-0.1667-1.0000-0.0000 (  6934 PWs)   bands (ev):

   -96.2830 -57.7722 -57.7720 -57.7720  -2.9630   0.9684   3.8087   3.8752
     8.2937   9.1934  15.8271  16.1805  17.3509  18.1048  19.2105  19.7357

          k = 0.6667-0.3333 1.0000 (  6935 PWs)   bands (ev):

   -96.2830 -57.7721 -57.7720 -57.7720  -3.5913   1.7693   3.5242   4.5999
    10.0417  11.0142  11.6661  14.3779  15.5024  17.6516  19.4959  20.2935

          k = 0.5833-0.2500 0.9167 (  6918 PWs)   bands (ev):

   -96.2830 -57.7721 -57.7720 -57.7720  -3.2721   1.3796   3.1757   4.3215
    10.2117  11.2415  12.0534  14.5359  15.3730  17.2333  19.8798  20.8966

          k = 0.5000-0.1667 0.8333 (  6904 PWs)   bands (ev):

   -96.2830 -57.7721 -57.7721 -57.7720  -3.1377   1.2080   3.0736   4.2119
    10.2410  11.1399  13.0467  13.8308  15.0340  18.0942  19.0438  20.6902

          k = 0.6667-0.1667 1.0000 (  6912 PWs)   bands (ev):

   -96.2830 -57.7722 -57.7720 -57.7720  -3.1347   1.3272   3.2988   3.8786
     9.6490  10.6217  12.6977  15.3341  16.0599  17.8882  19.8150  20.6895

          k = 0.5833-0.0833 0.9167 (  6911 PWs)   bands (ev):

   -96.2830 -57.7721 -57.7721 -57.7720  -2.9905   1.2571   2.9702   3.7485
    10.0182  11.5203  12.5255  13.7678  16.4188  18.2274  19.2629  21.2092

          k = 0.5000 0.0000 0.8333 (  6903 PWs)   bands (ev):

   -96.2830 -57.7721 -57.7721 -57.7720  -3.0476   1.3139   2.8585   3.9421
    10.2706  11.7930  12.2879  13.5801  16.0416  17.3392  20.1915  21.4295

          k =-0.3333-1.0000 0.0000 (  6924 PWs)   bands (ev):

   -96.2830 -57.7722 -57.7721 -57.7720  -2.9389   1.1543   3.2937   3.5320
     9.5081  10.4940  13.8102  14.1621  17.3916  18.0900  19.4299  20.1704

          k =-0.5000-1.0000 0.0000 (  6892 PWs)   bands (ev):

   -96.2830 -57.7721 -57.7721 -57.7720  -2.9267   1.2743   3.0341   3.3860
    10.5169  12.0916  12.3371  12.5346  17.4225  18.0902  19.4690  20.3285

     the Fermi energy is     7.1178 ev
     (compare with:     7.1194 eV, computed in scf)

     Writing all to output data dir out/mp-1550.save/
 
     init_run     :      0.10s CPU      0.11s WALL (       1 calls)
     electrons    :      8.93s CPU      9.18s WALL (       1 calls)

     Called by init_run:
     wfcinit      :      0.00s CPU      0.00s WALL (       1 calls)
     potinit      :      0.03s CPU      0.03s WALL (       1 calls)
     hinit0       :      0.01s CPU      0.02s WALL (       1 calls)

     Called by electrons:
     c_bands      :      8.93s CPU      9.17s WALL (       1 calls)
     v_of_rho     :      0.01s CPU      0.01s WALL (       1 calls)

     Called by c_bands:
     init_us_2    :      0.01s CPU      0.01s WALL (      72 calls)
     init_us_2:cp :      0.01s CPU      0.01s WALL (      72 calls)
     cegterg      :      8.28s CPU      8.48s WALL (      98 calls)

     Called by *egterg:
     cdiaghg      :      0.54s CPU      0.56s WALL (    1494 calls)
     h_psi        :      7.28s CPU      7.47s WALL (    1592 calls)
     g_psi        :      0.07s CPU      0.08s WALL (    1422 calls)

     Called by h_psi:
     h_psi:calbec :      0.14s CPU      0.14s WALL (    1592 calls)
     vloc_psi     :      7.01s CPU      7.18s WALL (    1592 calls)
     add_vuspsi   :      0.10s CPU      0.10s WALL (    1592 calls)

     General routines
     calbec       :      0.13s CPU      0.14s WALL (    1592 calls)
     fft          :      0.00s CPU      0.01s WALL (      10 calls)
     fftw         :      6.23s CPU      6.39s WALL (   32612 calls)
 
     Parallel routines
 
     PWSCF        :      9.32s CPU      9.76s WALL

 
   This run was terminated on:  14:31:15   3Jan2024            

=------------------------------------------------------------------------------=
   JOB DONE.
=------------------------------------------------------------------------------=
