 
             +---------------------------------------------------+
             |                                                   |
             |                   WANNIER90                       |
             |                                                   |
             +---------------------------------------------------+
             |                                                   |
             |        Welcome to the Maximally-Localized         |
             |        Generalized Wannier Functions code         |
             |            http://www.wannier.org                 |
             |                                                   |
             |                                                   |
             |  Wannier90 Developer Group:                       |
             |    Giovanni Pizzi    (EPFL)                       |
             |    Valerio Vitale    (Cambridge)                  |
             |    David Vanderbilt  (Rutgers University)         |
             |    Nicola Marzari    (EPFL)                       |
             |    Ivo Souza         (Universidad del Pais Vasco) |
             |    Arash A. Mostofi  (Imperial College London)    |
             |    Jonathan R. Yates (University of Oxford)       |
             |                                                   |
             |  For the full list of Wannier90 3.x authors,      |
             |  please check the code documentation and the      |
             |  README on the GitHub page of the code            |
             |                                                   |
             |                                                   |
             |  Please cite                                      |
             |                                                   |
             |  [ref] "Wannier90 as a community code:            |
             |        new features and applications",            |
             |        G. Pizzi et al., J. Phys. Cond. Matt. 32,  |
             |        165902 (2020).                             |
             |        http://doi.org/10.1088/1361-648X/ab51ff    |
             |                                                   |
             |  in any publications arising from the use of      |
             |  this code. For the method please cite            |
             |                                                   |
             |  [ref] "Maximally Localized Generalised Wannier   |
             |         Functions for Composite Energy Bands"     |
             |         N. Marzari and D. Vanderbilt              |
             |         Phys. Rev. B 56 12847 (1997)              |
             |                                                   |
             |  [ref] "Maximally Localized Wannier Functions     |
             |         for Entangled Energy Bands"               |
             |         I. Souza, N. Marzari and D. Vanderbilt    |
             |         Phys. Rev. B 65 035109 (2001)             |
             |                                                   |
             |                                                   |
             | Copyright (c) 1996-2020                           |
             |        The Wannier90 Developer Group and          |
             |        individual contributors                    |
             |                                                   |
             |      Release: 3.1.0        5th March    2020      |
             |                                                   |
             | This program is free software; you can            |
             | redistribute it and/or modify it under the terms  |
             | of the GNU General Public License as published by |
             | the Free Software Foundation; either version 2 of |
             | the License, or (at your option) any later version|
             |                                                   |
             | This program is distributed in the hope that it   |
             | will be useful, but WITHOUT ANY WARRANTY; without |
             | even the implied warranty of MERCHANTABILITY or   |
             | FITNESS FOR A PARTICULAR PURPOSE. See the GNU     |
             | General Public License for more details.          |
             |                                                   |
             | You should have received a copy of the GNU General|
             | Public License along with this program; if not,   |
             | write to the Free Software Foundation, Inc.,      |
             | 675 Mass Ave, Cambridge, MA 02139, USA.           |
             |                                                   |
             +---------------------------------------------------+
             |    Execution started on  3Jan2024 at 14:38:11     |
             +---------------------------------------------------+
 
 ******************************************************************************
 * -> Using CODATA 2006 constant values                                       *
 *    (http://physics.nist.gov/cuu/Constants/index.html)                      *
 * -> Using Bohr value from CODATA                                            *
 ******************************************************************************
 

 Running in parallel on   8 CPUs

 
                                    ------
                                    SYSTEM
                                    ------
 
                              Lattice Vectors (Ang)
                    a_1    -2.790391   0.000000   2.790391
                    a_2     0.000000   2.790391   2.790391
                    a_3    -2.790391   2.790391   0.000000
 
                   Unit Cell Volume:      43.45354  (Ang^3)
 
                        Reciprocal-Space Vectors (Ang^-1)
                    b_1    -1.125861  -1.125861   1.125861
                    b_2     1.125861   1.125861   1.125861
                    b_3    -1.125861   1.125861  -1.125861
  
 *----------------------------------------------------------------------------*
 |   Site       Fractional Coordinate          Cartesian Coordinate (Ang)     |
 +----------------------------------------------------------------------------+
 | Ba   1   0.00000   0.00000   0.00000   |    0.00000   0.00000   0.00000    |
 | O    1   0.50000   0.50000   0.50000   |   -2.79039   2.79039   2.79039    |
 *----------------------------------------------------------------------------*
                                ------------
                                K-POINT GRID
                                ------------
  
             Grid size = 12 x 12 x 12      Total points = 1728
  
  
 *---------------------------------- MAIN ------------------------------------*
 |  Number of Wannier Functions               :                 3             |
 |  Number of Objective Wannier Functions     :                 3             |
 |  Number of input Bloch states              :                 3             |
 |  Output verbosity (1=low, 5=high)          :                 1             |
 |  Timing Level (1=low, 5=high)              :                 1             |
 |  Optimisation (0=memory, 3=speed)          :                 3             |
 |  Length Unit                               :               Ang             |
 |  Post-processing setup (write *.nnkp)      :                 F             |
 |  Using Gamma-only branch of algorithms     :                 F             |
 *----------------------------------------------------------------------------*
 *------------------------------- WANNIERISE ---------------------------------*
 |  Total number of iterations                :               500             |
 |  Number of CG steps before reset           :                 5             |
 |  Trial step length for line search         :             2.000             |
 |  Convergence tolerence                     :         0.100E-09             |
 |  Convergence window                        :                -1             |
 |  Iterations between writing output         :                 1             |
 |  Iterations between backing up to disk     :               100             |
 |  Write r^2_nm to file                      :                 F             |
 |  Write xyz WF centres to file              :                 F             |
 |  Write on-site energies <0n|H|0n> to file  :                 F             |
 |  Use guiding centre to control phases      :                 F             |
 |  Use phases for initial projections        :                 F             |
 *----------------------------------------------------------------------------*
 Time to read parameters        0.100 (sec)

 *---------------------------------- K-MESH ----------------------------------*
 +----------------------------------------------------------------------------+
 |                    Distance to Nearest-Neighbour Shells                    |
 |                    ------------------------------------                    |
 |          Shell             Distance (Ang^-1)          Multiplicity         |
 |          -----             -----------------          ------------         |
 |             1                   0.162504                      8            |
 |             2                   0.187644                      6            |
 |             3                   0.265368                     12            |
 |             4                   0.311172                     24            |
 |             5                   0.325008                      8            |
 |             6                   0.375287                      6            |
 |             7                   0.408960                     24            |
 |             8                   0.419584                     24            |
 |             9                   0.459631                     24            |
 |            10                   0.487512                     32            |
 |            11                   0.530736                     12            |
 |            12                   0.555057                     48            |
 |            13                   0.562931                     30            |
 |            14                   0.593381                     24            |
 |            15                   0.615230                     24            |
 |            16                   0.622343                     24            |
 |            17                   0.650016                      8            |
 |            18                   0.670021                     48            |
 |            19                   0.676558                     24            |
 |            20                   0.702098                     48            |
 |            21                   0.720659                     72            |
 |            22                   0.750574                      6            |
 |            23                   0.767964                     24            |
 |            24                   0.773674                     48            |
 |            25                   0.796104                     36            |
 |            26                   0.812520                     56            |
 |            27                   0.817919                     24            |
 |            28                   0.839167                     24            |
 |            29                   0.854757                     72            |
 |            30                   0.859891                     48            |
 |            31                   0.880126                     24            |
 |            32                   0.895003                     48            |
 |            33                   0.919262                     24            |
 |            34                   0.933515                     72            |
 |            35                   0.938218                     30            |
 |            36                   0.956798                     72            |
 +----------------------------------------------------------------------------+
 | The b-vectors are chosen automatically                                     |
 | The following shells are used:   1                                         |
 +----------------------------------------------------------------------------+
 |                        Shell   # Nearest-Neighbours                        |
 |                        -----   --------------------                        |
 |                          1               8                                 |
 +----------------------------------------------------------------------------+
 | Completeness relation is fully satisfied [Eq. (B1), PRB 56, 12847 (1997)]  |
 +----------------------------------------------------------------------------+
 |                  b_k Vectors (Ang^-1) and Weights (Ang^2)                  |
 |                  ----------------------------------------                  |
 |            No.         b_k(x)      b_k(y)      b_k(z)        w_b           |
 |            ---        --------------------------------     --------        |
 |             1        -0.093822    0.093822   -0.093822    14.200477        |
 |             2         0.093822    0.093822    0.093822    14.200477        |
 |             3        -0.093822   -0.093822    0.093822    14.200477        |
 |             4        -0.093822    0.093822    0.093822    14.200477        |
 |             5         0.093822   -0.093822    0.093822    14.200477        |
 |             6        -0.093822   -0.093822   -0.093822    14.200477        |
 |             7         0.093822    0.093822   -0.093822    14.200477        |
 |             8         0.093822   -0.093822   -0.093822    14.200477        |
 +----------------------------------------------------------------------------+
 |                           b_k Directions (Ang^-1)                          |
 |                           -----------------------                          |
 |            No.           x           y           z                         |
 |            ---        --------------------------------                     |
 |             1        -0.093822    0.093822   -0.093822                     |
 |             2         0.093822    0.093822    0.093822                     |
 |             3        -0.093822   -0.093822    0.093822                     |
 |             4        -0.093822    0.093822    0.093822                     |
 +----------------------------------------------------------------------------+
  
 Time to get kmesh              1.037 (sec)
 *============================================================================*
 |                              MEMORY ESTIMATE                               |
 |         Maximum RAM allocated during each phase of the calculation         |
 *============================================================================*
 |                            Wannierise:            7.00 Mb                  |
 |                          plot_wannier:            7.00 Mb                  |
 *----------------------------------------------------------------------------*
  
 Starting a new Wannier90 calculation ...


 Reading overlaps from mp-1342.mmn    :  Created on  3Jan2024 at 14:38: 6

 Reading projections from mp-1342.amn :  Created on  3Jan2024 at 14:38: 5  with SCDM

 Time to read overlaps          0.150 (sec)

 Writing checkpoint file mp-1342.chk... done

 
 *------------------------------- WANNIERISE ---------------------------------*
 +--------------------------------------------------------------------+<-- CONV
 | Iter  Delta Spread     RMS Gradient      Spread (Ang^2)      Time  |<-- CONV
 +--------------------------------------------------------------------+<-- CONV
 
 ------------------------------------------------------------------------------
 Initial State
  WF centre and spread    1  ( -0.000155, -0.000451, -2.790787 )     1.74350130
  WF centre and spread    2  (  0.000451,  2.790787, -0.000156 )     1.74350139
  WF centre and spread    3  ( -2.790787,  0.000156,  0.000451 )     1.74350124
  Sum of centres and spreads ( -2.790491,  2.790492, -2.790492 )     5.23050393
 
      0     0.523E+01     0.0000000000        5.2305057971       0.00  <-- CONV
        O_D=      0.0365055 O_OD=      0.0495587 O_TOT=      5.2305058 <-- SPRD
 ------------------------------------------------------------------------------
 Cycle:      1
  WF centre and spread    1  ( -0.000010, -0.000034, -2.790414 )     1.71986012
  WF centre and spread    2  (  0.000034,  2.790414, -0.000010 )     1.71985915
  WF centre and spread    3  ( -2.790414,  0.000011,  0.000034 )     1.71986025
  Sum of centres and spreads ( -2.790390,  2.790391, -2.790390 )     5.15957953
 
      1    -0.709E-01     0.0728641687        5.1595813949       0.01  <-- CONV
        O_D=      0.0016089 O_OD=      0.0135309 O_TOT=      5.1595814 <-- SPRD
 Delta: O_D= -0.3489652E-01 O_OD= -0.3602789E-01 O_TOT= -0.7092440E-01 <-- DLTA
 ------------------------------------------------------------------------------
 Cycle:      2
  WF centre and spread    1  ( -0.000005, -0.000017, -2.790402 )     1.71895168
  WF centre and spread    2  (  0.000018,  2.790402, -0.000005 )     1.71895237
  WF centre and spread    3  ( -2.790402,  0.000005,  0.000017 )     1.71895300
  Sum of centres and spreads ( -2.790389,  2.790390, -2.790390 )     5.15685705
 
      2    -0.272E-02     0.0308811876        5.1568589172       0.02  <-- CONV
        O_D=      0.0003540 O_OD=      0.0120633 O_TOT=      5.1568589 <-- SPRD
 Delta: O_D= -0.1254963E-02 O_OD= -0.1467515E-02 O_TOT= -0.2722478E-02 <-- DLTA
 ------------------------------------------------------------------------------
 Cycle:      3
  WF centre and spread    1  ( -0.000004, -0.000013, -2.790399 )     1.71874830
  WF centre and spread    2  (  0.000013,  2.790399, -0.000004 )     1.71874849
  WF centre and spread    3  ( -2.790399,  0.000004,  0.000013 )     1.71874866
  Sum of centres and spreads ( -2.790390,  2.790391, -2.790390 )     5.15624545
 
      3    -0.612E-03     0.0170184435        5.1562473226       0.03  <-- CONV
        O_D=      0.0000888 O_OD=      0.0117169 O_TOT=      5.1562473 <-- SPRD
 Delta: O_D= -0.2651629E-03 O_OD= -0.3464317E-03 O_TOT= -0.6115946E-03 <-- DLTA
 ------------------------------------------------------------------------------
 Cycle:      4
  WF centre and spread    1  ( -0.000003, -0.000011, -2.790398 )     1.71870272
  WF centre and spread    2  (  0.000011,  2.790397, -0.000003 )     1.71870281
  WF centre and spread    3  ( -2.790397,  0.000004,  0.000011 )     1.71870289
  Sum of centres and spreads ( -2.790390,  2.790391, -2.790390 )     5.15610841
 
      4    -0.137E-03     0.0082677147        5.1561102816       0.04  <-- CONV
        O_D=      0.0000330 O_OD=      0.0116357 O_TOT=      5.1561103 <-- SPRD
 Delta: O_D= -0.5581989E-04 O_OD= -0.8122117E-04 O_TOT= -0.1370411E-03 <-- DLTA
 ------------------------------------------------------------------------------
 Cycle:      5
  WF centre and spread    1  ( -0.000003, -0.000009, -2.790397 )     1.71868970
  WF centre and spread    2  (  0.000009,  2.790396, -0.000003 )     1.71868973
  WF centre and spread    3  ( -2.790396,  0.000003,  0.000009 )     1.71868984
  Sum of centres and spreads ( -2.790390,  2.790391, -2.790390 )     5.15606927
 
      5    -0.391E-04     0.0039124059        5.1560711426       0.05  <-- CONV
        O_D=      0.0000160 O_OD=      0.0116136 O_TOT=      5.1560711 <-- SPRD
 Delta: O_D= -0.1701154E-04 O_OD= -0.2212747E-04 O_TOT= -0.3913901E-04 <-- DLTA
 ------------------------------------------------------------------------------
 Cycle:      6
  WF centre and spread    1  ( -0.000002, -0.000008, -2.790396 )     1.71868462
  WF centre and spread    2  (  0.000008,  2.790395, -0.000002 )     1.71868462
  WF centre and spread    3  ( -2.790395,  0.000003,  0.000008 )     1.71868471
  Sum of centres and spreads ( -2.790390,  2.790391, -2.790390 )     5.15605395
 
      6    -0.153E-04     0.0025501842        5.1560558179       0.05  <-- CONV
        O_D=      0.0000097 O_OD=      0.0116045 O_TOT=      5.1560558 <-- SPRD
 Delta: O_D= -0.6292468E-05 O_OD= -0.9032191E-05 O_TOT= -0.1532466E-04 <-- DLTA
 ------------------------------------------------------------------------------
 Cycle:      7
  WF centre and spread    1  ( -0.000002, -0.000007, -2.790395 )     1.71868320
  WF centre and spread    2  (  0.000007,  2.790395, -0.000002 )     1.71868321
  WF centre and spread    3  ( -2.790395,  0.000003,  0.000007 )     1.71868330
  Sum of centres and spreads ( -2.790390,  2.790391, -2.790390 )     5.15604971
 
      7    -0.424E-05     0.0014052271        5.1560515816       0.06  <-- CONV
        O_D=      0.0000077 O_OD=      0.0116023 O_TOT=      5.1560516 <-- SPRD
 Delta: O_D= -0.1983797E-05 O_OD= -0.2252532E-05 O_TOT= -0.4236330E-05 <-- DLTA
 ------------------------------------------------------------------------------
 Cycle:      8
  WF centre and spread    1  ( -0.000001, -0.000005, -2.790394 )     1.71868117
  WF centre and spread    2  (  0.000005,  2.790394, -0.000002 )     1.71868118
  WF centre and spread    3  ( -2.790394,  0.000002,  0.000005 )     1.71868126
  Sum of centres and spreads ( -2.790390,  2.790391, -2.790391 )     5.15604361
 
      8    -0.610E-05     0.0011567238        5.1560454791       0.07  <-- CONV
        O_D=      0.0000047 O_OD=      0.0115992 O_TOT=      5.1560455 <-- SPRD
 Delta: O_D= -0.2981579E-05 O_OD= -0.3120910E-05 O_TOT= -0.6102490E-05 <-- DLTA
 ------------------------------------------------------------------------------
 Cycle:      9
  WF centre and spread    1  ( -0.000000, -0.000002, -2.790393 )     1.71867914
  WF centre and spread    2  (  0.000003,  2.790392, -0.000001 )     1.71867915
  WF centre and spread    3  ( -2.790392,  0.000001,  0.000002 )     1.71867922
  Sum of centres and spreads ( -2.790390,  2.790391, -2.790391 )     5.15603750
 
      9    -0.611E-05     0.0012998025        5.1560393723       0.08  <-- CONV
        O_D=      0.0000019 O_OD=      0.0115959 O_TOT=      5.1560394 <-- SPRD
 Delta: O_D= -0.2850968E-05 O_OD= -0.3255859E-05 O_TOT= -0.6106827E-05 <-- DLTA
 ------------------------------------------------------------------------------
 Cycle:     10
  WF centre and spread    1  (  0.000000, -0.000001, -2.790392 )     1.71867823
  WF centre and spread    2  (  0.000001,  2.790392, -0.000000 )     1.71867824
  WF centre and spread    3  ( -2.790392,  0.000001,  0.000001 )     1.71867830
  Sum of centres and spreads ( -2.790390,  2.790391, -2.790391 )     5.15603477
 
     10    -0.274E-05     0.0010727952        5.1560366359       0.08  <-- CONV
        O_D=      0.0000007 O_OD=      0.0115943 O_TOT=      5.1560366 <-- SPRD
 Delta: O_D= -0.1158796E-05 O_OD= -0.1577548E-05 O_TOT= -0.2736345E-05 <-- DLTA
 ------------------------------------------------------------------------------
 Cycle:     11
  WF centre and spread    1  (  0.000000, -0.000001, -2.790392 )     1.71867793
  WF centre and spread    2  (  0.000001,  2.790391, -0.000000 )     1.71867795
  WF centre and spread    3  ( -2.790391,  0.000000,  0.000001 )     1.71867800
  Sum of centres and spreads ( -2.790390,  2.790391, -2.790391 )     5.15603388
 
     11    -0.891E-06     0.0006006993        5.1560357449       0.09  <-- CONV
        O_D=      0.0000003 O_OD=      0.0115938 O_TOT=      5.1560357 <-- SPRD
 Delta: O_D= -0.3899361E-06 O_OD= -0.5010970E-06 O_TOT= -0.8910331E-06 <-- DLTA
 ------------------------------------------------------------------------------
 Cycle:     12
  WF centre and spread    1  (  0.000000, -0.000000, -2.790391 )     1.71867774
  WF centre and spread    2  (  0.000001,  2.790391,  0.000000 )     1.71867776
  WF centre and spread    3  ( -2.790391,  0.000000,  0.000000 )     1.71867781
  Sum of centres and spreads ( -2.790390,  2.790391, -2.790391 )     5.15603331
 
     12    -0.571E-06     0.0004083401        5.1560351740       0.10  <-- CONV
        O_D=      0.0000001 O_OD=      0.0115935 O_TOT=      5.1560352 <-- SPRD
 Delta: O_D= -0.2457105E-06 O_OD= -0.3251428E-06 O_TOT= -0.5708533E-06 <-- DLTA
 ------------------------------------------------------------------------------
 Cycle:     13
  WF centre and spread    1  (  0.000000, -0.000000, -2.790391 )     1.71867771
  WF centre and spread    2  (  0.000001,  2.790391,  0.000000 )     1.71867773
  WF centre and spread    3  ( -2.790391,  0.000000,  0.000000 )     1.71867778
  Sum of centres and spreads ( -2.790390,  2.790391, -2.790391 )     5.15603322
 
     13    -0.888E-07     0.0002516167        5.1560350852       0.10  <-- CONV
        O_D=      0.0000000 O_OD=      0.0115934 O_TOT=      5.1560351 <-- SPRD
 Delta: O_D= -0.3115178E-07 O_OD= -0.5768295E-07 O_TOT= -0.8883472E-07 <-- DLTA
 ------------------------------------------------------------------------------
 Cycle:     14
  WF centre and spread    1  (  0.000000, -0.000000, -2.790391 )     1.71867769
  WF centre and spread    2  (  0.000001,  2.790391,  0.000000 )     1.71867771
  WF centre and spread    3  ( -2.790391,  0.000000,  0.000000 )     1.71867776
  Sum of centres and spreads ( -2.790390,  2.790391, -2.790391 )     5.15603316
 
     14    -0.561E-07     0.0001225671        5.1560350291       0.11  <-- CONV
        O_D=      0.0000000 O_OD=      0.0115934 O_TOT=      5.1560350 <-- SPRD
 Delta: O_D= -0.2400330E-07 O_OD= -0.3210816E-07 O_TOT= -0.5611146E-07 <-- DLTA
 ------------------------------------------------------------------------------
 Cycle:     15
  WF centre and spread    1  (  0.000000, -0.000000, -2.790391 )     1.71867768
  WF centre and spread    2  (  0.000001,  2.790391,  0.000000 )     1.71867770
  WF centre and spread    3  ( -2.790391,  0.000000,  0.000000 )     1.71867775
  Sum of centres and spreads ( -2.790390,  2.790391, -2.790391 )     5.15603313
 
     15    -0.302E-07     0.0001051793        5.1560349989       0.12  <-- CONV
        O_D=      0.0000000 O_OD=      0.0115934 O_TOT=      5.1560350 <-- SPRD
 Delta: O_D= -0.1495479E-07 O_OD= -0.1527643E-07 O_TOT= -0.3023122E-07 <-- DLTA
 ------------------------------------------------------------------------------
 Cycle:     16
  WF centre and spread    1  (  0.000000, -0.000000, -2.790391 )     1.71867768
  WF centre and spread    2  (  0.000001,  2.790391,  0.000000 )     1.71867770
  WF centre and spread    3  ( -2.790391,  0.000000,  0.000000 )     1.71867774
  Sum of centres and spreads ( -2.790390,  2.790391, -2.790391 )     5.15603312
 
     16    -0.125E-07     0.0000679086        5.1560349863       0.12  <-- CONV
        O_D=      0.0000000 O_OD=      0.0115934 O_TOT=      5.1560350 <-- SPRD
 Delta: O_D= -0.6358378E-08 O_OD= -0.6166352E-08 O_TOT= -0.1252473E-07 <-- DLTA
 ------------------------------------------------------------------------------
 Cycle:     17
  WF centre and spread    1  (  0.000000, -0.000000, -2.790391 )     1.71867768
  WF centre and spread    2  (  0.000001,  2.790391,  0.000000 )     1.71867769
  WF centre and spread    3  ( -2.790391,  0.000000,  0.000000 )     1.71867774
  Sum of centres and spreads ( -2.790390,  2.790391, -2.790391 )     5.15603311
 
     17    -0.373E-08     0.0000450743        5.1560349826       0.13  <-- CONV
        O_D=      0.0000000 O_OD=      0.0115934 O_TOT=      5.1560350 <-- SPRD
 Delta: O_D= -0.1873339E-08 O_OD= -0.1853818E-08 O_TOT= -0.3727157E-08 <-- DLTA
 ------------------------------------------------------------------------------
 Cycle:     18
  WF centre and spread    1  (  0.000000, -0.000000, -2.790391 )     1.71867768
  WF centre and spread    2  (  0.000001,  2.790391,  0.000000 )     1.71867769
  WF centre and spread    3  ( -2.790391,  0.000000,  0.000000 )     1.71867774
  Sum of centres and spreads ( -2.790390,  2.790391, -2.790391 )     5.15603311
 
     18    -0.125E-08     0.0000323247        5.1560349814       0.14  <-- CONV
        O_D=      0.0000000 O_OD=      0.0115934 O_TOT=      5.1560350 <-- SPRD
 Delta: O_D= -0.4947179E-09 O_OD= -0.7547522E-09 O_TOT= -0.1249470E-08 <-- DLTA
 ------------------------------------------------------------------------------
 Cycle:     19
  WF centre and spread    1  (  0.000000, -0.000000, -2.790391 )     1.71867768
  WF centre and spread    2  (  0.000001,  2.790391,  0.000000 )     1.71867769
  WF centre and spread    3  ( -2.790391,  0.000000,  0.000000 )     1.71867774
  Sum of centres and spreads ( -2.790390,  2.790391, -2.790391 )     5.15603311
 
     19    -0.161E-11     0.0000191454        5.1560349814       0.14  <-- CONV
        O_D=      0.0000000 O_OD=      0.0115934 O_TOT=      5.1560350 <-- SPRD
 Delta: O_D= -0.4799033E-12 O_OD= -0.1132820E-11 O_TOT= -0.1612932E-11 <-- DLTA
 ------------------------------------------------------------------------------
 Cycle:     20
  WF centre and spread    1  (  0.000000, -0.000000, -2.790391 )     1.71867768
  WF centre and spread    2  (  0.000001,  2.790391,  0.000000 )     1.71867769
  WF centre and spread    3  ( -2.790391,  0.000000,  0.000000 )     1.71867774
  Sum of centres and spreads ( -2.790390,  2.790391, -2.790391 )     5.15603311
 
     20    -0.944E-09     0.0000191326        5.1560349804       0.15  <-- CONV
        O_D=      0.0000000 O_OD=      0.0115934 O_TOT=      5.1560350 <-- SPRD
 Delta: O_D= -0.2441922E-09 O_OD= -0.6997396E-09 O_TOT= -0.9439312E-09 <-- DLTA
 ------------------------------------------------------------------------------
 Cycle:     21
  WF centre and spread    1  (  0.000000, -0.000000, -2.790391 )     1.71867768
  WF centre and spread    2  (  0.000001,  2.790391,  0.000000 )     1.71867769
  WF centre and spread    3  ( -2.790391,  0.000000,  0.000000 )     1.71867774
  Sum of centres and spreads ( -2.790390,  2.790391, -2.790391 )     5.15603311
 
     21    -0.412E-11     0.0000240856        5.1560349804       0.15  <-- CONV
        O_D=      0.0000000 O_OD=      0.0115934 O_TOT=      5.1560350 <-- SPRD
 Delta: O_D=  0.6290991E-11 O_OD= -0.1040783E-10 O_TOT= -0.4117595E-11 <-- DLTA
 ------------------------------------------------------------------------------
 Cycle:     22
  WF centre and spread    1  (  0.000000, -0.000000, -2.790391 )     1.71867768
  WF centre and spread    2  (  0.000001,  2.790391,  0.000000 )     1.71867769
  WF centre and spread    3  ( -2.790391,  0.000000,  0.000000 )     1.71867774
  Sum of centres and spreads ( -2.790390,  2.790391, -2.790391 )     5.15603311
 
     22    -0.552E-09     0.0000246045        5.1560349799       0.16  <-- CONV
        O_D=      0.0000000 O_OD=      0.0115934 O_TOT=      5.1560350 <-- SPRD
 Delta: O_D= -0.5497777E-10 O_OD= -0.4966448E-09 O_TOT= -0.5516227E-09 <-- DLTA
 ------------------------------------------------------------------------------
 Cycle:     23
  WF centre and spread    1  (  0.000000, -0.000000, -2.790391 )     1.71867768
  WF centre and spread    2  (  0.000000,  2.790391,  0.000000 )     1.71867769
  WF centre and spread    3  ( -2.790391,  0.000000,  0.000000 )     1.71867774
  Sum of centres and spreads ( -2.790390,  2.790391, -2.790391 )     5.15603311
 
     23    -0.283E-09     0.0000201461        5.1560349796       0.17  <-- CONV
        O_D=      0.0000000 O_OD=      0.0115934 O_TOT=      5.1560350 <-- SPRD
 Delta: O_D= -0.6834220E-10 O_OD= -0.2144295E-09 O_TOT= -0.2827711E-09 <-- DLTA
 ------------------------------------------------------------------------------
 Cycle:     24
  WF centre and spread    1  (  0.000000, -0.000000, -2.790391 )     1.71867768
  WF centre and spread    2  (  0.000000,  2.790391,  0.000000 )     1.71867769
  WF centre and spread    3  ( -2.790391,  0.000000,  0.000000 )     1.71867774
  Sum of centres and spreads ( -2.790390,  2.790391, -2.790391 )     5.15603311
 
     24    -0.419E-09     0.0000179125        5.1560349792       0.17  <-- CONV
        O_D=      0.0000000 O_OD=      0.0115934 O_TOT=      5.1560350 <-- SPRD
 Delta: O_D= -0.1495010E-09 O_OD= -0.2690496E-09 O_TOT= -0.4185505E-09 <-- DLTA
 ------------------------------------------------------------------------------
 Cycle:     25
  WF centre and spread    1  (  0.000000, -0.000000, -2.790391 )     1.71867768
  WF centre and spread    2  (  0.000000,  2.790391,  0.000000 )     1.71867769
  WF centre and spread    3  ( -2.790391,  0.000000,  0.000000 )     1.71867774
  Sum of centres and spreads ( -2.790390,  2.790391, -2.790391 )     5.15603311
 
     25    -0.134E-11     0.0000174369        5.1560349792       0.18  <-- CONV
        O_D=      0.0000000 O_OD=      0.0115934 O_TOT=      5.1560350 <-- SPRD
 Delta: O_D= -0.4038778E-12 O_OD= -0.9335258E-12 O_TOT= -0.1337597E-11 <-- DLTA
 ------------------------------------------------------------------------------
 Cycle:     26
  WF centre and spread    1  (  0.000000, -0.000000, -2.790391 )     1.71867768
  WF centre and spread    2  (  0.000000,  2.790391,  0.000000 )     1.71867769
  WF centre and spread    3  ( -2.790391,  0.000000,  0.000000 )     1.71867774
  Sum of centres and spreads ( -2.790390,  2.790391, -2.790391 )     5.15603311
 
     26    -0.571E-09     0.0000174166        5.1560349786       0.18  <-- CONV
        O_D=      0.0000000 O_OD=      0.0115934 O_TOT=      5.1560350 <-- SPRD
 Delta: O_D= -0.1771981E-09 O_OD= -0.3938095E-09 O_TOT= -0.5710072E-09 <-- DLTA
 ------------------------------------------------------------------------------
 Cycle:     27
  WF centre and spread    1  (  0.000000, -0.000000, -2.790391 )     1.71867768
  WF centre and spread    2  (  0.000000,  2.790391,  0.000000 )     1.71867769
  WF centre and spread    3  ( -2.790391,  0.000000,  0.000000 )     1.71867774
  Sum of centres and spreads ( -2.790390,  2.790391, -2.790391 )     5.15603311
 
     27    -0.345E-12     0.0000087860        5.1560349786       0.19  <-- CONV
        O_D=      0.0000000 O_OD=      0.0115934 O_TOT=      5.1560350 <-- SPRD
 Delta: O_D= -0.9938848E-13 O_OD= -0.2454478E-12 O_TOT= -0.3446132E-12 <-- DLTA
 ------------------------------------------------------------------------------
 Cycle:     28
  WF centre and spread    1  (  0.000000, -0.000000, -2.790391 )     1.71867768
  WF centre and spread    2  (  0.000000,  2.790391,  0.000000 )     1.71867769
  WF centre and spread    3  ( -2.790391,  0.000000,  0.000000 )     1.71867774
  Sum of centres and spreads ( -2.790390,  2.790391, -2.790391 )     5.15603311
 
     28    -0.683E-12     0.0000087820        5.1560349786       0.19  <-- CONV
        O_D=      0.0000000 O_OD=      0.0115934 O_TOT=      5.1560350 <-- SPRD
 Delta: O_D= -0.1911463E-12 O_OD= -0.4920613E-12 O_TOT= -0.6830092E-12 <-- DLTA
 ------------------------------------------------------------------------------
 Cycle:     29
  WF centre and spread    1  (  0.000000, -0.000000, -2.790391 )     1.71867768
  WF centre and spread    2  (  0.000000,  2.790391,  0.000000 )     1.71867769
  WF centre and spread    3  ( -2.790391,  0.000000,  0.000000 )     1.71867774
  Sum of centres and spreads ( -2.790390,  2.790391, -2.790391 )     5.15603311
 
     29    -0.102E-11     0.0000087689        5.1560349786       0.20  <-- CONV
        O_D=      0.0000000 O_OD=      0.0115934 O_TOT=      5.1560350 <-- SPRD
 Delta: O_D= -0.2818374E-12 O_OD= -0.7361056E-12 O_TOT= -0.1018741E-11 <-- DLTA
 ------------------------------------------------------------------------------
 Cycle:     30
  WF centre and spread    1  (  0.000000, -0.000000, -2.790391 )     1.71867768
  WF centre and spread    2  (  0.000000,  2.790391,  0.000000 )     1.71867769
  WF centre and spread    3  ( -2.790391,  0.000000,  0.000000 )     1.71867774
  Sum of centres and spreads ( -2.790390,  2.790391, -2.790391 )     5.15603311
 
     30    -0.201E-09     0.0000087468        5.1560349784       0.20  <-- CONV
        O_D=      0.0000000 O_OD=      0.0115934 O_TOT=      5.1560350 <-- SPRD
 Delta: O_D= -0.5075776E-10 O_OD= -0.1505469E-09 O_TOT= -0.2013048E-09 <-- DLTA
 ------------------------------------------------------------------------------
 Cycle:     31
  WF centre and spread    1  (  0.000000, -0.000000, -2.790391 )     1.71867768
  WF centre and spread    2  (  0.000000,  2.790391,  0.000000 )     1.71867769
  WF centre and spread    3  ( -2.790391,  0.000000,  0.000000 )     1.71867774
  Sum of centres and spreads ( -2.790390,  2.790391, -2.790391 )     5.15603311
 
     31    -0.274E-12     0.0000079115        5.1560349784       0.21  <-- CONV
        O_D=      0.0000000 O_OD=      0.0115934 O_TOT=      5.1560350 <-- SPRD
 Delta: O_D= -0.6182767E-13 O_OD= -0.2134456E-12 O_TOT= -0.2744471E-12 <-- DLTA
 ------------------------------------------------------------------------------
 Cycle:     32
  WF centre and spread    1  (  0.000000, -0.000000, -2.790391 )     1.71867768
  WF centre and spread    2  (  0.000000,  2.790391,  0.000000 )     1.71867769
  WF centre and spread    3  ( -2.790391,  0.000000,  0.000000 )     1.71867774
  Sum of centres and spreads ( -2.790390,  2.790391, -2.790391 )     5.15603311
 
     32    -0.549E-12     0.0000078996        5.1560349784       0.21  <-- CONV
        O_D=      0.0000000 O_OD=      0.0115934 O_TOT=      5.1560350 <-- SPRD
 Delta: O_D= -0.1230827E-12 O_OD= -0.4249951E-12 O_TOT= -0.5488943E-12 <-- DLTA
 ------------------------------------------------------------------------------
 Cycle:     33
  WF centre and spread    1  (  0.000000, -0.000000, -2.790391 )     1.71867768
  WF centre and spread    2  (  0.000000,  2.790391,  0.000000 )     1.71867769
  WF centre and spread    3  ( -2.790391,  0.000000,  0.000000 )     1.71867774
  Sum of centres and spreads ( -2.790390,  2.790391, -2.790391 )     5.15603311
 
     33    -0.904E-10     0.0000078760        5.1560349783       0.22  <-- CONV
        O_D=      0.0000000 O_OD=      0.0115934 O_TOT=      5.1560350 <-- SPRD
 Delta: O_D= -0.1906079E-10 O_OD= -0.7135147E-10 O_TOT= -0.9041212E-10 <-- DLTA
 ------------------------------------------------------------------------------
 Cycle:     34
  WF centre and spread    1  (  0.000000, -0.000000, -2.790391 )     1.71867768
  WF centre and spread    2  (  0.000000,  2.790391,  0.000000 )     1.71867769
  WF centre and spread    3  ( -2.790391,  0.000000,  0.000000 )     1.71867774
  Sum of centres and spreads ( -2.790390,  2.790391, -2.790391 )     5.15603311
 
     34    -0.684E-13     0.0000047101        5.1560349783       0.22  <-- CONV
        O_D=      0.0000000 O_OD=      0.0115934 O_TOT=      5.1560350 <-- SPRD
 Delta: O_D= -0.7846750E-14 O_OD= -0.6100329E-13 O_TOT= -0.6838974E-13 <-- DLTA
 ------------------------------------------------------------------------------
 Cycle:     35
  WF centre and spread    1  (  0.000000, -0.000000, -2.790391 )     1.71867768
  WF centre and spread    2  (  0.000000,  2.790391,  0.000000 )     1.71867769
  WF centre and spread    3  ( -2.790391,  0.000000,  0.000000 )     1.71867774
  Sum of centres and spreads ( -2.790390,  2.790391, -2.790391 )     5.15603311
 
     35    -0.167E-12     0.0000047146        5.1560349783       0.22  <-- CONV
        O_D=      0.0000000 O_OD=      0.0115934 O_TOT=      5.1560350 <-- SPRD
 Delta: O_D= -0.2579002E-13 O_OD= -0.1409324E-12 O_TOT= -0.1669775E-12 <-- DLTA
 ------------------------------------------------------------------------------
 Cycle:     36
  WF centre and spread    1  (  0.000000, -0.000000, -2.790391 )     1.71867768
  WF centre and spread    2  (  0.000000,  2.790391,  0.000000 )     1.71867769
  WF centre and spread    3  ( -2.790391,  0.000000,  0.000000 )     1.71867774
  Sum of centres and spreads ( -2.790390,  2.790391, -2.790391 )     5.15603311
 
     36    -0.265E-12     0.0000047150        5.1560349783       0.23  <-- CONV
        O_D=      0.0000000 O_OD=      0.0115934 O_TOT=      5.1560350 <-- SPRD
 Delta: O_D= -0.4372989E-13 O_OD= -0.2207158E-12 O_TOT= -0.2646772E-12 <-- DLTA
 ------------------------------------------------------------------------------
 Cycle:     37
  WF centre and spread    1  (  0.000000, -0.000000, -2.790391 )     1.71867768
  WF centre and spread    2  (  0.000000,  2.790391,  0.000000 )     1.71867769
  WF centre and spread    3  ( -2.790391,  0.000000,  0.000000 )     1.71867774
  Sum of centres and spreads ( -2.790390,  2.790391, -2.790391 )     5.15603311
 
     37    -0.977E-13     0.0000047111        5.1560349783       0.23  <-- CONV
        O_D=      0.0000000 O_OD=      0.0115934 O_TOT=      5.1560350 <-- SPRD
 Delta: O_D= -0.1792701E-13 O_OD= -0.7967758E-13 O_TOT= -0.9769963E-13 <-- DLTA
 ------------------------------------------------------------------------------
 Cycle:     38
  WF centre and spread    1  (  0.000000, -0.000000, -2.790391 )     1.71867768
  WF centre and spread    2  (  0.000000,  2.790391,  0.000000 )     1.71867769
  WF centre and spread    3  ( -2.790391,  0.000000,  0.000000 )     1.71867774
  Sum of centres and spreads ( -2.790390,  2.790391, -2.790391 )     5.15603311
 
     38    -0.195E-12     0.0000047069        5.1560349783       0.24  <-- CONV
        O_D=      0.0000000 O_OD=      0.0115934 O_TOT=      5.1560350 <-- SPRD
 Delta: O_D= -0.3574636E-13 O_OD= -0.1590100E-12 O_TOT= -0.1945111E-12 <-- DLTA
 ------------------------------------------------------------------------------
 Cycle:     39
  WF centre and spread    1  (  0.000000, -0.000000, -2.790391 )     1.71867768
  WF centre and spread    2  (  0.000000,  2.790391,  0.000000 )     1.71867769
  WF centre and spread    3  ( -2.790391,  0.000000,  0.000000 )     1.71867774
  Sum of centres and spreads ( -2.790390,  2.790391, -2.790391 )     5.15603311
 
     39    -0.290E-12     0.0000046985        5.1560349783       0.24  <-- CONV
        O_D=      0.0000000 O_OD=      0.0115934 O_TOT=      5.1560350 <-- SPRD
 Delta: O_D= -0.5332025E-13 O_OD= -0.2373900E-12 O_TOT= -0.2904343E-12 <-- DLTA
 ------------------------------------------------------------------------------
 Cycle:     40
  WF centre and spread    1  (  0.000000, -0.000000, -2.790391 )     1.71867768
  WF centre and spread    2  (  0.000000,  2.790391,  0.000000 )     1.71867769
  WF centre and spread    3  ( -2.790391,  0.000000,  0.000000 )     1.71867774
  Sum of centres and spreads ( -2.790390,  2.790391, -2.790391 )     5.15603311
 
     40    -0.385E-12     0.0000046860        5.1560349783       0.24  <-- CONV
        O_D=      0.0000000 O_OD=      0.0115934 O_TOT=      5.1560350 <-- SPRD
 Delta: O_D= -0.7051551E-13 O_OD= -0.3141654E-12 O_TOT= -0.3854694E-12 <-- DLTA
 ------------------------------------------------------------------------------
 Cycle:     41
  WF centre and spread    1  (  0.000000, -0.000000, -2.790391 )     1.71867768
  WF centre and spread    2  (  0.000000,  2.790391,  0.000000 )     1.71867769
  WF centre and spread    3  ( -2.790391,  0.000000,  0.000000 )     1.71867774
  Sum of centres and spreads ( -2.790390,  2.790391, -2.790391 )     5.15603311
 
     41    -0.532E-10     0.0000046695        5.1560349782       0.25  <-- CONV
        O_D=      0.0000000 O_OD=      0.0115934 O_TOT=      5.1560350 <-- SPRD
 Delta: O_D= -0.8354377E-11 O_OD= -0.4479830E-10 O_TOT= -0.5315215E-10 <-- DLTA
 ------------------------------------------------------------------------------
 Cycle:     42
  WF centre and spread    1  (  0.000000, -0.000000, -2.790391 )     1.71867768
  WF centre and spread    2  (  0.000000,  2.790391,  0.000000 )     1.71867769
  WF centre and spread    3  ( -2.790391,  0.000000,  0.000000 )     1.71867774
  Sum of centres and spreads ( -2.790390,  2.790391, -2.790391 )     5.15603311
 
     42    -0.140E-12     0.0000043759        5.1560349782       0.25  <-- CONV
        O_D=      0.0000000 O_OD=      0.0115934 O_TOT=      5.1560350 <-- SPRD
 Delta: O_D= -0.1217751E-13 O_OD= -0.1285933E-12 O_TOT= -0.1403322E-12 <-- DLTA
 ------------------------------------------------------------------------------
 Cycle:     43
  WF centre and spread    1  (  0.000000, -0.000000, -2.790391 )     1.71867768
  WF centre and spread    2  (  0.000000,  2.790391,  0.000000 )     1.71867769
  WF centre and spread    3  ( -2.790391,  0.000000,  0.000000 )     1.71867774
  Sum of centres and spreads ( -2.790390,  2.790391, -2.790391 )     5.15603311
 
     43    -0.862E-13     0.0000043883        5.1560349782       0.26  <-- CONV
        O_D=      0.0000000 O_OD=      0.0115934 O_TOT=      5.1560350 <-- SPRD
 Delta: O_D= -0.1432493E-13 O_OD= -0.7041416E-13 O_TOT= -0.8615331E-13 <-- DLTA
 ------------------------------------------------------------------------------
 Cycle:     44
  WF centre and spread    1  (  0.000000, -0.000000, -2.790391 )     1.71867768
  WF centre and spread    2  (  0.000000,  2.790391,  0.000000 )     1.71867769
  WF centre and spread    3  ( -2.790391,  0.000000,  0.000000 )     1.71867774
  Sum of centres and spreads ( -2.790390,  2.790391, -2.790391 )     5.15603311
 
     44    -0.169E-12     0.0000043842        5.1560349782       0.26  <-- CONV
        O_D=      0.0000000 O_OD=      0.0115934 O_TOT=      5.1560350 <-- SPRD
 Delta: O_D= -0.2855722E-13 O_OD= -0.1403964E-12 O_TOT= -0.1687539E-12 <-- DLTA
 ------------------------------------------------------------------------------
 Cycle:     45
  WF centre and spread    1  (  0.000000, -0.000000, -2.790391 )     1.71867768
  WF centre and spread    2  (  0.000000,  2.790391,  0.000000 )     1.71867769
  WF centre and spread    3  ( -2.790391,  0.000000,  0.000000 )     1.71867774
  Sum of centres and spreads ( -2.790390,  2.790391, -2.790391 )     5.15603311
 
     45    -0.251E-12     0.0000043760        5.1560349782       0.26  <-- CONV
        O_D=      0.0000000 O_OD=      0.0115934 O_TOT=      5.1560350 <-- SPRD
 Delta: O_D= -0.4257905E-13 O_OD= -0.2095338E-12 O_TOT= -0.2513545E-12 <-- DLTA
 ------------------------------------------------------------------------------
 Cycle:     46
  WF centre and spread    1  (  0.000000, -0.000000, -2.790391 )     1.71867768
  WF centre and spread    2  (  0.000000,  2.790391,  0.000000 )     1.71867769
  WF centre and spread    3  ( -2.790391,  0.000000,  0.000000 )     1.71867774
  Sum of centres and spreads ( -2.790390,  2.790391, -2.790391 )     5.15603311
 
     46    -0.334E-12     0.0000043638        5.1560349782       0.27  <-- CONV
        O_D=      0.0000000 O_OD=      0.0115934 O_TOT=      5.1560350 <-- SPRD
 Delta: O_D= -0.5627679E-13 O_OD= -0.2772574E-12 O_TOT= -0.3339551E-12 <-- DLTA
 ------------------------------------------------------------------------------
 Cycle:     47
  WF centre and spread    1  (  0.000000, -0.000000, -2.790391 )     1.71867768
  WF centre and spread    2  (  0.000000,  2.790391,  0.000000 )     1.71867769
  WF centre and spread    3  ( -2.790391,  0.000000,  0.000000 )     1.71867774
  Sum of centres and spreads ( -2.790390,  2.790391, -2.790391 )     5.15603311
 
     47    -0.384E-10     0.0000043477        5.1560349782       0.27  <-- CONV
        O_D=      0.0000000 O_OD=      0.0115934 O_TOT=      5.1560350 <-- SPRD
 Delta: O_D= -0.5798362E-11 O_OD= -0.3262940E-10 O_TOT= -0.3842704E-10 <-- DLTA
 ------------------------------------------------------------------------------
 Cycle:     48
  WF centre and spread    1  (  0.000000, -0.000000, -2.790391 )     1.71867768
  WF centre and spread    2  (  0.000000,  2.790391,  0.000000 )     1.71867769
  WF centre and spread    3  ( -2.790391,  0.000000,  0.000000 )     1.71867774
  Sum of centres and spreads ( -2.790390,  2.790391, -2.790391 )     5.15603311
 
     48    -0.138E-12     0.0000033043        5.1560349782       0.28  <-- CONV
        O_D=      0.0000000 O_OD=      0.0115934 O_TOT=      5.1560350 <-- SPRD
 Delta: O_D= -0.1574035E-13 O_OD= -0.1217446E-12 O_TOT= -0.1376677E-12 <-- DLTA
 ------------------------------------------------------------------------------
 Cycle:     49
  WF centre and spread    1  (  0.000000, -0.000000, -2.790391 )     1.71867768
  WF centre and spread    2  (  0.000000,  2.790391,  0.000000 )     1.71867769
  WF centre and spread    3  ( -2.790391,  0.000000,  0.000000 )     1.71867774
  Sum of centres and spreads ( -2.790390,  2.790391, -2.790391 )     5.15603311
 
     49    -0.480E-13     0.0000033083        5.1560349782       0.28  <-- CONV
        O_D=      0.0000000 O_OD=      0.0115934 O_TOT=      5.1560350 <-- SPRD
 Delta: O_D= -0.6510589E-14 O_OD= -0.4165765E-13 O_TOT= -0.4796163E-13 <-- DLTA
 ------------------------------------------------------------------------------
 Cycle:     50
  WF centre and spread    1  (  0.000000, -0.000000, -2.790391 )     1.71867768
  WF centre and spread    2  (  0.000000,  2.790391,  0.000000 )     1.71867769
  WF centre and spread    3  ( -2.790391,  0.000000,  0.000000 )     1.71867774
  Sum of centres and spreads ( -2.790390,  2.790391, -2.790391 )     5.15603311
 
     50    -0.968E-13     0.0000033074        5.1560349782       0.29  <-- CONV
        O_D=      0.0000000 O_OD=      0.0115934 O_TOT=      5.1560350 <-- SPRD
 Delta: O_D= -0.1300618E-13 O_OD= -0.8326326E-13 O_TOT= -0.9681145E-13 <-- DLTA
 ------------------------------------------------------------------------------
 Cycle:     51
  WF centre and spread    1  (  0.000000, -0.000000, -2.790391 )     1.71867768
  WF centre and spread    2  (  0.000000,  2.790391,  0.000000 )     1.71867769
  WF centre and spread    3  ( -2.790391,  0.000000,  0.000000 )     1.71867774
  Sum of centres and spreads ( -2.790390,  2.790391, -2.790391 )     5.15603311
 
     51    -0.144E-12     0.0000033055        5.1560349782       0.29  <-- CONV
        O_D=      0.0000000 O_OD=      0.0115934 O_TOT=      5.1560350 <-- SPRD
 Delta: O_D= -0.1946826E-13 O_OD= -0.1246555E-12 O_TOT= -0.1438849E-12 <-- DLTA
 ------------------------------------------------------------------------------
 Cycle:     52
  WF centre and spread    1  (  0.000000, -0.000000, -2.790391 )     1.71867768
  WF centre and spread    2  (  0.000000,  2.790391,  0.000000 )     1.71867769
  WF centre and spread    3  ( -2.790391,  0.000000,  0.000000 )     1.71867774
  Sum of centres and spreads ( -2.790390,  2.790391, -2.790391 )     5.15603311
 
     52    -0.192E-12     0.0000033027        5.1560349782       0.29  <-- CONV
        O_D=      0.0000000 O_OD=      0.0115934 O_TOT=      5.1560350 <-- SPRD
 Delta: O_D= -0.2587868E-13 O_OD= -0.1658569E-12 O_TOT= -0.1918465E-12 <-- DLTA
 ------------------------------------------------------------------------------
 Cycle:     53
  WF centre and spread    1  (  0.000000, -0.000000, -2.790391 )     1.71867768
  WF centre and spread    2  (  0.000000,  2.790391,  0.000000 )     1.71867769
  WF centre and spread    3  ( -2.790391,  0.000000,  0.000000 )     1.71867774
  Sum of centres and spreads ( -2.790390,  2.790391, -2.790391 )     5.15603311
 
     53    -0.239E-12     0.0000032990        5.1560349782       0.30  <-- CONV
        O_D=      0.0000000 O_OD=      0.0115934 O_TOT=      5.1560350 <-- SPRD
 Delta: O_D= -0.3221996E-13 O_OD= -0.2067201E-12 O_TOT= -0.2389200E-12 <-- DLTA
 ------------------------------------------------------------------------------
 Cycle:     54
  WF centre and spread    1  (  0.000000, -0.000000, -2.790391 )     1.71867768
  WF centre and spread    2  (  0.000000,  2.790391,  0.000000 )     1.71867769
  WF centre and spread    3  ( -2.790391,  0.000000,  0.000000 )     1.71867774
  Sum of centres and spreads ( -2.790390,  2.790391, -2.790391 )     5.15603311
 
     54    -0.286E-12     0.0000032944        5.1560349782       0.30  <-- CONV
        O_D=      0.0000000 O_OD=      0.0115934 O_TOT=      5.1560350 <-- SPRD
 Delta: O_D= -0.3847542E-13 O_OD= -0.2471565E-12 O_TOT= -0.2859935E-12 <-- DLTA
 ------------------------------------------------------------------------------
 Cycle:     55
  WF centre and spread    1  (  0.000000, -0.000000, -2.790391 )     1.71867768
  WF centre and spread    2  (  0.000000,  2.790391,  0.000000 )     1.71867769
  WF centre and spread    3  ( -2.790391,  0.000000,  0.000000 )     1.71867774
  Sum of centres and spreads ( -2.790390,  2.790391, -2.790391 )     5.15603311
 
     55    -0.471E-13     0.0000032890        5.1560349782       0.30  <-- CONV
        O_D=      0.0000000 O_OD=      0.0115934 O_TOT=      5.1560350 <-- SPRD
 Delta: O_D= -0.6394786E-14 O_OD= -0.4123785E-13 O_TOT= -0.4707346E-13 <-- DLTA
 ------------------------------------------------------------------------------
 Cycle:     56
  WF centre and spread    1  (  0.000000, -0.000000, -2.790391 )     1.71867768
  WF centre and spread    2  (  0.000000,  2.790391,  0.000000 )     1.71867769
  WF centre and spread    3  ( -2.790391,  0.000000,  0.000000 )     1.71867774
  Sum of centres and spreads ( -2.790390,  2.790391, -2.790391 )     5.15603311
 
     56    -0.950E-13     0.0000032882        5.1560349782       0.31  <-- CONV
        O_D=      0.0000000 O_OD=      0.0115934 O_TOT=      5.1560350 <-- SPRD
 Delta: O_D= -0.1277560E-13 O_OD= -0.8235253E-13 O_TOT= -0.9503509E-13 <-- DLTA
 ------------------------------------------------------------------------------
 Cycle:     57
  WF centre and spread    1  (  0.000000, -0.000000, -2.790391 )     1.71867768
  WF centre and spread    2  (  0.000000,  2.790391,  0.000000 )     1.71867769
  WF centre and spread    3  ( -2.790391,  0.000000,  0.000000 )     1.71867774
  Sum of centres and spreads ( -2.790390,  2.790391, -2.790391 )     5.15603311
 
     57    -0.143E-12     0.0000032864        5.1560349782       0.31  <-- CONV
        O_D=      0.0000000 O_OD=      0.0115934 O_TOT=      5.1560350 <-- SPRD
 Delta: O_D= -0.1912523E-13 O_OD= -0.1233527E-12 O_TOT= -0.1429967E-12 <-- DLTA
 ------------------------------------------------------------------------------
 Cycle:     58
  WF centre and spread    1  (  0.000000, -0.000000, -2.790391 )     1.71867768
  WF centre and spread    2  (  0.000000,  2.790391,  0.000000 )     1.71867769
  WF centre and spread    3  ( -2.790391,  0.000000,  0.000000 )     1.71867774
  Sum of centres and spreads ( -2.790390,  2.790391, -2.790391 )     5.15603311
 
     58    -0.189E-12     0.0000032838        5.1560349782       0.32  <-- CONV
        O_D=      0.0000000 O_OD=      0.0115934 O_TOT=      5.1560350 <-- SPRD
 Delta: O_D= -0.2542677E-13 O_OD= -0.1641621E-12 O_TOT= -0.1891820E-12 <-- DLTA
 ------------------------------------------------------------------------------
 Cycle:     59
  WF centre and spread    1  (  0.000000, -0.000000, -2.790391 )     1.71867768
  WF centre and spread    2  (  0.000000,  2.790391,  0.000000 )     1.71867769
  WF centre and spread    3  ( -2.790391,  0.000000,  0.000000 )     1.71867774
  Sum of centres and spreads ( -2.790390,  2.790391, -2.790391 )     5.15603311
 
     59    -0.236E-12     0.0000032803        5.1560349782       0.32  <-- CONV
        O_D=      0.0000000 O_OD=      0.0115934 O_TOT=      5.1560350 <-- SPRD
 Delta: O_D= -0.3166394E-13 O_OD= -0.2046037E-12 O_TOT= -0.2362555E-12 <-- DLTA
 ------------------------------------------------------------------------------
 Cycle:     60
  WF centre and spread    1  (  0.000000, -0.000000, -2.790391 )     1.71867768
  WF centre and spread    2  (  0.000000,  2.790391,  0.000000 )     1.71867769
  WF centre and spread    3  ( -2.790391,  0.000000,  0.000000 )     1.71867774
  Sum of centres and spreads ( -2.790390,  2.790391, -2.790391 )     5.15603311
 
     60    -0.283E-12     0.0000032761        5.1560349782       0.32  <-- CONV
        O_D=      0.0000000 O_OD=      0.0115934 O_TOT=      5.1560350 <-- SPRD
 Delta: O_D= -0.3782118E-13 O_OD= -0.2446793E-12 O_TOT= -0.2833289E-12 <-- DLTA
 ------------------------------------------------------------------------------
 Cycle:     61
  WF centre and spread    1  (  0.000000, -0.000000, -2.790391 )     1.71867768
  WF centre and spread    2  (  0.000000,  2.790391,  0.000000 )     1.71867769
  WF centre and spread    3  ( -2.790391,  0.000000,  0.000000 )     1.71867774
  Sum of centres and spreads ( -2.790390,  2.790391, -2.790391 )     5.15603311
 
     61    -0.471E-13     0.0000032710        5.1560349782       0.33  <-- CONV
        O_D=      0.0000000 O_OD=      0.0115934 O_TOT=      5.1560350 <-- SPRD
 Delta: O_D= -0.6286615E-14 O_OD= -0.4084059E-13 O_TOT= -0.4707346E-13 <-- DLTA
 ------------------------------------------------------------------------------
 Cycle:     62
  WF centre and spread    1  (  0.000000, -0.000000, -2.790391 )     1.71867768
  WF centre and spread    2  (  0.000000,  2.790391,  0.000000 )     1.71867769
  WF centre and spread    3  ( -2.790391,  0.000000,  0.000000 )     1.71867774
  Sum of centres and spreads ( -2.790390,  2.790391, -2.790391 )     5.15603311
 
     62    -0.933E-13     0.0000032702        5.1560349782       0.33  <-- CONV
        O_D=      0.0000000 O_OD=      0.0115934 O_TOT=      5.1560350 <-- SPRD
 Delta: O_D= -0.1256020E-13 O_OD= -0.8152506E-13 O_TOT= -0.9325873E-13 <-- DLTA
 ------------------------------------------------------------------------------
 Cycle:     63
  WF centre and spread    1  (  0.000000, -0.000000, -2.790391 )     1.71867768
  WF centre and spread    2  (  0.000000,  2.790391,  0.000000 )     1.71867769
  WF centre and spread    3  ( -2.790391,  0.000000,  0.000000 )     1.71867774
  Sum of centres and spreads ( -2.790390,  2.790391, -2.790391 )     5.15603311
 
     63    -0.141E-12     0.0000032685        5.1560349782       0.33  <-- CONV
        O_D=      0.0000000 O_OD=      0.0115934 O_TOT=      5.1560350 <-- SPRD
 Delta: O_D= -0.1880472E-13 O_OD= -0.1221679E-12 O_TOT= -0.1412204E-12 <-- DLTA
 ------------------------------------------------------------------------------
 Cycle:     64
  WF centre and spread    1  (  0.000000, -0.000000, -2.790391 )     1.71867768
  WF centre and spread    2  (  0.000000,  2.790391,  0.000000 )     1.71867769
  WF centre and spread    3  ( -2.790391,  0.000000,  0.000000 )     1.71867774
  Sum of centres and spreads ( -2.790390,  2.790391, -2.790391 )     5.15603311
 
     64    -0.187E-12     0.0000032661        5.1560349782       0.34  <-- CONV
        O_D=      0.0000000 O_OD=      0.0115934 O_TOT=      5.1560350 <-- SPRD
 Delta: O_D= -0.2500443E-13 O_OD= -0.1625401E-12 O_TOT= -0.1874056E-12 <-- DLTA
 ------------------------------------------------------------------------------
 Cycle:     65
  WF centre and spread    1  (  0.000000, -0.000000, -2.790391 )     1.71867768
  WF centre and spread    2  (  0.000000,  2.790391,  0.000000 )     1.71867769
  WF centre and spread    3  ( -2.790391,  0.000000,  0.000000 )     1.71867774
  Sum of centres and spreads ( -2.790390,  2.790391, -2.790391 )     5.15603311
 
     65    -0.234E-12     0.0000032629        5.1560349782       0.34  <-- CONV
        O_D=      0.0000000 O_OD=      0.0115934 O_TOT=      5.1560350 <-- SPRD
 Delta: O_D= -0.3114413E-13 O_OD= -0.2026122E-12 O_TOT= -0.2335909E-12 <-- DLTA
 ------------------------------------------------------------------------------
 Cycle:     66
  WF centre and spread    1  (  0.000000, -0.000000, -2.790391 )     1.71867768
  WF centre and spread    2  (  0.000000,  2.790391,  0.000000 )     1.71867769
  WF centre and spread    3  ( -2.790391,  0.000000,  0.000000 )     1.71867774
  Sum of centres and spreads ( -2.790390,  2.790391, -2.790391 )     5.15603311
 
     66    -0.280E-12     0.0000032589        5.1560349782       0.35  <-- CONV
        O_D=      0.0000000 O_OD=      0.0115934 O_TOT=      5.1560350 <-- SPRD
 Delta: O_D= -0.3720928E-13 O_OD= -0.2424519E-12 O_TOT= -0.2797762E-12 <-- DLTA
 ------------------------------------------------------------------------------
 Cycle:     67
  WF centre and spread    1  (  0.000000, -0.000000, -2.790391 )     1.71867768
  WF centre and spread    2  (  0.000000,  2.790391,  0.000000 )     1.71867769
  WF centre and spread    3  ( -2.790391,  0.000000,  0.000000 )     1.71867774
  Sum of centres and spreads ( -2.790390,  2.790391, -2.790391 )     5.15603311
 
     67    -0.471E-13     0.0000032541        5.1560349782       0.35  <-- CONV
        O_D=      0.0000000 O_OD=      0.0115934 O_TOT=      5.1560350 <-- SPRD
 Delta: O_D= -0.6185445E-14 O_OD= -0.4039824E-13 O_TOT= -0.4707346E-13 <-- DLTA
 ------------------------------------------------------------------------------
 Cycle:     68
  WF centre and spread    1  (  0.000000, -0.000000, -2.790391 )     1.71867768
  WF centre and spread    2  (  0.000000,  2.790391,  0.000000 )     1.71867769
  WF centre and spread    3  ( -2.790391,  0.000000,  0.000000 )     1.71867774
  Sum of centres and spreads ( -2.790390,  2.790391, -2.790391 )     5.15603311
 
     68    -0.924E-13     0.0000032533        5.1560349782       0.35  <-- CONV
        O_D=      0.0000000 O_OD=      0.0115934 O_TOT=      5.1560350 <-- SPRD
 Delta: O_D= -0.1235873E-13 O_OD= -0.8077219E-13 O_TOT= -0.9237056E-13 <-- DLTA
 ------------------------------------------------------------------------------
 Cycle:     69
  WF centre and spread    1  (  0.000000, -0.000000, -2.790391 )     1.71867768
  WF centre and spread    2  (  0.000000,  2.790391,  0.000000 )     1.71867769
  WF centre and spread    3  ( -2.790391,  0.000000,  0.000000 )     1.71867774
  Sum of centres and spreads ( -2.790390,  2.790391, -2.790391 )     5.15603311
 
     69    -0.140E-12     0.0000032518        5.1560349782       0.36  <-- CONV
        O_D=      0.0000000 O_OD=      0.0115934 O_TOT=      5.1560350 <-- SPRD
 Delta: O_D= -0.1850488E-13 O_OD= -0.1210421E-12 O_TOT= -0.1403322E-12 <-- DLTA
 ------------------------------------------------------------------------------
 Cycle:     70
  WF centre and spread    1  (  0.000000, -0.000000, -2.790391 )     1.71867768
  WF centre and spread    2  (  0.000000,  2.790391,  0.000000 )     1.71867769
  WF centre and spread    3  ( -2.790391,  0.000000,  0.000000 )     1.71867774
  Sum of centres and spreads ( -2.790390,  2.790391, -2.790391 )     5.15603311
 
     70    -0.186E-12     0.0000032495        5.1560349782       0.36  <-- CONV
        O_D=      0.0000000 O_OD=      0.0115934 O_TOT=      5.1560350 <-- SPRD
 Delta: O_D= -0.2460922E-13 O_OD= -0.1610084E-12 O_TOT= -0.1856293E-12 <-- DLTA
 ------------------------------------------------------------------------------
 Cycle:     71
  WF centre and spread    1  (  0.000000, -0.000000, -2.790391 )     1.71867768
  WF centre and spread    2  (  0.000000,  2.790391,  0.000000 )     1.71867769
  WF centre and spread    3  ( -2.790391,  0.000000,  0.000000 )     1.71867774
  Sum of centres and spreads ( -2.790390,  2.790391, -2.790391 )     5.15603311
 
     71    -0.231E-12     0.0000032465        5.1560349782       0.36  <-- CONV
        O_D=      0.0000000 O_OD=      0.0115934 O_TOT=      5.1560350 <-- SPRD
 Delta: O_D= -0.3065753E-13 O_OD= -0.2008341E-12 O_TOT= -0.2309264E-12 <-- DLTA
 ------------------------------------------------------------------------------
 Cycle:     72
  WF centre and spread    1  (  0.000000, -0.000000, -2.790391 )     1.71867768
  WF centre and spread    2  (  0.000000,  2.790391,  0.000000 )     1.71867769
  WF centre and spread    3  ( -2.790391,  0.000000,  0.000000 )     1.71867774
  Sum of centres and spreads ( -2.790390,  2.790391, -2.790391 )     5.15603311
 
     72    -0.277E-12     0.0000032427        5.1560349782       0.37  <-- CONV
        O_D=      0.0000000 O_OD=      0.0115934 O_TOT=      5.1560350 <-- SPRD
 Delta: O_D= -0.3663624E-13 O_OD= -0.2402713E-12 O_TOT= -0.2771117E-12 <-- DLTA
 ------------------------------------------------------------------------------
 Cycle:     73
  WF centre and spread    1  (  0.000000, -0.000000, -2.790391 )     1.71867768
  WF centre and spread    2  (  0.000000,  2.790391,  0.000000 )     1.71867769
  WF centre and spread    3  ( -2.790391,  0.000000,  0.000000 )     1.71867774
  Sum of centres and spreads ( -2.790390,  2.790391, -2.790391 )     5.15603311
 
     73    -0.462E-13     0.0000032383        5.1560349782       0.37  <-- CONV
        O_D=      0.0000000 O_OD=      0.0115934 O_TOT=      5.1560350 <-- SPRD
 Delta: O_D= -0.6090702E-14 O_OD= -0.4007732E-13 O_TOT= -0.4618528E-13 <-- DLTA
 ------------------------------------------------------------------------------
 Cycle:     74
  WF centre and spread    1  (  0.000000, -0.000000, -2.790391 )     1.71867768
  WF centre and spread    2  (  0.000000,  2.790391,  0.000000 )     1.71867769
  WF centre and spread    3  ( -2.790391,  0.000000,  0.000000 )     1.71867774
  Sum of centres and spreads ( -2.790390,  2.790391, -2.790391 )     5.15603311
 
     74    -0.924E-13     0.0000032375        5.1560349782       0.38  <-- CONV
        O_D=      0.0000000 O_OD=      0.0115934 O_TOT=      5.1560350 <-- SPRD
 Delta: O_D= -0.1217003E-13 O_OD= -0.8005055E-13 O_TOT= -0.9237056E-13 <-- DLTA
 ------------------------------------------------------------------------------
 Cycle:     75
  WF centre and spread    1  (  0.000000, -0.000000, -2.790391 )     1.71867768
  WF centre and spread    2  (  0.000000,  2.790391,  0.000000 )     1.71867769
  WF centre and spread    3  ( -2.790391,  0.000000,  0.000000 )     1.71867774
  Sum of centres and spreads ( -2.790390,  2.790391, -2.790391 )     5.15603311
 
     75    -0.139E-12     0.0000032361        5.1560349782       0.38  <-- CONV
        O_D=      0.0000000 O_OD=      0.0115934 O_TOT=      5.1560350 <-- SPRD
 Delta: O_D= -0.1822401E-13 O_OD= -0.1199787E-12 O_TOT= -0.1385558E-12 <-- DLTA
 ------------------------------------------------------------------------------
 Cycle:     76
  WF centre and spread    1  (  0.000000, -0.000000, -2.790391 )     1.71867768
  WF centre and spread    2  (  0.000000,  2.790391,  0.000000 )     1.71867769
  WF centre and spread    3  ( -2.790391,  0.000000,  0.000000 )     1.71867774
  Sum of centres and spreads ( -2.790390,  2.790391, -2.790391 )     5.15603311
 
     76    -0.184E-12     0.0000032340        5.1560349782       0.38  <-- CONV
        O_D=      0.0000000 O_OD=      0.0115934 O_TOT=      5.1560350 <-- SPRD
 Delta: O_D= -0.2423891E-13 O_OD= -0.1596657E-12 O_TOT= -0.1838529E-12 <-- DLTA
 ------------------------------------------------------------------------------
 Cycle:     77
  WF centre and spread    1  (  0.000000, -0.000000, -2.790391 )     1.71867768
  WF centre and spread    2  (  0.000000,  2.790391,  0.000000 )     1.71867769
  WF centre and spread    3  ( -2.790391,  0.000000,  0.000000 )     1.71867774
  Sum of centres and spreads ( -2.790390,  2.790391, -2.790391 )     5.15603311
 
     77    -0.229E-12     0.0000032311        5.1560349782       0.39  <-- CONV
        O_D=      0.0000000 O_OD=      0.0115934 O_TOT=      5.1560350 <-- SPRD
 Delta: O_D= -0.3020144E-13 O_OD= -0.1991254E-12 O_TOT= -0.2291500E-12 <-- DLTA
 ------------------------------------------------------------------------------
 Cycle:     78
  WF centre and spread    1  (  0.000000, -0.000000, -2.790391 )     1.71867768
  WF centre and spread    2  (  0.000000,  2.790391,  0.000000 )     1.71867769
  WF centre and spread    3  ( -2.790391,  0.000000,  0.000000 )     1.71867774
  Sum of centres and spreads ( -2.790390,  2.790391, -2.790391 )     5.15603311
 
     78    -0.274E-12     0.0000032276        5.1560349782       0.39  <-- CONV
        O_D=      0.0000000 O_OD=      0.0115934 O_TOT=      5.1560350 <-- SPRD
 Delta: O_D= -0.3609889E-13 O_OD= -0.2382365E-12 O_TOT= -0.2735590E-12 <-- DLTA
 ------------------------------------------------------------------------------
 Cycle:     79
  WF centre and spread    1  (  0.000000, -0.000000, -2.790391 )     1.71867768
  WF centre and spread    2  (  0.000000,  2.790391,  0.000000 )     1.71867769
  WF centre and spread    3  ( -2.790391,  0.000000,  0.000000 )     1.71867774
  Sum of centres and spreads ( -2.790390,  2.790391, -2.790391 )     5.15603311
 
     79    -0.462E-13     0.0000032234        5.1560349782       0.39  <-- CONV
        O_D=      0.0000000 O_OD=      0.0115934 O_TOT=      5.1560350 <-- SPRD
 Delta: O_D= -0.6001856E-14 O_OD= -0.3972343E-13 O_TOT= -0.4618528E-13 <-- DLTA
 ------------------------------------------------------------------------------
 Cycle:     80
  WF centre and spread    1  (  0.000000, -0.000000, -2.790391 )     1.71867768
  WF centre and spread    2  (  0.000000,  2.790391,  0.000000 )     1.71867769
  WF centre and spread    3  ( -2.790391,  0.000000,  0.000000 )     1.71867774
  Sum of centres and spreads ( -2.790390,  2.790391, -2.790391 )     5.15603311
 
     80    -0.915E-13     0.0000032227        5.1560349782       0.40  <-- CONV
        O_D=      0.0000000 O_OD=      0.0115934 O_TOT=      5.1560350 <-- SPRD
 Delta: O_D= -0.1199306E-13 O_OD= -0.7938789E-13 O_TOT= -0.9148238E-13 <-- DLTA
 ------------------------------------------------------------------------------
 Cycle:     81
  WF centre and spread    1  (  0.000000, -0.000000, -2.790391 )     1.71867768
  WF centre and spread    2  (  0.000000,  2.790391,  0.000000 )     1.71867769
  WF centre and spread    3  ( -2.790391,  0.000000,  0.000000 )     1.71867774
  Sum of centres and spreads ( -2.790390,  2.790391, -2.790391 )     5.15603311
 
     81    -0.137E-12     0.0000032214        5.1560349782       0.40  <-- CONV
        O_D=      0.0000000 O_OD=      0.0115934 O_TOT=      5.1560350 <-- SPRD
 Delta: O_D= -0.1796054E-13 O_OD= -0.1190038E-12 O_TOT= -0.1367795E-12 <-- DLTA
 ------------------------------------------------------------------------------
 Cycle:     82
  WF centre and spread    1  (  0.000000, -0.000000, -2.790391 )     1.71867768
  WF centre and spread    2  (  0.000000,  2.790391,  0.000000 )     1.71867769
  WF centre and spread    3  ( -2.790391,  0.000000,  0.000000 )     1.71867774
  Sum of centres and spreads ( -2.790390,  2.790391, -2.790391 )     5.15603311
 
     82    -0.183E-12     0.0000032193        5.1560349782       0.41  <-- CONV
        O_D=      0.0000000 O_OD=      0.0115934 O_TOT=      5.1560350 <-- SPRD
 Delta: O_D= -0.2389145E-13 O_OD= -0.1583768E-12 O_TOT= -0.1829648E-12 <-- DLTA
 ------------------------------------------------------------------------------
 Cycle:     83
  WF centre and spread    1  (  0.000000, -0.000000, -2.790391 )     1.71867768
  WF centre and spread    2  (  0.000000,  2.790391,  0.000000 )     1.71867769
  WF centre and spread    3  ( -2.790391,  0.000000,  0.000000 )     1.71867774
  Sum of centres and spreads ( -2.790390,  2.790391, -2.790391 )     5.15603311
 
     83    -0.226E-12     0.0000032167        5.1560349782       0.41  <-- CONV
        O_D=      0.0000000 O_OD=      0.0115934 O_TOT=      5.1560350 <-- SPRD
 Delta: O_D= -0.2977335E-13 O_OD= -0.1975312E-12 O_TOT= -0.2264855E-12 <-- DLTA
 ------------------------------------------------------------------------------
 Cycle:     84
  WF centre and spread    1  (  0.000000, -0.000000, -2.790391 )     1.71867768
  WF centre and spread    2  (  0.000000,  2.790391,  0.000000 )     1.71867769
  WF centre and spread    3  ( -2.790391,  0.000000,  0.000000 )     1.71867774
  Sum of centres and spreads ( -2.790390,  2.790391, -2.790391 )     5.15603311
 
     84    -0.272E-12     0.0000032134        5.1560349782       0.41  <-- CONV
        O_D=      0.0000000 O_OD=      0.0115934 O_TOT=      5.1560350 <-- SPRD
 Delta: O_D= -0.3559428E-13 O_OD= -0.2363838E-12 O_TOT= -0.2717826E-12 <-- DLTA
 ------------------------------------------------------------------------------
 Cycle:     85
  WF centre and spread    1  (  0.000000, -0.000000, -2.790391 )     1.71867768
  WF centre and spread    2  (  0.000000,  2.790391,  0.000000 )     1.71867769
  WF centre and spread    3  ( -2.790391,  0.000000,  0.000000 )     1.71867774
  Sum of centres and spreads ( -2.790390,  2.790391, -2.790391 )     5.15603311
 
     85    -0.462E-13     0.0000032094        5.1560349782       0.42  <-- CONV
        O_D=      0.0000000 O_OD=      0.0115934 O_TOT=      5.1560350 <-- SPRD
 Delta: O_D= -0.5918425E-14 O_OD= -0.3940251E-13 O_TOT= -0.4618528E-13 <-- DLTA
 ------------------------------------------------------------------------------
 Cycle:     86
  WF centre and spread    1  (  0.000000, -0.000000, -2.790391 )     1.71867768
  WF centre and spread    2  (  0.000000,  2.790391,  0.000000 )     1.71867769
  WF centre and spread    3  ( -2.790391,  0.000000,  0.000000 )     1.71867774
  Sum of centres and spreads ( -2.790390,  2.790391, -2.790391 )     5.15603311
 
     86    -0.897E-13     0.0000032088        5.1560349782       0.42  <-- CONV
        O_D=      0.0000000 O_OD=      0.0115934 O_TOT=      5.1560350 <-- SPRD
 Delta: O_D= -0.1182686E-13 O_OD= -0.7878767E-13 O_TOT= -0.8970602E-13 <-- DLTA
 ------------------------------------------------------------------------------
 Cycle:     87
  WF centre and spread    1  (  0.000000, -0.000000, -2.790391 )     1.71867768
  WF centre and spread    2  (  0.000000,  2.790391,  0.000000 )     1.71867769
  WF centre and spread    3  ( -2.790391,  0.000000,  0.000000 )     1.71867774
  Sum of centres and spreads ( -2.790390,  2.790391, -2.790391 )     5.15603311
 
     87    -0.136E-12     0.0000032075        5.1560349782       0.42  <-- CONV
        O_D=      0.0000000 O_OD=      0.0115934 O_TOT=      5.1560350 <-- SPRD
 Delta: O_D= -0.1771306E-13 O_OD= -0.1180341E-12 O_TOT= -0.1358913E-12 <-- DLTA
 ------------------------------------------------------------------------------
 Cycle:     88
  WF centre and spread    1  (  0.000000, -0.000000, -2.790391 )     1.71867768
  WF centre and spread    2  (  0.000000,  2.790391,  0.000000 )     1.71867769
  WF centre and spread    3  ( -2.790391,  0.000000,  0.000000 )     1.71867774
  Sum of centres and spreads ( -2.790390,  2.790391, -2.790391 )     5.15603311
 
     88    -0.181E-12     0.0000032056        5.1560349782       0.43  <-- CONV
        O_D=      0.0000000 O_OD=      0.0115934 O_TOT=      5.1560350 <-- SPRD
 Delta: O_D= -0.2356499E-13 O_OD= -0.1571712E-12 O_TOT= -0.1811884E-12 <-- DLTA
 ------------------------------------------------------------------------------
 Cycle:     89
  WF centre and spread    1  (  0.000000, -0.000000, -2.790391 )     1.71867768
  WF centre and spread    2  (  0.000000,  2.790391,  0.000000 )     1.71867769
  WF centre and spread    3  ( -2.790391,  0.000000,  0.000000 )     1.71867774
  Sum of centres and spreads ( -2.790390,  2.790391, -2.790391 )     5.15603311
 
     89    -0.226E-12     0.0000032031        5.1560349782       0.43  <-- CONV
        O_D=      0.0000000 O_OD=      0.0115934 O_TOT=      5.1560350 <-- SPRD
 Delta: O_D= -0.2937096E-13 O_OD= -0.1960394E-12 O_TOT= -0.2255973E-12 <-- DLTA
 ------------------------------------------------------------------------------
 Cycle:     90
  WF centre and spread    1  (  0.000000, -0.000000, -2.790391 )     1.71867768
  WF centre and spread    2  (  0.000000,  2.790391,  0.000000 )     1.71867769
  WF centre and spread    3  ( -2.790391,  0.000000,  0.000000 )     1.71867774
  Sum of centres and spreads ( -2.790390,  2.790391, -2.790391 )     5.15603311
 
     90    -0.269E-12     0.0000032000        5.1560349782       0.44  <-- CONV
        O_D=      0.0000000 O_OD=      0.0115934 O_TOT=      5.1560350 <-- SPRD
 Delta: O_D= -0.3511977E-13 O_OD= -0.2346422E-12 O_TOT= -0.2691181E-12 <-- DLTA
 ------------------------------------------------------------------------------
 Cycle:     91
  WF centre and spread    1  (  0.000000, -0.000000, -2.790391 )     1.71867768
  WF centre and spread    2  (  0.000000,  2.790391,  0.000000 )     1.71867769
  WF centre and spread    3  ( -2.790391,  0.000000,  0.000000 )     1.71867774
  Sum of centres and spreads ( -2.790390,  2.790391, -2.790391 )     5.15603311
 
     91    -0.453E-13     0.0000031963        5.1560349782       0.44  <-- CONV
        O_D=      0.0000000 O_OD=      0.0115934 O_TOT=      5.1560350 <-- SPRD
 Delta: O_D= -0.5839964E-14 O_OD= -0.3915618E-13 O_TOT= -0.4529710E-13 <-- DLTA
 ------------------------------------------------------------------------------
 Cycle:     92
  WF centre and spread    1  (  0.000000, -0.000000, -2.790391 )     1.71867768
  WF centre and spread    2  (  0.000000,  2.790391,  0.000000 )     1.71867769
  WF centre and spread    3  ( -2.790391,  0.000000,  0.000000 )     1.71867774
  Sum of centres and spreads ( -2.790390,  2.790391, -2.790391 )     5.15603311
 
     92    -0.897E-13     0.0000031957        5.1560349782       0.44  <-- CONV
        O_D=      0.0000000 O_OD=      0.0115934 O_TOT=      5.1560350 <-- SPRD
 Delta: O_D= -0.1167055E-13 O_OD= -0.7818052E-13 O_TOT= -0.8970602E-13 <-- DLTA
 ------------------------------------------------------------------------------
 Cycle:     93
  WF centre and spread    1  (  0.000000, -0.000000, -2.790391 )     1.71867768
  WF centre and spread    2  (  0.000000,  2.790391,  0.000000 )     1.71867769
  WF centre and spread    3  ( -2.790391,  0.000000,  0.000000 )     1.71867774
  Sum of centres and spreads ( -2.790390,  2.790391, -2.790391 )     5.15603311
 
     93    -0.135E-12     0.0000031945        5.1560349782       0.45  <-- CONV
        O_D=      0.0000000 O_OD=      0.0115934 O_TOT=      5.1560350 <-- SPRD
 Delta: O_D= -0.1748026E-13 O_OD= -0.1171979E-12 O_TOT= -0.1350031E-12 <-- DLTA
 ------------------------------------------------------------------------------
 Cycle:     94
  WF centre and spread    1  (  0.000000, -0.000000, -2.790391 )     1.71867768
  WF centre and spread    2  (  0.000000,  2.790391,  0.000000 )     1.71867769
  WF centre and spread    3  ( -2.790391,  0.000000,  0.000000 )     1.71867774
  Sum of centres and spreads ( -2.790390,  2.790391, -2.790391 )     5.15603311
 
     94    -0.179E-12     0.0000031927        5.1560349782       0.45  <-- CONV
        O_D=      0.0000000 O_OD=      0.0115934 O_TOT=      5.1560350 <-- SPRD
 Delta: O_D= -0.2325779E-13 O_OD= -0.1560262E-12 O_TOT= -0.1794120E-12 <-- DLTA
 ------------------------------------------------------------------------------
 Cycle:     95
  WF centre and spread    1  (  0.000000, -0.000000, -2.790391 )     1.71867768
  WF centre and spread    2  (  0.000000,  2.790391,  0.000000 )     1.71867769
  WF centre and spread    3  ( -2.790391,  0.000000,  0.000000 )     1.71867774
  Sum of centres and spreads ( -2.790390,  2.790391, -2.790391 )     5.15603311
 
     95    -0.224E-12     0.0000031903        5.1560349782       0.45  <-- CONV
        O_D=      0.0000000 O_OD=      0.0115934 O_TOT=      5.1560350 <-- SPRD
 Delta: O_D= -0.2899219E-13 O_OD= -0.1946464E-12 O_TOT= -0.2238210E-12 <-- DLTA
 ------------------------------------------------------------------------------
 Cycle:     96
  WF centre and spread    1  (  0.000000, -0.000000, -2.790391 )     1.71867768
  WF centre and spread    2  (  0.000000,  2.790391,  0.000000 )     1.71867769
  WF centre and spread    3  ( -2.790391,  0.000000,  0.000000 )     1.71867774
  Sum of centres and spreads ( -2.790390,  2.790391, -2.790391 )     5.15603311
 
     96    -0.267E-12     0.0000031874        5.1560349782       0.46  <-- CONV
        O_D=      0.0000000 O_OD=      0.0115934 O_TOT=      5.1560350 <-- SPRD
 Delta: O_D= -0.3467289E-13 O_OD= -0.2330133E-12 O_TOT= -0.2673417E-12 <-- DLTA
 ------------------------------------------------------------------------------
 Cycle:     97
  WF centre and spread    1  (  0.000000, -0.000000, -2.790391 )     1.71867768
  WF centre and spread    2  (  0.000000,  2.790391,  0.000000 )     1.71867769
  WF centre and spread    3  ( -2.790391,  0.000000,  0.000000 )     1.71867774
  Sum of centres and spreads ( -2.790390,  2.790391, -2.790391 )     5.15603311
 
[...]
  Sum of centres and spreads ( -2.790390,  2.790391, -2.790391 )     5.15603311
 
    473    -0.163E-12     0.0000027232        5.1560349781       1.89  <-- CONV
        O_D=      0.0000000 O_OD=      0.0115934 O_TOT=      5.1560350 <-- SPRD
 Delta: O_D= -0.1468530E-13 O_OD= -0.1484229E-12 O_TOT= -0.1634248E-12 <-- DLTA
 ------------------------------------------------------------------------------
 Cycle:    474
  WF centre and spread    1  (  0.000000, -0.000000, -2.790391 )     1.71867768
  WF centre and spread    2  (  0.000000,  2.790391,  0.000000 )     1.71867769
  WF centre and spread    3  ( -2.790391,  0.000000,  0.000000 )     1.71867774
  Sum of centres and spreads ( -2.790390,  2.790391, -2.790391 )     5.15603311
 
    474    -0.196E-12     0.0000027227        5.1560349781       1.89  <-- CONV
        O_D=      0.0000000 O_OD=      0.0115934 O_TOT=      5.1560350 <-- SPRD
 Delta: O_D= -0.1760588E-13 O_OD= -0.1780989E-12 O_TOT= -0.1962874E-12 <-- DLTA
 ------------------------------------------------------------------------------
 Cycle:    475
  WF centre and spread    1  (  0.000000, -0.000000, -2.790391 )     1.71867768
  WF centre and spread    2  (  0.000000,  2.790391,  0.000000 )     1.71867769
  WF centre and spread    3  ( -2.790391,  0.000000,  0.000000 )     1.71867774
  Sum of centres and spreads ( -2.790390,  2.790391, -2.790391 )     5.15603311
 
    475    -0.320E-13     0.0000027221        5.1560349781       1.90  <-- CONV
        O_D=      0.0000000 O_OD=      0.0115934 O_TOT=      5.1560350 <-- SPRD
 Delta: O_D= -0.2930901E-14 O_OD= -0.2966898E-13 O_TOT= -0.3197442E-13 <-- DLTA
 ------------------------------------------------------------------------------
 Cycle:    476
  WF centre and spread    1  (  0.000000, -0.000000, -2.790391 )     1.71867768
  WF centre and spread    2  (  0.000000,  2.790391,  0.000000 )     1.71867769
  WF centre and spread    3  ( -2.790391,  0.000000,  0.000000 )     1.71867774
  Sum of centres and spreads ( -2.790390,  2.790391, -2.790391 )     5.15603311
 
    476    -0.657E-13     0.0000027220        5.1560349781       1.90  <-- CONV
        O_D=      0.0000000 O_OD=      0.0115934 O_TOT=      5.1560350 <-- SPRD
 Delta: O_D= -0.5860457E-14 O_OD= -0.5936744E-13 O_TOT= -0.6572520E-13 <-- DLTA
 ------------------------------------------------------------------------------
 Cycle:    477
  WF centre and spread    1  (  0.000000, -0.000000, -2.790391 )     1.71867768
  WF centre and spread    2  (  0.000000,  2.790391,  0.000000 )     1.71867769
  WF centre and spread    3  ( -2.790391,  0.000000,  0.000000 )     1.71867774
  Sum of centres and spreads ( -2.790390,  2.790391, -2.790391 )     5.15603311
 
    477    -0.977E-13     0.0000027218        5.1560349781       1.90  <-- CONV
        O_D=      0.0000000 O_OD=      0.0115934 O_TOT=      5.1560350 <-- SPRD
 Delta: O_D= -0.8787125E-14 O_OD= -0.8902427E-13 O_TOT= -0.9769963E-13 <-- DLTA
 ------------------------------------------------------------------------------
 Cycle:    478
  WF centre and spread    1  (  0.000000, -0.000000, -2.790391 )     1.71867768
  WF centre and spread    2  (  0.000000,  2.790391,  0.000000 )     1.71867769
  WF centre and spread    3  ( -2.790391,  0.000000,  0.000000 )     1.71867774
  Sum of centres and spreads ( -2.790390,  2.790391, -2.790391 )     5.15603311
 
    478    -0.131E-12     0.0000027215        5.1560349781       1.91  <-- CONV
        O_D=      0.0000000 O_OD=      0.0115934 O_TOT=      5.1560350 <-- SPRD
 Delta: O_D= -0.1170935E-13 O_OD= -0.1186742E-12 O_TOT= -0.1305622E-12 <-- DLTA
 ------------------------------------------------------------------------------
 Cycle:    479
  WF centre and spread    1  (  0.000000, -0.000000, -2.790391 )     1.71867768
  WF centre and spread    2  (  0.000000,  2.790391,  0.000000 )     1.71867769
  WF centre and spread    3  ( -2.790391,  0.000000,  0.000000 )     1.71867774
  Sum of centres and spreads ( -2.790390,  2.790391, -2.790391 )     5.15603311
 
    479    -0.163E-12     0.0000027212        5.1560349781       1.91  <-- CONV
        O_D=      0.0000000 O_OD=      0.0115934 O_TOT=      5.1560350 <-- SPRD
 Delta: O_D= -0.1462561E-13 O_OD= -0.1483015E-12 O_TOT= -0.1625367E-12 <-- DLTA
 ------------------------------------------------------------------------------
 Cycle:    480
  WF centre and spread    1  (  0.000000, -0.000000, -2.790391 )     1.71867768
  WF centre and spread    2  (  0.000000,  2.790391,  0.000000 )     1.71867769
  WF centre and spread    3  ( -2.790391,  0.000000,  0.000000 )     1.71867774
  Sum of centres and spreads ( -2.790390,  2.790391, -2.790391 )     5.15603311
 
    480    -0.195E-12     0.0000027207        5.1560349781       1.92  <-- CONV
        O_D=      0.0000000 O_OD=      0.0115934 O_TOT=      5.1560350 <-- SPRD
 Delta: O_D= -0.1753435E-13 O_OD= -0.1778230E-12 O_TOT= -0.1953993E-12 <-- DLTA
 ------------------------------------------------------------------------------
 Cycle:    481
  WF centre and spread    1  (  0.000000, -0.000000, -2.790391 )     1.71867768
  WF centre and spread    2  (  0.000000,  2.790391,  0.000000 )     1.71867769
  WF centre and spread    3  ( -2.790391,  0.000000,  0.000000 )     1.71867774
  Sum of centres and spreads ( -2.790390,  2.790391, -2.790391 )     5.15603311
 
    481    -0.329E-13     0.0000027201        5.1560349781       1.92  <-- CONV
        O_D=      0.0000000 O_OD=      0.0115934 O_TOT=      5.1560350 <-- SPRD
 Delta: O_D= -0.2918990E-14 O_OD= -0.2966030E-13 O_TOT= -0.3286260E-13 <-- DLTA
 ------------------------------------------------------------------------------
 Cycle:    482
  WF centre and spread    1  (  0.000000, -0.000000, -2.790391 )     1.71867768
  WF centre and spread    2  (  0.000000,  2.790391,  0.000000 )     1.71867769
  WF centre and spread    3  ( -2.790391,  0.000000,  0.000000 )     1.71867774
  Sum of centres and spreads ( -2.790390,  2.790391, -2.790391 )     5.15603311
 
    482    -0.648E-13     0.0000027200        5.1560349781       1.92  <-- CONV
        O_D=      0.0000000 O_OD=      0.0115934 O_TOT=      5.1560350 <-- SPRD
 Delta: O_D= -0.5836648E-14 O_OD= -0.5926856E-13 O_TOT= -0.6483702E-13 <-- DLTA
 ------------------------------------------------------------------------------
 Cycle:    483
  WF centre and spread    1  (  0.000000, -0.000000, -2.790391 )     1.71867768
  WF centre and spread    2  (  0.000000,  2.790391,  0.000000 )     1.71867769
  WF centre and spread    3  ( -2.790391,  0.000000,  0.000000 )     1.71867774
  Sum of centres and spreads ( -2.790390,  2.790391, -2.790391 )     5.15603311
 
    483    -0.977E-13     0.0000027198        5.1560349781       1.93  <-- CONV
        O_D=      0.0000000 O_OD=      0.0115934 O_TOT=      5.1560350 <-- SPRD
 Delta: O_D= -0.8751428E-14 O_OD= -0.8892193E-13 O_TOT= -0.9769963E-13 <-- DLTA
 ------------------------------------------------------------------------------
 Cycle:    484
  WF centre and spread    1  (  0.000000, -0.000000, -2.790391 )     1.71867768
  WF centre and spread    2  (  0.000000,  2.790391,  0.000000 )     1.71867769
  WF centre and spread    3  ( -2.790391,  0.000000,  0.000000 )     1.71867774
  Sum of centres and spreads ( -2.790390,  2.790391, -2.790391 )     5.15603311
 
    484    -0.131E-12     0.0000027195        5.1560349781       1.93  <-- CONV
        O_D=      0.0000000 O_OD=      0.0115934 O_TOT=      5.1560350 <-- SPRD
 Delta: O_D= -0.1166180E-13 O_OD= -0.1184903E-12 O_TOT= -0.1305622E-12 <-- DLTA
 ------------------------------------------------------------------------------
 Cycle:    485
  WF centre and spread    1  (  0.000000, -0.000000, -2.790391 )     1.71867768
  WF centre and spread    2  (  0.000000,  2.790391,  0.000000 )     1.71867769
  WF centre and spread    3  ( -2.790391,  0.000000,  0.000000 )     1.71867774
  Sum of centres and spreads ( -2.790390,  2.790391, -2.790391 )     5.15603311
 
    485    -0.163E-12     0.0000027191        5.1560349781       1.93  <-- CONV
        O_D=      0.0000000 O_OD=      0.0115934 O_TOT=      5.1560350 <-- SPRD
 Delta: O_D= -0.1456623E-13 O_OD= -0.1481246E-12 O_TOT= -0.1625367E-12 <-- DLTA
 ------------------------------------------------------------------------------
 Cycle:    486
  WF centre and spread    1  (  0.000000, -0.000000, -2.790391 )     1.71867768
  WF centre and spread    2  (  0.000000,  2.790391,  0.000000 )     1.71867769
  WF centre and spread    3  ( -2.790391,  0.000000,  0.000000 )     1.71867774
  Sum of centres and spreads ( -2.790390,  2.790391, -2.790391 )     5.15603311
 
    486    -0.195E-12     0.0000027187        5.1560349781       1.94  <-- CONV
        O_D=      0.0000000 O_OD=      0.0115934 O_TOT=      5.1560350 <-- SPRD
 Delta: O_D= -0.1746319E-13 O_OD= -0.1776548E-12 O_TOT= -0.1953993E-12 <-- DLTA
 ------------------------------------------------------------------------------
 Cycle:    487
  WF centre and spread    1  (  0.000000, -0.000000, -2.790391 )     1.71867768
  WF centre and spread    2  (  0.000000,  2.790391,  0.000000 )     1.71867769
  WF centre and spread    3  ( -2.790391,  0.000000,  0.000000 )     1.71867774
  Sum of centres and spreads ( -2.790390,  2.790391, -2.790391 )     5.15603311
 
    487    -0.320E-13     0.0000027181        5.1560349781       1.94  <-- CONV
        O_D=      0.0000000 O_OD=      0.0115934 O_TOT=      5.1560350 <-- SPRD
 Delta: O_D= -0.2907144E-14 O_OD= -0.2960479E-13 O_TOT= -0.3197442E-13 <-- DLTA
 ------------------------------------------------------------------------------
 Cycle:    488
  WF centre and spread    1  (  0.000000, -0.000000, -2.790391 )     1.71867768
  WF centre and spread    2  (  0.000000,  2.790391,  0.000000 )     1.71867769
  WF centre and spread    3  ( -2.790391,  0.000000,  0.000000 )     1.71867774
  Sum of centres and spreads ( -2.790390,  2.790391, -2.790391 )     5.15603311
 
    488    -0.657E-13     0.0000027180        5.1560349781       1.95  <-- CONV
        O_D=      0.0000000 O_OD=      0.0115934 O_TOT=      5.1560350 <-- SPRD
 Delta: O_D= -0.5812961E-14 O_OD= -0.5922172E-13 O_TOT= -0.6572520E-13 <-- DLTA
 ------------------------------------------------------------------------------
 Cycle:    489
  WF centre and spread    1  (  0.000000, -0.000000, -2.790391 )     1.71867768
  WF centre and spread    2  (  0.000000,  2.790391,  0.000000 )     1.71867769
  WF centre and spread    3  ( -2.790391,  0.000000,  0.000000 )     1.71867774
  Sum of centres and spreads ( -2.790390,  2.790391, -2.790391 )     5.15603311
 
    489    -0.968E-13     0.0000027178        5.1560349781       1.95  <-- CONV
        O_D=      0.0000000 O_OD=      0.0115934 O_TOT=      5.1560350 <-- SPRD
 Delta: O_D= -0.8715920E-14 O_OD= -0.8879703E-13 O_TOT= -0.9681145E-13 <-- DLTA
 ------------------------------------------------------------------------------
 Cycle:    490
  WF centre and spread    1  (  0.000000, -0.000000, -2.790391 )     1.71867768
  WF centre and spread    2  (  0.000000,  2.790391,  0.000000 )     1.71867769
  WF centre and spread    3  ( -2.790391,  0.000000,  0.000000 )     1.71867774
  Sum of centres and spreads ( -2.790390,  2.790391, -2.790391 )     5.15603311
 
    490    -0.131E-12     0.0000027175        5.1560349781       1.95  <-- CONV
        O_D=      0.0000000 O_OD=      0.0115934 O_TOT=      5.1560350 <-- SPRD
 Delta: O_D= -0.1161449E-13 O_OD= -0.1183862E-12 O_TOT= -0.1305622E-12 <-- DLTA
 ------------------------------------------------------------------------------
 Cycle:    491
  WF centre and spread    1  (  0.000000, -0.000000, -2.790391 )     1.71867768
  WF centre and spread    2  (  0.000000,  2.790391,  0.000000 )     1.71867769
  WF centre and spread    3  ( -2.790391,  0.000000,  0.000000 )     1.71867774
  Sum of centres and spreads ( -2.790390,  2.790391, -2.790391 )     5.15603311
 
    491    -0.162E-12     0.0000027171        5.1560349781       1.96  <-- CONV
        O_D=      0.0000000 O_OD=      0.0115934 O_TOT=      5.1560350 <-- SPRD
 Delta: O_D= -0.1450716E-13 O_OD= -0.1479390E-12 O_TOT= -0.1616485E-12 <-- DLTA
 ------------------------------------------------------------------------------
 Cycle:    492
  WF centre and spread    1  (  0.000000, -0.000000, -2.790391 )     1.71867768
  WF centre and spread    2  (  0.000000,  2.790391,  0.000000 )     1.71867769
  WF centre and spread    3  ( -2.790391,  0.000000,  0.000000 )     1.71867774
  Sum of centres and spreads ( -2.790390,  2.790391, -2.790391 )     5.15603311
 
    492    -0.195E-12     0.0000027167        5.1560349781       1.96  <-- CONV
        O_D=      0.0000000 O_OD=      0.0115934 O_TOT=      5.1560350 <-- SPRD
 Delta: O_D= -0.1739241E-13 O_OD= -0.1774084E-12 O_TOT= -0.1945111E-12 <-- DLTA
 ------------------------------------------------------------------------------
 Cycle:    493
  WF centre and spread    1  (  0.000000, -0.000000, -2.790391 )     1.71867768
  WF centre and spread    2  (  0.000000,  2.790391,  0.000000 )     1.71867769
  WF centre and spread    3  ( -2.790391,  0.000000,  0.000000 )     1.71867774
  Sum of centres and spreads ( -2.790390,  2.790391, -2.790391 )     5.15603311
 
    493    -0.338E-13     0.0000027161        5.1560349781       1.96  <-- CONV
        O_D=      0.0000000 O_OD=      0.0115934 O_TOT=      5.1560350 <-- SPRD
 Delta: O_D= -0.2895358E-14 O_OD= -0.2958571E-13 O_TOT= -0.3375078E-13 <-- DLTA
 ------------------------------------------------------------------------------
 Cycle:    494
  WF centre and spread    1  (  0.000000, -0.000000, -2.790391 )     1.71867768
  WF centre and spread    2  (  0.000000,  2.790391,  0.000000 )     1.71867769
  WF centre and spread    3  ( -2.790391,  0.000000,  0.000000 )     1.71867774
  Sum of centres and spreads ( -2.790390,  2.790391, -2.790391 )     5.15603311
 
    494    -0.639E-13     0.0000027160        5.1560349781       1.97  <-- CONV
        O_D=      0.0000000 O_OD=      0.0115934 O_TOT=      5.1560350 <-- SPRD
 Delta: O_D= -0.5789398E-14 O_OD= -0.5914019E-13 O_TOT= -0.6394885E-13 <-- DLTA
 ------------------------------------------------------------------------------
 Cycle:    495
  WF centre and spread    1  (  0.000000, -0.000000, -2.790391 )     1.71867768
  WF centre and spread    2  (  0.000000,  2.790391,  0.000000 )     1.71867769
  WF centre and spread    3  ( -2.790391,  0.000000,  0.000000 )     1.71867774
  Sum of centres and spreads ( -2.790390,  2.790391, -2.790391 )     5.15603311
 
    495    -0.977E-13     0.0000027158        5.1560349781       1.97  <-- CONV
        O_D=      0.0000000 O_OD=      0.0115934 O_TOT=      5.1560350 <-- SPRD
 Delta: O_D= -0.8680595E-14 O_OD= -0.8871723E-13 O_TOT= -0.9769963E-13 <-- DLTA
 ------------------------------------------------------------------------------
 Cycle:    496
  WF centre and spread    1  (  0.000000, -0.000000, -2.790391 )     1.71867768
  WF centre and spread    2  (  0.000000,  2.790391,  0.000000 )     1.71867769
  WF centre and spread    3  ( -2.790391,  0.000000,  0.000000 )     1.71867774
  Sum of centres and spreads ( -2.790390,  2.790391, -2.790391 )     5.15603311
 
    496    -0.130E-12     0.0000027155        5.1560349781       1.98  <-- CONV
        O_D=      0.0000000 O_OD=      0.0115934 O_TOT=      5.1560350 <-- SPRD
 Delta: O_D= -0.1156743E-13 O_OD= -0.1182266E-12 O_TOT= -0.1296740E-12 <-- DLTA
 ------------------------------------------------------------------------------
 Cycle:    497
  WF centre and spread    1  (  0.000000, -0.000000, -2.790391 )     1.71867768
  WF centre and spread    2  (  0.000000,  2.790391,  0.000000 )     1.71867769
  WF centre and spread    3  ( -2.790391,  0.000000,  0.000000 )     1.71867774
  Sum of centres and spreads ( -2.790390,  2.790391, -2.790391 )     5.15603311
 
    497    -0.162E-12     0.0000027152        5.1560349781       1.98  <-- CONV
        O_D=      0.0000000 O_OD=      0.0115934 O_TOT=      5.1560350 <-- SPRD
 Delta: O_D= -0.1444840E-13 O_OD= -0.1477030E-12 O_TOT= -0.1616485E-12 <-- DLTA
 ------------------------------------------------------------------------------
 Cycle:    498
  WF centre and spread    1  (  0.000000, -0.000000, -2.790391 )     1.71867768
  WF centre and spread    2  (  0.000000,  2.790391,  0.000000 )     1.71867769
  WF centre and spread    3  ( -2.790391,  0.000000,  0.000000 )     1.71867774
  Sum of centres and spreads ( -2.790390,  2.790391, -2.790391 )     5.15603311
 
    498    -0.195E-12     0.0000027147        5.1560349781       1.98  <-- CONV
        O_D=      0.0000000 O_OD=      0.0115934 O_TOT=      5.1560350 <-- SPRD
 Delta: O_D= -0.1732198E-13 O_OD= -0.1772280E-12 O_TOT= -0.1953993E-12 <-- DLTA
 ------------------------------------------------------------------------------
 Cycle:    499
  WF centre and spread    1  (  0.000000, -0.000000, -2.790391 )     1.71867768
  WF centre and spread    2  (  0.000000,  2.790391,  0.000000 )     1.71867769
  WF centre and spread    3  ( -2.790391,  0.000000,  0.000000 )     1.71867774
  Sum of centres and spreads ( -2.790390,  2.790391, -2.790391 )     5.15603311
 
    499    -0.320E-13     0.0000027141        5.1560349781       1.99  <-- CONV
        O_D=      0.0000000 O_OD=      0.0115934 O_TOT=      5.1560350 <-- SPRD
 Delta: O_D= -0.2883635E-14 O_OD= -0.2956316E-13 O_TOT= -0.3197442E-13 <-- DLTA
 ------------------------------------------------------------------------------
 Cycle:    500
  WF centre and spread    1  (  0.000000, -0.000000, -2.790391 )     1.71867768
  WF centre and spread    2  (  0.000000,  2.790391,  0.000000 )     1.71867769
  WF centre and spread    3  ( -2.790391,  0.000000,  0.000000 )     1.71867774
  Sum of centres and spreads ( -2.790390,  2.790391, -2.790391 )     5.15603311
 
    500    -0.657E-13     0.0000027140        5.1560349781       1.99  <-- CONV
        O_D=      0.0000000 O_OD=      0.0115934 O_TOT=      5.1560350 <-- SPRD
 Delta: O_D= -0.5765958E-14 O_OD= -0.5906560E-13 O_TOT= -0.6572520E-13 <-- DLTA
 ------------------------------------------------------------------------------

 Writing checkpoint file mp-1342.chk... done

 Final State
  WF centre and spread    1  (  0.000000, -0.000000, -2.790391 )     1.71867768
  WF centre and spread    2  (  0.000000,  2.790391,  0.000000 )     1.71867769
  WF centre and spread    3  ( -2.790391,  0.000000,  0.000000 )     1.71867774
  Sum of centres and spreads ( -2.790390,  2.790391, -2.790391 )     5.15603311
 
         Spreads (Ang^2)       Omega I      =     5.144441595
        ================       Omega D      =     0.000000000
                               Omega OD     =     0.011593383
    Final Spread (Ang^2)       Omega Total  =     5.156034978
 ------------------------------------------------------------------------------
 Time for wannierise            1.990 (sec)

 Writing checkpoint file mp-1342.chk... done

 Time for plotting              0.000 (sec)
 Total Execution Time           3.278 (sec)

 *===========================================================================*
 |                             TIMING INFORMATION                            |
 *===========================================================================*
 |    Tag                                                Ncalls      Time (s)|
 |---------------------------------------------------------------------------|
 |kmesh: get                                        :         1         1.037|
 |overlap: allocate                                 :         1         0.002|
 |overlap: read                                     :         1         0.147|
 |wann: main                                        :         1         1.990|
 |plot: main                                        :         1         0.000|
 *---------------------------------------------------------------------------*
 
 All done: wannier90 exiting
