 
             +---------------------------------------------------+
             |                                                   |
             |                   WANNIER90                       |
             |                                                   |
             +---------------------------------------------------+
             |                                                   |
             |        Welcome to the Maximally-Localized         |
             |        Generalized Wannier Functions code         |
             |            http://www.wannier.org                 |
             |                                                   |
             |                                                   |
             |  Wannier90 Developer Group:                       |
             |    Giovanni Pizzi    (EPFL)                       |
             |    Valerio Vitale    (Cambridge)                  |
             |    David Vanderbilt  (Rutgers University)         |
             |    Nicola Marzari    (EPFL)                       |
             |    Ivo Souza         (Universidad del Pais Vasco) |
             |    Arash A. Mostofi  (Imperial College London)    |
             |    Jonathan R. Yates (University of Oxford)       |
             |                                                   |
             |  For the full list of Wannier90 3.x authors,      |
             |  please check the code documentation and the      |
             |  README on the GitHub page of the code            |
             |                                                   |
             |                                                   |
             |  Please cite                                      |
             |                                                   |
             |  [ref] "Wannier90 as a community code:            |
             |        new features and applications",            |
             |        G. Pizzi et al., J. Phys. Cond. Matt. 32,  |
             |        165902 (2020).                             |
             |        http://doi.org/10.1088/1361-648X/ab51ff    |
             |                                                   |
             |  in any publications arising from the use of      |
             |  this code. For the method please cite            |
             |                                                   |
             |  [ref] "Maximally Localized Generalised Wannier   |
             |         Functions for Composite Energy Bands"     |
             |         N. Marzari and D. Vanderbilt              |
             |         Phys. Rev. B 56 12847 (1997)              |
             |                                                   |
             |  [ref] "Maximally Localized Wannier Functions     |
             |         for Entangled Energy Bands"               |
             |         I. Souza, N. Marzari and D. Vanderbilt    |
             |         Phys. Rev. B 65 035109 (2001)             |
             |                                                   |
             |                                                   |
             | Copyright (c) 1996-2020                           |
             |        The Wannier90 Developer Group and          |
             |        individual contributors                    |
             |                                                   |
             |      Release: 3.1.0        5th March    2020      |
             |                                                   |
             | This program is free software; you can            |
             | redistribute it and/or modify it under the terms  |
             | of the GNU General Public License as published by |
             | the Free Software Foundation; either version 2 of |
             | the License, or (at your option) any later version|
             |                                                   |
             | This program is distributed in the hope that it   |
             | will be useful, but WITHOUT ANY WARRANTY; without |
             | even the implied warranty of MERCHANTABILITY or   |
             | FITNESS FOR A PARTICULAR PURPOSE. See the GNU     |
             | General Public License for more details.          |
             |                                                   |
             | You should have received a copy of the GNU General|
             | Public License along with this program; if not,   |
             | write to the Free Software Foundation, Inc.,      |
             | 675 Mass Ave, Cambridge, MA 02139, USA.           |
             |                                                   |
             +---------------------------------------------------+
             |    Execution started on  8Apr2024 at 15:15:15     |
             +---------------------------------------------------+
 
 ******************************************************************************
 * -> Using CODATA 2006 constant values                                       *
 *    (http://physics.nist.gov/cuu/Constants/index.html)                      *
 * -> Using Bohr value from CODATA                                            *
 ******************************************************************************
 

 Running in parallel on  16 CPUs

 
                                    ------
                                    SYSTEM
                                    ------
 
                              Lattice Vectors (Ang)
                    a_1    -2.790391   0.000000   2.790391
                    a_2     0.000000   2.790391   2.790391
                    a_3    -2.790391   2.790391   0.000000
 
                   Unit Cell Volume:      43.45354  (Ang^3)
 
                        Reciprocal-Space Vectors (Ang^-1)
                    b_1    -1.125861  -1.125861   1.125861
                    b_2     1.125861   1.125861   1.125861
                    b_3    -1.125861   1.125861  -1.125861
  
 *----------------------------------------------------------------------------*
 |   Site       Fractional Coordinate          Cartesian Coordinate (Ang)     |
 +----------------------------------------------------------------------------+
 | Ba   1   0.00000   0.00000   0.00000   |    0.00000   0.00000   0.00000    |
 | O    1   0.50000   0.50000   0.50000   |   -2.79039   2.79039   2.79039    |
 *----------------------------------------------------------------------------*
                                ------------
                                K-POINT GRID
                                ------------
  
             Grid size = 12 x 12 x 12      Total points = 1728
  
  
 *---------------------------------- MAIN ------------------------------------*
 |  Number of Wannier Functions               :                 3             |
 |  Number of Objective Wannier Functions     :                 3             |
 |  Number of input Bloch states              :                 3             |
 |  Output verbosity (1=low, 5=high)          :                 1             |
 |  Timing Level (1=low, 5=high)              :                 1             |
 |  Optimisation (0=memory, 3=speed)          :                 3             |
 |  Length Unit                               :               Ang             |
 |  Post-processing setup (write *.nnkp)      :                 F             |
 |  Using Gamma-only branch of algorithms     :                 F             |
 *----------------------------------------------------------------------------*
 *------------------------------- WANNIERISE ---------------------------------*
 |  Total number of iterations                :               500             |
 |  Number of CG steps before reset           :                 5             |
 |  Trial step length for line search         :             2.000             |
 |  Convergence tolerence                     :         0.100E-09             |
 |  Convergence window                        :                -1             |
 |  Iterations between writing output         :                 1             |
 |  Iterations between backing up to disk     :               100             |
 |  Write r^2_nm to file                      :                 F             |
 |  Write xyz WF centres to file              :                 F             |
 |  Write on-site energies <0n|H|0n> to file  :                 F             |
 |  Use guiding centre to control phases      :                 F             |
 |  Use phases for initial projections        :                 F             |
 *----------------------------------------------------------------------------*
 Time to read parameters        0.121 (sec)

 *---------------------------------- K-MESH ----------------------------------*
 +----------------------------------------------------------------------------+
 |                    Distance to Nearest-Neighbour Shells                    |
 |                    ------------------------------------                    |
 |          Shell             Distance (Ang^-1)          Multiplicity         |
 |          -----             -----------------          ------------         |
 |             1                   0.162504                      8            |
 |             2                   0.187644                      6            |
 |             3                   0.265368                     12            |
 |             4                   0.311172                     24            |
 |             5                   0.325008                      8            |
 |             6                   0.375287                      6            |
 |             7                   0.408960                     24            |
 |             8                   0.419584                     24            |
 |             9                   0.459631                     24            |
 |            10                   0.487512                     32            |
 |            11                   0.530736                     12            |
 |            12                   0.555057                     48            |
 |            13                   0.562931                     30            |
 |            14                   0.593381                     24            |
 |            15                   0.615230                     24            |
 |            16                   0.622343                     24            |
 |            17                   0.650016                      8            |
 |            18                   0.670021                     48            |
 |            19                   0.676558                     24            |
 |            20                   0.702098                     48            |
 |            21                   0.720659                     72            |
 |            22                   0.750574                      6            |
 |            23                   0.767964                     24            |
 |            24                   0.773674                     48            |
 |            25                   0.796104                     36            |
 |            26                   0.812520                     56            |
 |            27                   0.817919                     24            |
 |            28                   0.839167                     24            |
 |            29                   0.854757                     72            |
 |            30                   0.859891                     48            |
 |            31                   0.880126                     24            |
 |            32                   0.895003                     48            |
 |            33                   0.919262                     24            |
 |            34                   0.933515                     72            |
 |            35                   0.938218                     30            |
 |            36                   0.956798                     72            |
 +----------------------------------------------------------------------------+
 | The b-vectors are chosen automatically                                     |
 | The following shells are used:   1                                         |
 +----------------------------------------------------------------------------+
 |                        Shell   # Nearest-Neighbours                        |
 |                        -----   --------------------                        |
 |                          1               8                                 |
 +----------------------------------------------------------------------------+
 | Completeness relation is fully satisfied [Eq. (B1), PRB 56, 12847 (1997)]  |
 +----------------------------------------------------------------------------+
 |                  b_k Vectors (Ang^-1) and Weights (Ang^2)                  |
 |                  ----------------------------------------                  |
 |            No.         b_k(x)      b_k(y)      b_k(z)        w_b           |
 |            ---        --------------------------------     --------        |
 |             1        -0.093822    0.093822   -0.093822    14.200477        |
 |             2         0.093822    0.093822    0.093822    14.200477        |
 |             3        -0.093822   -0.093822    0.093822    14.200477        |
 |             4        -0.093822    0.093822    0.093822    14.200477        |
 |             5         0.093822   -0.093822    0.093822    14.200477        |
 |             6        -0.093822   -0.093822   -0.093822    14.200477        |
 |             7         0.093822    0.093822   -0.093822    14.200477        |
 |             8         0.093822   -0.093822   -0.093822    14.200477        |
 +----------------------------------------------------------------------------+
 |                           b_k Directions (Ang^-1)                          |
 |                           -----------------------                          |
 |            No.           x           y           z                         |
 |            ---        --------------------------------                     |
 |             1        -0.093822    0.093822   -0.093822                     |
 |             2         0.093822    0.093822    0.093822                     |
 |             3        -0.093822   -0.093822    0.093822                     |
 |             4        -0.093822    0.093822    0.093822                     |
 +----------------------------------------------------------------------------+
  
 Time to get kmesh              0.678 (sec)
 *============================================================================*
 |                              MEMORY ESTIMATE                               |
 |         Maximum RAM allocated during each phase of the calculation         |
 *============================================================================*
 |                            Wannierise:            7.00 Mb                  |
 |                          plot_wannier:            7.00 Mb                  |
 *----------------------------------------------------------------------------*
  
 Starting a new Wannier90 calculation ...


 Reading overlaps from mp-1342.mmn    :  Created on  8Apr2024 at 15:15:10

 Reading projections from mp-1342.amn :  Created on  8Apr2024 at 15:15:10  with SCDM

 Time to read overlaps          0.097 (sec)

 Writing checkpoint file mp-1342.chk... done

 
 *------------------------------- WANNIERISE ---------------------------------*
 +--------------------------------------------------------------------+<-- CONV
 | Iter  Delta Spread     RMS Gradient      Spread (Ang^2)      Time  |<-- CONV
 +--------------------------------------------------------------------+<-- CONV
 
 ------------------------------------------------------------------------------
 Initial State
  WF centre and spread    1  ( -0.000277, -2.790590, -0.000515 )     1.74626712
  WF centre and spread    2  ( -0.000347, -2.790389,  0.000410 )     1.74814508
  WF centre and spread    3  (  2.790997,  0.000012,  0.000171 )     1.74628509
  Sum of centres and spreads (  2.790373, -5.580968,  0.000066 )     5.24069729
 
      0     0.524E+01     0.0000000000        5.2406991562       0.00  <-- CONV
        O_D=      0.0403256 O_OD=      0.0559027 O_TOT=      5.2406992 <-- SPRD
 ------------------------------------------------------------------------------
 Cycle:      1
  WF centre and spread    1  ( -0.000017, -2.790395, -0.000038 )     1.71989929
  WF centre and spread    2  ( -0.000024, -2.790387,  0.000026 )     1.72013733
  WF centre and spread    3  (  2.790437,  0.000003,  0.000012 )     1.72002646
  Sum of centres and spreads (  2.790396, -5.580778,  0.000001 )     5.16006308
 
      1    -0.806E-01     0.0776741708        5.1600649480       0.01  <-- CONV
        O_D=      0.0018593 O_OD=      0.0137348 O_TOT=      5.1600649 <-- SPRD
 Delta: O_D= -0.3846627E-01 O_OD= -0.4216794E-01 O_TOT= -0.8063421E-01 <-- DLTA
 ------------------------------------------------------------------------------
 Cycle:      2
  WF centre and spread    1  ( -0.000006, -2.790395, -0.000018 )     1.71897057
  WF centre and spread    2  ( -0.000011, -2.790386,  0.000013 )     1.71900619
  WF centre and spread    3  (  2.790411,  0.000001,  0.000004 )     1.71898933
  Sum of centres and spreads (  2.790393, -5.580779, -0.000000 )     5.15696609
 
      2    -0.310E-02     0.0325528496        5.1569679590       0.01  <-- CONV
        O_D=      0.0003984 O_OD=      0.0120987 O_TOT=      5.1569680 <-- SPRD
 Delta: O_D= -0.1460906E-02 O_OD= -0.1636083E-02 O_TOT= -0.3096989E-02 <-- DLTA
 ------------------------------------------------------------------------------
 Cycle:      3
  WF centre and spread    1  ( -0.000004, -2.790394, -0.000013 )     1.71876813
  WF centre and spread    2  ( -0.000008, -2.790387,  0.000009 )     1.71876541
  WF centre and spread    3  (  2.790404,  0.000000,  0.000003 )     1.71876345
  Sum of centres and spreads (  2.790392, -5.580781, -0.000000 )     5.15629699
 
      3    -0.669E-03     0.0177711499        5.1562988606       0.02  <-- CONV
        O_D=      0.0000967 O_OD=      0.0117313 O_TOT=      5.1562989 <-- SPRD
 Delta: O_D= -0.3017001E-03 O_OD= -0.3673983E-03 O_TOT= -0.6690985E-03 <-- DLTA
 ------------------------------------------------------------------------------
 Cycle:      4
  WF centre and spread    1  ( -0.000003, -2.790394, -0.000010 )     1.71872002
  WF centre and spread    2  ( -0.000006, -2.790388,  0.000007 )     1.71871250
  WF centre and spread    3  (  2.790402,  0.000000,  0.000003 )     1.71871319
  Sum of centres and spreads (  2.790392, -5.580781, -0.000000 )     5.15614571
 
      4    -0.151E-03     0.0087342667        5.1561475807       0.02  <-- CONV
        O_D=      0.0000356 O_OD=      0.0116412 O_TOT=      5.1561476 <-- SPRD
 Delta: O_D= -0.6115635E-04 O_OD= -0.9012354E-04 O_TOT= -0.1512799E-03 <-- DLTA
 ------------------------------------------------------------------------------
 Cycle:      5
  WF centre and spread    1  ( -0.000003, -2.790393, -0.000009 )     1.71870331
  WF centre and spread    2  ( -0.000005, -2.790388,  0.000006 )     1.71869904
  WF centre and spread    3  (  2.790400,  0.000000,  0.000002 )     1.71869940
  Sum of centres and spreads (  2.790392, -5.580781, -0.000000 )     5.15610176
 
      5    -0.440E-04     0.0041128151        5.1561036239       0.03  <-- CONV
        O_D=      0.0000167 O_OD=      0.0116161 O_TOT=      5.1561036 <-- SPRD
 Delta: O_D= -0.1887700E-04 O_OD= -0.2507981E-04 O_TOT= -0.4395681E-04 <-- DLTA
 ------------------------------------------------------------------------------
 Cycle:      6
  WF centre and spread    1  ( -0.000002, -2.790393, -0.000007 )     1.71869575
  WF centre and spread    2  ( -0.000004, -2.790388,  0.000005 )     1.71869478
  WF centre and spread    3  (  2.790399,  0.000000,  0.000002 )     1.71869450
  Sum of centres and spreads (  2.790392, -5.580781, -0.000000 )     5.15608502
 
      6    -0.167E-04     0.0026861652        5.1560868891       0.03  <-- CONV
        O_D=      0.0000099 O_OD=      0.0116061 O_TOT=      5.1560869 <-- SPRD
 Delta: O_D= -0.6790017E-05 O_OD= -0.9944749E-05 O_TOT= -0.1673477E-04 <-- DLTA
 ------------------------------------------------------------------------------
 Cycle:      7
  WF centre and spread    1  ( -0.000002, -2.790393, -0.000007 )     1.71869410
  WF centre and spread    2  ( -0.000004, -2.790389,  0.000005 )     1.71869332
  WF centre and spread    3  (  2.790398,  0.000000,  0.000002 )     1.71869302
  Sum of centres and spreads (  2.790392, -5.580781, -0.000000 )     5.15608044
 
      7    -0.458E-05     0.0014393201        5.1560823125       0.04  <-- CONV
        O_D=      0.0000078 O_OD=      0.0116037 O_TOT=      5.1560823 <-- SPRD
 Delta: O_D= -0.2118904E-05 O_OD= -0.2457685E-05 O_TOT= -0.4576589E-05 <-- DLTA
 ------------------------------------------------------------------------------
 Cycle:      8
  WF centre and spread    1  ( -0.000001, -2.790392, -0.000005 )     1.71869139
  WF centre and spread    2  ( -0.000003, -2.790389,  0.000004 )     1.71869140
  WF centre and spread    3  (  2.790396,  0.000000,  0.000001 )     1.71869096
  Sum of centres and spreads (  2.790392, -5.580781, -0.000000 )     5.15607375
 
      8    -0.670E-05     0.0012113114        5.1560756153       0.04  <-- CONV
        O_D=      0.0000049 O_OD=      0.0115999 O_TOT=      5.1560756 <-- SPRD
 Delta: O_D= -0.2936847E-05 O_OD= -0.3760351E-05 O_TOT= -0.6697198E-05 <-- DLTA
 ------------------------------------------------------------------------------
 Cycle:      9
  WF centre and spread    1  ( -0.000000, -2.790392, -0.000002 )     1.71868880
  WF centre and spread    2  ( -0.000001, -2.790390,  0.000002 )     1.71868951
  WF centre and spread    3  (  2.790393,  0.000000,  0.000000 )     1.71868891
  Sum of centres and spreads (  2.790392, -5.580782, -0.000000 )     5.15606722
 
      9    -0.653E-05     0.0013453063        5.1560690903       0.05  <-- CONV
        O_D=      0.0000020 O_OD=      0.0115963 O_TOT=      5.1560691 <-- SPRD
 Delta: O_D= -0.2874695E-05 O_OD= -0.3650353E-05 O_TOT= -0.6525048E-05 <-- DLTA
 ------------------------------------------------------------------------------
 Cycle:     10
  WF centre and spread    1  (  0.000000, -2.790391, -0.000001 )     1.71868779
  WF centre and spread    2  ( -0.000000, -2.790391,  0.000001 )     1.71868859
  WF centre and spread    3  (  2.790392,  0.000000,  0.000000 )     1.71868796
  Sum of centres and spreads (  2.790392, -5.580782, -0.000000 )     5.15606433
 
     10    -0.289E-05     0.0011070139        5.1560661997       0.05  <-- CONV
        O_D=      0.0000008 O_OD=      0.0115946 O_TOT=      5.1560662 <-- SPRD
 Delta: O_D= -0.1210593E-05 O_OD= -0.1679974E-05 O_TOT= -0.2890567E-05 <-- DLTA
 ------------------------------------------------------------------------------
 Cycle:     11
  WF centre and spread    1  (  0.000000, -2.790391, -0.000001 )     1.71868757
  WF centre and spread    2  (  0.000000, -2.790391,  0.000001 )     1.71868818
  WF centre and spread    3  (  2.790391,  0.000000, -0.000000 )     1.71868761
  Sum of centres and spreads (  2.790392, -5.580782,  0.000000 )     5.15606336
 
     11    -0.976E-06     0.0006195625        5.1560652241       0.06  <-- CONV
        O_D=      0.0000004 O_OD=      0.0115940 O_TOT=      5.1560652 <-- SPRD
 Delta: O_D= -0.4215458E-06 O_OD= -0.5540796E-06 O_TOT= -0.9756254E-06 <-- DLTA
 ------------------------------------------------------------------------------
 Cycle:     12
  WF centre and spread    1  (  0.000000, -2.790391, -0.000000 )     1.71868754
  WF centre and spread    2  (  0.000000, -2.790391,  0.000000 )     1.71868784
  WF centre and spread    3  (  2.790391,  0.000000, -0.000000 )     1.71868736
  Sum of centres and spreads (  2.790392, -5.580782,  0.000000 )     5.15606274
 
     12    -0.616E-06     0.0004309001        5.1560646082       0.06  <-- CONV
        O_D=      0.0000001 O_OD=      0.0115937 O_TOT=      5.1560646 <-- SPRD
 Delta: O_D= -0.2659779E-06 O_OD= -0.3498899E-06 O_TOT= -0.6158679E-06 <-- DLTA
 ------------------------------------------------------------------------------
 Cycle:     13
  WF centre and spread    1  (  0.000000, -2.790391, -0.000000 )     1.71868749
  WF centre and spread    2  (  0.000000, -2.790391,  0.000000 )     1.71868782
  WF centre and spread    3  (  2.790391,  0.000000, -0.000000 )     1.71868734
  Sum of centres and spreads (  2.790392, -5.580782,  0.000000 )     5.15606265
 
     13    -0.926E-07     0.0002546733        5.1560645156       0.07  <-- CONV
        O_D=      0.0000001 O_OD=      0.0115936 O_TOT=      5.1560645 <-- SPRD
 Delta: O_D= -0.3482750E-07 O_OD= -0.5772901E-07 O_TOT= -0.9255650E-07 <-- DLTA
 ------------------------------------------------------------------------------
 Cycle:     14
  WF centre and spread    1  (  0.000000, -2.790391, -0.000000 )     1.71868743
  WF centre and spread    2  (  0.000000, -2.790391,  0.000000 )     1.71868782
  WF centre and spread    3  (  2.790391,  0.000000, -0.000000 )     1.71868734
  Sum of centres and spreads (  2.790392, -5.580782,  0.000000 )     5.15606259
 
     14    -0.591E-07     0.0001276320        5.1560644565       0.07  <-- CONV
        O_D=      0.0000000 O_OD=      0.0115936 O_TOT=      5.1560645 <-- SPRD
 Delta: O_D= -0.2564056E-07 O_OD= -0.3348978E-07 O_TOT= -0.5913034E-07 <-- DLTA
 ------------------------------------------------------------------------------
 Cycle:     15
  WF centre and spread    1  (  0.000000, -2.790391, -0.000000 )     1.71868740
  WF centre and spread    2  (  0.000000, -2.790391,  0.000000 )     1.71868781
  WF centre and spread    3  (  2.790391,  0.000000, -0.000000 )     1.71868734
  Sum of centres and spreads (  2.790392, -5.580782,  0.000000 )     5.15606256
 
     15    -0.324E-07     0.0001102061        5.1560644241       0.07  <-- CONV
        O_D=      0.0000000 O_OD=      0.0115936 O_TOT=      5.1560644 <-- SPRD
 Delta: O_D= -0.1715132E-07 O_OD= -0.1522512E-07 O_TOT= -0.3237644E-07 <-- DLTA
 ------------------------------------------------------------------------------
 Cycle:     16
  WF centre and spread    1  (  0.000000, -2.790391, -0.000000 )     1.71868741
  WF centre and spread    2  (  0.000000, -2.790391,  0.000000 )     1.71868780
  WF centre and spread    3  (  2.790391,  0.000000, -0.000000 )     1.71868734
  Sum of centres and spreads (  2.790392, -5.580782,  0.000000 )     5.15606254
 
     16    -0.134E-07     0.0000744123        5.1560644107       0.08  <-- CONV
        O_D=      0.0000000 O_OD=      0.0115936 O_TOT=      5.1560644 <-- SPRD
 Delta: O_D= -0.6798744E-08 O_OD= -0.6639430E-08 O_TOT= -0.1343818E-07 <-- DLTA
 ------------------------------------------------------------------------------
 Cycle:     17
  WF centre and spread    1  (  0.000000, -2.790391, -0.000000 )     1.71868742
  WF centre and spread    2  (  0.000000, -2.790391,  0.000000 )     1.71868778
  WF centre and spread    3  (  2.790391,  0.000000, -0.000000 )     1.71868734
  Sum of centres and spreads (  2.790392, -5.580782,  0.000000 )     5.15606254
 
     17    -0.439E-08     0.0000468161        5.1560644063       0.08  <-- CONV
        O_D=      0.0000000 O_OD=      0.0115936 O_TOT=      5.1560644 <-- SPRD
 Delta: O_D= -0.2017857E-08 O_OD= -0.2370041E-08 O_TOT= -0.4387898E-08 <-- DLTA
 ------------------------------------------------------------------------------
 Cycle:     18
  WF centre and spread    1  (  0.000000, -2.790391, -0.000000 )     1.71868742
  WF centre and spread    2  (  0.000000, -2.790391,  0.000000 )     1.71868778
  WF centre and spread    3  (  2.790391,  0.000000, -0.000000 )     1.71868734
  Sum of centres and spreads (  2.790392, -5.580782,  0.000000 )     5.15606254
 
     18    -0.121E-08     0.0000220734        5.1560644051       0.09  <-- CONV
        O_D=      0.0000000 O_OD=      0.0115936 O_TOT=      5.1560644 <-- SPRD
 Delta: O_D= -0.4857358E-09 O_OD= -0.7277874E-09 O_TOT= -0.1213523E-08 <-- DLTA
 ------------------------------------------------------------------------------
 Cycle:     19
  WF centre and spread    1  (  0.000000, -2.790391, -0.000000 )     1.71868742
  WF centre and spread    2  (  0.000000, -2.790391,  0.000000 )     1.71868778
  WF centre and spread    3  (  2.790391,  0.000000, -0.000000 )     1.71868734
  Sum of centres and spreads (  2.790392, -5.580782,  0.000000 )     5.15606254
 
     19    -0.926E-12     0.0000145086        5.1560644051       0.09  <-- CONV
        O_D=      0.0000000 O_OD=      0.0115936 O_TOT=      5.1560644 <-- SPRD
 Delta: O_D= -0.2689860E-12 O_OD= -0.6572312E-12 O_TOT= -0.9263701E-12 <-- DLTA
 ------------------------------------------------------------------------------
 Cycle:     20
  WF centre and spread    1  (  0.000000, -2.790391, -0.000000 )     1.71868742
  WF centre and spread    2  (  0.000000, -2.790391,  0.000000 )     1.71868778
  WF centre and spread    3  (  2.790391,  0.000000, -0.000000 )     1.71868734
  Sum of centres and spreads (  2.790392, -5.580782,  0.000000 )     5.15606254
 
     20    -0.799E-09     0.0000145016        5.1560644043       0.09  <-- CONV
        O_D=      0.0000000 O_OD=      0.0115936 O_TOT=      5.1560644 <-- SPRD
 Delta: O_D= -0.2193715E-09 O_OD= -0.5798290E-09 O_TOT= -0.7992007E-09 <-- DLTA
 ------------------------------------------------------------------------------
 Cycle:     21
  WF centre and spread    1  (  0.000000, -2.790391, -0.000000 )     1.71868742
  WF centre and spread    2  (  0.000000, -2.790391,  0.000000 )     1.71868778
  WF centre and spread    3  (  2.790391,  0.000000, -0.000000 )     1.71868734
  Sum of centres and spreads (  2.790392, -5.580782,  0.000000 )     5.15606254
 
     21    -0.123E-11     0.0000123374        5.1560644043       0.09  <-- CONV
        O_D=      0.0000000 O_OD=      0.0115936 O_TOT=      5.1560644 <-- SPRD
 Delta: O_D= -0.3126786E-12 O_OD= -0.9169852E-12 O_TOT= -0.1229239E-11 <-- DLTA
 ------------------------------------------------------------------------------
 Cycle:     22
  WF centre and spread    1  (  0.000000, -2.790391, -0.000000 )     1.71868741
  WF centre and spread    2  (  0.000000, -2.790391,  0.000000 )     1.71868778
  WF centre and spread    3  (  2.790391,  0.000000, -0.000000 )     1.71868734
  Sum of centres and spreads (  2.790392, -5.580782,  0.000000 )     5.15606253
 
     22    -0.972E-09     0.0000123352        5.1560644033       0.10  <-- CONV
        O_D=      0.0000000 O_OD=      0.0115936 O_TOT=      5.1560644 <-- SPRD
 Delta: O_D= -0.2412016E-09 O_OD= -0.7303732E-09 O_TOT= -0.9715748E-09 <-- DLTA
 ------------------------------------------------------------------------------
 Cycle:     23
  WF centre and spread    1  (  0.000000, -2.790391, -0.000000 )     1.71868741
  WF centre and spread    2  (  0.000000, -2.790391,  0.000000 )     1.71868778
  WF centre and spread    3  (  2.790391,  0.000000, -0.000000 )     1.71868734
  Sum of centres and spreads (  2.790392, -5.580782,  0.000000 )     5.15606253
 
     23    -0.767E-12     0.0000085806        5.1560644033       0.10  <-- CONV
        O_D=      0.0000000 O_OD=      0.0115936 O_TOT=      5.1560644 <-- SPRD
 Delta: O_D= -0.1817927E-12 O_OD= -0.5860087E-12 O_TOT= -0.7673862E-12 <-- DLTA
 ------------------------------------------------------------------------------
 Cycle:     24
  WF centre and spread    1  (  0.000000, -2.790391, -0.000000 )     1.71868741
  WF centre and spread    2  (  0.000000, -2.790391,  0.000000 )     1.71868778
  WF centre and spread    3  (  2.790391,  0.000000, -0.000000 )     1.71868734
  Sum of centres and spreads (  2.790392, -5.580782,  0.000000 )     5.15606253
 
     24    -0.109E-11     0.0000085772        5.1560644033       0.10  <-- CONV
        O_D=      0.0000000 O_OD=      0.0115936 O_TOT=      5.1560644 <-- SPRD
 Delta: O_D= -0.2634013E-12 O_OD= -0.8269514E-12 O_TOT= -0.1090683E-11 <-- DLTA
 ------------------------------------------------------------------------------
 Cycle:     25
  WF centre and spread    1  (  0.000000, -2.790391, -0.000000 )     1.71868741
  WF centre and spread    2  (  0.000000, -2.790391,  0.000000 )     1.71868778
  WF centre and spread    3  (  2.790391,  0.000000, -0.000000 )     1.71868734
  Sum of centres and spreads (  2.790392, -5.580782,  0.000000 )     5.15606253
 
     25    -0.323E-12     0.0000085694        5.1560644033       0.10  <-- CONV
        O_D=      0.0000000 O_OD=      0.0115936 O_TOT=      5.1560644 <-- SPRD
 Delta: O_D= -0.8175373E-13 O_OD= -0.2413833E-12 O_TOT= -0.3232969E-12 <-- DLTA
 ------------------------------------------------------------------------------
 Cycle:     26
  WF centre and spread    1  (  0.000000, -2.790391, -0.000000 )     1.71868741
  WF centre and spread    2  (  0.000000, -2.790391,  0.000000 )     1.71868778
  WF centre and spread    3  (  2.790391,  0.000000, -0.000000 )     1.71868734
  Sum of centres and spreads (  2.790392, -5.580782,  0.000000 )     5.15606253
 
     26    -0.646E-12     0.0000085649        5.1560644033       0.10  <-- CONV
        O_D=      0.0000000 O_OD=      0.0115936 O_TOT=      5.1560644 <-- SPRD
 Delta: O_D= -0.1632487E-12 O_OD= -0.4819808E-12 O_TOT= -0.6457057E-12 <-- DLTA
 ------------------------------------------------------------------------------
 Cycle:     27
  WF centre and spread    1  (  0.000000, -2.790391, -0.000000 )     1.71868741
  WF centre and spread    2  (  0.000000, -2.790391,  0.000000 )     1.71868778
  WF centre and spread    3  (  2.790391,  0.000000, -0.000000 )     1.71868734
  Sum of centres and spreads (  2.790392, -5.580782,  0.000000 )     5.15606253
 
     27    -0.267E-09     0.0000085561        5.1560644031       0.11  <-- CONV
        O_D=      0.0000000 O_OD=      0.0115936 O_TOT=      5.1560644 <-- SPRD
 Delta: O_D= -0.6675662E-10 O_OD= -0.2002366E-09 O_TOT= -0.2669927E-09 <-- DLTA
 ------------------------------------------------------------------------------
 Cycle:     28
  WF centre and spread    1  (  0.000000, -2.790391, -0.000000 )     1.71868741
  WF centre and spread    2  (  0.000000, -2.790391,  0.000000 )     1.71868778
  WF centre and spread    3  (  2.790391,  0.000000, -0.000000 )     1.71868734
  Sum of centres and spreads (  2.790392, -5.580782,  0.000000 )     5.15606253
 
     28    -0.576E-12     0.0000078506        5.1560644031       0.11  <-- CONV
        O_D=      0.0000000 O_OD=      0.0115936 O_TOT=      5.1560644 <-- SPRD
 Delta: O_D= -0.1279731E-12 O_OD= -0.4487799E-12 O_TOT= -0.5764278E-12 <-- DLTA
 ------------------------------------------------------------------------------
 Cycle:     29
  WF centre and spread    1  (  0.000000, -2.790391, -0.000000 )     1.71868741
  WF centre and spread    2  (  0.000000, -2.790391,  0.000000 )     1.71868778
  WF centre and spread    3  (  2.790391,  0.000000, -0.000000 )     1.71868734
  Sum of centres and spreads (  2.790392, -5.580782,  0.000000 )     5.15606253
 
     29    -0.848E-12     0.0000078535        5.1560644031       0.11  <-- CONV
        O_D=      0.0000000 O_OD=      0.0115936 O_TOT=      5.1560644 <-- SPRD
 Delta: O_D= -0.1819092E-12 O_OD= -0.6660939E-12 O_TOT= -0.8482104E-12 <-- DLTA
 ------------------------------------------------------------------------------
 Cycle:     30
  WF centre and spread    1  (  0.000000, -2.790391, -0.000000 )     1.71868741
  WF centre and spread    2  (  0.000000, -2.790391,  0.000000 )     1.71868778
  WF centre and spread    3  (  2.790391,  0.000000, -0.000000 )     1.71868734
  Sum of centres and spreads (  2.790392, -5.580782,  0.000000 )     5.15606253
 
     30    -0.112E-11     0.0000078501        5.1560644030       0.11  <-- CONV
        O_D=      0.0000000 O_OD=      0.0115936 O_TOT=      5.1560644 <-- SPRD
 Delta: O_D= -0.2355218E-12 O_OD= -0.8820635E-12 O_TOT= -0.1117328E-11 <-- DLTA
 ------------------------------------------------------------------------------
 Cycle:     31
  WF centre and spread    1  (  0.000000, -2.790391, -0.000000 )     1.71868741
  WF centre and spread    2  (  0.000000, -2.790391,  0.000000 )     1.71868778
  WF centre and spread    3  (  2.790391,  0.000000, -0.000000 )     1.71868734
  Sum of centres and spreads (  2.790392, -5.580782,  0.000000 )     5.15606253
 
     31    -0.271E-12     0.0000078404        5.1560644030       0.12  <-- CONV
        O_D=      0.0000000 O_OD=      0.0115936 O_TOT=      5.1560644 <-- SPRD
 Delta: O_D= -0.5389186E-13 O_OD= -0.2165559E-12 O_TOT= -0.2708944E-12 <-- DLTA
 ------------------------------------------------------------------------------
 Cycle:     32
  WF centre and spread    1  (  0.000000, -2.790391, -0.000000 )     1.71868741
  WF centre and spread    2  (  0.000000, -2.790391,  0.000000 )     1.71868778
  WF centre and spread    3  (  2.790391,  0.000000, -0.000000 )     1.71868734
  Sum of centres and spreads (  2.790392, -5.580782,  0.000000 )     5.15606253
 
     32    -0.540E-12     0.0000078342        5.1560644030       0.12  <-- CONV
        O_D=      0.0000000 O_OD=      0.0115936 O_TOT=      5.1560644 <-- SPRD
 Delta: O_D= -0.1075587E-12 O_OD= -0.4320433E-12 O_TOT= -0.5400125E-12 <-- DLTA
 ------------------------------------------------------------------------------
 Cycle:     33
  WF centre and spread    1  (  0.000000, -2.790391, -0.000000 )     1.71868741
  WF centre and spread    2  (  0.000000, -2.790391,  0.000000 )     1.71868779
  WF centre and spread    3  (  2.790391,  0.000000, -0.000000 )     1.71868734
  Sum of centres and spreads (  2.790392, -5.580782,  0.000000 )     5.15606253
 
     33    -0.165E-09     0.0000078218        5.1560644029       0.12  <-- CONV
        O_D=      0.0000000 O_OD=      0.0115936 O_TOT=      5.1560644 <-- SPRD
 Delta: O_D= -0.3714629E-10 O_OD= -0.1276223E-09 O_TOT= -0.1647686E-09 <-- DLTA
 ------------------------------------------------------------------------------
 Cycle:     34
  WF centre and spread    1  (  0.000000, -2.790391, -0.000000 )     1.71868741
  WF centre and spread    2  (  0.000000, -2.790391,  0.000000 )     1.71868779
  WF centre and spread    3  (  2.790391,  0.000000, -0.000000 )     1.71868734
  Sum of centres and spreads (  2.790392, -5.580782,  0.000000 )     5.15606253
 
     34    -0.571E-10     0.0000080732        5.1560644028       0.12  <-- CONV
        O_D=      0.0000000 O_OD=      0.0115936 O_TOT=      5.1560644 <-- SPRD
 Delta: O_D= -0.1472684E-10 O_OD= -0.4236915E-10 O_TOT= -0.5709566E-10 <-- DLTA
 ------------------------------------------------------------------------------
 Cycle:     35
  WF centre and spread    1  (  0.000000, -2.790391, -0.000000 )     1.71868741
  WF centre and spread    2  (  0.000000, -2.790391,  0.000000 )     1.71868779
  WF centre and spread    3  (  2.790391,  0.000000, -0.000000 )     1.71868734
  Sum of centres and spreads (  2.790392, -5.580782,  0.000000 )     5.15606253
 
     35    -0.897E-12     0.0000102608        5.1560644028       0.13  <-- CONV
        O_D=      0.0000000 O_OD=      0.0115936 O_TOT=      5.1560644 <-- SPRD
 Delta: O_D= -0.1960981E-12 O_OD= -0.7010295E-12 O_TOT= -0.8970602E-12 <-- DLTA
 ------------------------------------------------------------------------------
 Cycle:     36
  WF centre and spread    1  (  0.000000, -2.790391, -0.000000 )     1.71868741
  WF centre and spread    2  (  0.000000, -2.790391,  0.000000 )     1.71868779
  WF centre and spread    3  (  2.790391,  0.000000, -0.000000 )     1.71868734
  Sum of centres and spreads (  2.790392, -5.580782,  0.000000 )     5.15606253
 
     36    -0.542E-09     0.0000102687        5.1560644023       0.13  <-- CONV
        O_D=      0.0000000 O_OD=      0.0115936 O_TOT=      5.1560644 <-- SPRD
 Delta: O_D= -0.9807630E-10 O_OD= -0.4434797E-09 O_TOT= -0.5415561E-09 <-- DLTA
 ------------------------------------------------------------------------------
 Cycle:     37
  WF centre and spread    1  (  0.000000, -2.790391, -0.000000 )     1.71868741
  WF centre and spread    2  (  0.000000, -2.790391,  0.000000 )     1.71868779
  WF centre and spread    3  (  2.790391,  0.000000, -0.000000 )     1.71868734
  Sum of centres and spreads (  2.790392, -5.580782,  0.000000 )     5.15606253
 
     37    -0.256E-12     0.0000076243        5.1560644023       0.13  <-- CONV
        O_D=      0.0000000 O_OD=      0.0115936 O_TOT=      5.1560644 <-- SPRD
 Delta: O_D= -0.5713410E-13 O_OD= -0.1985495E-12 O_TOT= -0.2557954E-12 <-- DLTA
 ------------------------------------------------------------------------------
 Cycle:     38
  WF centre and spread    1  (  0.000000, -2.790391, -0.000000 )     1.71868741
  WF centre and spread    2  (  0.000000, -2.790391,  0.000000 )     1.71868779
  WF centre and spread    3  (  2.790391,  0.000000, -0.000000 )     1.71868734
  Sum of centres and spreads (  2.790392, -5.580782,  0.000000 )     5.15606253
 
     38    -0.814E-10     0.0000076147        5.1560644022       0.13  <-- CONV
        O_D=      0.0000000 O_OD=      0.0115936 O_TOT=      5.1560644 <-- SPRD
 Delta: O_D= -0.1835130E-10 O_OD= -0.6309381E-10 O_TOT= -0.8144507E-10 <-- DLTA
 ------------------------------------------------------------------------------
 Cycle:     39
  WF centre and spread    1  (  0.000000, -2.790391, -0.000000 )     1.71868741
  WF centre and spread    2  (  0.000000, -2.790391,  0.000000 )     1.71868779
  WF centre and spread    3  (  2.790391,  0.000000, -0.000000 )     1.71868734
  Sum of centres and spreads (  2.790392, -5.580782,  0.000000 )     5.15606253
 
     39    -0.147E-12     0.0000042301        5.1560644022       0.13  <-- CONV
        O_D=      0.0000000 O_OD=      0.0115936 O_TOT=      5.1560644 <-- SPRD
 Delta: O_D= -0.3130443E-13 O_OD= -0.1163184E-12 O_TOT= -0.1474376E-12 <-- DLTA
 ------------------------------------------------------------------------------
 Cycle:     40
  WF centre and spread    1  (  0.000000, -2.790391, -0.000000 )     1.71868741
  WF centre and spread    2  (  0.000000, -2.790391,  0.000000 )     1.71868779
  WF centre and spread    3  (  2.790391,  0.000000, -0.000000 )     1.71868734
  Sum of centres and spreads (  2.790392, -5.580782,  0.000000 )     5.15606253
 
     40    -0.226E-12     0.0000042260        5.1560644022       0.14  <-- CONV
        O_D=      0.0000000 O_OD=      0.0115936 O_TOT=      5.1560644 <-- SPRD
 Delta: O_D= -0.4660040E-13 O_OD= -0.1790304E-12 O_TOT= -0.2255973E-12 <-- DLTA
 ------------------------------------------------------------------------------
 Cycle:     41
  WF centre and spread    1  (  0.000000, -2.790391, -0.000000 )     1.71868741
  WF centre and spread    2  (  0.000000, -2.790391,  0.000000 )     1.71868779
  WF centre and spread    3  (  2.790391,  0.000000, -0.000000 )     1.71868734
  Sum of centres and spreads (  2.790392, -5.580782,  0.000000 )     5.15606253
 
     41    -0.303E-12     0.0000042204        5.1560644022       0.14  <-- CONV
        O_D=      0.0000000 O_OD=      0.0115936 O_TOT=      5.1560644 <-- SPRD
 Delta: O_D= -0.6170068E-13 O_OD= -0.2411717E-12 O_TOT= -0.3028688E-12 <-- DLTA
 ------------------------------------------------------------------------------
 Cycle:     42
  WF centre and spread    1  (  0.000000, -2.790391, -0.000000 )     1.71868741
  WF centre and spread    2  (  0.000000, -2.790391,  0.000000 )     1.71868779
  WF centre and spread    3  (  2.790391,  0.000000, -0.000000 )     1.71868734
  Sum of centres and spreads (  2.790392, -5.580782,  0.000000 )     5.15606253
 
     42    -0.379E-12     0.0000042132        5.1560644022       0.14  <-- CONV
        O_D=      0.0000000 O_OD=      0.0115936 O_TOT=      5.1560644 <-- SPRD
 Delta: O_D= -0.7654797E-13 O_OD= -0.3026260E-12 O_TOT= -0.3792522E-12 <-- DLTA
 ------------------------------------------------------------------------------
 Cycle:     43
  WF centre and spread    1  (  0.000000, -2.790391, -0.000000 )     1.71868741
  WF centre and spread    2  (  0.000000, -2.790391,  0.000000 )     1.71868779
  WF centre and spread    3  (  2.790391,  0.000000, -0.000000 )     1.71868734
  Sum of centres and spreads (  2.790392, -5.580782,  0.000000 )     5.15606253
 
     43    -0.773E-13     0.0000042046        5.1560644022       0.14  <-- CONV
        O_D=      0.0000000 O_OD=      0.0115936 O_TOT=      5.1560644 <-- SPRD
 Delta: O_D= -0.1519169E-13 O_OD= -0.6259229E-13 O_TOT= -0.7727152E-13 <-- DLTA
 ------------------------------------------------------------------------------
 Cycle:     44
  WF centre and spread    1  (  0.000000, -2.790391, -0.000000 )     1.71868741
  WF centre and spread    2  (  0.000000, -2.790391,  0.000000 )     1.71868779
  WF centre and spread    3  (  2.790391,  0.000000, -0.000000 )     1.71868734
  Sum of centres and spreads (  2.790392, -5.580782,  0.000000 )     5.15606253
 
     44    -0.156E-12     0.0000042030        5.1560644022       0.14  <-- CONV
        O_D=      0.0000000 O_OD=      0.0115936 O_TOT=      5.1560644 <-- SPRD
 Delta: O_D= -0.3033536E-13 O_OD= -0.1250857E-12 O_TOT= -0.1563194E-12 <-- DLTA
 ------------------------------------------------------------------------------
 Cycle:     45
  WF centre and spread    1  (  0.000000, -2.790391, -0.000000 )     1.71868741
  WF centre and spread    2  (  0.000000, -2.790391,  0.000000 )     1.71868779
  WF centre and spread    3  (  2.790391,  0.000000, -0.000000 )     1.71868734
  Sum of centres and spreads (  2.790392, -5.580782,  0.000000 )     5.15606253
 
     45    -0.233E-12     0.0000041999        5.1560644022       0.14  <-- CONV
        O_D=      0.0000000 O_OD=      0.0115936 O_TOT=      5.1560644 <-- SPRD
 Delta: O_D= -0.4537221E-13 O_OD= -0.1872877E-12 O_TOT= -0.2327027E-12 <-- DLTA
 ------------------------------------------------------------------------------
 Cycle:     46
  WF centre and spread    1  (  0.000000, -2.790391, -0.000000 )     1.71868741
  WF centre and spread    2  (  0.000000, -2.790391,  0.000000 )     1.71868779
  WF centre and spread    3  (  2.790391,  0.000000, -0.000000 )     1.71868734
  Sum of centres and spreads (  2.790392, -5.580782,  0.000000 )     5.15606253
 
     46    -0.345E-10     0.0000041953        5.1560644022       0.15  <-- CONV
        O_D=      0.0000000 O_OD=      0.0115936 O_TOT=      5.1560644 <-- SPRD
 Delta: O_D= -0.6301605E-11 O_OD= -0.2824725E-10 O_TOT= -0.3454836E-10 <-- DLTA
 ------------------------------------------------------------------------------
 Cycle:     47
  WF centre and spread    1  (  0.000000, -2.790391, -0.000000 )     1.71868741
  WF centre and spread    2  (  0.000000, -2.790391,  0.000000 )     1.71868779
  WF centre and spread    3  (  2.790391,  0.000000, -0.000000 )     1.71868734
  Sum of centres and spreads (  2.790392, -5.580782,  0.000000 )     5.15606253
 
     47    -0.247E-12     0.0000036256        5.1560644022       0.15  <-- CONV
        O_D=      0.0000000 O_OD=      0.0115936 O_TOT=      5.1560644 <-- SPRD
 Delta: O_D= -0.4043196E-13 O_OD= -0.2067929E-12 O_TOT= -0.2469136E-12 <-- DLTA
 ------------------------------------------------------------------------------
 Cycle:     48
  WF centre and spread    1  (  0.000000, -2.790391, -0.000000 )     1.71868741
  WF centre and spread    2  (  0.000000, -2.790391,  0.000000 )     1.71868779
  WF centre and spread    3  (  2.790391,  0.000000, -0.000000 )     1.71868734
  Sum of centres and spreads (  2.790392, -5.580782,  0.000000 )     5.15606253
 
     48    -0.305E-12     0.0000036230        5.1560644022       0.15  <-- CONV
        O_D=      0.0000000 O_OD=      0.0115936 O_TOT=      5.1560644 <-- SPRD
 Delta: O_D= -0.4903654E-13 O_OD= -0.2552455E-12 O_TOT= -0.3046452E-12 <-- DLTA
 ------------------------------------------------------------------------------
 Cycle:     49
  WF centre and spread    1  (  0.000000, -2.790391, -0.000000 )     1.71868741
  WF centre and spread    2  (  0.000000, -2.790391,  0.000000 )     1.71868779
  WF centre and spread    3  (  2.790391,  0.000000, -0.000000 )     1.71868734
  Sum of centres and spreads (  2.790392, -5.580782,  0.000000 )     5.15606253
 
     49    -0.577E-13     0.0000036201        5.1560644022       0.15  <-- CONV
        O_D=      0.0000000 O_OD=      0.0115936 O_TOT=      5.1560644 <-- SPRD
 Delta: O_D= -0.8750307E-14 O_OD= -0.4892961E-13 O_TOT= -0.5773160E-13 <-- DLTA
 ------------------------------------------------------------------------------
 Cycle:     50
  WF centre and spread    1  (  0.000000, -2.790391, -0.000000 )     1.71868741
  WF centre and spread    2  (  0.000000, -2.790391,  0.000000 )     1.71868779
  WF centre and spread    3  (  2.790391,  0.000000, -0.000000 )     1.71868734
  Sum of centres and spreads (  2.790392, -5.580782,  0.000000 )     5.15606253
 
     50    -0.115E-12     0.0000036198        5.1560644022       0.15  <-- CONV
        O_D=      0.0000000 O_OD=      0.0115936 O_TOT=      5.1560644 <-- SPRD
 Delta: O_D= -0.1749185E-13 O_OD= -0.9783320E-13 O_TOT= -0.1154632E-12 <-- DLTA
 ------------------------------------------------------------------------------
 Cycle:     51
  WF centre and spread    1  (  0.000000, -2.790391, -0.000000 )     1.71868741
  WF centre and spread    2  (  0.000000, -2.790391,  0.000000 )     1.71868779
  WF centre and spread    3  (  2.790391,  0.000000, -0.000000 )     1.71868734
  Sum of centres and spreads (  2.790392, -5.580782,  0.000000 )     5.15606253
 
     51    -0.172E-12     0.0000036190        5.1560644022       0.16  <-- CONV
        O_D=      0.0000000 O_OD=      0.0115936 O_TOT=      5.1560644 <-- SPRD
 Delta: O_D= -0.2621413E-13 O_OD= -0.1466709E-12 O_TOT= -0.1723066E-12 <-- DLTA
 ------------------------------------------------------------------------------
 Cycle:     52
  WF centre and spread    1  (  0.000000, -2.790391, -0.000000 )     1.71868741
  WF centre and spread    2  (  0.000000, -2.790391,  0.000000 )     1.71868779
  WF centre and spread    3  (  2.790391,  0.000000, -0.000000 )     1.71868734
  Sum of centres and spreads (  2.790392, -5.580782,  0.000000 )     5.15606253
 
     52    -0.231E-12     0.0000036179        5.1560644022       0.16  <-- CONV
        O_D=      0.0000000 O_OD=      0.0115936 O_TOT=      5.1560644 <-- SPRD
 Delta: O_D= -0.3490674E-13 O_OD= -0.1954062E-12 O_TOT= -0.2309264E-12 <-- DLTA
 ------------------------------------------------------------------------------
 Cycle:     53
  WF centre and spread    1  (  0.000000, -2.790391, -0.000000 )     1.71868741
  WF centre and spread    2  (  0.000000, -2.790391,  0.000000 )     1.71868779
  WF centre and spread    3  (  2.790391,  0.000000, -0.000000 )     1.71868734
  Sum of centres and spreads (  2.790392, -5.580782,  0.000000 )     5.15606253
 
     53    -0.288E-12     0.0000036165        5.1560644022       0.16  <-- CONV
        O_D=      0.0000000 O_OD=      0.0115936 O_TOT=      5.1560644 <-- SPRD
 Delta: O_D= -0.4355944E-13 O_OD= -0.2440027E-12 O_TOT= -0.2877698E-12 <-- DLTA
 ------------------------------------------------------------------------------
 Cycle:     54
  WF centre and spread    1  (  0.000000, -2.790391, -0.000000 )     1.71868741
  WF centre and spread    2  (  0.000000, -2.790391,  0.000000 )     1.71868779
  WF centre and spread    3  (  2.790391,  0.000000, -0.000000 )     1.71868734
  Sum of centres and spreads (  2.790392, -5.580782,  0.000000 )     5.15606253
 
     54    -0.344E-12     0.0000036147        5.1560644022       0.16  <-- CONV
        O_D=      0.0000000 O_OD=      0.0115936 O_TOT=      5.1560644 <-- SPRD
 Delta: O_D= -0.5216218E-13 O_OD= -0.2924761E-12 O_TOT= -0.3437250E-12 <-- DLTA
 ------------------------------------------------------------------------------
 Cycle:     55
  WF centre and spread    1  (  0.000000, -2.790391, -0.000000 )     1.71868741
  WF centre and spread    2  (  0.000000, -2.790391,  0.000000 )     1.71868779
  WF centre and spread    3  (  2.790391,  0.000000, -0.000000 )     1.71868734
  Sum of centres and spreads (  2.790392, -5.580782,  0.000000 )     5.15606253
 
     55    -0.577E-13     0.0000036125        5.1560644022       0.16  <-- CONV
        O_D=      0.0000000 O_OD=      0.0115936 O_TOT=      5.1560644 <-- SPRD
 Delta: O_D= -0.8677751E-14 O_OD= -0.4875093E-13 O_TOT= -0.5773160E-13 <-- DLTA
 ------------------------------------------------------------------------------
 Cycle:     56
  WF centre and spread    1  (  0.000000, -2.790391, -0.000000 )     1.71868741
  WF centre and spread    2  (  0.000000, -2.790391,  0.000000 )     1.71868779
  WF centre and spread    3  (  2.790391,  0.000000, -0.000000 )     1.71868734
  Sum of centres and spreads (  2.790392, -5.580782,  0.000000 )     5.15606253
 
     56    -0.115E-12     0.0000036121        5.1560644022       0.16  <-- CONV
        O_D=      0.0000000 O_OD=      0.0115936 O_TOT=      5.1560644 <-- SPRD
 Delta: O_D= -0.1734703E-13 O_OD= -0.9750360E-13 O_TOT= -0.1154632E-12 <-- DLTA
 ------------------------------------------------------------------------------
 Cycle:     57
  WF centre and spread    1  (  0.000000, -2.790391, -0.000000 )     1.71868741
  WF centre and spread    2  (  0.000000, -2.790391,  0.000000 )     1.71868779
  WF centre and spread    3  (  2.790391,  0.000000, -0.000000 )     1.71868734
  Sum of centres and spreads (  2.790392, -5.580782,  0.000000 )     5.15606253
 
     57    -0.171E-12     0.0000036114        5.1560644022       0.16  <-- CONV
        O_D=      0.0000000 O_OD=      0.0115936 O_TOT=      5.1560644 <-- SPRD
 Delta: O_D= -0.2599767E-13 O_OD= -0.1461487E-12 O_TOT= -0.1714184E-12 <-- DLTA
 ------------------------------------------------------------------------------
 Cycle:     58
  WF centre and spread    1  (  0.000000, -2.790391, -0.000000 )     1.71868741
  WF centre and spread    2  (  0.000000, -2.790391,  0.000000 )     1.71868779
  WF centre and spread    3  (  2.790391,  0.000000, -0.000000 )     1.71868734
  Sum of centres and spreads (  2.790392, -5.580782,  0.000000 )     5.15606253
 
     58    -0.230E-12     0.0000036104        5.1560644022       0.17  <-- CONV
        O_D=      0.0000000 O_OD=      0.0115936 O_TOT=      5.1560644 <-- SPRD
 Delta: O_D= -0.3461961E-13 O_OD= -0.1947331E-12 O_TOT= -0.2300382E-12 <-- DLTA
 ------------------------------------------------------------------------------
 Cycle:     59
  WF centre and spread    1  (  0.000000, -2.790391, -0.000000 )     1.71868741
  WF centre and spread    2  (  0.000000, -2.790391,  0.000000 )     1.71868779
  WF centre and spread    3  (  2.790391,  0.000000, -0.000000 )     1.71868734
  Sum of centres and spreads (  2.790392, -5.580782,  0.000000 )     5.15606253
 
     59    -0.286E-12     0.0000036089        5.1560644022       0.17  <-- CONV
        O_D=      0.0000000 O_OD=      0.0115936 O_TOT=      5.1560644 <-- SPRD
 Delta: O_D= -0.4320293E-13 O_OD= -0.2431735E-12 O_TOT= -0.2859935E-12 <-- DLTA
 ------------------------------------------------------------------------------
 Cycle:     60
  WF centre and spread    1  (  0.000000, -2.790391, -0.000000 )     1.71868741
  WF centre and spread    2  (  0.000000, -2.790391,  0.000000 )     1.71868779
  WF centre and spread    3  (  2.790391,  0.000000, -0.000000 )     1.71868734
  Sum of centres and spreads (  2.790392, -5.580782,  0.000000 )     5.15606253
 
     60    -0.344E-12     0.0000036072        5.1560644022       0.17  <-- CONV
        O_D=      0.0000000 O_OD=      0.0115936 O_TOT=      5.1560644 <-- SPRD
 Delta: O_D= -0.5173790E-13 O_OD= -0.2914752E-12 O_TOT= -0.3437250E-12 <-- DLTA
 ------------------------------------------------------------------------------
 Cycle:     61
  WF centre and spread    1  (  0.000000, -2.790391, -0.000000 )     1.71868741
  WF centre and spread    2  (  0.000000, -2.790391,  0.000000 )     1.71868779
  WF centre and spread    3  (  2.790391,  0.000000, -0.000000 )     1.71868734
  Sum of centres and spreads (  2.790392, -5.580782,  0.000000 )     5.15606253
 
     61    -0.568E-13     0.0000036051        5.1560644022       0.17  <-- CONV
        O_D=      0.0000000 O_OD=      0.0115936 O_TOT=      5.1560644 <-- SPRD
 Delta: O_D= -0.8607558E-14 O_OD= -0.4858093E-13 O_TOT= -0.5684342E-13 <-- DLTA
 ------------------------------------------------------------------------------
 Cycle:     62
  WF centre and spread    1  (  0.000000, -2.790391, -0.000000 )     1.71868741
  WF centre and spread    2  (  0.000000, -2.790391,  0.000000 )     1.71868779
  WF centre and spread    3  (  2.790391,  0.000000, -0.000000 )     1.71868734
  Sum of centres and spreads (  2.790392, -5.580782,  0.000000 )     5.15606253
 
     62    -0.115E-12     0.0000036047        5.1560644022       0.17  <-- CONV
        O_D=      0.0000000 O_OD=      0.0115936 O_TOT=      5.1560644 <-- SPRD
 Delta: O_D= -0.1720691E-13 O_OD= -0.9716013E-13 O_TOT= -0.1145750E-12 <-- DLTA
 ------------------------------------------------------------------------------
 Cycle:     63
  WF centre and spread    1  (  0.000000, -2.790391, -0.000000 )     1.71868741
  WF centre and spread    2  (  0.000000, -2.790391,  0.000000 )     1.71868779
  WF centre and spread    3  (  2.790391,  0.000000, -0.000000 )     1.71868734
  Sum of centres and spreads (  2.790392, -5.580782,  0.000000 )     5.15606253
 
     63    -0.171E-12     0.0000036040        5.1560644022       0.17  <-- CONV
        O_D=      0.0000000 O_OD=      0.0115936 O_TOT=      5.1560644 <-- SPRD
 Delta: O_D= -0.2578823E-13 O_OD= -0.1456613E-12 O_TOT= -0.1714184E-12 <-- DLTA
 ------------------------------------------------------------------------------
 Cycle:     64
  WF centre and spread    1  (  0.000000, -2.790391, -0.000000 )     1.71868741
  WF centre and spread    2  (  0.000000, -2.790391,  0.000000 )     1.71868779
  WF centre and spread    3  (  2.790391,  0.000000, -0.000000 )     1.71868734
  Sum of centres and spreads (  2.790392, -5.580782,  0.000000 )     5.15606253
 
     64    -0.228E-12     0.0000036030        5.1560644022       0.18  <-- CONV
        O_D=      0.0000000 O_OD=      0.0115936 O_TOT=      5.1560644 <-- SPRD
 Delta: O_D= -0.3434177E-13 O_OD= -0.1940982E-12 O_TOT= -0.2282619E-12 <-- DLTA
 ------------------------------------------------------------------------------
 Cycle:     65
  WF centre and spread    1  (  0.000000, -2.790391, -0.000000 )     1.71868741
  WF centre and spread    2  (  0.000000, -2.790391,  0.000000 )     1.71868779
  WF centre and spread    3  (  2.790391,  0.000000, -0.000000 )     1.71868734
  Sum of centres and spreads (  2.790392, -5.580782,  0.000000 )     5.15606253
 
     65    -0.285E-12     0.0000036016        5.1560644022       0.18  <-- CONV
        O_D=      0.0000000 O_OD=      0.0115936 O_TOT=      5.1560644 <-- SPRD
 Delta: O_D= -0.4285791E-13 O_OD= -0.2423634E-12 O_TOT= -0.2851053E-12 <-- DLTA
 ------------------------------------------------------------------------------
 Cycle:     66
  WF centre and spread    1  (  0.000000, -2.790391, -0.000000 )     1.71868741
  WF centre and spread    2  (  0.000000, -2.790391,  0.000000 )     1.71868779
  WF centre and spread    3  (  2.790391,  0.000000, -0.000000 )     1.71868734
  Sum of centres and spreads (  2.790392, -5.580782,  0.000000 )     5.15606253
 
     66    -0.342E-12     0.0000035999        5.1560644022       0.18  <-- CONV
        O_D=      0.0000000 O_OD=      0.0115936 O_TOT=      5.1560644 <-- SPRD
 Delta: O_D= -0.5132725E-13 O_OD= -0.2905037E-12 O_TOT= -0.3419487E-12 <-- DLTA
 ------------------------------------------------------------------------------
 Cycle:     67
  WF centre and spread    1  (  0.000000, -2.790391, -0.000000 )     1.71868741
  WF centre and spread    2  (  0.000000, -2.790391,  0.000000 )     1.71868779
  WF centre and spread    3  (  2.790391,  0.000000, -0.000000 )     1.71868734
  Sum of centres and spreads (  2.790392, -5.580782,  0.000000 )     5.15606253
 
     67    -0.568E-13     0.0000035978        5.1560644022       0.18  <-- CONV
        O_D=      0.0000000 O_OD=      0.0115936 O_TOT=      5.1560644 <-- SPRD
 Delta: O_D= -0.8539610E-14 O_OD= -0.4843868E-13 O_TOT= -0.5684342E-13 <-- DLTA
 ------------------------------------------------------------------------------
 Cycle:     68
  WF centre and spread    1  (  0.000000, -2.790391, -0.000000 )     1.71868741
  WF centre and spread    2  (  0.000000, -2.790391,  0.000000 )     1.71868779
  WF centre and spread    3  (  2.790391,  0.000000, -0.000000 )     1.71868734
  Sum of centres and spreads (  2.790392, -5.580782,  0.000000 )     5.15606253
 
     68    -0.115E-12     0.0000035975        5.1560644022       0.18  <-- CONV
        O_D=      0.0000000 O_OD=      0.0115936 O_TOT=      5.1560644 <-- SPRD
 Delta: O_D= -0.1707127E-13 O_OD= -0.9682879E-13 O_TOT= -0.1145750E-12 <-- DLTA
 ------------------------------------------------------------------------------
 Cycle:     69
  WF centre and spread    1  (  0.000000, -2.790391, -0.000000 )     1.71868741
  WF centre and spread    2  (  0.000000, -2.790391,  0.000000 )     1.71868779
  WF centre and spread    3  (  2.790391,  0.000000, -0.000000 )     1.71868734
  Sum of centres and spreads (  2.790392, -5.580782,  0.000000 )     5.15606253
 
     69    -0.126E-10     0.0000035968        5.1560644022       0.18  <-- CONV
        O_D=      0.0000000 O_OD=      0.0115936 O_TOT=      5.1560644 <-- SPRD
 Delta: O_D= -0.1863088E-11 O_OD= -0.1069955E-10 O_TOT= -0.1256151E-10 <-- DLTA
 ------------------------------------------------------------------------------
 Cycle:     70
  WF centre and spread    1  (  0.000000, -2.790391, -0.000000 )     1.71868741
  WF centre and spread    2  (  0.000000, -2.790391,  0.000000 )     1.71868779
  WF centre and spread    3  (  2.790391,  0.000000, -0.000000 )     1.71868734
  Sum of centres and spreads (  2.790392, -5.580782,  0.000000 )     5.15606253
 
     70    -0.216E-12     0.0000035262        5.1560644021       0.19  <-- CONV
        O_D=      0.0000000 O_OD=      0.0115936 O_TOT=      5.1560644 <-- SPRD
 Delta: O_D= -0.3145502E-13 O_OD= -0.1839431E-12 O_TOT= -0.2158274E-12 <-- DLTA
 ------------------------------------------------------------------------------
 Cycle:     71
  WF centre and spread    1  (  0.000000, -2.790391, -0.000000 )     1.71868741
  WF centre and spread    2  (  0.000000, -2.790391,  0.000000 )     1.71868779
  WF centre and spread    3  (  2.790391,  0.000000, -0.000000 )     1.71868734
  Sum of centres and spreads (  2.790392, -5.580782,  0.000000 )     5.15606253
 
     71    -0.270E-12     0.0000035251        5.1560644021       0.19  <-- CONV
        O_D=      0.0000000 O_OD=      0.0115936 O_TOT=      5.1560644 <-- SPRD
 Delta: O_D= -0.3928366E-13 O_OD= -0.2305690E-12 O_TOT= -0.2700062E-12 <-- DLTA
 ------------------------------------------------------------------------------
 Cycle:     72
  WF centre and spread    1  (  0.000000, -2.790391, -0.000000 )     1.71868741
  WF centre and spread    2  (  0.000000, -2.790391,  0.000000 )     1.71868779
  WF centre and spread    3  (  2.790391,  0.000000, -0.000000 )     1.71868734
  Sum of centres and spreads (  2.790392, -5.580782,  0.000000 )     5.15606253
 
     72    -0.324E-12     0.0000035237        5.1560644021       0.19  <-- CONV
        O_D=      0.0000000 O_OD=      0.0115936 O_TOT=      5.1560644 <-- SPRD
 Delta: O_D= -0.4707782E-13 O_OD= -0.2771030E-12 O_TOT= -0.3241851E-12 <-- DLTA
 ------------------------------------------------------------------------------
 Cycle:     73
  WF centre and spread    1  (  0.000000, -2.790391, -0.000000 )     1.71868741
  WF centre and spread    2  (  0.000000, -2.790391,  0.000000 )     1.71868779
  WF centre and spread    3  (  2.790391,  0.000000, -0.000000 )     1.71868734
  Sum of centres and spreads (  2.790392, -5.580782,  0.000000 )     5.15606253
 
     73    -0.551E-13     0.0000035221        5.1560644021       0.19  <-- CONV
        O_D=      0.0000000 O_OD=      0.0115936 O_TOT=      5.1560644 <-- SPRD
 Delta: O_D= -0.7849002E-14 O_OD= -0.4673692E-13 O_TOT= -0.5506706E-13 <-- DLTA
 ------------------------------------------------------------------------------
 Cycle:     74
  WF centre and spread    1  (  0.000000, -2.790391, -0.000000 )     1.71868741
  WF centre and spread    2  (  0.000000, -2.790391,  0.000000 )     1.71868779
  WF centre and spread    3  (  2.790391,  0.000000, -0.000000 )     1.71868734
  Sum of centres and spreads (  2.790392, -5.580782,  0.000000 )     5.15606253
 
     74    -0.108E-12     0.0000035218        5.1560644021       0.19  <-- CONV
        O_D=      0.0000000 O_OD=      0.0115936 O_TOT=      5.1560644 <-- SPRD
 Delta: O_D= -0.1569249E-13 O_OD= -0.9348425E-13 O_TOT= -0.1083578E-12 <-- DLTA
 ------------------------------------------------------------------------------
 Cycle:     75
  WF centre and spread    1  (  0.000000, -2.790391, -0.000000 )     1.71868741
  WF centre and spread    2  (  0.000000, -2.790391,  0.000000 )     1.71868779
  WF centre and spread    3  (  2.790391,  0.000000, -0.000000 )     1.71868734
  Sum of centres and spreads (  2.790392, -5.580782,  0.000000 )     5.15606253
 
     75    -0.164E-12     0.0000035213        5.1560644021       0.19  <-- CONV
        O_D=      0.0000000 O_OD=      0.0115936 O_TOT=      5.1560644 <-- SPRD
 Delta: O_D= -0.2352383E-13 O_OD= -0.1401431E-12 O_TOT= -0.1643130E-12 <-- DLTA
 ------------------------------------------------------------------------------
 Cycle:     76
  WF centre and spread    1  (  0.000000, -2.790391, -0.000000 )     1.71868741
  WF centre and spread    2  (  0.000000, -2.790391,  0.000000 )     1.71868779
  WF centre and spread    3  (  2.790391,  0.000000, -0.000000 )     1.71868734
  Sum of centres and spreads (  2.790392, -5.580782,  0.000000 )     5.15606253
 
     76    -0.218E-12     0.0000035206        5.1560644021       0.19  <-- CONV
        O_D=      0.0000000 O_OD=      0.0115936 O_TOT=      5.1560644 <-- SPRD
 Delta: O_D= -0.3133645E-13 O_OD= -0.1867968E-12 O_TOT= -0.2176037E-12 <-- DLTA
 ------------------------------------------------------------------------------
 Cycle:     77
  WF centre and spread    1  (  0.000000, -2.790391, -0.000000 )     1.71868741
  WF centre and spread    2  (  0.000000, -2.790391,  0.000000 )     1.71868779
  WF centre and spread    3  (  2.790391,  0.000000, -0.000000 )     1.71868734
  Sum of centres and spreads (  2.790392, -5.580782,  0.000000 )     5.15606253
 
     77    -0.273E-12     0.0000035196        5.1560644021       0.19  <-- CONV
        O_D=      0.0000000 O_OD=      0.0115936 O_TOT=      5.1560644 <-- SPRD
 Delta: O_D= -0.3912381E-13 O_OD= -0.2333203E-12 O_TOT= -0.2726708E-12 <-- DLTA
 ------------------------------------------------------------------------------
 Cycle:     78
  WF centre and spread    1  (  0.000000, -2.790391, -0.000000 )     1.71868741
  WF centre and spread    2  (  0.000000, -2.790391,  0.000000 )     1.71868779
  WF centre and spread    3  (  2.790391,  0.000000, -0.000000 )     1.71868734
  Sum of centres and spreads (  2.790392, -5.580782,  0.000000 )     5.15606253
 
     78    -0.327E-12     0.0000035183        5.1560644021       0.20  <-- CONV
        O_D=      0.0000000 O_OD=      0.0115936 O_TOT=      5.1560644 <-- SPRD
 Delta: O_D= -0.4687949E-13 O_OD= -0.2797172E-12 O_TOT= -0.3268497E-12 <-- DLTA
 ------------------------------------------------------------------------------
 Cycle:     79
  WF centre and spread    1  (  0.000000, -2.790391, -0.000000 )     1.71868741
  WF centre and spread    2  (  0.000000, -2.790391,  0.000000 )     1.71868779
  WF centre and spread    3  (  2.790391,  0.000000, -0.000000 )     1.71868734
  Sum of centres and spreads (  2.790392, -5.580782,  0.000000 )     5.15606253
 
     79    -0.542E-13     0.0000035168        5.1560644021       0.20  <-- CONV
        O_D=      0.0000000 O_OD=      0.0115936 O_TOT=      5.1560644 <-- SPRD
 Delta: O_D= -0.7803371E-14 O_OD= -0.4663804E-13 O_TOT= -0.5417888E-13 <-- DLTA
 ------------------------------------------------------------------------------
 Cycle:     80
  WF centre and spread    1  (  0.000000, -2.790391, -0.000000 )     1.71868741
  WF centre and spread    2  (  0.000000, -2.790391,  0.000000 )     1.71868779
  WF centre and spread    3  (  2.790391,  0.000000, -0.000000 )     1.71868734
  Sum of centres and spreads (  2.790392, -5.580782,  0.000000 )     5.15606253
 
     80    -0.108E-12     0.0000035165        5.1560644021       0.20  <-- CONV
        O_D=      0.0000000 O_OD=      0.0115936 O_TOT=      5.1560644 <-- SPRD
 Delta: O_D= -0.1560136E-13 O_OD= -0.9323618E-13 O_TOT= -0.1083578E-12 <-- DLTA
 ------------------------------------------------------------------------------
 Cycle:     81
  WF centre and spread    1  (  0.000000, -2.790391, -0.000000 )     1.71868741
  WF centre and spread    2  (  0.000000, -2.790391,  0.000000 )     1.71868779
  WF centre and spread    3  (  2.790391,  0.000000, -0.000000 )     1.71868734
  Sum of centres and spreads (  2.790392, -5.580782,  0.000000 )     5.15606253
 
     81    -0.164E-12     0.0000035160        5.1560644021       0.20  <-- CONV
        O_D=      0.0000000 O_OD=      0.0115936 O_TOT=      5.1560644 <-- SPRD
 Delta: O_D= -0.2338748E-13 O_OD= -0.1398291E-12 O_TOT= -0.1643130E-12 <-- DLTA
 ------------------------------------------------------------------------------
 Cycle:     82
  WF centre and spread    1  (  0.000000, -2.790391, -0.000000 )     1.71868741
  WF centre and spread    2  (  0.000000, -2.790391,  0.000000 )     1.71868779
  WF centre and spread    3  (  2.790391,  0.000000, -0.000000 )     1.71868734
  Sum of centres and spreads (  2.790392, -5.580782,  0.000000 )     5.15606253
 
     82    -0.217E-12     0.0000035153        5.1560644021       0.20  <-- CONV
        O_D=      0.0000000 O_OD=      0.0115936 O_TOT=      5.1560644 <-- SPRD
 Delta: O_D= -0.3115530E-13 O_OD= -0.1863162E-12 O_TOT= -0.2167155E-12 <-- DLTA
 ------------------------------------------------------------------------------
 Cycle:     83
  WF centre and spread    1  (  0.000000, -2.790391, -0.000000 )     1.71868741
  WF centre and spread    2  (  0.000000, -2.790391,  0.000000 )     1.71868779
  WF centre and spread    3  (  2.790391,  0.000000, -0.000000 )     1.71868734
  Sum of centres and spreads (  2.790392, -5.580782,  0.000000 )     5.15606253
 
     83    -0.271E-12     0.0000035143        5.1560644021       0.20  <-- CONV
        O_D=      0.0000000 O_OD=      0.0115936 O_TOT=      5.1560644 <-- SPRD
 Delta: O_D= -0.3889844E-13 O_OD= -0.2327218E-12 O_TOT= -0.2708944E-12 <-- DLTA
 ------------------------------------------------------------------------------
 Cycle:     84
  WF centre and spread    1  (  0.000000, -2.790391, -0.000000 )     1.71868741
  WF centre and spread    2  (  0.000000, -2.790391,  0.000000 )     1.71868779
  WF centre and spread    3  (  2.790391,  0.000000, -0.000000 )     1.71868734
  Sum of centres and spreads (  2.790392, -5.580782,  0.000000 )     5.15606253
 
     84    -0.326E-12     0.0000035131        5.1560644021       0.20  <-- CONV
        O_D=      0.0000000 O_OD=      0.0115936 O_TOT=      5.1560644 <-- SPRD
 Delta: O_D= -0.4661062E-13 O_OD= -0.2790199E-12 O_TOT= -0.3259615E-12 <-- DLTA
 ------------------------------------------------------------------------------
 Cycle:     85
  WF centre and spread    1  (  0.000000, -2.790391, -0.000000 )     1.71868741
  WF centre and spread    2  (  0.000000, -2.790391,  0.000000 )     1.71868779
  WF centre and spread    3  (  2.790391,  0.000000, -0.000000 )     1.71868734
  Sum of centres and spreads (  2.790392, -5.580782,  0.000000 )     5.15606253
 
     85    -0.551E-13     0.0000035116        5.1560644021       0.21  <-- CONV
        O_D=      0.0000000 O_OD=      0.0115936 O_TOT=      5.1560644 <-- SPRD
 Delta: O_D= -0.7758804E-14 O_OD= -0.4650273E-13 O_TOT= -0.5506706E-13 <-- DLTA
 ------------------------------------------------------------------------------
 Cycle:     86
  WF centre and spread    1  (  0.000000, -2.790391, -0.000000 )     1.71868741
  WF centre and spread    2  (  0.000000, -2.790391,  0.000000 )     1.71868779
  WF centre and spread    3  (  2.790391,  0.000000, -0.000000 )     1.71868734
  Sum of centres and spreads (  2.790392, -5.580782,  0.000000 )     5.15606253
 
     86    -0.108E-12     0.0000035113        5.1560644021       0.21  <-- CONV
        O_D=      0.0000000 O_OD=      0.0115936 O_TOT=      5.1560644 <-- SPRD
 Delta: O_D= -0.1551234E-13 O_OD= -0.9302802E-13 O_TOT= -0.1083578E-12 <-- DLTA
 ------------------------------------------------------------------------------
 Cycle:     87
  WF centre and spread    1  (  0.000000, -2.790391, -0.000000 )     1.71868741
  WF centre and spread    2  (  0.000000, -2.790391,  0.000000 )     1.71868779
  WF centre and spread    3  (  2.790391,  0.000000, -0.000000 )     1.71868734
  Sum of centres and spreads (  2.790392, -5.580782,  0.000000 )     5.15606253
 
     87    -0.163E-12     0.0000035108        5.1560644021       0.21  <-- CONV
        O_D=      0.0000000 O_OD=      0.0115936 O_TOT=      5.1560644 <-- SPRD
 Delta: O_D= -0.2325428E-13 O_OD= -0.1394683E-12 O_TOT= -0.1625367E-12 <-- DLTA
 ------------------------------------------------------------------------------
 Cycle:     88
  WF centre and spread    1  (  0.000000, -2.790391, -0.000000 )     1.71868741
  WF centre and spread    2  (  0.000000, -2.790391,  0.000000 )     1.71868779
  WF centre and spread    3  (  2.790391,  0.000000, -0.000000 )     1.71868734
  Sum of centres and spreads (  2.790392, -5.580782,  0.000000 )     5.15606253
 
     88    -0.217E-12     0.0000035101        5.1560644021       0.21  <-- CONV
        O_D=      0.0000000 O_OD=      0.0115936 O_TOT=      5.1560644 <-- SPRD
 Delta: O_D= -0.3097833E-13 O_OD= -0.1858305E-12 O_TOT= -0.2167155E-12 <-- DLTA
 ------------------------------------------------------------------------------
 Cycle:     89
  WF centre and spread    1  (  0.000000, -2.790391, -0.000000 )     1.71868741
  WF centre and spread    2  (  0.000000, -2.790391,  0.000000 )     1.71868779
  WF centre and spread    3  (  2.790391,  0.000000, -0.000000 )     1.71868734
  Sum of centres and spreads (  2.790392, -5.580782,  0.000000 )     5.15606253
 
     89    -0.271E-12     0.0000035091        5.1560644021       0.21  <-- CONV
        O_D=      0.0000000 O_OD=      0.0115936 O_TOT=      5.1560644 <-- SPRD
 Delta: O_D= -0.3867825E-13 O_OD= -0.2321563E-12 O_TOT= -0.2708944E-12 <-- DLTA
 ------------------------------------------------------------------------------
 Cycle:     90
  WF centre and spread    1  (  0.000000, -2.790391, -0.000000 )     1.71868741
  WF centre and spread    2  (  0.000000, -2.790391,  0.000000 )     1.71868779
  WF centre and spread    3  (  2.790391,  0.000000, -0.000000 )     1.71868734
  Sum of centres and spreads (  2.790392, -5.580782,  0.000000 )     5.15606253
 
     90    -0.325E-12     0.0000035079        5.1560644021       0.21  <-- CONV
        O_D=      0.0000000 O_OD=      0.0115936 O_TOT=      5.1560644 <-- SPRD
 Delta: O_D= -0.4634789E-13 O_OD= -0.2783416E-12 O_TOT= -0.3250733E-12 <-- DLTA
 ------------------------------------------------------------------------------
 Cycle:     91
  WF centre and spread    1  (  0.000000, -2.790391, -0.000000 )     1.71868741
  WF centre and spread    2  (  0.000000, -2.790391,  0.000000 )     1.71868779
  WF centre and spread    3  (  2.790391,  0.000000, -0.000000 )     1.71868734
  Sum of centres and spreads (  2.790392, -5.580782,  0.000000 )     5.15606253
 
     91    -0.542E-13     0.0000035065        5.1560644021       0.21  <-- CONV
        O_D=      0.0000000 O_OD=      0.0115936 O_TOT=      5.1560644 <-- SPRD
 Delta: O_D= -0.7715250E-14 O_OD= -0.4639518E-13 O_TOT= -0.5417888E-13 <-- DLTA
 ------------------------------------------------------------------------------
 Cycle:     92
  WF centre and spread    1  (  0.000000, -2.790391, -0.000000 )     1.71868741
  WF centre and spread    2  (  0.000000, -2.790391,  0.000000 )     1.71868779
  WF centre and spread    3  (  2.790391,  0.000000, -0.000000 )     1.71868734
  Sum of centres and spreads (  2.790392, -5.580782,  0.000000 )     5.15606253
 
     92    -0.107E-12     0.0000035062        5.1560644021       0.21  <-- CONV
        O_D=      0.0000000 O_OD=      0.0115936 O_TOT=      5.1560644 <-- SPRD
 Delta: O_D= -0.1542535E-13 O_OD= -0.9278515E-13 O_TOT= -0.1074696E-12 <-- DLTA
 ------------------------------------------------------------------------------
 Cycle:     93
  WF centre and spread    1  (  0.000000, -2.790391, -0.000000 )     1.71868741
  WF centre and spread    2  (  0.000000, -2.790391,  0.000000 )     1.71868779
  WF centre and spread    3  (  2.790391,  0.000000, -0.000000 )     1.71868734
  Sum of centres and spreads (  2.790392, -5.580782,  0.000000 )     5.15606253
 
     93    -0.163E-12     0.0000035057        5.1560644021       0.22  <-- CONV
        O_D=      0.0000000 O_OD=      0.0115936 O_TOT=      5.1560644 <-- SPRD
 Delta: O_D= -0.2312410E-13 O_OD= -0.1391161E-12 O_TOT= -0.1625367E-12 <-- DLTA
 ------------------------------------------------------------------------------
 Cycle:     94
  WF centre and spread    1  (  0.000000, -2.790391, -0.000000 )     1.71868741
  WF centre and spread    2  (  0.000000, -2.790391,  0.000000 )     1.71868779
  WF centre and spread    3  (  2.790391,  0.000000, -0.000000 )     1.71868734
  Sum of centres and spreads (  2.790392, -5.580782,  0.000000 )     5.15606253
 
     94    -0.217E-12     0.0000035050        5.1560644021       0.22  <-- CONV
        O_D=      0.0000000 O_OD=      0.0115936 O_TOT=      5.1560644 <-- SPRD
 Delta: O_D= -0.3080536E-13 O_OD= -0.1854038E-12 O_TOT= -0.2167155E-12 <-- DLTA
 ------------------------------------------------------------------------------
 Cycle:     95
  WF centre and spread    1  (  0.000000, -2.790391, -0.000000 )     1.71868741
  WF centre and spread    2  (  0.000000, -2.790391,  0.000000 )     1.71868779
  WF centre and spread    3  (  2.790391,  0.000000, -0.000000 )     1.71868734
  Sum of centres and spreads (  2.790392, -5.580782,  0.000000 )     5.15606253
 
     95    -0.269E-12     0.0000035041        5.1560644021       0.22  <-- CONV
        O_D=      0.0000000 O_OD=      0.0115936 O_TOT=      5.1560644 <-- SPRD
 Delta: O_D= -0.3846301E-13 O_OD= -0.2315856E-12 O_TOT= -0.2691181E-12 <-- DLTA
 ------------------------------------------------------------------------------
 Cycle:     96
  WF centre and spread    1  (  0.000000, -2.790391, -0.000000 )     1.71868741
  WF centre and spread    2  (  0.000000, -2.790391,  0.000000 )     1.71868779
  WF centre and spread    3  (  2.790391,  0.000000, -0.000000 )     1.71868734
  Sum of centres and spreads (  2.790392, -5.580782,  0.000000 )     5.15606253
 
     96    -0.324E-12     0.0000035029        5.1560644021       0.22  <-- CONV
        O_D=      0.0000000 O_OD=      0.0115936 O_TOT=      5.1560644 <-- SPRD
 Delta: O_D= -0.4609103E-13 O_OD= -0.2776720E-12 O_TOT= -0.3241851E-12 <-- DLTA
 ------------------------------------------------------------------------------
 Cycle:     97
  WF centre and spread    1  (  0.000000, -2.790391, -0.000000 )     1.71868741
  WF centre and spread    2  (  0.000000, -2.790391,  0.000000 )     1.71868779
  WF centre and spread    3  (  2.790391,  0.000000, -0.000000 )     1.71868734
  Sum of centres and spreads (  2.790392, -5.580782,  0.000000 )     5.15606253
 
[...]
  Sum of centres and spreads (  2.790392, -5.580782,  0.000000 )     5.15606253
 
    473    -0.225E-12     0.0000031993        5.1560644021       0.97  <-- CONV
        O_D=      0.0000000 O_OD=      0.0115936 O_TOT=      5.1560644 <-- SPRD
 Delta: O_D= -0.2733484E-13 O_OD= -0.1978383E-12 O_TOT= -0.2247091E-12 <-- DLTA
 ------------------------------------------------------------------------------
 Cycle:    474
  WF centre and spread    1  (  0.000000, -2.790391, -0.000000 )     1.71868741
  WF centre and spread    2  (  0.000000, -2.790391,  0.000000 )     1.71868779
  WF centre and spread    3  (  2.790391,  0.000000, -0.000000 )     1.71868734
  Sum of centres and spreads (  2.790392, -5.580782,  0.000000 )     5.15606253
 
    474    -0.271E-12     0.0000031987        5.1560644021       0.97  <-- CONV
        O_D=      0.0000000 O_OD=      0.0115936 O_TOT=      5.1560644 <-- SPRD
 Delta: O_D= -0.3277363E-13 O_OD= -0.2372703E-12 O_TOT= -0.2708944E-12 <-- DLTA
 ------------------------------------------------------------------------------
 Cycle:    475
  WF centre and spread    1  (  0.000000, -2.790391, -0.000000 )     1.71868741
  WF centre and spread    2  (  0.000000, -2.790391,  0.000000 )     1.71868779
  WF centre and spread    3  (  2.790391,  0.000000, -0.000000 )     1.71868734
  Sum of centres and spreads (  2.790392, -5.580782,  0.000000 )     5.15606253
 
    475    -0.444E-13     0.0000031978        5.1560644021       0.97  <-- CONV
        O_D=      0.0000000 O_OD=      0.0115936 O_TOT=      5.1560644 <-- SPRD
 Delta: O_D= -0.5458264E-14 O_OD= -0.3955343E-13 O_TOT= -0.4440892E-13 <-- DLTA
 ------------------------------------------------------------------------------
 Cycle:    476
  WF centre and spread    1  (  0.000000, -2.790391, -0.000000 )     1.71868741
  WF centre and spread    2  (  0.000000, -2.790391,  0.000000 )     1.71868779
  WF centre and spread    3  (  2.790391,  0.000000, -0.000000 )     1.71868734
  Sum of centres and spreads (  2.790392, -5.580782,  0.000000 )     5.15606253
 
    476    -0.897E-13     0.0000031977        5.1560644021       0.97  <-- CONV
        O_D=      0.0000000 O_OD=      0.0115936 O_TOT=      5.1560644 <-- SPRD
 Delta: O_D= -0.1091431E-13 O_OD= -0.7908084E-13 O_TOT= -0.8970602E-13 <-- DLTA
 ------------------------------------------------------------------------------
 Cycle:    477
  WF centre and spread    1  (  0.000000, -2.790391, -0.000000 )     1.71868741
  WF centre and spread    2  (  0.000000, -2.790391,  0.000000 )     1.71868779
  WF centre and spread    3  (  2.790391,  0.000000, -0.000000 )     1.71868734
  Sum of centres and spreads (  2.790392, -5.580782,  0.000000 )     5.15606253
 
    477    -0.136E-12     0.0000031974        5.1560644021       0.97  <-- CONV
        O_D=      0.0000000 O_OD=      0.0115936 O_TOT=      5.1560644 <-- SPRD
 Delta: O_D= -0.1636545E-13 O_OD= -0.1186308E-12 O_TOT= -0.1358913E-12 <-- DLTA
 ------------------------------------------------------------------------------
 Cycle:    478
  WF centre and spread    1  (  0.000000, -2.790391, -0.000000 )     1.71868741
  WF centre and spread    2  (  0.000000, -2.790391,  0.000000 )     1.71868779
  WF centre and spread    3  (  2.790391,  0.000000, -0.000000 )     1.71868734
  Sum of centres and spreads (  2.790392, -5.580782,  0.000000 )     5.15606253
 
    478    -0.179E-12     0.0000031970        5.1560644021       0.97  <-- CONV
        O_D=      0.0000000 O_OD=      0.0115936 O_TOT=      5.1560644 <-- SPRD
 Delta: O_D= -0.2180902E-13 O_OD= -0.1580906E-12 O_TOT= -0.1794120E-12 <-- DLTA
 ------------------------------------------------------------------------------
 Cycle:    479
  WF centre and spread    1  (  0.000000, -2.790391, -0.000000 )     1.71868741
  WF centre and spread    2  (  0.000000, -2.790391,  0.000000 )     1.71868779
  WF centre and spread    3  (  2.790391,  0.000000, -0.000000 )     1.71868734
  Sum of centres and spreads (  2.790392, -5.580782,  0.000000 )     5.15606253
 
    479    -0.225E-12     0.0000031965        5.1560644021       0.97  <-- CONV
        O_D=      0.0000000 O_OD=      0.0115936 O_TOT=      5.1560644 <-- SPRD
 Delta: O_D= -0.2724234E-13 O_OD= -0.1975035E-12 O_TOT= -0.2247091E-12 <-- DLTA
 ------------------------------------------------------------------------------
 Cycle:    480
  WF centre and spread    1  (  0.000000, -2.790391, -0.000000 )     1.71868741
  WF centre and spread    2  (  0.000000, -2.790391,  0.000000 )     1.71868779
  WF centre and spread    3  (  2.790391,  0.000000, -0.000000 )     1.71868734
  Sum of centres and spreads (  2.790392, -5.580782,  0.000000 )     5.15606253
 
    480    -0.270E-12     0.0000031958        5.1560644021       0.97  <-- CONV
        O_D=      0.0000000 O_OD=      0.0115936 O_TOT=      5.1560644 <-- SPRD
 Delta: O_D= -0.3266276E-13 O_OD= -0.2369303E-12 O_TOT= -0.2700062E-12 <-- DLTA
 ------------------------------------------------------------------------------
 Cycle:    481
  WF centre and spread    1  (  0.000000, -2.790391, -0.000000 )     1.71868741
  WF centre and spread    2  (  0.000000, -2.790391,  0.000000 )     1.71868779
  WF centre and spread    3  (  2.790391,  0.000000, -0.000000 )     1.71868734
  Sum of centres and spreads (  2.790392, -5.580782,  0.000000 )     5.15606253
 
    481    -0.444E-13     0.0000031950        5.1560644021       0.98  <-- CONV
        O_D=      0.0000000 O_OD=      0.0115936 O_TOT=      5.1560644 <-- SPRD
 Delta: O_D= -0.5439799E-14 O_OD= -0.3948751E-13 O_TOT= -0.4440892E-13 <-- DLTA
 ------------------------------------------------------------------------------
 Cycle:    482
  WF centre and spread    1  (  0.000000, -2.790391, -0.000000 )     1.71868741
  WF centre and spread    2  (  0.000000, -2.790391,  0.000000 )     1.71868779
  WF centre and spread    3  (  2.790391,  0.000000, -0.000000 )     1.71868734
  Sum of centres and spreads (  2.790392, -5.580782,  0.000000 )     5.15606253
 
    482    -0.897E-13     0.0000031949        5.1560644021       0.98  <-- CONV
        O_D=      0.0000000 O_OD=      0.0115936 O_TOT=      5.1560644 <-- SPRD
 Delta: O_D= -0.1087739E-13 O_OD= -0.7898369E-13 O_TOT= -0.8970602E-13 <-- DLTA
 ------------------------------------------------------------------------------
 Cycle:    483
  WF centre and spread    1  (  0.000000, -2.790391, -0.000000 )     1.71868741
  WF centre and spread    2  (  0.000000, -2.790391,  0.000000 )     1.71868779
  WF centre and spread    3  (  2.790391,  0.000000, -0.000000 )     1.71868734
  Sum of centres and spreads (  2.790392, -5.580782,  0.000000 )     5.15606253
 
    483    -0.136E-12     0.0000031946        5.1560644021       0.98  <-- CONV
        O_D=      0.0000000 O_OD=      0.0115936 O_TOT=      5.1560644 <-- SPRD
 Delta: O_D= -0.1631009E-13 O_OD= -0.1184174E-12 O_TOT= -0.1358913E-12 <-- DLTA
 ------------------------------------------------------------------------------
 Cycle:    484
  WF centre and spread    1  (  0.000000, -2.790391, -0.000000 )     1.71868741
  WF centre and spread    2  (  0.000000, -2.790391,  0.000000 )     1.71868779
  WF centre and spread    3  (  2.790391,  0.000000, -0.000000 )     1.71868734
  Sum of centres and spreads (  2.790392, -5.580782,  0.000000 )     5.15606253
 
    484    -0.179E-12     0.0000031942        5.1560644021       0.98  <-- CONV
        O_D=      0.0000000 O_OD=      0.0115936 O_TOT=      5.1560644 <-- SPRD
 Delta: O_D= -0.2173526E-13 O_OD= -0.1578494E-12 O_TOT= -0.1785239E-12 <-- DLTA
 ------------------------------------------------------------------------------
 Cycle:    485
  WF centre and spread    1  (  0.000000, -2.790391, -0.000000 )     1.71868741
  WF centre and spread    2  (  0.000000, -2.790391,  0.000000 )     1.71868779
  WF centre and spread    3  (  2.790391,  0.000000, -0.000000 )     1.71868734
  Sum of centres and spreads (  2.790392, -5.580782,  0.000000 )     5.15606253
 
    485    -0.225E-12     0.0000031937        5.1560644021       0.98  <-- CONV
        O_D=      0.0000000 O_OD=      0.0115936 O_TOT=      5.1560644 <-- SPRD
 Delta: O_D= -0.2715023E-13 O_OD= -0.1972277E-12 O_TOT= -0.2247091E-12 <-- DLTA
 ------------------------------------------------------------------------------
 Cycle:    486
  WF centre and spread    1  (  0.000000, -2.790391, -0.000000 )     1.71868741
  WF centre and spread    2  (  0.000000, -2.790391,  0.000000 )     1.71868779
  WF centre and spread    3  (  2.790391,  0.000000, -0.000000 )     1.71868734
  Sum of centres and spreads (  2.790392, -5.580782,  0.000000 )     5.15606253
 
    486    -0.269E-12     0.0000031930        5.1560644021       0.98  <-- CONV
        O_D=      0.0000000 O_OD=      0.0115936 O_TOT=      5.1560644 <-- SPRD
 Delta: O_D= -0.3255236E-13 O_OD= -0.2365504E-12 O_TOT= -0.2691181E-12 <-- DLTA
 ------------------------------------------------------------------------------
 Cycle:    487
  WF centre and spread    1  (  0.000000, -2.790391, -0.000000 )     1.71868741
  WF centre and spread    2  (  0.000000, -2.790391,  0.000000 )     1.71868779
  WF centre and spread    3  (  2.790391,  0.000000, -0.000000 )     1.71868734
  Sum of centres and spreads (  2.790392, -5.580782,  0.000000 )     5.15606253
 
    487    -0.444E-13     0.0000031922        5.1560644021       0.98  <-- CONV
        O_D=      0.0000000 O_OD=      0.0115936 O_TOT=      5.1560644 <-- SPRD
 Delta: O_D= -0.5421409E-14 O_OD= -0.3943547E-13 O_TOT= -0.4440892E-13 <-- DLTA
 ------------------------------------------------------------------------------
 Cycle:    488
  WF centre and spread    1  (  0.000000, -2.790391, -0.000000 )     1.71868741
  WF centre and spread    2  (  0.000000, -2.790391,  0.000000 )     1.71868779
  WF centre and spread    3  (  2.790391,  0.000000, -0.000000 )     1.71868734
  Sum of centres and spreads (  2.790392, -5.580782,  0.000000 )     5.15606253
 
    488    -0.906E-13     0.0000031921        5.1560644021       0.98  <-- CONV
        O_D=      0.0000000 O_OD=      0.0115936 O_TOT=      5.1560644 <-- SPRD
 Delta: O_D= -0.1084062E-13 O_OD= -0.7884492E-13 O_TOT= -0.9059420E-13 <-- DLTA
 ------------------------------------------------------------------------------
 Cycle:    489
  WF centre and spread    1  (  0.000000, -2.790391, -0.000000 )     1.71868741
  WF centre and spread    2  (  0.000000, -2.790391,  0.000000 )     1.71868779
  WF centre and spread    3  (  2.790391,  0.000000, -0.000000 )     1.71868734
  Sum of centres and spreads (  2.790392, -5.580782,  0.000000 )     5.15606253
 
    489    -0.134E-12     0.0000031918        5.1560644021       0.99  <-- CONV
        O_D=      0.0000000 O_OD=      0.0115936 O_TOT=      5.1560644 <-- SPRD
 Delta: O_D= -0.1625497E-13 O_OD= -0.1182405E-12 O_TOT= -0.1341149E-12 <-- DLTA
 ------------------------------------------------------------------------------
 Cycle:    490
  WF centre and spread    1  (  0.000000, -2.790391, -0.000000 )     1.71868741
  WF centre and spread    2  (  0.000000, -2.790391,  0.000000 )     1.71868779
  WF centre and spread    3  (  2.790391,  0.000000, -0.000000 )     1.71868734
  Sum of centres and spreads (  2.790392, -5.580782,  0.000000 )     5.15606253
 
    490    -0.179E-12     0.0000031914        5.1560644021       0.99  <-- CONV
        O_D=      0.0000000 O_OD=      0.0115936 O_TOT=      5.1560644 <-- SPRD
 Delta: O_D= -0.2166181E-13 O_OD= -0.1576152E-12 O_TOT= -0.1785239E-12 <-- DLTA
 ------------------------------------------------------------------------------
 Cycle:    491
  WF centre and spread    1  (  0.000000, -2.790391, -0.000000 )     1.71868741
  WF centre and spread    2  (  0.000000, -2.790391,  0.000000 )     1.71868779
  WF centre and spread    3  (  2.790391,  0.000000, -0.000000 )     1.71868734
  Sum of centres and spreads (  2.790392, -5.580782,  0.000000 )     5.15606253
 
    491    -0.225E-12     0.0000031909        5.1560644021       0.99  <-- CONV
        O_D=      0.0000000 O_OD=      0.0115936 O_TOT=      5.1560644 <-- SPRD
 Delta: O_D= -0.2705851E-13 O_OD= -0.1969293E-12 O_TOT= -0.2247091E-12 <-- DLTA
 ------------------------------------------------------------------------------
 Cycle:    492
  WF centre and spread    1  (  0.000000, -2.790391, -0.000000 )     1.71868741
  WF centre and spread    2  (  0.000000, -2.790391,  0.000000 )     1.71868779
  WF centre and spread    3  (  2.790391,  0.000000, -0.000000 )     1.71868734
  Sum of centres and spreads (  2.790392, -5.580782,  0.000000 )     5.15606253
 
    492    -0.268E-12     0.0000031902        5.1560644021       0.99  <-- CONV
        O_D=      0.0000000 O_OD=      0.0115936 O_TOT=      5.1560644 <-- SPRD
 Delta: O_D= -0.3244242E-13 O_OD= -0.2361843E-12 O_TOT= -0.2682299E-12 <-- DLTA
 ------------------------------------------------------------------------------
 Cycle:    493
  WF centre and spread    1  (  0.000000, -2.790391, -0.000000 )     1.71868741
  WF centre and spread    2  (  0.000000, -2.790391,  0.000000 )     1.71868779
  WF centre and spread    3  (  2.790391,  0.000000, -0.000000 )     1.71868734
  Sum of centres and spreads (  2.790392, -5.580782,  0.000000 )     5.15606253
 
    493    -0.444E-13     0.0000031894        5.1560644021       0.99  <-- CONV
        O_D=      0.0000000 O_OD=      0.0115936 O_TOT=      5.1560644 <-- SPRD
 Delta: O_D= -0.5403098E-14 O_OD= -0.3937475E-13 O_TOT= -0.4440892E-13 <-- DLTA
 ------------------------------------------------------------------------------
 Cycle:    494
  WF centre and spread    1  (  0.000000, -2.790391, -0.000000 )     1.71868741
  WF centre and spread    2  (  0.000000, -2.790391,  0.000000 )     1.71868779
  WF centre and spread    3  (  2.790391,  0.000000, -0.000000 )     1.71868734
  Sum of centres and spreads (  2.790392, -5.580782,  0.000000 )     5.15606253
 
    494    -0.906E-13     0.0000031893        5.1560644021       0.99  <-- CONV
        O_D=      0.0000000 O_OD=      0.0115936 O_TOT=      5.1560644 <-- SPRD
 Delta: O_D= -0.1080400E-13 O_OD= -0.7871481E-13 O_TOT= -0.9059420E-13 <-- DLTA
 ------------------------------------------------------------------------------
 Cycle:    495
  WF centre and spread    1  (  0.000000, -2.790391, -0.000000 )     1.71868741
  WF centre and spread    2  (  0.000000, -2.790391,  0.000000 )     1.71868779
  WF centre and spread    3  (  2.790391,  0.000000, -0.000000 )     1.71868734
  Sum of centres and spreads (  2.790392, -5.580782,  0.000000 )     5.15606253
 
    495    -0.134E-12     0.0000031890        5.1560644021       0.99  <-- CONV
        O_D=      0.0000000 O_OD=      0.0115936 O_TOT=      5.1560644 <-- SPRD
 Delta: O_D= -0.1620007E-13 O_OD= -0.1180705E-12 O_TOT= -0.1341149E-12 <-- DLTA
 ------------------------------------------------------------------------------
 Cycle:    496
  WF centre and spread    1  (  0.000000, -2.790391, -0.000000 )     1.71868741
  WF centre and spread    2  (  0.000000, -2.790391,  0.000000 )     1.71868779
  WF centre and spread    3  (  2.790391,  0.000000, -0.000000 )     1.71868734
  Sum of centres and spreads (  2.790392, -5.580782,  0.000000 )     5.15606253
 
    496    -0.179E-12     0.0000031886        5.1560644021       0.99  <-- CONV
        O_D=      0.0000000 O_OD=      0.0115936 O_TOT=      5.1560644 <-- SPRD
 Delta: O_D= -0.2158867E-13 O_OD= -0.1573568E-12 O_TOT= -0.1785239E-12 <-- DLTA
 ------------------------------------------------------------------------------
 Cycle:    497
  WF centre and spread    1  (  0.000000, -2.790391, -0.000000 )     1.71868741
  WF centre and spread    2  (  0.000000, -2.790391,  0.000000 )     1.71868779
  WF centre and spread    3  (  2.790391,  0.000000, -0.000000 )     1.71868734
  Sum of centres and spreads (  2.790392, -5.580782,  0.000000 )     5.15606253
 
    497    -0.223E-12     0.0000031881        5.1560644021       0.99  <-- CONV
        O_D=      0.0000000 O_OD=      0.0115936 O_TOT=      5.1560644 <-- SPRD
 Delta: O_D= -0.2696717E-13 O_OD= -0.1966257E-12 O_TOT= -0.2229328E-12 <-- DLTA
 ------------------------------------------------------------------------------
 Cycle:    498
  WF centre and spread    1  (  0.000000, -2.790391, -0.000000 )     1.71868741
  WF centre and spread    2  (  0.000000, -2.790391,  0.000000 )     1.71868779
  WF centre and spread    3  (  2.790391,  0.000000, -0.000000 )     1.71868734
  Sum of centres and spreads (  2.790392, -5.580782,  0.000000 )     5.15606253
 
    498    -0.269E-12     0.0000031874        5.1560644021       1.00  <-- CONV
        O_D=      0.0000000 O_OD=      0.0115936 O_TOT=      5.1560644 <-- SPRD
 Delta: O_D= -0.3233294E-13 O_OD= -0.2358339E-12 O_TOT= -0.2691181E-12 <-- DLTA
 ------------------------------------------------------------------------------
 Cycle:    499
  WF centre and spread    1  (  0.000000, -2.790391, -0.000000 )     1.71868741
  WF centre and spread    2  (  0.000000, -2.790391,  0.000000 )     1.71868779
  WF centre and spread    3  (  2.790391,  0.000000, -0.000000 )     1.71868734
  Sum of centres and spreads (  2.790392, -5.580782,  0.000000 )     5.15606253
 
    499    -0.444E-13     0.0000031866        5.1560644021       1.00  <-- CONV
        O_D=      0.0000000 O_OD=      0.0115936 O_TOT=      5.1560644 <-- SPRD
 Delta: O_D= -0.5384862E-14 O_OD= -0.3928628E-13 O_TOT= -0.4440892E-13 <-- DLTA
 ------------------------------------------------------------------------------
 Cycle:    500
  WF centre and spread    1  (  0.000000, -2.790391, -0.000000 )     1.71868741
  WF centre and spread    2  (  0.000000, -2.790391,  0.000000 )     1.71868779
  WF centre and spread    3  (  2.790391,  0.000000, -0.000000 )     1.71868734
  Sum of centres and spreads (  2.790392, -5.580782,  0.000000 )     5.15606253
 
    500    -0.897E-13     0.0000031865        5.1560644021       1.00  <-- CONV
        O_D=      0.0000000 O_OD=      0.0115936 O_TOT=      5.1560644 <-- SPRD
 Delta: O_D= -0.1076754E-13 O_OD= -0.7862114E-13 O_TOT= -0.8970602E-13 <-- DLTA
 ------------------------------------------------------------------------------

 Writing checkpoint file mp-1342.chk... done

 Final State
  WF centre and spread    1  (  0.000000, -2.790391, -0.000000 )     1.71868741
  WF centre and spread    2  (  0.000000, -2.790391,  0.000000 )     1.71868779
  WF centre and spread    3  (  2.790391,  0.000000, -0.000000 )     1.71868734
  Sum of centres and spreads (  2.790392, -5.580782,  0.000000 )     5.15606253
 
         Spreads (Ang^2)       Omega I      =     5.144470828
        ================       Omega D      =     0.000000000
                               Omega OD     =     0.011593574
    Final Spread (Ang^2)       Omega Total  =     5.156064402
 ------------------------------------------------------------------------------
 Time for wannierise            0.696 (sec)

 Writing checkpoint file mp-1342.chk... done

 Time for plotting              0.000 (sec)
 Total Execution Time           1.595 (sec)

 *===========================================================================*
 |                             TIMING INFORMATION                            |
 *===========================================================================*
 |    Tag                                                Ncalls      Time (s)|
 |---------------------------------------------------------------------------|
 |kmesh: get                                        :         1         0.678|
 |overlap: allocate                                 :         1         0.001|
 |overlap: read                                     :         1         0.095|
 |wann: main                                        :         1         0.696|
 |plot: main                                        :         1         0.000|
 *---------------------------------------------------------------------------*
 
 All done: wannier90 exiting
