
     Program PWSCF v.7.1 starts on 11Apr2024 at  9:51:55 

     This program is part of the open-source Quantum ESPRESSO suite
     for quantum simulation of materials; please cite
         "P. Giannozzi et al., J. Phys.:Condens. Matter 21 395502 (2009);
         "P. Giannozzi et al., J. Phys.:Condens. Matter 29 465901 (2017);
         "P. Giannozzi et al., J. Chem. Phys. 152 154105 (2020);
          URL http://www.quantum-espresso.org", 
     in publications or presentations arising from this work. More details at
     http://www.quantum-espresso.org/quote

     Parallel version (MPI), running on    16 processors

     MPI processes distributed on     1 nodes
     247362 MiB available memory on the printing compute node when the environment starts
 
     Reading input from pw_mp-1500_nscf_k3000_E130.in
Warning: card &IONS ignored
Warning: card / ignored
Warning: card &CELL ignored
Warning: card / ignored

     Current dimensions of program PWSCF are:
     Max number of different atomic species (ntypx) = 10
     Max number of k-points (npk) =  40000
     Max angular momentum in pseudopotentials (lmaxx) =  4

     Atomic positions and unit cell read from directory:
     out/mp-1500.save/
     Atomic positions from file used, from input discarded
 
 
     R & G space division:  proc/nbgrp/npool/nimage =      16
     Subspace diagonalization in iterative solution of the eigenvalue problem:
     a serial algorithm will be used

 
     Parallelization info
     --------------------
     sticks:   dense  smooth     PW     G-vecs:    dense   smooth      PW
     Min         167     167     46                 5673     5673     843
     Max         168     168     47                 5675     5675     848
     Sum        2677    2677    745                90777    90777   13539
 
     Using Slab Decomposition
 


     bravais-lattice index     =            2
     lattice parameter (alat)  =      12.1913  a.u.
     unit-cell volume          =     452.9900 (a.u.)^3
     number of atoms/cell      =            2
     number of atomic types    =            2
     number of electrons       =        16.00
     number of Kohn-Sham states=           16
     kinetic-energy cutoff     =     130.0000  Ry
     charge density cutoff     =     520.0000  Ry
     Exchange-correlation= PBE
                           (   1   4   3   4   0   0   0)

     celldm(1)=  12.191286  celldm(2)=   0.000000  celldm(3)=   0.000000
     celldm(4)=   0.000000  celldm(5)=   0.000000  celldm(6)=   0.000000

     crystal axes: (cart. coord. in units of alat)
               a(1) = (  -0.500000   0.000000   0.500000 )  
               a(2) = (   0.000000   0.500000   0.500000 )  
               a(3) = (  -0.500000   0.500000   0.000000 )  

     reciprocal axes: (cart. coord. in units 2 pi/alat)
               b(1) = ( -1.000000 -1.000000  1.000000 )  
               b(2) = (  1.000000  1.000000  1.000000 )  
               b(3) = ( -1.000000  1.000000 -1.000000 )  


     PseudoPot. # 1 for Ba read from file:
     /usr/scratch4/magr4826/Promotion/Python/Code/devEb/pseudo/SG15/Ba.upf
     MD5 check sum: ac4691792522964bb0504809e83fae44
     Pseudo is Norm-conserving, Zval = 10.0
     Generated using ONCVPSP code by D. R. Hamann
     Using radial grid of  602 points,  8 beta functions with: 
                l(1) =   0
                l(2) =   0
                l(3) =   1
                l(4) =   1
                l(5) =   2
                l(6) =   2
                l(7) =   3
                l(8) =   3

     PseudoPot. # 2 for S  read from file:
     /usr/scratch4/magr4826/Promotion/Python/Code/devEb/pseudo/SG15/S.upf
     MD5 check sum: f9d020296ee6110346977bfd66d424f6
     Pseudo is Norm-conserving, Zval =  6.0
     Generated using ONCVPSP code by D. R. Hamann
     Using radial grid of  602 points,  4 beta functions with: 
                l(1) =   0
                l(2) =   0
                l(3) =   1
                l(4) =   1

     atomic species   valence    mass     pseudopotential
        Ba            10.00   137.32700     Ba( 1.00)
        S              6.00    32.06500     S ( 1.00)

     48 Sym. Ops., with inversion, found



   Cartesian axes

     site n.     atom                  positions (alat units)
         1           Ba  tau(   1) = (   0.0000000   0.0000000   0.0000000  )
         2           S   tau(   2) = (  -0.5000000   0.5000000   0.5000000  )

     number of k points=    72  Gaussian smearing, width (Ry)=  0.0005
                       cart. coord. in units 2pi/alat
        k(    1) = (   0.0000000   0.0000000   0.0000000), wk =   0.0011574
        k(    2) = (  -0.0833333   0.0833333  -0.0833333), wk =   0.0092593
        k(    3) = (  -0.1666667   0.1666667  -0.1666667), wk =   0.0092593
        k(    4) = (  -0.2500000   0.2500000  -0.2500000), wk =   0.0092593
        k(    5) = (  -0.3333333   0.3333333  -0.3333333), wk =   0.0092593
        k(    6) = (  -0.4166667   0.4166667  -0.4166667), wk =   0.0092593
        k(    7) = (   0.5000000  -0.5000000   0.5000000), wk =   0.0046296
        k(    8) = (   0.0000000   0.1666667   0.0000000), wk =   0.0069444
        k(    9) = (  -0.0833333   0.2500000  -0.0833333), wk =   0.0277778
        k(   10) = (  -0.1666667   0.3333333  -0.1666667), wk =   0.0277778
        k(   11) = (  -0.2500000   0.4166667  -0.2500000), wk =   0.0277778
        k(   12) = (  -0.3333333   0.5000000  -0.3333333), wk =   0.0277778
        k(   13) = (   0.5833333  -0.4166667   0.5833333), wk =   0.0277778
        k(   14) = (   0.5000000  -0.3333333   0.5000000), wk =   0.0277778
        k(   15) = (   0.4166667  -0.2500000   0.4166667), wk =   0.0277778
        k(   16) = (   0.3333333  -0.1666667   0.3333333), wk =   0.0277778
        k(   17) = (   0.2500000  -0.0833333   0.2500000), wk =   0.0277778
        k(   18) = (   0.1666667  -0.0000000   0.1666667), wk =   0.0138889
        k(   19) = (   0.0000000   0.3333333   0.0000000), wk =   0.0069444
        k(   20) = (  -0.0833333   0.4166667  -0.0833333), wk =   0.0277778
        k(   21) = (  -0.1666667   0.5000000  -0.1666667), wk =   0.0277778
        k(   22) = (  -0.2500000   0.5833333  -0.2500000), wk =   0.0277778
        k(   23) = (   0.6666667  -0.3333333   0.6666667), wk =   0.0277778
        k(   24) = (   0.5833333  -0.2500000   0.5833333), wk =   0.0277778
        k(   25) = (   0.5000000  -0.1666667   0.5000000), wk =   0.0277778
        k(   26) = (   0.4166667  -0.0833333   0.4166667), wk =   0.0277778
        k(   27) = (   0.3333333   0.0000000   0.3333333), wk =   0.0138889
        k(   28) = (   0.0000000   0.5000000   0.0000000), wk =   0.0069444
        k(   29) = (  -0.0833333   0.5833333  -0.0833333), wk =   0.0277778
        k(   30) = (  -0.1666667   0.6666667  -0.1666667), wk =   0.0277778
        k(   31) = (   0.7500000  -0.2500000   0.7500000), wk =   0.0277778
        k(   32) = (   0.6666667  -0.1666667   0.6666667), wk =   0.0277778
        k(   33) = (   0.5833333  -0.0833333   0.5833333), wk =   0.0277778
        k(   34) = (   0.5000000   0.0000000   0.5000000), wk =   0.0138889
        k(   35) = (   0.0000000   0.6666667   0.0000000), wk =   0.0069444
        k(   36) = (  -0.0833333   0.7500000  -0.0833333), wk =   0.0277778
        k(   37) = (   0.8333333  -0.1666667   0.8333333), wk =   0.0277778
        k(   38) = (   0.7500000  -0.0833333   0.7500000), wk =   0.0277778
        k(   39) = (   0.6666667  -0.0000000   0.6666667), wk =   0.0138889
        k(   40) = (   0.0000000   0.8333333   0.0000000), wk =   0.0069444
        k(   41) = (   0.9166667  -0.0833333   0.9166667), wk =   0.0277778
        k(   42) = (   0.8333333   0.0000000   0.8333333), wk =   0.0138889
        k(   43) = (   0.0000000  -1.0000000   0.0000000), wk =   0.0034722
        k(   44) = (  -0.1666667   0.3333333   0.0000000), wk =   0.0277778
        k(   45) = (  -0.2500000   0.4166667  -0.0833333), wk =   0.0555556
        k(   46) = (  -0.3333333   0.5000000  -0.1666667), wk =   0.0555556
        k(   47) = (   0.5833333  -0.4166667   0.7500000), wk =   0.0555556
        k(   48) = (   0.5000000  -0.3333333   0.6666667), wk =   0.0277778
        k(   49) = (  -0.1666667   0.5000000   0.0000000), wk =   0.0277778
        k(   50) = (  -0.2500000   0.5833333  -0.0833333), wk =   0.0555556
        k(   51) = (   0.6666667  -0.3333333   0.8333333), wk =   0.0555556
        k(   52) = (   0.5833333  -0.2500000   0.7500000), wk =   0.0555556
        k(   53) = (   0.5000000  -0.1666667   0.6666667), wk =   0.0555556
        k(   54) = (   0.4166667  -0.0833333   0.5833333), wk =   0.0555556
        k(   55) = (   0.3333333   0.0000000   0.5000000), wk =   0.0277778
        k(   56) = (  -0.1666667   0.6666667  -0.0000000), wk =   0.0277778
        k(   57) = (   0.7500000  -0.2500000   0.9166667), wk =   0.0555556
        k(   58) = (   0.6666667  -0.1666667   0.8333333), wk =   0.0555556
        k(   59) = (   0.5833333  -0.0833333   0.7500000), wk =   0.0555556
        k(   60) = (   0.5000000   0.0000000   0.6666667), wk =   0.0277778
        k(   61) = (   0.8333333  -0.1666667   1.0000000), wk =   0.0277778
        k(   62) = (   0.7500000  -0.0833333   0.9166667), wk =   0.0555556
        k(   63) = (   0.6666667   0.0000000   0.8333333), wk =   0.0277778
        k(   64) = (  -0.1666667  -1.0000000  -0.0000000), wk =   0.0138889
        k(   65) = (   0.6666667  -0.3333333   1.0000000), wk =   0.0277778
        k(   66) = (   0.5833333  -0.2500000   0.9166667), wk =   0.0555556
        k(   67) = (   0.5000000  -0.1666667   0.8333333), wk =   0.0277778
        k(   68) = (   0.6666667  -0.1666667   1.0000000), wk =   0.0277778
        k(   69) = (   0.5833333  -0.0833333   0.9166667), wk =   0.0555556
        k(   70) = (   0.5000000   0.0000000   0.8333333), wk =   0.0277778
        k(   71) = (  -0.3333333  -1.0000000   0.0000000), wk =   0.0138889
        k(   72) = (  -0.5000000  -1.0000000   0.0000000), wk =   0.0069444

     Dense  grid:    90777 G-vectors     FFT dimensions: (  64,  64,  64)

     Estimated max dynamical RAM per process >      24.64 MB

     Estimated total dynamical RAM >     394.27 MB

     The potential is recalculated from file :
     out/mp-1500.save/charge-density

     Starting wfcs are random

     Band Structure Calculation
     Davidson diagonalization with overlap

     ethr =  5.00E-06,  avg # of iterations = 48.8

     total cpu time spent up to now is       13.6 secs

     End of band structure calculation

          k = 0.0000 0.0000 0.0000 ( 11311 PWs)   bands (ev):

   -20.5643  -5.6333  -5.6333  -5.6333  -4.7729   5.4780   5.4780   5.4780
     9.0152   9.4391   9.4391   9.4391  10.3364  10.3364  12.9011  15.3123

          k =-0.0833 0.0833-0.0833 ( 11368 PWs)   bands (ev):

   -20.5617  -5.7671  -5.6357  -5.6357  -4.6335   5.2948   5.3925   5.3925
     9.2552   9.4540   9.5349   9.5349  10.5217  10.5218  13.1046  15.2891

          k =-0.1667 0.1667-0.1667 ( 11356 PWs)   bands (ev):

   -20.5547  -6.0261  -5.6422  -5.6422  -4.3589   4.8761   5.1809   5.1809
     9.4241   9.8124   9.8124   9.9659  11.0327  11.0328  13.6056  15.1508

          k =-0.2500 0.2500-0.2500 ( 11369 PWs)   bands (ev):

   -20.5451  -6.2812  -5.6510  -5.6510  -4.0817   4.4150   4.9306   4.9306
     9.5811  10.2511  10.2512  10.7642  11.7692  11.7693  14.1450  14.8705

          k =-0.3333 0.3333-0.3333 ( 11393 PWs)   bands (ev):

   -20.5354  -6.4849  -5.6597  -5.6597  -3.8547   4.0259   4.7119   4.7119
     9.9065  10.8172  10.8172  11.4058  12.6165  12.6166  14.4204  14.4222

          k =-0.4167 0.4167-0.4167 ( 11366 PWs)   bands (ev):

   -20.5283  -6.6148  -5.6661  -5.6661  -3.7069   3.7705   4.5669   4.5669
    10.3973  11.4251  11.4251  11.4565  13.3340  13.3342  13.9992  13.9993

          k = 0.5000-0.5000 0.5000 ( 11348 PWs)   bands (ev):

   -20.5257  -6.6593  -5.6684  -5.6684  -3.6556   3.6818   4.5165   4.5165
    10.9614  11.0041  11.7668  11.7668  13.3013  13.3013  14.2666  14.2670

          k = 0.0000 0.1667 0.0000 ( 11358 PWs)   bands (ev):

   -20.5608  -5.7839  -5.6449  -5.6449  -4.6009   5.1234   5.4448   5.4448
     9.2482   9.2829   9.6643   9.6643  10.3925  10.8000  13.1635  15.2921

          k =-0.0833 0.2500-0.0833 ( 11332 PWs)   bands (ev):

   -20.5553  -5.9712  -5.6574  -5.6494  -4.4030   4.7939   5.3004   5.3390
     9.1521   9.6503   9.9466   9.9648  10.6312  11.4021  13.5470  15.1551

          k =-0.1667 0.3333-0.1667 ( 11348 PWs)   bands (ev):

   -20.5466  -6.2038  -5.6696  -5.6545  -4.1613   4.4452   5.0261   5.1278
     9.2257  10.1883  10.4108  10.4441  11.1824  12.1727  14.0614  14.9138

          k =-0.2500 0.4167-0.2500 ( 11354 PWs)   bands (ev):

   -20.5370  -6.4089  -5.6784  -5.6649  -3.9447   4.1316   4.7664   4.8916
     9.4863  10.7226  10.9733  11.1188  11.9319  12.9156  14.4058  14.4119

          k =-0.3333 0.5000-0.3333 ( 11351 PWs)   bands (ev):

   -20.5290  -6.5543  -5.6814  -5.6783  -3.7878   3.8943   4.6009   4.6923
     9.9305  11.2800  11.4727  11.5576  12.7454  13.4034  13.8911  14.4165

          k = 0.5833-0.4167 0.5833 ( 11340 PWs)   bands (ev):

   -20.5249  -6.6239  -5.6907  -5.6778  -3.7102   3.7710   4.5534   4.5670
    10.5097  11.0711  11.8134  11.8973  13.3093  13.5626  13.9061  14.0866

          k = 0.5000-0.3333 0.5000 ( 11339 PWs)   bands (ev):

   -20.5258  -6.6110  -5.6986  -5.6687  -3.7212   3.7858   4.5340   4.6212
    10.4629  11.1291  11.4145  12.0185  13.0820  13.7272  13.8396  14.2809

          k = 0.4167-0.2500 0.4167 ( 11359 PWs)   bands (ev):

   -20.5314  -6.5172  -5.6994  -5.6564  -3.8205   3.9434   4.5983   4.7877
     9.9409  10.8076  11.3229  11.5208  12.4950  13.3793  14.1053  14.4924

          k = 0.3333-0.1667 0.3333 ( 11360 PWs)   bands (ev):

   -20.5402  -6.3524  -5.6923  -5.6441  -3.9971   4.2273   4.7516   5.0204
     9.5740  10.2568  10.7762  10.9119  11.9484  12.5207  14.3158  14.4897

          k = 0.2500-0.0833 0.2500 ( 11348 PWs)   bands (ev):

   -20.5498  -6.1379  -5.6778  -5.6352  -4.2277   4.6005   4.9702   5.2590
     9.3922   9.8414  10.0727  10.3614  11.2570  11.6803  13.8966  14.8703

          k = 0.1667-0.0000 0.1667 ( 11345 PWs)   bands (ev):

   -20.5577  -5.9151  -5.6570  -5.6321  -4.4693   4.9987   5.2081   5.4072
     9.3704   9.5449   9.5951   9.8919  10.6946  10.9809  13.3983  15.1623

          k = 0.0000 0.3333 0.0000 ( 11334 PWs)   bands (ev):

   -20.5516  -6.0151  -5.6766  -5.6766  -4.3427   4.5571   5.3790   5.3790
     8.8281   9.6831  10.2822  10.2822  10.5546  12.0719  13.7569  15.1702

          k =-0.0833 0.4167-0.0833 ( 11350 PWs)   bands (ev):

   -20.5444  -6.1509  -5.6948  -5.6890  -4.2181   4.3522   5.2415   5.2827
     8.7202  10.0583  10.6966  10.7115  10.8488  12.8359  14.1398  14.9132

          k =-0.1667 0.5000-0.1667 ( 11344 PWs)   bands (ev):

   -20.5357  -6.3096  -5.7070  -5.7020  -4.0774   4.2105   4.9782   5.0954
     8.8496  10.6985  11.1469  11.2447  11.4187  13.3802  14.4646  14.4993

          k =-0.2500 0.5833-0.2500 ( 11351 PWs)   bands (ev):

   -20.5278  -6.4413  -5.7239  -5.7102  -3.9526   4.1139   4.7428   4.8857
     9.1978  11.3028  11.5992  11.7942  12.1458  13.3534  13.9542  14.6190

          k = 0.6667-0.3333 0.6667 ( 11343 PWs)   bands (ev):

   -20.5229  -6.5215  -5.7498  -5.7034  -3.8643   4.0206   4.6562   4.7083
     9.7345  11.1606  11.9510  12.1521  13.0176  13.5614  13.7433  13.9598

          k = 0.5833-0.2500 0.5833 ( 11343 PWs)   bands (ev):

   -20.5222  -6.5399  -5.7705  -5.6885  -3.8265   3.9481   4.5972   4.7301
    10.3585  10.6503  11.5345  12.2236  13.3740  13.8761  13.9229  14.0270

          k = 0.5000-0.1667 0.5000 ( 11350 PWs)   bands (ev):

   -20.5260  -6.4968  -5.7767  -5.6693  -3.8487   3.9567   4.5699   4.8982
    10.0517  10.9526  10.9792  11.7569  12.7683  14.0817  14.1958  14.6012

          k = 0.4167-0.0833 0.4167 ( 11352 PWs)   bands (ev):

   -20.5332  -6.4017  -5.7622  -5.6510  -3.9330   4.0752   4.6310   5.0918
     9.6747  10.4333  10.7151  11.5686  12.2524  13.3493  14.2104  14.5875

          k = 0.3333 0.0000 0.3333 ( 11337 PWs)   bands (ev):

   -20.5419  -6.2733  -5.7263  -5.6385  -4.0688   4.3000   4.7723   5.2365
     9.4607  10.0525  10.2767  10.9926  11.8325  12.4849  14.2864  14.4289

          k = 0.0000 0.5000 0.0000 ( 11346 PWs)   bands (ev):

   -20.5390  -6.1579  -5.7197  -5.7197  -4.2429   4.2941   5.3340   5.3340
     8.3878  10.1198  10.8007  11.1580  11.1580  13.5331  14.3654  14.9272

          k =-0.0833 0.5833-0.0833 ( 11333 PWs)   bands (ev):

   -20.5319  -6.2216  -5.7411  -5.7378  -4.2286   4.3054   5.2189   5.2614
     8.3254  10.5211  11.0957  11.6189  11.6560  13.8278  14.5680  14.6195

          k =-0.1667 0.6667-0.1667 ( 11339 PWs)   bands (ev):

   -20.5249  -6.3007  -5.7760  -5.7444  -4.1738   4.3653   4.9796   5.1004
     8.5311  11.1232  11.6605  11.9830  12.1077  13.5058  14.1284  14.2768

          k = 0.7500-0.2500 0.7500 ( 11332 PWs)   bands (ev):

   -20.5200  -6.3653  -5.8248  -5.7379  -4.0912   4.3759   4.8066   4.9102
     8.9655  11.3430  12.1507  12.2511  12.4707  13.4379  13.7241  13.9646

          k = 0.6667-0.1667 0.6667 ( 11308 PWs)   bands (ev):

   -20.5184  -6.4061  -5.8642  -5.7198  -4.0039   4.2320   4.7415   4.8538
     9.5850  10.8808  11.7812  12.1490  13.2890  13.6146  13.9697  14.2570

          k = 0.5833-0.0833 0.5833 ( 11332 PWs)   bands (ev):

   -20.5207  -6.4253  -5.8692  -5.6948  -3.9371   4.0848   4.6277   4.9783
    10.2710  10.3908  11.2468  11.6202  13.5410  14.0415  14.4246  14.6815

          k = 0.5000 0.0000 0.5000 ( 11330 PWs)   bands (ev):

   -20.5261  -6.4249  -5.8306  -5.6696  -3.9106   4.0251   4.5883   5.0740
     9.9432  10.7533  10.7728  11.4737  12.8547  14.0996  14.5438  14.7153

          k = 0.0000 0.6667 0.0000 ( 11306 PWs)   bands (ev):

   -20.5266  -6.1799  -5.7626  -5.7626  -4.3557   4.4414   5.3285   5.3285
     8.0329  10.6320  11.0865  12.0877  12.0877  13.9098  14.6526  14.6556

          k =-0.0833 0.7500-0.0833 ( 11334 PWs)   bands (ev):

   -20.5212  -6.1786  -5.7986  -5.7749  -4.4047   4.6019   5.2279   5.2735
     8.0397  11.0364  11.3714  12.3844  12.4518  13.6394  14.0060  14.3589

          k = 0.8333-0.1667 0.8333 ( 11352 PWs)   bands (ev):

   -20.5172  -6.1890  -5.8814  -5.7718  -4.3503   4.7300   4.9995   5.1249
     8.3278  11.5217  11.8976  12.2043  12.5018  13.2935  13.7602  14.2482

          k = 0.7500-0.0833 0.7500 ( 11307 PWs)   bands (ev):

   -20.5156  -6.2238  -5.9576  -5.7539  -4.2223   4.5881   4.9364   4.9513
     8.8433  11.3123  12.0663  12.1285  12.6117  13.1939  14.2124  14.4828

          k = 0.6667-0.0000 0.6667 ( 11336 PWs)   bands (ev):

   -20.5169  -6.3188  -5.9450  -5.7258  -4.0709   4.3099   4.7582   4.9956
     9.5338  10.7864  11.6640  11.7757  13.3580  13.6665  14.5901  14.8001

          k = 0.0000 0.8333 0.0000 ( 11350 PWs)   bands (ev):

   -20.5176  -6.1158  -5.7938  -5.7938  -4.5695   4.7997   5.3453   5.3453
     7.8079  11.1515  11.3333  12.7346  12.7347  13.3345  13.7961  14.5695

          k = 0.9167-0.0833 0.9167 ( 11336 PWs)   bands (ev):

   -20.5151  -6.0816  -5.8572  -5.7962  -4.5803   4.9347   5.2376   5.2919
     7.8918  11.4741  11.5579  12.5011  12.7788  13.1078  13.6727  14.4584

          k = 0.8333 0.0000 0.8333 ( 11318 PWs)   bands (ev):

   -20.5143  -6.0343  -6.0207  -5.7818  -4.4372   4.9500   4.9868   5.1380
     8.2587  11.8636  11.8834  12.0050  12.5161  12.9346  14.0997  14.5745

          k = 0.0000-1.0000 0.0000 ( 11358 PWs)   bands (ev):

   -20.5143  -6.0680  -5.8051  -5.8051  -4.6812   4.9929   5.3555   5.3555
     7.7312  11.4114  11.4349  12.9116  12.9117  13.0438  13.2823  14.4752

          k =-0.1667 0.3333 0.0000 ( 11333 PWs)   bands (ev):

   -20.5490  -6.1139  -5.6900  -5.6506  -4.2472   4.5067   5.1060   5.3317
     9.0489   9.9373  10.1523  10.4690  10.9457  12.1234  13.9240  14.8781

          k =-0.2500 0.4167-0.0833 ( 11360 PWs)   bands (ev):

   -20.5403  -6.2848  -5.7180  -5.6563  -4.0716   4.2558   4.8629   5.1855
     9.1456  10.3941  10.5292  11.0449  11.5601  12.8726  14.3376  14.4842

          k =-0.3333 0.5000-0.1667 ( 11353 PWs)   bands (ev):

   -20.5315  -6.4348  -5.7339  -5.6695  -3.9228   4.0651   4.6733   4.9684
     9.4377  10.9209  11.0704  11.6060  12.1717  13.3578  14.2228  14.6271

          k = 0.5833-0.4167 0.7500 ( 11346 PWs)   bands (ev):

   -20.5251  -6.5347  -5.7389  -5.6845  -3.8255   3.9431   4.5886   4.7651
     9.9121  11.1199  11.4829  12.0328  12.7862  13.8033  13.8578  14.3773

          k = 0.5000-0.3333 0.6667 ( 11336 PWs)   bands (ev):

   -20.5228  -6.5696  -5.7388  -5.6919  -3.7919   3.9004   4.6038   4.6481
    10.4248  10.6478  11.8342  12.2137  13.4372  13.6718  13.7272  14.0046

          k =-0.1667 0.5000 0.0000 ( 11350 PWs)   bands (ev):

   -20.5372  -6.2345  -5.7347  -5.6942  -4.1562   4.2565   5.0767   5.2761
     8.6352  10.3473  11.0431  11.1554  11.3249  13.4476  14.4422  14.5871

          k =-0.2500 0.5833-0.0833 ( 11342 PWs)   bands (ev):

   -20.5294  -6.3302  -5.7664  -5.7078  -4.0801   4.2252   4.8590   5.1487
     8.7988  10.8033  11.4530  11.7221  11.8782  13.4654  14.3737  14.6563

          k = 0.6667-0.3333 0.8333 ( 11342 PWs)   bands (ev):

   -20.5231  -6.4084  -5.7887  -5.7253  -4.0068   4.2097   4.7151   4.9595
     9.1791  11.1522  11.8130  11.9199  12.6407  13.5584  13.9583  14.1892

          k = 0.5833-0.2500 0.7500 ( 11325 PWs)   bands (ev):

   -20.5198  -6.4521  -5.8103  -5.7274  -3.9509   4.1497   4.7219   4.7913
     9.7413  10.7031  12.0470  12.2387  13.0389  13.6512  14.0011  14.0855

          k = 0.5000-0.1667 0.6667 ( 11334 PWs)   bands (ev):

   -20.5207  -6.4559  -5.8238  -5.7109  -3.9249   4.0874   4.6495   4.8777
    10.0672  10.4508  11.7011  11.9304  13.3034  13.8881  14.0973  14.4060

          k = 0.4167-0.0833 0.5833 ( 11343 PWs)   bands (ev):

   -20.5253  -6.4230  -5.8139  -5.6869  -3.9373   4.0752   4.6238   5.0395
     9.5959  10.8716  11.2177  11.5707  12.8140  13.8368  14.3581  14.6386

          k = 0.3333 0.0000 0.5000 ( 11331 PWs)   bands (ev):

   -20.5325  -6.3623  -5.7755  -5.6662  -3.9895   4.1292   4.7016   5.1622
     9.2779  10.6088  10.7951  11.6300  12.1035  13.3657  14.3820  14.5979

          k =-0.1667 0.6667-0.0000 ( 11334 PWs)   bands (ev):

   -20.5256  -6.2372  -5.7792  -5.7537  -4.2595   4.4084   5.0877   5.2610
     8.2976  10.8089  11.4530  12.0074  12.0994  13.6681  14.2703  14.5998

          k = 0.7500-0.2500 0.9167 ( 11334 PWs)   bands (ev):

   -20.5202  -6.2606  -5.8246  -5.7763  -4.2326   4.5171   4.9000   5.1483
     8.5388  11.1806  11.7741  12.3259  12.3814  13.6172  13.7566  14.2660

          k = 0.6667-0.1667 0.8333 ( 11324 PWs)   bands (ev):

   -20.5170  -6.2860  -5.8866  -5.7731  -4.1598   4.4739   4.8599   4.9750
     9.0022  11.0136  11.9520  12.3879  12.6672  13.5549  13.8995  14.3127

          k = 0.5833-0.0833 0.7500 ( 11326 PWs)   bands (ev):

   -20.5169  -6.3256  -5.9157  -5.7497  -4.0695   4.3050   4.7922   4.9639
     9.6432  10.4369  11.8653  12.0434  12.9586  14.0879  14.2324  14.6984

          k = 0.5000 0.0000 0.6667 ( 11340 PWs)   bands (ev):

   -20.5199  -6.3796  -5.8851  -5.7171  -3.9891   4.1604   4.6667   5.0362
     9.9413  10.3730  11.5108  11.5993  13.4042  14.0561  14.5237  14.5994

          k = 0.8333-0.1667 1.0000 ( 11352 PWs)   bands (ev):

   -20.5173  -6.1416  -5.8303  -5.8116  -4.4508   4.7751   5.1111   5.2706
     8.0836  11.2570  11.7158  12.2929  12.7110  13.3685  13.7740  14.4674

          k = 0.7500-0.0833 0.9167 ( 11331 PWs)   bands (ev):

   -20.5149  -6.1090  -5.9422  -5.8126  -4.3788   4.8119   4.9657   5.1589
     8.4034  11.4488  11.6922  12.3179  12.7370  13.1152  14.0382  14.4974

          k = 0.6667 0.0000 0.8333 ( 11325 PWs)   bands (ev):

   -20.5148  -6.1698  -5.9883  -5.7879  -4.2336   4.5659   4.9799   4.9909
     8.9414  10.9339  11.8874  12.4349  12.4661  13.5642  14.3368  14.6421

          k =-0.1667-1.0000-0.0000 ( 11322 PWs)   bands (ev):

   -20.5142  -6.0510  -5.8972  -5.8234  -4.5469   4.9898   5.1057   5.2780
     8.0108  11.4722  11.9067  12.0839  12.9170  12.9752  13.7967  14.5507

          k = 0.6667-0.3333 1.0000 ( 11323 PWs)   bands (ev):

   -20.5232  -6.3377  -5.8243  -5.7337  -4.0770   4.2782   4.7449   5.1324
     8.9941  10.9184  11.6009  11.8086  12.6809  13.6233  14.1405  14.5732

          k = 0.5833-0.2500 0.9167 ( 11343 PWs)   bands (ev):

   -20.5185  -6.3348  -5.8620  -5.7691  -4.0710   4.3039   4.7535   5.0286
     9.3934  10.6223  11.6464  12.1866  13.0258  13.9842  14.0983  14.3218

          k = 0.5000-0.1667 0.8333 ( 11326 PWs)   bands (ev):

   -20.5169  -6.3318  -5.8739  -5.7865  -4.0681   4.3004   4.8511   4.9070
     9.9125  10.0157  11.9986  12.3509  12.7155  13.9067  14.4324  14.5997

          k = 0.6667-0.1667 1.0000 ( 11330 PWs)   bands (ev):

   -20.5164  -6.2086  -5.8597  -5.8510  -4.2370   4.5643   4.8731   5.1323
     8.8045  10.9739  11.5577  12.6396  12.6730  13.5429  14.1535  14.5207

          k = 0.5833-0.0833 0.9167 ( 11329 PWs)   bands (ev):

   -20.5147  -6.1786  -5.9324  -5.8579  -4.1977   4.4736   4.9640   5.0336
     9.2781  10.3669  11.7534  12.4024  12.7577  14.1625  14.2261  14.5647

          k = 0.5000 0.0000 0.8333 ( 11326 PWs)   bands (ev):

   -20.5155  -6.2377  -5.9246  -5.8237  -4.1372   4.3808   4.8847   5.0320
     9.8044   9.9136  11.7244  12.5327  12.5945  14.4022  14.4563  14.5147

          k =-0.3333-1.0000 0.0000 ( 11326 PWs)   bands (ev):

   -20.5140  -6.0418  -6.0040  -5.8726  -4.3145   4.6635   4.9936   5.1362
     8.7393  10.9169  11.5999  12.3675  12.9278  13.5577  14.1618  14.5060

          k =-0.5000-1.0000 0.0000 ( 11352 PWs)   bands (ev):

   -20.5139  -6.1020  -5.9389  -5.9389  -4.2087   4.4627   5.0346   5.0346
     9.7512   9.7512  11.6930  12.2833  12.9333  14.3595  14.3598  14.6160

     the Fermi energy is     6.3744 ev
     (compare with:     6.3722 eV, computed in scf)

     Writing all to output data dir out/mp-1500.save/
 
     init_run     :      0.10s CPU      0.12s WALL (       1 calls)
     electrons    :      9.95s CPU     12.82s WALL (       1 calls)

     Called by init_run:
     wfcinit      :      0.00s CPU      0.00s WALL (       1 calls)
     potinit      :      0.01s CPU      0.02s WALL (       1 calls)
     hinit0       :      0.02s CPU      0.03s WALL (       1 calls)

     Called by electrons:
     c_bands      :      9.95s CPU     12.82s WALL (       1 calls)
     v_of_rho     :      0.01s CPU      0.01s WALL (       1 calls)

     Called by c_bands:
     init_us_2    :      0.01s CPU      0.01s WALL (      72 calls)
     init_us_2:cp :      0.01s CPU      0.01s WALL (      72 calls)
     cegterg      :      9.45s CPU      9.80s WALL (     214 calls)

     Called by *egterg:
     cdiaghg      :      0.87s CPU      1.06s WALL (    3585 calls)
     h_psi        :      7.98s CPU      8.12s WALL (    3799 calls)
     g_psi        :      0.05s CPU      0.05s WALL (    3513 calls)

     Called by h_psi:
     h_psi:calbec :      0.27s CPU      0.28s WALL (    3799 calls)
     vloc_psi     :      7.49s CPU      7.62s WALL (    3799 calls)
     add_vuspsi   :      0.18s CPU      0.19s WALL (    3799 calls)

     General routines
     calbec       :      0.27s CPU      0.27s WALL (    3799 calls)
     fft          :      0.00s CPU      0.01s WALL (      10 calls)
     fftw         :      6.90s CPU      7.03s WALL (   63542 calls)
 
     Parallel routines
 
     PWSCF        :     10.63s CPU     17.23s WALL

 
   This run was terminated on:   9:52:12  11Apr2024            

=------------------------------------------------------------------------------=
   JOB DONE.
=------------------------------------------------------------------------------=
