 
             +---------------------------------------------------+
             |                                                   |
             |                   WANNIER90                       |
             |                                                   |
             +---------------------------------------------------+
             |                                                   |
             |        Welcome to the Maximally-Localized         |
             |        Generalized Wannier Functions code         |
             |            http://www.wannier.org                 |
             |                                                   |
             |                                                   |
             |  Wannier90 Developer Group:                       |
             |    Giovanni Pizzi    (EPFL)                       |
             |    Valerio Vitale    (Cambridge)                  |
             |    David Vanderbilt  (Rutgers University)         |
             |    Nicola Marzari    (EPFL)                       |
             |    Ivo Souza         (Universidad del Pais Vasco) |
             |    Arash A. Mostofi  (Imperial College London)    |
             |    Jonathan R. Yates (University of Oxford)       |
             |                                                   |
             |  For the full list of Wannier90 3.x authors,      |
             |  please check the code documentation and the      |
             |  README on the GitHub page of the code            |
             |                                                   |
             |                                                   |
             |  Please cite                                      |
             |                                                   |
             |  [ref] "Wannier90 as a community code:            |
             |        new features and applications",            |
             |        G. Pizzi et al., J. Phys. Cond. Matt. 32,  |
             |        165902 (2020).                             |
             |        http://doi.org/10.1088/1361-648X/ab51ff    |
             |                                                   |
             |  in any publications arising from the use of      |
             |  this code. For the method please cite            |
             |                                                   |
             |  [ref] "Maximally Localized Generalised Wannier   |
             |         Functions for Composite Energy Bands"     |
             |         N. Marzari and D. Vanderbilt              |
             |         Phys. Rev. B 56 12847 (1997)              |
             |                                                   |
             |  [ref] "Maximally Localized Wannier Functions     |
             |         for Entangled Energy Bands"               |
             |         I. Souza, N. Marzari and D. Vanderbilt    |
             |         Phys. Rev. B 65 035109 (2001)             |
             |                                                   |
             |                                                   |
             | Copyright (c) 1996-2020                           |
             |        The Wannier90 Developer Group and          |
             |        individual contributors                    |
             |                                                   |
             |      Release: 3.1.0        5th March    2020      |
             |                                                   |
             | This program is free software; you can            |
             | redistribute it and/or modify it under the terms  |
             | of the GNU General Public License as published by |
             | the Free Software Foundation; either version 2 of |
             | the License, or (at your option) any later version|
             |                                                   |
             | This program is distributed in the hope that it   |
             | will be useful, but WITHOUT ANY WARRANTY; without |
             | even the implied warranty of MERCHANTABILITY or   |
             | FITNESS FOR A PARTICULAR PURPOSE. See the GNU     |
             | General Public License for more details.          |
             |                                                   |
             | You should have received a copy of the GNU General|
             | Public License along with this program; if not,   |
             | write to the Free Software Foundation, Inc.,      |
             | 675 Mass Ave, Cambridge, MA 02139, USA.           |
             |                                                   |
             +---------------------------------------------------+
             |    Execution started on  3Jan2024 at 14:34:40     |
             +---------------------------------------------------+
 
 ******************************************************************************
 * -> Using CODATA 2006 constant values                                       *
 *    (http://physics.nist.gov/cuu/Constants/index.html)                      *
 * -> Using Bohr value from CODATA                                            *
 ******************************************************************************
 

 Running in parallel on   8 CPUs

 
                                    ------
                                    SYSTEM
                                    ------
 
                              Lattice Vectors (Ang)
                    a_1    -2.896514   0.000000   2.896514
                    a_2     0.000000   2.896514   2.896514
                    a_3    -2.896514   2.896514   0.000000
 
                   Unit Cell Volume:      48.60231  (Ang^3)
 
                        Reciprocal-Space Vectors (Ang^-1)
                    b_1    -1.084612  -1.084612   1.084612
                    b_2     1.084612   1.084612   1.084612
                    b_3    -1.084612   1.084612  -1.084612
  
 *----------------------------------------------------------------------------*
 |   Site       Fractional Coordinate          Cartesian Coordinate (Ang)     |
 +----------------------------------------------------------------------------+
 | Kr   1   0.00000   0.00000   0.00000   |    0.00000   0.00000   0.00000    |
 *----------------------------------------------------------------------------*
                                ------------
                                K-POINT GRID
                                ------------
  
             Grid size = 14 x 14 x 14      Total points = 2744
  
  
 *---------------------------------- MAIN ------------------------------------*
 |  Number of Wannier Functions               :                 3             |
 |  Number of Objective Wannier Functions     :                 3             |
 |  Number of input Bloch states              :                 3             |
 |  Output verbosity (1=low, 5=high)          :                 1             |
 |  Timing Level (1=low, 5=high)              :                 1             |
 |  Optimisation (0=memory, 3=speed)          :                 3             |
 |  Length Unit                               :               Ang             |
 |  Post-processing setup (write *.nnkp)      :                 F             |
 |  Using Gamma-only branch of algorithms     :                 F             |
 *----------------------------------------------------------------------------*
 *------------------------------- WANNIERISE ---------------------------------*
 |  Total number of iterations                :               500             |
 |  Number of CG steps before reset           :                 5             |
 |  Trial step length for line search         :             2.000             |
 |  Convergence tolerence                     :         0.100E-09             |
 |  Convergence window                        :                -1             |
 |  Iterations between writing output         :                 1             |
 |  Iterations between backing up to disk     :               100             |
 |  Write r^2_nm to file                      :                 F             |
 |  Write xyz WF centres to file              :                 F             |
 |  Write on-site energies <0n|H|0n> to file  :                 F             |
 |  Use guiding centre to control phases      :                 F             |
 |  Use phases for initial projections        :                 F             |
 *----------------------------------------------------------------------------*
 Time to read parameters        0.160 (sec)

 *---------------------------------- K-MESH ----------------------------------*
 +----------------------------------------------------------------------------+
 |                    Distance to Nearest-Neighbour Shells                    |
 |                    ------------------------------------                    |
 |          Shell             Distance (Ang^-1)          Multiplicity         |
 |          -----             -----------------          ------------         |
 |             1                   0.134186                      8            |
 |             2                   0.154945                      6            |
 |             3                   0.219125                     12            |
 |             4                   0.256946                     24            |
 |             5                   0.268372                      8            |
 |             6                   0.309889                      6            |
 |             7                   0.337694                     24            |
 |             8                   0.346466                     24            |
 |             9                   0.379535                     24            |
 |            10                   0.402558                     32            |
 |            11                   0.438249                     12            |
 |            12                   0.458332                     48            |
 |            13                   0.464834                     30            |
 |            14                   0.489978                     24            |
 |            15                   0.508020                     24            |
 |            16                   0.513893                     24            |
 |            17                   0.536744                      8            |
 |            18                   0.553263                     48            |
 |            19                   0.558660                     24            |
 |            20                   0.579749                     48            |
 |            21                   0.595076                     72            |
 |            22                   0.619778                      6            |
 |            23                   0.634138                     24            |
 |            24                   0.638853                     48            |
 |            25                   0.657374                     36            |
 |            26                   0.670929                     56            |
 |            27                   0.675387                     24            |
 |            28                   0.692933                     24            |
 |            29                   0.705806                     72            |
 |            30                   0.710045                     48            |
 |            31                   0.726754                     24            |
 |            32                   0.739038                     48            |
 |            33                   0.759070                     24            |
 |            34                   0.770839                     72            |
 |            35                   0.774723                     30            |
 |            36                   0.790065                     72            |
 +----------------------------------------------------------------------------+
 | The b-vectors are chosen automatically                                     |
 | The following shells are used:   1                                         |
 +----------------------------------------------------------------------------+
 |                        Shell   # Nearest-Neighbours                        |
 |                        -----   --------------------                        |
 |                          1               8                                 |
 +----------------------------------------------------------------------------+
 | Completeness relation is fully satisfied [Eq. (B1), PRB 56, 12847 (1997)]  |
 +----------------------------------------------------------------------------+
 |                  b_k Vectors (Ang^-1) and Weights (Ang^2)                  |
 |                  ----------------------------------------                  |
 |            No.         b_k(x)      b_k(y)      b_k(z)        w_b           |
 |            ---        --------------------------------     --------        |
 |             1        -0.077472    0.077472   -0.077472    20.826564        |
 |             2         0.077472    0.077472    0.077472    20.826564        |
 |             3        -0.077472   -0.077472    0.077472    20.826564        |
 |             4        -0.077472    0.077472    0.077472    20.826564        |
 |             5         0.077472   -0.077472    0.077472    20.826564        |
 |             6        -0.077472   -0.077472   -0.077472    20.826564        |
 |             7         0.077472    0.077472   -0.077472    20.826564        |
 |             8         0.077472   -0.077472   -0.077472    20.826564        |
 +----------------------------------------------------------------------------+
 |                           b_k Directions (Ang^-1)                          |
 |                           -----------------------                          |
 |            No.           x           y           z                         |
 |            ---        --------------------------------                     |
 |             1        -0.077472    0.077472   -0.077472                     |
 |             2         0.077472    0.077472    0.077472                     |
 |             3        -0.077472   -0.077472    0.077472                     |
 |             4        -0.077472    0.077472    0.077472                     |
 +----------------------------------------------------------------------------+
  
 Time to get kmesh              1.662 (sec)
 *============================================================================*
 |                              MEMORY ESTIMATE                               |
 |         Maximum RAM allocated during each phase of the calculation         |
 *============================================================================*
 |                            Wannierise:           11.12 Mb                  |
 |                          plot_wannier:           11.12 Mb                  |
 *----------------------------------------------------------------------------*
  
 Starting a new Wannier90 calculation ...


 Reading overlaps from mp-612118.mmn    :  Created on  3Jan2024 at 14:34:34

 Reading projections from mp-612118.amn :  Created on  3Jan2024 at 14:34:34  with SCDM

 Time to read overlaps          0.215 (sec)

 Writing checkpoint file mp-612118.chk... done

 
 *------------------------------- WANNIERISE ---------------------------------*
 +--------------------------------------------------------------------+<-- CONV
 | Iter  Delta Spread     RMS Gradient      Spread (Ang^2)      Time  |<-- CONV
 +--------------------------------------------------------------------+<-- CONV
 
 ------------------------------------------------------------------------------
 Initial State
  WF centre and spread    1  ( -0.000384,  0.000170,  0.000170 )     1.26095227
  WF centre and spread    2  (  0.000170,  0.000170, -0.000384 )     1.26095296
  WF centre and spread    3  (  0.000170, -0.000384,  0.000170 )     1.26095315
  Sum of centres and spreads ( -0.000044, -0.000044, -0.000044 )     3.78285839
 
      0     0.378E+01     0.0000000000        3.7828583912       0.00  <-- CONV
        O_D=      0.0136795 O_OD=      0.0196279 O_TOT=      3.7828584 <-- SPRD
 ------------------------------------------------------------------------------
 Cycle:      1
  WF centre and spread    1  ( -0.000041,  0.000018,  0.000018 )     1.25222431
  WF centre and spread    2  (  0.000018,  0.000019, -0.000041 )     1.25222061
  WF centre and spread    3  (  0.000018, -0.000041,  0.000019 )     1.25222033
  Sum of centres and spreads ( -0.000005, -0.000004, -0.000004 )     3.75666525
 
      1    -0.262E-01     0.0265597964        3.7566652467       0.01  <-- CONV
        O_D=      0.0010827 O_OD=      0.0060317 O_TOT=      3.7566652 <-- SPRD
 Delta: O_D= -0.1259689E-01 O_OD= -0.1359625E-01 O_TOT= -0.2619314E-01 <-- DLTA
 ------------------------------------------------------------------------------
 Cycle:      2
  WF centre and spread    1  ( -0.000011,  0.000005,  0.000005 )     1.25147250
  WF centre and spread    2  (  0.000005,  0.000005, -0.000011 )     1.25147463
  WF centre and spread    3  (  0.000005, -0.000010,  0.000005 )     1.25147159
  Sum of centres and spreads ( -0.000001, -0.000001, -0.000001 )     3.75441871
 
      2    -0.225E-02     0.0366554821        3.7544187137       0.02  <-- CONV
        O_D=      0.0002864 O_OD=      0.0045814 O_TOT=      3.7544187 <-- SPRD
 Delta: O_D= -0.7962618E-03 O_OD= -0.1450271E-02 O_TOT= -0.2246533E-02 <-- DLTA
 ------------------------------------------------------------------------------
 Cycle:      3
  WF centre and spread    1  ( -0.000006,  0.000003,  0.000003 )     1.25135998
  WF centre and spread    2  (  0.000003,  0.000003, -0.000006 )     1.25136121
  WF centre and spread    3  (  0.000003, -0.000006,  0.000003 )     1.25136010
  Sum of centres and spreads ( -0.000001, -0.000000, -0.000000 )     3.75408129
 
      3    -0.337E-03     0.0119673218        3.7540812877       0.03  <-- CONV
        O_D=      0.0001616 O_OD=      0.0043688 O_TOT=      3.7540813 <-- SPRD
 Delta: O_D= -0.1248120E-03 O_OD= -0.2126141E-03 O_TOT= -0.3374261E-03 <-- DLTA
 ------------------------------------------------------------------------------
 Cycle:      4
  WF centre and spread    1  ( -0.000003,  0.000001,  0.000001 )     1.25126976
  WF centre and spread    2  (  0.000001,  0.000001, -0.000003 )     1.25127128
  WF centre and spread    3  (  0.000001, -0.000003,  0.000001 )     1.25126932
  Sum of centres and spreads ( -0.000000,  0.000000, -0.000000 )     3.75381037
 
      4    -0.271E-03     0.0079996323        3.7538103655       0.04  <-- CONV
        O_D=      0.0000563 O_OD=      0.0042031 O_TOT=      3.7538104 <-- SPRD
 Delta: O_D= -0.1052450E-03 O_OD= -0.1656771E-03 O_TOT= -0.2709221E-03 <-- DLTA
 ------------------------------------------------------------------------------
 Cycle:      5
  WF centre and spread    1  ( -0.000001,  0.000001,  0.000001 )     1.25123100
  WF centre and spread    2  (  0.000000,  0.000001, -0.000001 )     1.25123161
  WF centre and spread    3  (  0.000001, -0.000001,  0.000001 )     1.25123108
  Sum of centres and spreads ( -0.000000,  0.000000, -0.000000 )     3.75369369
 
      5    -0.117E-03     0.0070886747        3.7536936878       0.05  <-- CONV
        O_D=      0.0000129 O_OD=      0.0041298 O_TOT=      3.7536937 <-- SPRD
 Delta: O_D= -0.4339772E-04 O_OD= -0.7328000E-04 O_TOT= -0.1166777E-03 <-- DLTA
 ------------------------------------------------------------------------------
 Cycle:      6
  WF centre and spread    1  ( -0.000001,  0.000000,  0.000001 )     1.25122439
  WF centre and spread    2  (  0.000000,  0.000001, -0.000001 )     1.25122478
  WF centre and spread    3  (  0.000001, -0.000001,  0.000001 )     1.25122455
  Sum of centres and spreads ( -0.000000,  0.000000, -0.000000 )     3.75367373
 
      6    -0.200E-04     0.0030414910        3.7536737262       0.06  <-- CONV
        O_D=      0.0000051 O_OD=      0.0041177 O_TOT=      3.7536737 <-- SPRD
 Delta: O_D= -0.7818522E-05 O_OD= -0.1214309E-04 O_TOT= -0.1996161E-04 <-- DLTA
 ------------------------------------------------------------------------------
 Cycle:      7
  WF centre and spread    1  ( -0.000001,  0.000000,  0.000001 )     1.25122263
  WF centre and spread    2  (  0.000000,  0.000001, -0.000001 )     1.25122301
  WF centre and spread    3  (  0.000001, -0.000001,  0.000001 )     1.25122279
  Sum of centres and spreads ( -0.000000,  0.000000, -0.000000 )     3.75366843
 
      7    -0.529E-05     0.0015993661        3.7536684327       0.07  <-- CONV
        O_D=      0.0000030 O_OD=      0.0041145 O_TOT=      3.7536684 <-- SPRD
 Delta: O_D= -0.2071598E-05 O_OD= -0.3221929E-05 O_TOT= -0.5293526E-05 <-- DLTA
 ------------------------------------------------------------------------------
 Cycle:      8
  WF centre and spread    1  ( -0.000001,  0.000000,  0.000001 )     1.25122116
  WF centre and spread    2  (  0.000000,  0.000001, -0.000001 )     1.25122150
  WF centre and spread    3  (  0.000001, -0.000001,  0.000001 )     1.25122135
  Sum of centres and spreads ( -0.000000,  0.000000, -0.000000 )     3.75366402
 
      8    -0.442E-05     0.0011250067        3.7536640151       0.08  <-- CONV
        O_D=      0.0000012 O_OD=      0.0041119 O_TOT=      3.7536640 <-- SPRD
 Delta: O_D= -0.1829861E-05 O_OD= -0.2587716E-05 O_TOT= -0.4417577E-05 <-- DLTA
 ------------------------------------------------------------------------------
 Cycle:      9
  WF centre and spread    1  ( -0.000001,  0.000000,  0.000000 )     1.25122055
  WF centre and spread    2  (  0.000000,  0.000001, -0.000001 )     1.25122087
  WF centre and spread    3  (  0.000000, -0.000001,  0.000001 )     1.25122074
  Sum of centres and spreads ( -0.000000,  0.000000,  0.000000 )     3.75366216
 
      9    -0.186E-05     0.0008389441        3.7536621591       0.09  <-- CONV
        O_D=      0.0000006 O_OD=      0.0041106 O_TOT=      3.7536622 <-- SPRD
 Delta: O_D= -0.6385694E-06 O_OD= -0.1217430E-05 O_TOT= -0.1855999E-05 <-- DLTA
 ------------------------------------------------------------------------------
 Cycle:     10
  WF centre and spread    1  ( -0.000001,  0.000000,  0.000000 )     1.25122021
  WF centre and spread    2  (  0.000000,  0.000001, -0.000001 )     1.25122053
  WF centre and spread    3  (  0.000000, -0.000001,  0.000000 )     1.25122041
  Sum of centres and spreads ( -0.000000,  0.000000,  0.000000 )     3.75366115
 
     10    -0.101E-05     0.0005396052        3.7536611502       0.10  <-- CONV
        O_D=      0.0000003 O_OD=      0.0041099 O_TOT=      3.7536612 <-- SPRD
 Delta: O_D= -0.2845286E-06 O_OD= -0.7243193E-06 O_TOT= -0.1008848E-05 <-- DLTA
 ------------------------------------------------------------------------------
 Cycle:     11
  WF centre and spread    1  ( -0.000001,  0.000000,  0.000000 )     1.25122001
  WF centre and spread    2  (  0.000000,  0.000001, -0.000001 )     1.25122032
  WF centre and spread    3  (  0.000000, -0.000001,  0.000000 )     1.25122020
  Sum of centres and spreads ( -0.000000,  0.000000,  0.000000 )     3.75366053
 
     11    -0.617E-06     0.0004542385        3.7536605328       0.11  <-- CONV
        O_D=      0.0000001 O_OD=      0.0041095 O_TOT=      3.7536605 <-- SPRD
 Delta: O_D= -0.1675714E-06 O_OD= -0.4498571E-06 O_TOT= -0.6174285E-06 <-- DLTA
 ------------------------------------------------------------------------------
 Cycle:     12
  WF centre and spread    1  ( -0.000001,  0.000000,  0.000000 )     1.25121994
  WF centre and spread    2  (  0.000000,  0.000000, -0.000001 )     1.25122025
  WF centre and spread    3  (  0.000000, -0.000001,  0.000000 )     1.25122014
  Sum of centres and spreads ( -0.000000,  0.000000,  0.000000 )     3.75366033
 
     12    -0.199E-06     0.0002879697        3.7536603335       0.12  <-- CONV
        O_D=      0.0000001 O_OD=      0.0041093 O_TOT=      3.7536603 <-- SPRD
 Delta: O_D= -0.5857377E-07 O_OD= -0.1407023E-06 O_TOT= -0.1992761E-06 <-- DLTA
 ------------------------------------------------------------------------------
 Cycle:     13
  WF centre and spread    1  ( -0.000001,  0.000000,  0.000000 )     1.25121992
  WF centre and spread    2  (  0.000000,  0.000000, -0.000001 )     1.25122023
  WF centre and spread    3  (  0.000000, -0.000000,  0.000000 )     1.25122012
  Sum of centres and spreads ( -0.000000,  0.000000,  0.000000 )     3.75366028
 
     13    -0.567E-07     0.0001530658        3.7536602768       0.13  <-- CONV
        O_D=      0.0000000 O_OD=      0.0041093 O_TOT=      3.7536603 <-- SPRD
 Delta: O_D= -0.2098402E-07 O_OD= -0.3571676E-07 O_TOT= -0.5670078E-07 <-- DLTA
 ------------------------------------------------------------------------------
 Cycle:     14
  WF centre and spread    1  ( -0.000001,  0.000000,  0.000000 )     1.25121991
  WF centre and spread    2  (  0.000000,  0.000000, -0.000001 )     1.25122022
  WF centre and spread    3  (  0.000000, -0.000000,  0.000000 )     1.25122010
  Sum of centres and spreads ( -0.000000,  0.000000,  0.000000 )     3.75366023
 
     14    -0.425E-07     0.0001183161        3.7536602344       0.14  <-- CONV
        O_D=      0.0000000 O_OD=      0.0041093 O_TOT=      3.7536602 <-- SPRD
 Delta: O_D= -0.1701672E-07 O_OD= -0.2545004E-07 O_TOT= -0.4246677E-07 <-- DLTA
 ------------------------------------------------------------------------------
 Cycle:     15
  WF centre and spread    1  ( -0.000000,  0.000000,  0.000000 )     1.25121990
  WF centre and spread    2  (  0.000000,  0.000000, -0.000001 )     1.25122021
  WF centre and spread    3  (  0.000000, -0.000000,  0.000000 )     1.25122009
  Sum of centres and spreads ( -0.000000,  0.000000,  0.000000 )     3.75366021
 
     15    -0.292E-07     0.0000872537        3.7536602052       0.15  <-- CONV
        O_D=      0.0000000 O_OD=      0.0041093 O_TOT=      3.7536602 <-- SPRD
 Delta: O_D= -0.9909987E-08 O_OD= -0.1925388E-07 O_TOT= -0.2916387E-07 <-- DLTA
 ------------------------------------------------------------------------------
 Cycle:     16
  WF centre and spread    1  ( -0.000000,  0.000000,  0.000000 )     1.25121989
  WF centre and spread    2  (  0.000000,  0.000000, -0.000000 )     1.25122020
  WF centre and spread    3  (  0.000000, -0.000000,  0.000000 )     1.25122009
  Sum of centres and spreads ( -0.000000,  0.000000,  0.000000 )     3.75366019
 
     16    -0.197E-07     0.0000769523        3.7536601855       0.16  <-- CONV
        O_D=      0.0000000 O_OD=      0.0041092 O_TOT=      3.7536602 <-- SPRD
 Delta: O_D= -0.6156930E-08 O_OD= -0.1357859E-07 O_TOT= -0.1973552E-07 <-- DLTA
 ------------------------------------------------------------------------------
 Cycle:     17
  WF centre and spread    1  ( -0.000000,  0.000000,  0.000000 )     1.25121989
  WF centre and spread    2  ( -0.000000,  0.000000, -0.000000 )     1.25122020
  WF centre and spread    3  (  0.000000, -0.000000,  0.000000 )     1.25122008
  Sum of centres and spreads ( -0.000000,  0.000000,  0.000000 )     3.75366017
 
     17    -0.115E-07     0.0000663545        3.7536601740       0.17  <-- CONV
        O_D=      0.0000000 O_OD=      0.0041092 O_TOT=      3.7536602 <-- SPRD
 Delta: O_D= -0.3949930E-08 O_OD= -0.7549000E-08 O_TOT= -0.1149893E-07 <-- DLTA
 ------------------------------------------------------------------------------
 Cycle:     18
  WF centre and spread    1  ( -0.000000,  0.000000,  0.000000 )     1.25121989
  WF centre and spread    2  ( -0.000000,  0.000000, -0.000000 )     1.25122020
  WF centre and spread    3  (  0.000000, -0.000000,  0.000000 )     1.25122008
  Sum of centres and spreads ( -0.000000,  0.000000,  0.000000 )     3.75366017
 
     18    -0.540E-08     0.0000427878        3.7536601686       0.18  <-- CONV
        O_D=      0.0000000 O_OD=      0.0041092 O_TOT=      3.7536602 <-- SPRD
 Delta: O_D= -0.2264176E-08 O_OD= -0.3138902E-08 O_TOT= -0.5403078E-08 <-- DLTA
 ------------------------------------------------------------------------------
 Cycle:     19
  WF centre and spread    1  ( -0.000000,  0.000000,  0.000000 )     1.25121989
  WF centre and spread    2  ( -0.000000,  0.000000, -0.000000 )     1.25122020
  WF centre and spread    3  (  0.000000, -0.000000,  0.000000 )     1.25122008
  Sum of centres and spreads ( -0.000000,  0.000000,  0.000000 )     3.75366016
 
     19    -0.398E-08     0.0000493037        3.7536601646       0.19  <-- CONV
        O_D=      0.0000000 O_OD=      0.0041092 O_TOT=      3.7536602 <-- SPRD
 Delta: O_D= -0.1495668E-08 O_OD= -0.2488424E-08 O_TOT= -0.3984092E-08 <-- DLTA
 ------------------------------------------------------------------------------
 Cycle:     20
  WF centre and spread    1  ( -0.000000,  0.000000,  0.000000 )     1.25121989
  WF centre and spread    2  ( -0.000000,  0.000000, -0.000000 )     1.25122020
  WF centre and spread    3  (  0.000000, -0.000000,  0.000000 )     1.25122008
  Sum of centres and spreads ( -0.000000,  0.000000,  0.000000 )     3.75366016
 
     20    -0.152E-11     0.0000222429        3.7536601646       0.20  <-- CONV
        O_D=      0.0000000 O_OD=      0.0041092 O_TOT=      3.7536602 <-- SPRD
 Delta: O_D= -0.6723557E-12 O_OD= -0.8491888E-12 O_TOT= -0.1521450E-11 <-- DLTA
 ------------------------------------------------------------------------------
 Cycle:     21
  WF centre and spread    1  ( -0.000000,  0.000000,  0.000000 )     1.25121989
  WF centre and spread    2  ( -0.000000,  0.000000, -0.000000 )     1.25122020
  WF centre and spread    3  (  0.000000, -0.000000,  0.000000 )     1.25122008
  Sum of centres and spreads ( -0.000000,  0.000000,  0.000000 )     3.75366016
 
     21    -0.184E-08     0.0000222348        3.7536601627       0.21  <-- CONV
        O_D=      0.0000000 O_OD=      0.0041092 O_TOT=      3.7536602 <-- SPRD
 Delta: O_D= -0.7825442E-09 O_OD= -0.1057814E-08 O_TOT= -0.1840359E-08 <-- DLTA
 ------------------------------------------------------------------------------
 Cycle:     22
  WF centre and spread    1  ( -0.000000,  0.000000,  0.000000 )     1.25121989
  WF centre and spread    2  ( -0.000000,  0.000000, -0.000000 )     1.25122020
  WF centre and spread    3  (  0.000000, -0.000000,  0.000000 )     1.25122008
  Sum of centres and spreads ( -0.000000,  0.000000,  0.000000 )     3.75366016
 
     22    -0.993E-09     0.0000234149        3.7536601617       0.22  <-- CONV
        O_D=      0.0000000 O_OD=      0.0041092 O_TOT=      3.7536602 <-- SPRD
 Delta: O_D= -0.4680024E-09 O_OD= -0.5246696E-09 O_TOT= -0.9926722E-09 <-- DLTA
 ------------------------------------------------------------------------------
 Cycle:     23
  WF centre and spread    1  ( -0.000000,  0.000000,  0.000000 )     1.25121989
  WF centre and spread    2  ( -0.000000,  0.000000, -0.000000 )     1.25122020
  WF centre and spread    3  (  0.000000,  0.000000,  0.000000 )     1.25122008
  Sum of centres and spreads ( -0.000000,  0.000000,  0.000000 )     3.75366016
 
     23    -0.148E-08     0.0000257248        3.7536601603       0.23  <-- CONV
        O_D=      0.0000000 O_OD=      0.0041092 O_TOT=      3.7536602 <-- SPRD
 Delta: O_D= -0.6593655E-09 O_OD= -0.8244791E-09 O_TOT= -0.1483844E-08 <-- DLTA
 ------------------------------------------------------------------------------
 Cycle:     24
  WF centre and spread    1  ( -0.000000,  0.000000,  0.000000 )     1.25121989
  WF centre and spread    2  ( -0.000000,  0.000000, -0.000000 )     1.25122020
  WF centre and spread    3  (  0.000000,  0.000000,  0.000000 )     1.25122008
  Sum of centres and spreads ( -0.000000,  0.000000,  0.000000 )     3.75366016
 
     24    -0.104E-11     0.0000167958        3.7536601603       0.24  <-- CONV
        O_D=      0.0000000 O_OD=      0.0041092 O_TOT=      3.7536602 <-- SPRD
 Delta: O_D= -0.3532051E-12 O_OD= -0.6915033E-12 O_TOT= -0.1044942E-11 <-- DLTA
 ------------------------------------------------------------------------------
 Cycle:     25
  WF centre and spread    1  ( -0.000000,  0.000000,  0.000000 )     1.25121989
  WF centre and spread    2  ( -0.000000,  0.000000, -0.000000 )     1.25122020
  WF centre and spread    3  (  0.000000,  0.000000,  0.000000 )     1.25122008
  Sum of centres and spreads ( -0.000000,  0.000000,  0.000000 )     3.75366016
 
     25    -0.846E-12     0.0000167891        3.7536601603       0.24  <-- CONV
        O_D=      0.0000000 O_OD=      0.0041092 O_TOT=      3.7536602 <-- SPRD
 Delta: O_D= -0.2986716E-12 O_OD= -0.5470060E-12 O_TOT= -0.8455459E-12 <-- DLTA
 ------------------------------------------------------------------------------
 Cycle:     26
  WF centre and spread    1  ( -0.000000,  0.000000,  0.000000 )     1.25121989
  WF centre and spread    2  ( -0.000000,  0.000000, -0.000000 )     1.25122020
  WF centre and spread    3  (  0.000000,  0.000000,  0.000000 )     1.25122008
  Sum of centres and spreads ( -0.000000,  0.000000,  0.000000 )     3.75366016
 
     26    -0.169E-11     0.0000167803        3.7536601603       0.25  <-- CONV
        O_D=      0.0000000 O_OD=      0.0041092 O_TOT=      3.7536602 <-- SPRD
 Delta: O_D= -0.5963727E-12 O_OD= -0.1092298E-11 O_TOT= -0.1688871E-11 <-- DLTA
 ------------------------------------------------------------------------------
 Cycle:     27
  WF centre and spread    1  ( -0.000000,  0.000000,  0.000000 )     1.25121989
  WF centre and spread    2  ( -0.000000,  0.000000, -0.000000 )     1.25122019
  WF centre and spread    3  (  0.000000,  0.000000,  0.000000 )     1.25122008
  Sum of centres and spreads ( -0.000000,  0.000000,  0.000000 )     3.75366016
 
     27    -0.799E-09     0.0000167626        3.7536601595       0.26  <-- CONV
        O_D=      0.0000000 O_OD=      0.0041092 O_TOT=      3.7536602 <-- SPRD
 Delta: O_D= -0.2692796E-09 O_OD= -0.5298571E-09 O_TOT= -0.7991363E-09 <-- DLTA
 ------------------------------------------------------------------------------
 Cycle:     28
  WF centre and spread    1  ( -0.000000,  0.000000,  0.000000 )     1.25121989
  WF centre and spread    2  ( -0.000000,  0.000000, -0.000000 )     1.25122019
  WF centre and spread    3  (  0.000000,  0.000000,  0.000000 )     1.25122008
  Sum of centres and spreads ( -0.000000,  0.000000,  0.000000 )     3.75366016
 
     28    -0.336E-12     0.0000112442        3.7536601595       0.26  <-- CONV
        O_D=      0.0000000 O_OD=      0.0041092 O_TOT=      3.7536602 <-- SPRD
 Delta: O_D= -0.1328199E-12 O_OD= -0.2024630E-12 O_TOT= -0.3357314E-12 <-- DLTA
 ------------------------------------------------------------------------------
 Cycle:     29
  WF centre and spread    1  ( -0.000000,  0.000000,  0.000000 )     1.25121989
  WF centre and spread    2  ( -0.000000,  0.000000, -0.000000 )     1.25122019
  WF centre and spread    3  (  0.000000,  0.000000,  0.000000 )     1.25122008
  Sum of centres and spreads ( -0.000000,  0.000000,  0.000000 )     3.75366016
 
     29    -0.714E-12     0.0000112447        3.7536601595       0.27  <-- CONV
        O_D=      0.0000000 O_OD=      0.0041092 O_TOT=      3.7536602 <-- SPRD
 Delta: O_D= -0.2986432E-12 O_OD= -0.4154880E-12 O_TOT= -0.7140954E-12 <-- DLTA
 ------------------------------------------------------------------------------
 Cycle:     30
  WF centre and spread    1  ( -0.000000,  0.000000,  0.000000 )     1.25121989
  WF centre and spread    2  ( -0.000000,  0.000000, -0.000000 )     1.25122019
  WF centre and spread    3  (  0.000000,  0.000000,  0.000000 )     1.25122008
  Sum of centres and spreads ( -0.000000,  0.000000,  0.000000 )     3.75366016
 
     30    -0.109E-11     0.0000112373        3.7536601595       0.27  <-- CONV
        O_D=      0.0000000 O_OD=      0.0041092 O_TOT=      3.7536602 <-- SPRD
 Delta: O_D= -0.4634354E-12 O_OD= -0.6275596E-12 O_TOT= -0.1091127E-11 <-- DLTA
 ------------------------------------------------------------------------------
 Cycle:     31
  WF centre and spread    1  ( -0.000000,  0.000000,  0.000000 )     1.25121989
  WF centre and spread    2  ( -0.000000,  0.000000, -0.000000 )     1.25122019
  WF centre and spread    3  (  0.000000,  0.000000,  0.000000 )     1.25122008
  Sum of centres and spreads ( -0.000000,  0.000000,  0.000000 )     3.75366016
 
     31    -0.377E-12     0.0000112220        3.7536601595       0.28  <-- CONV
        O_D=      0.0000000 O_OD=      0.0041092 O_TOT=      3.7536602 <-- SPRD
 Delta: O_D= -0.1650940E-12 O_OD= -0.2126988E-12 O_TOT= -0.3774758E-12 <-- DLTA
 ------------------------------------------------------------------------------
 Cycle:     32
  WF centre and spread    1  ( -0.000000,  0.000000,  0.000000 )     1.25121989
  WF centre and spread    2  ( -0.000000,  0.000000, -0.000000 )     1.25122019
  WF centre and spread    3  (  0.000000,  0.000000,  0.000000 )     1.25122008
  Sum of centres and spreads ( -0.000000,  0.000000,  0.000000 )     3.75366016
 
     32    -0.754E-12     0.0000112142        3.7536601595       0.29  <-- CONV
        O_D=      0.0000000 O_OD=      0.0041092 O_TOT=      3.7536602 <-- SPRD
 Delta: O_D= -0.3293879E-12 O_OD= -0.4246282E-12 O_TOT= -0.7540635E-12 <-- DLTA
 ------------------------------------------------------------------------------
 Cycle:     33
  WF centre and spread    1  ( -0.000000,  0.000000,  0.000000 )     1.25121989
  WF centre and spread    2  ( -0.000000,  0.000000, -0.000000 )     1.25122019
  WF centre and spread    3  (  0.000000,  0.000000,  0.000000 )     1.25122008
  Sum of centres and spreads ( -0.000000,  0.000000,  0.000000 )     3.75366016
 
     33    -0.265E-09     0.0000111985        3.7536601592       0.30  <-- CONV
        O_D=      0.0000000 O_OD=      0.0041092 O_TOT=      3.7536602 <-- SPRD
 Delta: O_D= -0.8135627E-10 O_OD= -0.1841275E-09 O_TOT= -0.2654836E-09 <-- DLTA
 ------------------------------------------------------------------------------
 Cycle:     34
  WF centre and spread    1  ( -0.000000,  0.000000,  0.000000 )     1.25121989
  WF centre and spread    2  ( -0.000000,  0.000000, -0.000000 )     1.25122019
  WF centre and spread    3  (  0.000000,  0.000000,  0.000000 )     1.25122008
  Sum of centres and spreads ( -0.000000,  0.000000,  0.000000 )     3.75366016
 
     34    -0.197E-12     0.0000101116        3.7536601592       0.30  <-- CONV
        O_D=      0.0000000 O_OD=      0.0041092 O_TOT=      3.7536602 <-- SPRD
 Delta: O_D= -0.1771951E-13 O_OD= -0.1788812E-12 O_TOT= -0.1967315E-12 <-- DLTA
 ------------------------------------------------------------------------------
 Cycle:     35
  WF centre and spread    1  ( -0.000000,  0.000000,  0.000000 )     1.25121989
  WF centre and spread    2  ( -0.000000,  0.000000, -0.000000 )     1.25122019
  WF centre and spread    3  (  0.000000,  0.000000,  0.000000 )     1.25122008
  Sum of centres and spreads ( -0.000000,  0.000000,  0.000000 )     3.75366016
 
     35    -0.504E-12     0.0000101207        3.7536601592       0.31  <-- CONV
        O_D=      0.0000000 O_OD=      0.0041092 O_TOT=      3.7536602 <-- SPRD
 Delta: O_D= -0.1891827E-12 O_OD= -0.3145522E-12 O_TOT= -0.5035972E-12 <-- DLTA
 ------------------------------------------------------------------------------
 Cycle:     36
  WF centre and spread    1  ( -0.000000,  0.000000,  0.000000 )     1.25121989
  WF centre and spread    2  ( -0.000000,  0.000000, -0.000000 )     1.25122019
  WF centre and spread    3  (  0.000000,  0.000000,  0.000000 )     1.25122008
  Sum of centres and spreads ( -0.000000,  0.000000,  0.000000 )     3.75366016
 
     36    -0.811E-12     0.0000101214        3.7536601592       0.31  <-- CONV
        O_D=      0.0000000 O_OD=      0.0041092 O_TOT=      3.7536602 <-- SPRD
 Delta: O_D= -0.3605877E-12 O_OD= -0.4500662E-12 O_TOT= -0.8109069E-12 <-- DLTA
 ------------------------------------------------------------------------------
 Cycle:     37
  WF centre and spread    1  ( -0.000000,  0.000000,  0.000000 )     1.25121989
  WF centre and spread    2  ( -0.000000,  0.000000, -0.000000 )     1.25122019
  WF centre and spread    3  (  0.000000,  0.000000,  0.000000 )     1.25122008
  Sum of centres and spreads ( -0.000000,  0.000000,  0.000000 )     3.75366016
 
     37    -0.306E-12     0.0000101135        3.7536601592       0.32  <-- CONV
        O_D=      0.0000000 O_OD=      0.0041092 O_TOT=      3.7536602 <-- SPRD
 Delta: O_D= -0.1711573E-12 O_OD= -0.1356484E-12 O_TOT= -0.3064216E-12 <-- DLTA
 ------------------------------------------------------------------------------
 Cycle:     38
  WF centre and spread    1  ( -0.000000,  0.000000,  0.000000 )     1.25121989
  WF centre and spread    2  ( -0.000000,  0.000000, -0.000000 )     1.25122019
  WF centre and spread    3  (  0.000000,  0.000000,  0.000000 )     1.25122008
  Sum of centres and spreads ( -0.000000,  0.000000,  0.000000 )     3.75366016
 
     38    -0.612E-12     0.0000101050        3.7536601592       0.32  <-- CONV
        O_D=      0.0000000 O_OD=      0.0041092 O_TOT=      3.7536602 <-- SPRD
 Delta: O_D= -0.3412894E-12 O_OD= -0.2708129E-12 O_TOT= -0.6123990E-12 <-- DLTA
 ------------------------------------------------------------------------------
 Cycle:     39
  WF centre and spread    1  ( -0.000000,  0.000000,  0.000000 )     1.25121989
  WF centre and spread    2  ( -0.000000,  0.000000, -0.000000 )     1.25122019
  WF centre and spread    3  (  0.000000,  0.000000,  0.000000 )     1.25122008
  Sum of centres and spreads ( -0.000000,  0.000000,  0.000000 )     3.75366016
 
     39    -0.175E-09     0.0000100880        3.7536601590       0.33  <-- CONV
        O_D=      0.0000000 O_OD=      0.0041092 O_TOT=      3.7536602 <-- SPRD
 Delta: O_D= -0.7888515E-10 O_OD= -0.9589613E-10 O_TOT= -0.1747811E-09 <-- DLTA
 ------------------------------------------------------------------------------
 Cycle:     40
  WF centre and spread    1  ( -0.000000,  0.000000,  0.000000 )     1.25121989
  WF centre and spread    2  ( -0.000000,  0.000000, -0.000000 )     1.25122019
  WF centre and spread    3  (  0.000000,  0.000000,  0.000000 )     1.25122008
  Sum of centres and spreads ( -0.000000,  0.000000,  0.000000 )     3.75366016
 
     40    -0.202E-12     0.0000065344        3.7536601590       0.34  <-- CONV
        O_D=      0.0000000 O_OD=      0.0041092 O_TOT=      3.7536602 <-- SPRD
 Delta: O_D= -0.4765539E-13 O_OD= -0.1538839E-12 O_TOT= -0.2016165E-12 <-- DLTA
 ------------------------------------------------------------------------------
 Cycle:     41
  WF centre and spread    1  ( -0.000000,  0.000000,  0.000000 )     1.25121989
  WF centre and spread    2  ( -0.000000,  0.000000, -0.000000 )     1.25122019
  WF centre and spread    3  (  0.000000,  0.000000,  0.000000 )     1.25122008
  Sum of centres and spreads ( -0.000000,  0.000000,  0.000000 )     3.75366016
 
     41    -0.330E-12     0.0000065373        3.7536601590       0.35  <-- CONV
        O_D=      0.0000000 O_OD=      0.0041092 O_TOT=      3.7536602 <-- SPRD
 Delta: O_D= -0.1029162E-12 O_OD= -0.2268446E-12 O_TOT= -0.3295142E-12 <-- DLTA
 ------------------------------------------------------------------------------
 Cycle:     42
  WF centre and spread    1  ( -0.000000,  0.000000,  0.000000 )     1.25121989
  WF centre and spread    2  ( -0.000000,  0.000000, -0.000000 )     1.25122019
  WF centre and spread    3  (  0.000000,  0.000000,  0.000000 )     1.25122008
  Sum of centres and spreads ( -0.000000,  0.000000,  0.000000 )     3.75366016
 
     42    -0.458E-12     0.0000065384        3.7536601590       0.35  <-- CONV
        O_D=      0.0000000 O_OD=      0.0041092 O_TOT=      3.7536602 <-- SPRD
 Delta: O_D= -0.1582706E-12 O_OD= -0.2997394E-12 O_TOT= -0.4583001E-12 <-- DLTA
 ------------------------------------------------------------------------------
 Cycle:     43
  WF centre and spread    1  ( -0.000000,  0.000000,  0.000000 )     1.25121989
  WF centre and spread    2  ( -0.000000,  0.000000, -0.000000 )     1.25122019
  WF centre and spread    3  (  0.000000,  0.000000,  0.000000 )     1.25122008
  Sum of centres and spreads ( -0.000000,  0.000000,  0.000000 )     3.75366016
 
     43    -0.128E-12     0.0000065378        3.7536601590       0.36  <-- CONV
        O_D=      0.0000000 O_OD=      0.0041092 O_TOT=      3.7536602 <-- SPRD
 Delta: O_D= -0.5536830E-13 O_OD= -0.7287834E-13 O_TOT= -0.1283418E-12 <-- DLTA
 ------------------------------------------------------------------------------
 Cycle:     44
  WF centre and spread    1  ( -0.000000,  0.000000,  0.000000 )     1.25121989
  WF centre and spread    2  ( -0.000000,  0.000000, -0.000000 )     1.25122019
  WF centre and spread    3  (  0.000000,  0.000000,  0.000000 )     1.25122008
  Sum of centres and spreads ( -0.000000,  0.000000,  0.000000 )     3.75366016
 
     44    -0.256E-12     0.0000065360        3.7536601590       0.36  <-- CONV
        O_D=      0.0000000 O_OD=      0.0041092 O_TOT=      3.7536602 <-- SPRD
 Delta: O_D= -0.1105956E-12 O_OD= -0.1457029E-12 O_TOT= -0.2562395E-12 <-- DLTA
 ------------------------------------------------------------------------------
 Cycle:     45
  WF centre and spread    1  ( -0.000000,  0.000000,  0.000000 )     1.25121989
  WF centre and spread    2  ( -0.000000,  0.000000, -0.000000 )     1.25122019
  WF centre and spread    3  (  0.000000,  0.000000,  0.000000 )     1.25122008
  Sum of centres and spreads ( -0.000000,  0.000000,  0.000000 )     3.75366016
 
     45    -0.384E-12     0.0000065325        3.7536601590       0.37  <-- CONV
        O_D=      0.0000000 O_OD=      0.0041092 O_TOT=      3.7536602 <-- SPRD
 Delta: O_D= -0.1655121E-12 O_OD= -0.2183470E-12 O_TOT= -0.3836931E-12 <-- DLTA
 ------------------------------------------------------------------------------
 Cycle:     46
  WF centre and spread    1  ( -0.000000,  0.000000,  0.000000 )     1.25121989
  WF centre and spread    2  ( -0.000000,  0.000000, -0.000000 )     1.25122019
  WF centre and spread    3  (  0.000000,  0.000000,  0.000000 )     1.25122008
  Sum of centres and spreads ( -0.000000,  0.000000,  0.000000 )     3.75366016
 
     46    -0.511E-12     0.0000065272        3.7536601590       0.37  <-- CONV
        O_D=      0.0000000 O_OD=      0.0041092 O_TOT=      3.7536602 <-- SPRD
 Delta: O_D= -0.2199512E-12 O_OD= -0.2907232E-12 O_TOT= -0.5111467E-12 <-- DLTA
 ------------------------------------------------------------------------------
 Cycle:     47
  WF centre and spread    1  ( -0.000000,  0.000000,  0.000000 )     1.25121989
  WF centre and spread    2  ( -0.000000,  0.000000, -0.000000 )     1.25122019
  WF centre and spread    3  (  0.000000,  0.000000,  0.000000 )     1.25122008
  Sum of centres and spreads ( -0.000000,  0.000000,  0.000000 )     3.75366016
 
     47    -0.167E-09     0.0000065202        3.7536601588       0.38  <-- CONV
        O_D=      0.0000000 O_OD=      0.0041092 O_TOT=      3.7536602 <-- SPRD
 Delta: O_D= -0.5365368E-10 O_OD= -0.1129632E-09 O_TOT= -0.1666165E-09 <-- DLTA
 ------------------------------------------------------------------------------
 Cycle:     48
  WF centre and spread    1  ( -0.000000,  0.000000,  0.000000 )     1.25121989
  WF centre and spread    2  ( -0.000000,  0.000000, -0.000000 )     1.25122019
  WF centre and spread    3  (  0.000000,  0.000000,  0.000000 )     1.25122008
  Sum of centres and spreads ( -0.000000,  0.000000,  0.000000 )     3.75366016
 
     48    -0.498E-12     0.0000066748        3.7536601588       0.39  <-- CONV
        O_D=      0.0000000 O_OD=      0.0041092 O_TOT=      3.7536602 <-- SPRD
 Delta: O_D= -0.1143245E-12 O_OD= -0.3833574E-12 O_TOT= -0.4978240E-12 <-- DLTA
 ------------------------------------------------------------------------------
 Cycle:     49
  WF centre and spread    1  ( -0.000000,  0.000000,  0.000000 )     1.25121989
  WF centre and spread    2  ( -0.000000,  0.000000, -0.000000 )     1.25122019
  WF centre and spread    3  (  0.000000,  0.000000,  0.000000 )     1.25122008
  Sum of centres and spreads ( -0.000000,  0.000000,  0.000000 )     3.75366016
 
     49    -0.134E-12     0.0000066814        3.7536601588       0.40  <-- CONV
        O_D=      0.0000000 O_OD=      0.0041092 O_TOT=      3.7536602 <-- SPRD
 Delta: O_D= -0.6978607E-13 O_OD= -0.6415875E-13 O_TOT= -0.1341149E-12 <-- DLTA
 ------------------------------------------------------------------------------
 Cycle:     50
  WF centre and spread    1  ( -0.000000,  0.000000,  0.000000 )     1.25121989
  WF centre and spread    2  ( -0.000000,  0.000000, -0.000000 )     1.25122019
  WF centre and spread    3  (  0.000000,  0.000000,  0.000000 )     1.25122008
  Sum of centres and spreads ( -0.000000,  0.000000,  0.000000 )     3.75366016
 
     50    -0.267E-12     0.0000066782        3.7536601588       0.40  <-- CONV
        O_D=      0.0000000 O_OD=      0.0041092 O_TOT=      3.7536602 <-- SPRD
 Delta: O_D= -0.1392790E-12 O_OD= -0.1281900E-12 O_TOT= -0.2673417E-12 <-- DLTA
 ------------------------------------------------------------------------------
 Cycle:     51
  WF centre and spread    1  ( -0.000000,  0.000000,  0.000000 )     1.25121989
  WF centre and spread    2  ( -0.000000,  0.000000, -0.000000 )     1.25122019
  WF centre and spread    3  (  0.000000,  0.000000,  0.000000 )     1.25122008
  Sum of centres and spreads ( -0.000000,  0.000000,  0.000000 )     3.75366016
 
     51    -0.400E-12     0.0000066717        3.7536601588       0.41  <-- CONV
        O_D=      0.0000000 O_OD=      0.0041092 O_TOT=      3.7536602 <-- SPRD
 Delta: O_D= -0.2081212E-12 O_OD= -0.1920122E-12 O_TOT= -0.4001244E-12 <-- DLTA
 ------------------------------------------------------------------------------
 Cycle:     52
  WF centre and spread    1  ( -0.000000,  0.000000,  0.000000 )     1.25121989
  WF centre and spread    2  ( -0.000000,  0.000000, -0.000000 )     1.25122019
  WF centre and spread    3  (  0.000000,  0.000000,  0.000000 )     1.25122008
  Sum of centres and spreads ( -0.000000,  0.000000,  0.000000 )     3.75366016
 
     52    -0.531E-12     0.0000066621        3.7536601588       0.41  <-- CONV
        O_D=      0.0000000 O_OD=      0.0041092 O_TOT=      3.7536602 <-- SPRD
 Delta: O_D= -0.2759634E-12 O_OD= -0.2553973E-12 O_TOT= -0.5311307E-12 <-- DLTA
 ------------------------------------------------------------------------------
 Cycle:     53
  WF centre and spread    1  ( -0.000000,  0.000000,  0.000000 )     1.25121989
  WF centre and spread    2  ( -0.000000,  0.000000, -0.000000 )     1.25122019
  WF centre and spread    3  (  0.000000,  0.000000,  0.000000 )     1.25122008
  Sum of centres and spreads ( -0.000000,  0.000000,  0.000000 )     3.75366016
 
     53    -0.661E-12     0.0000066493        3.7536601588       0.42  <-- CONV
        O_D=      0.0000000 O_OD=      0.0041092 O_TOT=      3.7536602 <-- SPRD
 Delta: O_D= -0.3424689E-12 O_OD= -0.3182177E-12 O_TOT= -0.6608047E-12 <-- DLTA
 ------------------------------------------------------------------------------
 Cycle:     54
  WF centre and spread    1  ( -0.000000,  0.000000,  0.000000 )     1.25121989
  WF centre and spread    2  ( -0.000000,  0.000000, -0.000000 )     1.25122019
  WF centre and spread    3  (  0.000000,  0.000000,  0.000000 )     1.25122008
  Sum of centres and spreads ( -0.000000,  0.000000,  0.000000 )     3.75366016
 
     54    -0.135E-09     0.0000066334        3.7536601587       0.43  <-- CONV
        O_D=      0.0000000 O_OD=      0.0041092 O_TOT=      3.7536602 <-- SPRD
 Delta: O_D= -0.6620126E-11 O_OD= -0.1279667E-09 O_TOT= -0.1345870E-09 <-- DLTA
 ------------------------------------------------------------------------------
 Cycle:     55
  WF centre and spread    1  ( -0.000000,  0.000000,  0.000000 )     1.25121989
  WF centre and spread    2  ( -0.000000,  0.000000, -0.000000 )     1.25122019
  WF centre and spread    3  (  0.000000,  0.000000,  0.000000 )     1.25122008
  Sum of centres and spreads ( -0.000000,  0.000000,  0.000000 )     3.75366016
 
     55    -0.323E-12     0.0000103763        3.7536601587       0.43  <-- CONV
        O_D=      0.0000000 O_OD=      0.0041092 O_TOT=      3.7536602 <-- SPRD
 Delta: O_D= -0.2519546E-12 O_OD= -0.7098055E-13 O_TOT= -0.3228529E-12 <-- DLTA
 ------------------------------------------------------------------------------
 Cycle:     56
  WF centre and spread    1  ( -0.000000,  0.000000,  0.000000 )     1.25121989
  WF centre and spread    2  ( -0.000000,  0.000000, -0.000000 )     1.25122019
  WF centre and spread    3  (  0.000000,  0.000000,  0.000000 )     1.25122008
  Sum of centres and spreads ( -0.000000,  0.000000,  0.000000 )     3.75366016
 
     56    -0.137E-09     0.0000103647        3.7536601586       0.44  <-- CONV
        O_D=      0.0000000 O_OD=      0.0041092 O_TOT=      3.7536602 <-- SPRD
 Delta: O_D= -0.9535998E-10 O_OD= -0.4149385E-10 O_TOT= -0.1368541E-09 <-- DLTA
 ------------------------------------------------------------------------------
 Cycle:     57
  WF centre and spread    1  ( -0.000000,  0.000000,  0.000000 )     1.25121989
  WF centre and spread    2  ( -0.000000,  0.000000, -0.000000 )     1.25122019
  WF centre and spread    3  (  0.000000,  0.000000,  0.000000 )     1.25122008
  Sum of centres and spreads ( -0.000000,  0.000000,  0.000000 )     3.75366016
 
     57    -0.102E-12     0.0000048615        3.7536601586       0.45  <-- CONV
        O_D=      0.0000000 O_OD=      0.0041092 O_TOT=      3.7536602 <-- SPRD
 Delta: O_D= -0.3461198E-13 O_OD= -0.6739921E-13 O_TOT= -0.1016964E-12 <-- DLTA
 ------------------------------------------------------------------------------
 Cycle:     58
  WF centre and spread    1  ( -0.000000,  0.000000,  0.000000 )     1.25121989
  WF centre and spread    2  ( -0.000000,  0.000000, -0.000000 )     1.25122019
  WF centre and spread    3  (  0.000000,  0.000000,  0.000000 )     1.25122008
  Sum of centres and spreads ( -0.000000,  0.000000,  0.000000 )     3.75366016
 
     58    -0.173E-12     0.0000048613        3.7536601586       0.45  <-- CONV
        O_D=      0.0000000 O_OD=      0.0041092 O_TOT=      3.7536602 <-- SPRD
 Delta: O_D= -0.5930574E-13 O_OD= -0.1135472E-12 O_TOT= -0.1727507E-12 <-- DLTA
 ------------------------------------------------------------------------------
 Cycle:     59
  WF centre and spread    1  ( -0.000000,  0.000000,  0.000000 )     1.25121989
  WF centre and spread    2  ( -0.000000,  0.000000, -0.000000 )     1.25122019
  WF centre and spread    3  (  0.000000,  0.000000,  0.000000 )     1.25122008
  Sum of centres and spreads ( -0.000000,  0.000000,  0.000000 )     3.75366016
 
     59    -0.244E-12     0.0000048609        3.7536601586       0.46  <-- CONV
        O_D=      0.0000000 O_OD=      0.0041092 O_TOT=      3.7536602 <-- SPRD
 Delta: O_D= -0.8399074E-13 O_OD= -0.1596587E-12 O_TOT= -0.2438050E-12 <-- DLTA
 ------------------------------------------------------------------------------
 Cycle:     60
  WF centre and spread    1  ( -0.000000,  0.000000,  0.000000 )     1.25121989
  WF centre and spread    2  ( -0.000000,  0.000000, -0.000000 )     1.25122019
  WF centre and spread    3  (  0.000000,  0.000000,  0.000000 )     1.25122008
  Sum of centres and spreads ( -0.000000,  0.000000,  0.000000 )     3.75366016
 
     60    -0.314E-12     0.0000048603        3.7536601586       0.47  <-- CONV
        O_D=      0.0000000 O_OD=      0.0041092 O_TOT=      3.7536602 <-- SPRD
 Delta: O_D= -0.1086592E-12 O_OD= -0.2057078E-12 O_TOT= -0.3144152E-12 <-- DLTA
 ------------------------------------------------------------------------------
 Cycle:     61
  WF centre and spread    1  ( -0.000000,  0.000000,  0.000000 )     1.25121989
  WF centre and spread    2  ( -0.000000,  0.000000, -0.000000 )     1.25122019
  WF centre and spread    3  (  0.000000,  0.000000,  0.000000 )     1.25122008
  Sum of centres and spreads ( -0.000000,  0.000000,  0.000000 )     3.75366016
 
     61    -0.711E-13     0.0000048595        3.7536601586       0.47  <-- CONV
        O_D=      0.0000000 O_OD=      0.0041092 O_TOT=      3.7536602 <-- SPRD
 Delta: O_D= -0.2474874E-13 O_OD= -0.4612803E-13 O_TOT= -0.7105427E-13 <-- DLTA
 ------------------------------------------------------------------------------
 Cycle:     62
  WF centre and spread    1  ( -0.000000,  0.000000,  0.000000 )     1.25121989
  WF centre and spread    2  ( -0.000000,  0.000000, -0.000000 )     1.25122019
  WF centre and spread    3  (  0.000000,  0.000000,  0.000000 )     1.25122008
  Sum of centres and spreads ( -0.000000,  0.000000,  0.000000 )     3.75366016
 
     62    -0.142E-12     0.0000048593        3.7536601586       0.48  <-- CONV
        O_D=      0.0000000 O_OD=      0.0041092 O_TOT=      3.7536602 <-- SPRD
 Delta: O_D= -0.4949121E-13 O_OD= -0.9222484E-13 O_TOT= -0.1416645E-12 <-- DLTA
 ------------------------------------------------------------------------------
 Cycle:     63
  WF centre and spread    1  ( -0.000000,  0.000000,  0.000000 )     1.25121989
  WF centre and spread    2  ( -0.000000,  0.000000, -0.000000 )     1.25122019
  WF centre and spread    3  (  0.000000,  0.000000,  0.000000 )     1.25122008
  Sum of centres and spreads ( -0.000000,  0.000000,  0.000000 )     3.75366016
 
     63    -0.212E-12     0.0000048589        3.7536601586       0.48  <-- CONV
        O_D=      0.0000000 O_OD=      0.0041092 O_TOT=      3.7536602 <-- SPRD
 Delta: O_D= -0.7421908E-13 O_OD= -0.1383234E-12 O_TOT= -0.2122746E-12 <-- DLTA
 ------------------------------------------------------------------------------
 Cycle:     64
  WF centre and spread    1  ( -0.000000,  0.000000,  0.000000 )     1.25121989
  WF centre and spread    2  ( -0.000000,  0.000000, -0.000000 )     1.25122019
  WF centre and spread    3  (  0.000000,  0.000000,  0.000000 )     1.25122008
  Sum of centres and spreads ( -0.000000,  0.000000,  0.000000 )     3.75366016
 
     64    -0.283E-12     0.0000048583        3.7536601586       0.49  <-- CONV
        O_D=      0.0000000 O_OD=      0.0041092 O_TOT=      3.7536602 <-- SPRD
 Delta: O_D= -0.9892408E-13 O_OD= -0.1843335E-12 O_TOT= -0.2833289E-12 <-- DLTA
 ------------------------------------------------------------------------------
 Cycle:     65
  WF centre and spread    1  ( -0.000000,  0.000000,  0.000000 )     1.25121989
  WF centre and spread    2  ( -0.000000,  0.000000, -0.000000 )     1.25122019
  WF centre and spread    3  (  0.000000,  0.000000,  0.000000 )     1.25122008
  Sum of centres and spreads ( -0.000000,  0.000000,  0.000000 )     3.75366016
 
     65    -0.354E-12     0.0000048575        3.7536601586       0.49  <-- CONV
        O_D=      0.0000000 O_OD=      0.0041092 O_TOT=      3.7536602 <-- SPRD
 Delta: O_D= -0.1235979E-12 O_OD= -0.2303409E-12 O_TOT= -0.3539391E-12 <-- DLTA
 ------------------------------------------------------------------------------
 Cycle:     66
  WF centre and spread    1  ( -0.000000,  0.000000,  0.000000 )     1.25121989
  WF centre and spread    2  ( -0.000000,  0.000000, -0.000000 )     1.25122019
  WF centre and spread    3  (  0.000000,  0.000000,  0.000000 )     1.25122008
  Sum of centres and spreads ( -0.000000,  0.000000,  0.000000 )     3.75366016
 
     66    -0.425E-12     0.0000048565        3.7536601586       0.50  <-- CONV
        O_D=      0.0000000 O_OD=      0.0041092 O_TOT=      3.7536602 <-- SPRD
 Delta: O_D= -0.1482324E-12 O_OD= -0.2762287E-12 O_TOT= -0.4245493E-12 <-- DLTA
 ------------------------------------------------------------------------------
 Cycle:     67
  WF centre and spread    1  ( -0.000000,  0.000000,  0.000000 )     1.25121989
  WF centre and spread    2  ( -0.000000,  0.000000, -0.000000 )     1.25122019
  WF centre and spread    3  (  0.000000,  0.000000,  0.000000 )     1.25122008
  Sum of centres and spreads ( -0.000000,  0.000000,  0.000000 )     3.75366016
 
     67    -0.711E-13     0.0000048554        3.7536601586       0.51  <-- CONV
        O_D=      0.0000000 O_OD=      0.0041092 O_TOT=      3.7536602 <-- SPRD
 Delta: O_D= -0.2470429E-13 O_OD= -0.4606385E-13 O_TOT= -0.7105427E-13 <-- DLTA
 ------------------------------------------------------------------------------
 Cycle:     68
  WF centre and spread    1  ( -0.000000,  0.000000,  0.000000 )     1.25121989
  WF centre and spread    2  ( -0.000000,  0.000000, -0.000000 )     1.25122019
  WF centre and spread    3  (  0.000000,  0.000000,  0.000000 )     1.25122008
  Sum of centres and spreads ( -0.000000,  0.000000,  0.000000 )     3.75366016
 
     68    -0.141E-12     0.0000048552        3.7536601586       0.51  <-- CONV
        O_D=      0.0000000 O_OD=      0.0041092 O_TOT=      3.7536602 <-- SPRD
 Delta: O_D= -0.4940235E-13 O_OD= -0.9206264E-13 O_TOT= -0.1412204E-12 <-- DLTA
 ------------------------------------------------------------------------------
 Cycle:     69
  WF centre and spread    1  ( -0.000000,  0.000000,  0.000000 )     1.25121989
  WF centre and spread    2  ( -0.000000,  0.000000, -0.000000 )     1.25122019
  WF centre and spread    3  (  0.000000,  0.000000,  0.000000 )     1.25122008
  Sum of centres and spreads ( -0.000000,  0.000000,  0.000000 )     3.75366016
 
     69    -0.212E-12     0.0000048548        3.7536601586       0.52  <-- CONV
        O_D=      0.0000000 O_OD=      0.0041092 O_TOT=      3.7536602 <-- SPRD
 Delta: O_D= -0.7408592E-13 O_OD= -0.1380649E-12 O_TOT= -0.2122746E-12 <-- DLTA
 ------------------------------------------------------------------------------
 Cycle:     70
  WF centre and spread    1  ( -0.000000,  0.000000,  0.000000 )     1.25121989
  WF centre and spread    2  ( -0.000000,  0.000000, -0.000000 )     1.25122019
  WF centre and spread    3  (  0.000000,  0.000000,  0.000000 )     1.25122008
  Sum of centres and spreads ( -0.000000,  0.000000,  0.000000 )     3.75366016
 
     70    -0.282E-12     0.0000048542        3.7536601586       0.52  <-- CONV
        O_D=      0.0000000 O_OD=      0.0041092 O_TOT=      3.7536602 <-- SPRD
 Delta: O_D= -0.9874679E-13 O_OD= -0.1840420E-12 O_TOT= -0.2824407E-12 <-- DLTA
 ------------------------------------------------------------------------------
 Cycle:     71
  WF centre and spread    1  ( -0.000000,  0.000000,  0.000000 )     1.25121989
  WF centre and spread    2  ( -0.000000,  0.000000, -0.000000 )     1.25122019
  WF centre and spread    3  (  0.000000,  0.000000,  0.000000 )     1.25122008
  Sum of centres and spreads ( -0.000000,  0.000000,  0.000000 )     3.75366016
 
     71    -0.353E-12     0.0000048534        3.7536601586       0.53  <-- CONV
        O_D=      0.0000000 O_OD=      0.0041092 O_TOT=      3.7536602 <-- SPRD
 Delta: O_D= -0.1233767E-12 O_OD= -0.2299454E-12 O_TOT= -0.3534950E-12 <-- DLTA
 ------------------------------------------------------------------------------
 Cycle:     72
  WF centre and spread    1  ( -0.000000,  0.000000,  0.000000 )     1.25121989
  WF centre and spread    2  ( -0.000000,  0.000000, -0.000000 )     1.25122019
  WF centre and spread    3  (  0.000000,  0.000000,  0.000000 )     1.25122008
  Sum of centres and spreads ( -0.000000,  0.000000,  0.000000 )     3.75366016
 
     72    -0.424E-12     0.0000048524        3.7536601586       0.53  <-- CONV
        O_D=      0.0000000 O_OD=      0.0041092 O_TOT=      3.7536602 <-- SPRD
 Delta: O_D= -0.1479676E-12 O_OD= -0.2757898E-12 O_TOT= -0.4236611E-12 <-- DLTA
 ------------------------------------------------------------------------------
 Cycle:     73
  WF centre and spread    1  ( -0.000000,  0.000000,  0.000000 )     1.25121989
  WF centre and spread    2  ( -0.000000,  0.000000, -0.000000 )     1.25122019
  WF centre and spread    3  (  0.000000,  0.000000,  0.000000 )     1.25122008
  Sum of centres and spreads ( -0.000000,  0.000000,  0.000000 )     3.75366016
 
     73    -0.706E-13     0.0000048512        3.7536601586       0.54  <-- CONV
        O_D=      0.0000000 O_OD=      0.0041092 O_TOT=      3.7536602 <-- SPRD
 Delta: O_D= -0.2466021E-13 O_OD= -0.4596150E-13 O_TOT= -0.7061018E-13 <-- DLTA
 ------------------------------------------------------------------------------
 Cycle:     74
  WF centre and spread    1  ( -0.000000,  0.000000,  0.000000 )     1.25121989
  WF centre and spread    2  ( -0.000000,  0.000000, -0.000000 )     1.25122019
  WF centre and spread    3  (  0.000000,  0.000000,  0.000000 )     1.25122008
  Sum of centres and spreads ( -0.000000,  0.000000,  0.000000 )     3.75366016
 
     74    -0.141E-12     0.0000048510        3.7536601586       0.54  <-- CONV
        O_D=      0.0000000 O_OD=      0.0041092 O_TOT=      3.7536602 <-- SPRD
 Delta: O_D= -0.4931423E-13 O_OD= -0.9191172E-13 O_TOT= -0.1412204E-12 <-- DLTA
 ------------------------------------------------------------------------------
 Cycle:     75
  WF centre and spread    1  ( -0.000000,  0.000000,  0.000000 )     1.25121989
  WF centre and spread    2  ( -0.000000,  0.000000, -0.000000 )     1.25122019
  WF centre and spread    3  (  0.000000,  0.000000,  0.000000 )     1.25122008
  Sum of centres and spreads ( -0.000000,  0.000000,  0.000000 )     3.75366016
 
     75    -0.212E-12     0.0000048506        3.7536601586       0.55  <-- CONV
        O_D=      0.0000000 O_OD=      0.0041092 O_TOT=      3.7536602 <-- SPRD
 Delta: O_D= -0.7395387E-13 O_OD= -0.1378359E-12 O_TOT= -0.2118306E-12 <-- DLTA
 ------------------------------------------------------------------------------
 Cycle:     76
  WF centre and spread    1  ( -0.000000,  0.000000,  0.000000 )     1.25121989
  WF centre and spread    2  ( -0.000000,  0.000000, -0.000000 )     1.25122019
  WF centre and spread    3  (  0.000000,  0.000000,  0.000000 )     1.25122008
  Sum of centres and spreads ( -0.000000,  0.000000,  0.000000 )     3.75366016
 
     76    -0.282E-12     0.0000048500        3.7536601586       0.56  <-- CONV
        O_D=      0.0000000 O_OD=      0.0041092 O_TOT=      3.7536602 <-- SPRD
 Delta: O_D= -0.9857096E-13 O_OD= -0.1837324E-12 O_TOT= -0.2824407E-12 <-- DLTA
 ------------------------------------------------------------------------------
 Cycle:     77
  WF centre and spread    1  ( -0.000000,  0.000000,  0.000000 )     1.25121989
  WF centre and spread    2  ( -0.000000,  0.000000, -0.000000 )     1.25122019
  WF centre and spread    3  (  0.000000,  0.000000,  0.000000 )     1.25122008
  Sum of centres and spreads ( -0.000000,  0.000000,  0.000000 )     3.75366016
 
     77    -0.352E-12     0.0000048492        3.7536601586       0.56  <-- CONV
        O_D=      0.0000000 O_OD=      0.0041092 O_TOT=      3.7536602 <-- SPRD
 Delta: O_D= -0.1231573E-12 O_OD= -0.2295568E-12 O_TOT= -0.3521627E-12 <-- DLTA
 ------------------------------------------------------------------------------
 Cycle:     78
  WF centre and spread    1  ( -0.000000,  0.000000,  0.000000 )     1.25121989
  WF centre and spread    2  ( -0.000000,  0.000000, -0.000000 )     1.25122019
  WF centre and spread    3  (  0.000000,  0.000000,  0.000000 )     1.25122008
  Sum of centres and spreads ( -0.000000,  0.000000,  0.000000 )     3.75366016
 
     78    -0.423E-12     0.0000048482        3.7536601586       0.57  <-- CONV
        O_D=      0.0000000 O_OD=      0.0041092 O_TOT=      3.7536602 <-- SPRD
 Delta: O_D= -0.1477049E-12 O_OD= -0.2753197E-12 O_TOT= -0.4232170E-12 <-- DLTA
 ------------------------------------------------------------------------------
 Cycle:     79
  WF centre and spread    1  ( -0.000000,  0.000000,  0.000000 )     1.25121989
  WF centre and spread    2  ( -0.000000,  0.000000, -0.000000 )     1.25122019
  WF centre and spread    3  (  0.000000,  0.000000,  0.000000 )     1.25122008
  Sum of centres and spreads ( -0.000000,  0.000000,  0.000000 )     3.75366016
 
     79    -0.706E-13     0.0000048470        3.7536601586       0.57  <-- CONV
        O_D=      0.0000000 O_OD=      0.0041092 O_TOT=      3.7536602 <-- SPRD
 Delta: O_D= -0.2461648E-13 O_OD= -0.4589558E-13 O_TOT= -0.7061018E-13 <-- DLTA
 ------------------------------------------------------------------------------
 Cycle:     80
  WF centre and spread    1  ( -0.000000,  0.000000,  0.000000 )     1.25121989
  WF centre and spread    2  ( -0.000000,  0.000000, -0.000000 )     1.25122019
  WF centre and spread    3  (  0.000000,  0.000000,  0.000000 )     1.25122008
  Sum of centres and spreads ( -0.000000,  0.000000,  0.000000 )     3.75366016
 
     80    -0.141E-12     0.0000048468        3.7536601586       0.58  <-- CONV
        O_D=      0.0000000 O_OD=      0.0041092 O_TOT=      3.7536602 <-- SPRD
 Delta: O_D= -0.4922682E-13 O_OD= -0.9175039E-13 O_TOT= -0.1407763E-12 <-- DLTA
 ------------------------------------------------------------------------------
 Cycle:     81
  WF centre and spread    1  ( -0.000000,  0.000000,  0.000000 )     1.25121989
  WF centre and spread    2  ( -0.000000,  0.000000, -0.000000 )     1.25122019
  WF centre and spread    3  (  0.000000,  0.000000,  0.000000 )     1.25122008
  Sum of centres and spreads ( -0.000000,  0.000000,  0.000000 )     3.75366016
 
     81    -0.212E-12     0.0000048464        3.7536601586       0.58  <-- CONV
        O_D=      0.0000000 O_OD=      0.0041092 O_TOT=      3.7536602 <-- SPRD
 Delta: O_D= -0.7382287E-13 O_OD= -0.1376451E-12 O_TOT= -0.2118306E-12 <-- DLTA
 ------------------------------------------------------------------------------
 Cycle:     82
  WF centre and spread    1  ( -0.000000,  0.000000,  0.000000 )     1.25121989
  WF centre and spread    2  ( -0.000000,  0.000000, -0.000000 )     1.25122019
  WF centre and spread    3  (  0.000000,  0.000000,  0.000000 )     1.25122008
  Sum of centres and spreads ( -0.000000,  0.000000,  0.000000 )     3.75366016
 
     82    -0.282E-12     0.0000048459        3.7536601586       0.59  <-- CONV
        O_D=      0.0000000 O_OD=      0.0041092 O_TOT=      3.7536602 <-- SPRD
 Delta: O_D= -0.9839652E-13 O_OD= -0.1834002E-12 O_TOT= -0.2815526E-12 <-- DLTA
 ------------------------------------------------------------------------------
 Cycle:     83
  WF centre and spread    1  ( -0.000000,  0.000000,  0.000000 )     1.25121989
  WF centre and spread    2  ( -0.000000,  0.000000, -0.000000 )     1.25122019
  WF centre and spread    3  (  0.000000,  0.000000,  0.000000 )     1.25122008
  Sum of centres and spreads ( -0.000000,  0.000000,  0.000000 )     3.75366016
 
     83    -0.352E-12     0.0000048451        3.7536601586       0.60  <-- CONV
        O_D=      0.0000000 O_OD=      0.0041092 O_TOT=      3.7536602 <-- SPRD
 Delta: O_D= -0.1229397E-12 O_OD= -0.2291839E-12 O_TOT= -0.3521627E-12 <-- DLTA
 ------------------------------------------------------------------------------
 Cycle:     84
  WF centre and spread    1  ( -0.000000,  0.000000,  0.000000 )     1.25121989
  WF centre and spread    2  ( -0.000000,  0.000000, -0.000000 )     1.25122019
  WF centre and spread    3  (  0.000000,  0.000000,  0.000000 )     1.25122008
  Sum of centres and spreads ( -0.000000,  0.000000,  0.000000 )     3.75366016
 
     84    -0.422E-12     0.0000048441        3.7536601586       0.60  <-- CONV
        O_D=      0.0000000 O_OD=      0.0041092 O_TOT=      3.7536602 <-- SPRD
 Delta: O_D= -0.1474443E-12 O_OD= -0.2748565E-12 O_TOT= -0.4223288E-12 <-- DLTA
 ------------------------------------------------------------------------------
 Cycle:     85
  WF centre and spread    1  ( -0.000000,  0.000000,  0.000000 )     1.25121989
  WF centre and spread    2  ( -0.000000,  0.000000, -0.000000 )     1.25122019
  WF centre and spread    3  (  0.000000,  0.000000,  0.000000 )     1.25122008
  Sum of centres and spreads ( -0.000000,  0.000000,  0.000000 )     3.75366016
 
     85    -0.702E-13     0.0000048429        3.7536601586       0.61  <-- CONV
        O_D=      0.0000000 O_OD=      0.0041092 O_TOT=      3.7536602 <-- SPRD
 Delta: O_D= -0.2457309E-13 O_OD= -0.4580884E-13 O_TOT= -0.7016610E-13 <-- DLTA
 ------------------------------------------------------------------------------
 Cycle:     86
  WF centre and spread    1  ( -0.000000,  0.000000,  0.000000 )     1.25121989
  WF centre and spread    2  ( -0.000000,  0.000000, -0.000000 )     1.25122019
  WF centre and spread    3  (  0.000000,  0.000000,  0.000000 )     1.25122008
  Sum of centres and spreads ( -0.000000,  0.000000,  0.000000 )     3.75366016
 
     86    -0.141E-12     0.0000048427        3.7536601586       0.61  <-- CONV
        O_D=      0.0000000 O_OD=      0.0041092 O_TOT=      3.7536602 <-- SPRD
 Delta: O_D= -0.4914008E-13 O_OD= -0.9161161E-13 O_TOT= -0.1412204E-12 <-- DLTA
 ------------------------------------------------------------------------------
 Cycle:     87
  WF centre and spread    1  ( -0.000000,  0.000000,  0.000000 )     1.25121989
  WF centre and spread    2  ( -0.000000,  0.000000, -0.000000 )     1.25122019
  WF centre and spread    3  (  0.000000,  0.000000,  0.000000 )     1.25122008
  Sum of centres and spreads ( -0.000000,  0.000000,  0.000000 )     3.75366016
 
     87    -0.211E-12     0.0000048423        3.7536601586       0.62  <-- CONV
        O_D=      0.0000000 O_OD=      0.0041092 O_TOT=      3.7536602 <-- SPRD
 Delta: O_D= -0.7369287E-13 O_OD= -0.1373901E-12 O_TOT= -0.2109424E-12 <-- DLTA
 ------------------------------------------------------------------------------
 Cycle:     88
  WF centre and spread    1  ( -0.000000,  0.000000,  0.000000 )     1.25121989
  WF centre and spread    2  ( -0.000000,  0.000000, -0.000000 )     1.25122019
  WF centre and spread    3  (  0.000000,  0.000000,  0.000000 )     1.25122008
  Sum of centres and spreads ( -0.000000,  0.000000,  0.000000 )     3.75366016
 
     88    -0.281E-12     0.0000048417        3.7536601586       0.62  <-- CONV
        O_D=      0.0000000 O_OD=      0.0041092 O_TOT=      3.7536602 <-- SPRD
 Delta: O_D= -0.9822341E-13 O_OD= -0.1831053E-12 O_TOT= -0.2811085E-12 <-- DLTA
 ------------------------------------------------------------------------------
 Cycle:     89
  WF centre and spread    1  ( -0.000000,  0.000000,  0.000000 )     1.25121989
  WF centre and spread    2  ( -0.000000,  0.000000, -0.000000 )     1.25122019
  WF centre and spread    3  (  0.000000,  0.000000,  0.000000 )     1.25122008
  Sum of centres and spreads ( -0.000000,  0.000000,  0.000000 )     3.75366016
 
     89    -0.352E-12     0.0000048409        3.7536601586       0.63  <-- CONV
        O_D=      0.0000000 O_OD=      0.0041092 O_TOT=      3.7536602 <-- SPRD
 Delta: O_D= -0.1227236E-12 O_OD= -0.2287953E-12 O_TOT= -0.3517187E-12 <-- DLTA
 ------------------------------------------------------------------------------
 Cycle:     90
  WF centre and spread    1  ( -0.000000,  0.000000,  0.000000 )     1.25121989
  WF centre and spread    2  ( -0.000000,  0.000000, -0.000000 )     1.25122019
  WF centre and spread    3  (  0.000000,  0.000000,  0.000000 )     1.25122008
  Sum of centres and spreads ( -0.000000,  0.000000,  0.000000 )     3.75366016
 
     90    -0.422E-12     0.0000048400        3.7536601586       0.63  <-- CONV
        O_D=      0.0000000 O_OD=      0.0041092 O_TOT=      3.7536602 <-- SPRD
 Delta: O_D= -0.1471856E-12 O_OD= -0.2744072E-12 O_TOT= -0.4218847E-12 <-- DLTA
 ------------------------------------------------------------------------------
 Cycle:     91
  WF centre and spread    1  ( -0.000000,  0.000000,  0.000000 )     1.25121989
  WF centre and spread    2  ( -0.000000,  0.000000, -0.000000 )     1.25122019
  WF centre and spread    3  (  0.000000,  0.000000,  0.000000 )     1.25122008
  Sum of centres and spreads ( -0.000000,  0.000000,  0.000000 )     3.75366016
 
     91    -0.702E-13     0.0000048388        3.7536601586       0.64  <-- CONV
        O_D=      0.0000000 O_OD=      0.0041092 O_TOT=      3.7536602 <-- SPRD
 Delta: O_D= -0.2453002E-13 O_OD= -0.4572037E-13 O_TOT= -0.7016610E-13 <-- DLTA
 ------------------------------------------------------------------------------
 Cycle:     92
  WF centre and spread    1  ( -0.000000,  0.000000,  0.000000 )     1.25121989
  WF centre and spread    2  ( -0.000000,  0.000000, -0.000000 )     1.25122019
  WF centre and spread    3  (  0.000000,  0.000000,  0.000000 )     1.25122008
  Sum of centres and spreads ( -0.000000,  0.000000,  0.000000 )     3.75366016
 
     92    -0.140E-12     0.0000048386        3.7536601586       0.65  <-- CONV
        O_D=      0.0000000 O_OD=      0.0041092 O_TOT=      3.7536602 <-- SPRD
 Delta: O_D= -0.4905398E-13 O_OD= -0.9145375E-13 O_TOT= -0.1403322E-12 <-- DLTA
 ------------------------------------------------------------------------------
 Cycle:     93
  WF centre and spread    1  ( -0.000000,  0.000000,  0.000000 )     1.25121989
  WF centre and spread    2  ( -0.000000,  0.000000, -0.000000 )     1.25122019
  WF centre and spread    3  (  0.000000,  0.000000,  0.000000 )     1.25122008
  Sum of centres and spreads ( -0.000000,  0.000000,  0.000000 )     3.75366016
 
     93    -0.210E-12     0.0000048382        3.7536601586       0.65  <-- CONV
        O_D=      0.0000000 O_OD=      0.0041092 O_TOT=      3.7536602 <-- SPRD
 Delta: O_D= -0.7356383E-13 O_OD= -0.1371568E-12 O_TOT= -0.2104983E-12 <-- DLTA
 ------------------------------------------------------------------------------
 Cycle:     94
  WF centre and spread    1  ( -0.000000,  0.000000,  0.000000 )     1.25121989
  WF centre and spread    2  ( -0.000000,  0.000000, -0.000000 )     1.25122019
  WF centre and spread    3  (  0.000000,  0.000000,  0.000000 )     1.25122008
  Sum of centres and spreads ( -0.000000,  0.000000,  0.000000 )     3.75366016
 
     94    -0.281E-12     0.0000048376        3.7536601586       0.66  <-- CONV
        O_D=      0.0000000 O_OD=      0.0041092 O_TOT=      3.7536602 <-- SPRD
 Delta: O_D= -0.9805157E-13 O_OD= -0.1828026E-12 O_TOT= -0.2811085E-12 <-- DLTA
 ------------------------------------------------------------------------------
 Cycle:     95
  WF centre and spread    1  ( -0.000000,  0.000000,  0.000000 )     1.25121989
  WF centre and spread    2  ( -0.000000,  0.000000, -0.000000 )     1.25122019
  WF centre and spread    3  (  0.000000,  0.000000,  0.000000 )     1.25122008
  Sum of centres and spreads ( -0.000000,  0.000000,  0.000000 )     3.75366016
 
     95    -0.351E-12     0.0000048368        3.7536601586       0.66  <-- CONV
        O_D=      0.0000000 O_OD=      0.0041092 O_TOT=      3.7536602 <-- SPRD
 Delta: O_D= -0.1225092E-12 O_OD= -0.2284162E-12 O_TOT= -0.3508305E-12 <-- DLTA
 ------------------------------------------------------------------------------
 Cycle:     96
  WF centre and spread    1  ( -0.000000,  0.000000,  0.000000 )     1.25121989
  WF centre and spread    2  ( -0.000000,  0.000000, -0.000000 )     1.25122019
  WF centre and spread    3  (  0.000000,  0.000000,  0.000000 )     1.25122008
  Sum of centres and spreads ( -0.000000,  0.000000,  0.000000 )     3.75366016
 
     96    -0.421E-12     0.0000048359        3.7536601586       0.67  <-- CONV
        O_D=      0.0000000 O_OD=      0.0041092 O_TOT=      3.7536602 <-- SPRD
 Delta: O_D= -0.1469287E-12 O_OD= -0.2739449E-12 O_TOT= -0.4209966E-12 <-- DLTA
 ------------------------------------------------------------------------------
 Cycle:     97
  WF centre and spread    1  ( -0.000000,  0.000000,  0.000000 )     1.25121989
  WF centre and spread    2  ( -0.000000,  0.000000, -0.000000 )     1.25122019
  WF centre and spread    3  (  0.000000,  0.000000,  0.000000 )     1.25122008
  Sum of centres and spreads ( -0.000000,  0.000000,  0.000000 )     3.75366016
 
     97    -0.702E-13     0.0000048347        3.7536601586       0.67  <-- CONV
[...]
  Sum of centres and spreads ( -0.000000,  0.000000,  0.000000 )     3.75366016
 
    473    -0.317E-12     0.0000045964        3.7536601585       2.79  <-- CONV
        O_D=      0.0000000 O_OD=      0.0041092 O_TOT=      3.7536602 <-- SPRD
 Delta: O_D= -0.1105948E-12 O_OD= -0.2063141E-12 O_TOT= -0.3166356E-12 <-- DLTA
 ------------------------------------------------------------------------------
 Cycle:    474
  WF centre and spread    1  ( -0.000000,  0.000000,  0.000000 )     1.25121989
  WF centre and spread    2  ( -0.000000,  0.000000, -0.000000 )     1.25122019
  WF centre and spread    3  (  0.000000,  0.000000,  0.000000 )     1.25122008
  Sum of centres and spreads ( -0.000000,  0.000000,  0.000000 )     3.75366016
 
    474    -0.380E-12     0.0000045955        3.7536601585       2.80  <-- CONV
        O_D=      0.0000000 O_OD=      0.0041092 O_TOT=      3.7536602 <-- SPRD
 Delta: O_D= -0.1326455E-12 O_OD= -0.2474470E-12 O_TOT= -0.3801404E-12 <-- DLTA
 ------------------------------------------------------------------------------
 Cycle:    475
  WF centre and spread    1  ( -0.000000,  0.000000,  0.000000 )     1.25121989
  WF centre and spread    2  ( -0.000000,  0.000000, -0.000000 )     1.25122019
  WF centre and spread    3  (  0.000000,  0.000000,  0.000000 )     1.25122008
  Sum of centres and spreads ( -0.000000,  0.000000,  0.000000 )     3.75366016
 
    475    -0.635E-13     0.0000045945        3.7536601585       2.80  <-- CONV
        O_D=      0.0000000 O_OD=      0.0041092 O_TOT=      3.7536602 <-- SPRD
 Delta: O_D= -0.2210738E-13 O_OD= -0.4124132E-13 O_TOT= -0.6350476E-13 <-- DLTA
 ------------------------------------------------------------------------------
 Cycle:    476
  WF centre and spread    1  ( -0.000000,  0.000000,  0.000000 )     1.25121989
  WF centre and spread    2  ( -0.000000,  0.000000, -0.000000 )     1.25122019
  WF centre and spread    3  (  0.000000,  0.000000,  0.000000 )     1.25122008
  Sum of centres and spreads ( -0.000000,  0.000000,  0.000000 )     3.75366016
 
    476    -0.127E-12     0.0000045943        3.7536601585       2.81  <-- CONV
        O_D=      0.0000000 O_OD=      0.0041092 O_TOT=      3.7536602 <-- SPRD
 Delta: O_D= -0.4420977E-13 O_OD= -0.8248003E-13 O_TOT= -0.1265654E-12 <-- DLTA
 ------------------------------------------------------------------------------
 Cycle:    477
  WF centre and spread    1  ( -0.000000,  0.000000,  0.000000 )     1.25121989
  WF centre and spread    2  ( -0.000000,  0.000000, -0.000000 )     1.25122019
  WF centre and spread    3  (  0.000000,  0.000000,  0.000000 )     1.25122008
  Sum of centres and spreads ( -0.000000,  0.000000,  0.000000 )     3.75366016
 
    477    -0.190E-12     0.0000045940        3.7536601585       2.81  <-- CONV
        O_D=      0.0000000 O_OD=      0.0041092 O_TOT=      3.7536602 <-- SPRD
 Delta: O_D= -0.6630049E-13 O_OD= -0.1236546E-12 O_TOT= -0.1900702E-12 <-- DLTA
 ------------------------------------------------------------------------------
 Cycle:    478
  WF centre and spread    1  ( -0.000000,  0.000000,  0.000000 )     1.25121989
  WF centre and spread    2  ( -0.000000,  0.000000, -0.000000 )     1.25122019
  WF centre and spread    3  (  0.000000,  0.000000,  0.000000 )     1.25122008
  Sum of centres and spreads ( -0.000000,  0.000000,  0.000000 )     3.75366016
 
    478    -0.254E-12     0.0000045935        3.7536601585       2.82  <-- CONV
        O_D=      0.0000000 O_OD=      0.0041092 O_TOT=      3.7536602 <-- SPRD
 Delta: O_D= -0.8837289E-13 O_OD= -0.1648673E-12 O_TOT= -0.2535749E-12 <-- DLTA
 ------------------------------------------------------------------------------
 Cycle:    479
  WF centre and spread    1  ( -0.000000,  0.000000,  0.000000 )     1.25121989
  WF centre and spread    2  ( -0.000000,  0.000000, -0.000000 )     1.25122019
  WF centre and spread    3  (  0.000000,  0.000000,  0.000000 )     1.25122008
  Sum of centres and spreads ( -0.000000,  0.000000,  0.000000 )     3.75366016
 
    479    -0.316E-12     0.0000045928        3.7536601585       2.83  <-- CONV
        O_D=      0.0000000 O_OD=      0.0041092 O_TOT=      3.7536602 <-- SPRD
 Delta: O_D= -0.1104203E-12 O_OD= -0.2059906E-12 O_TOT= -0.3157474E-12 <-- DLTA
 ------------------------------------------------------------------------------
 Cycle:    480
  WF centre and spread    1  ( -0.000000,  0.000000,  0.000000 )     1.25121989
  WF centre and spread    2  ( -0.000000,  0.000000, -0.000000 )     1.25122019
  WF centre and spread    3  (  0.000000,  0.000000,  0.000000 )     1.25122008
  Sum of centres and spreads ( -0.000000,  0.000000,  0.000000 )     3.75366016
 
    480    -0.380E-12     0.0000045919        3.7536601585       2.83  <-- CONV
        O_D=      0.0000000 O_OD=      0.0041092 O_TOT=      3.7536602 <-- SPRD
 Delta: O_D= -0.1324362E-12 O_OD= -0.2470515E-12 O_TOT= -0.3801404E-12 <-- DLTA
 ------------------------------------------------------------------------------
 Cycle:    481
  WF centre and spread    1  ( -0.000000,  0.000000,  0.000000 )     1.25121989
  WF centre and spread    2  ( -0.000000,  0.000000, -0.000000 )     1.25122019
  WF centre and spread    3  (  0.000000,  0.000000,  0.000000 )     1.25122008
  Sum of centres and spreads ( -0.000000,  0.000000,  0.000000 )     3.75366016
 
    481    -0.626E-13     0.0000045909        3.7536601585       2.84  <-- CONV
        O_D=      0.0000000 O_OD=      0.0041092 O_TOT=      3.7536602 <-- SPRD
 Delta: O_D= -0.2207250E-13 O_OD= -0.4116932E-13 O_TOT= -0.6261658E-13 <-- DLTA
 ------------------------------------------------------------------------------
 Cycle:    482
  WF centre and spread    1  ( -0.000000,  0.000000,  0.000000 )     1.25121989
  WF centre and spread    2  ( -0.000000,  0.000000, -0.000000 )     1.25122019
  WF centre and spread    3  (  0.000000,  0.000000,  0.000000 )     1.25122008
  Sum of centres and spreads ( -0.000000,  0.000000,  0.000000 )     3.75366016
 
    482    -0.127E-12     0.0000045907        3.7536601585       2.84  <-- CONV
        O_D=      0.0000000 O_OD=      0.0041092 O_TOT=      3.7536602 <-- SPRD
 Delta: O_D= -0.4414001E-13 O_OD= -0.8232564E-13 O_TOT= -0.1270095E-12 <-- DLTA
 ------------------------------------------------------------------------------
 Cycle:    483
  WF centre and spread    1  ( -0.000000,  0.000000,  0.000000 )     1.25121989
  WF centre and spread    2  ( -0.000000,  0.000000, -0.000000 )     1.25122019
  WF centre and spread    3  (  0.000000,  0.000000,  0.000000 )     1.25122008
  Sum of centres and spreads ( -0.000000,  0.000000,  0.000000 )     3.75366016
 
    483    -0.190E-12     0.0000045903        3.7536601585       2.85  <-- CONV
        O_D=      0.0000000 O_OD=      0.0041092 O_TOT=      3.7536602 <-- SPRD
 Delta: O_D= -0.6619589E-13 O_OD= -0.1234794E-12 O_TOT= -0.1896261E-12 <-- DLTA
 ------------------------------------------------------------------------------
 Cycle:    484
  WF centre and spread    1  ( -0.000000,  0.000000,  0.000000 )     1.25121989
  WF centre and spread    2  ( -0.000000,  0.000000, -0.000000 )     1.25122019
  WF centre and spread    3  (  0.000000,  0.000000,  0.000000 )     1.25122008
  Sum of centres and spreads ( -0.000000,  0.000000,  0.000000 )     3.75366016
 
    484    -0.253E-12     0.0000045898        3.7536601585       2.85  <-- CONV
        O_D=      0.0000000 O_OD=      0.0041092 O_TOT=      3.7536602 <-- SPRD
 Delta: O_D= -0.8823347E-13 O_OD= -0.1646105E-12 O_TOT= -0.2526868E-12 <-- DLTA
 ------------------------------------------------------------------------------
 Cycle:    485
  WF centre and spread    1  ( -0.000000,  0.000000,  0.000000 )     1.25121989
  WF centre and spread    2  ( -0.000000,  0.000000, -0.000000 )     1.25122019
  WF centre and spread    3  (  0.000000,  0.000000,  0.000000 )     1.25122008
  Sum of centres and spreads ( -0.000000,  0.000000,  0.000000 )     3.75366016
 
    485    -0.316E-12     0.0000045891        3.7536601585       2.86  <-- CONV
        O_D=      0.0000000 O_OD=      0.0041092 O_TOT=      3.7536602 <-- SPRD
 Delta: O_D= -0.1102461E-12 O_OD= -0.2056584E-12 O_TOT= -0.3161915E-12 <-- DLTA
 ------------------------------------------------------------------------------
 Cycle:    486
  WF centre and spread    1  ( -0.000000,  0.000000,  0.000000 )     1.25121989
  WF centre and spread    2  ( -0.000000,  0.000000, -0.000000 )     1.25122019
  WF centre and spread    3  (  0.000000,  0.000000,  0.000000 )     1.25122008
  Sum of centres and spreads ( -0.000000,  0.000000,  0.000000 )     3.75366016
 
    486    -0.378E-12     0.0000045883        3.7536601585       2.87  <-- CONV
        O_D=      0.0000000 O_OD=      0.0041092 O_TOT=      3.7536602 <-- SPRD
 Delta: O_D= -0.1322273E-12 O_OD= -0.2466560E-12 O_TOT= -0.3783640E-12 <-- DLTA
 ------------------------------------------------------------------------------
 Cycle:    487
  WF centre and spread    1  ( -0.000000,  0.000000,  0.000000 )     1.25121989
  WF centre and spread    2  ( -0.000000,  0.000000, -0.000000 )     1.25122019
  WF centre and spread    3  (  0.000000,  0.000000,  0.000000 )     1.25122008
  Sum of centres and spreads ( -0.000000,  0.000000,  0.000000 )     3.75366016
 
    487    -0.635E-13     0.0000045872        3.7536601585       2.87  <-- CONV
        O_D=      0.0000000 O_OD=      0.0041092 O_TOT=      3.7536602 <-- SPRD
 Delta: O_D= -0.2203768E-13 O_OD= -0.4110254E-13 O_TOT= -0.6350476E-13 <-- DLTA
 ------------------------------------------------------------------------------
 Cycle:    488
  WF centre and spread    1  ( -0.000000,  0.000000,  0.000000 )     1.25121989
  WF centre and spread    2  ( -0.000000,  0.000000, -0.000000 )     1.25122019
  WF centre and spread    3  (  0.000000,  0.000000,  0.000000 )     1.25122008
  Sum of centres and spreads ( -0.000000,  0.000000,  0.000000 )     3.75366016
 
    488    -0.126E-12     0.0000045870        3.7536601585       2.88  <-- CONV
        O_D=      0.0000000 O_OD=      0.0041092 O_TOT=      3.7536602 <-- SPRD
 Delta: O_D= -0.4407039E-13 O_OD= -0.8220334E-13 O_TOT= -0.1261213E-12 <-- DLTA
 ------------------------------------------------------------------------------
 Cycle:    489
  WF centre and spread    1  ( -0.000000,  0.000000,  0.000000 )     1.25121989
  WF centre and spread    2  ( -0.000000,  0.000000, -0.000000 )     1.25122019
  WF centre and spread    3  (  0.000000,  0.000000,  0.000000 )     1.25122008
  Sum of centres and spreads ( -0.000000,  0.000000,  0.000000 )     3.75366016
 
    489    -0.189E-12     0.0000045867        3.7536601585       2.88  <-- CONV
        O_D=      0.0000000 O_OD=      0.0041092 O_TOT=      3.7536602 <-- SPRD
 Delta: O_D= -0.6609147E-13 O_OD= -0.1232998E-12 O_TOT= -0.1891820E-12 <-- DLTA
 ------------------------------------------------------------------------------
 Cycle:    490
  WF centre and spread    1  ( -0.000000,  0.000000,  0.000000 )     1.25121989
  WF centre and spread    2  ( -0.000000,  0.000000, -0.000000 )     1.25122019
  WF centre and spread    3  (  0.000000,  0.000000,  0.000000 )     1.25122008
  Sum of centres and spreads ( -0.000000,  0.000000,  0.000000 )     3.75366016
 
    490    -0.252E-12     0.0000045862        3.7536601585       2.89  <-- CONV
        O_D=      0.0000000 O_OD=      0.0041092 O_TOT=      3.7536602 <-- SPRD
 Delta: O_D= -0.8809430E-13 O_OD= -0.1643173E-12 O_TOT= -0.2522427E-12 <-- DLTA
 ------------------------------------------------------------------------------
 Cycle:    491
  WF centre and spread    1  ( -0.000000,  0.000000,  0.000000 )     1.25121989
  WF centre and spread    2  ( -0.000000,  0.000000, -0.000000 )     1.25122019
  WF centre and spread    3  (  0.000000,  0.000000,  0.000000 )     1.25122008
  Sum of centres and spreads ( -0.000000,  0.000000,  0.000000 )     3.75366016
 
    491    -0.316E-12     0.0000045855        3.7536601585       2.89  <-- CONV
        O_D=      0.0000000 O_OD=      0.0041092 O_TOT=      3.7536602 <-- SPRD
 Delta: O_D= -0.1100723E-12 O_OD= -0.2053340E-12 O_TOT= -0.3157474E-12 <-- DLTA
 ------------------------------------------------------------------------------
 Cycle:    492
  WF centre and spread    1  ( -0.000000,  0.000000,  0.000000 )     1.25121989
  WF centre and spread    2  ( -0.000000,  0.000000, -0.000000 )     1.25122019
  WF centre and spread    3  (  0.000000,  0.000000,  0.000000 )     1.25122008
  Sum of centres and spreads ( -0.000000,  0.000000,  0.000000 )     3.75366016
 
    492    -0.378E-12     0.0000045846        3.7536601585       2.90  <-- CONV
        O_D=      0.0000000 O_OD=      0.0041092 O_TOT=      3.7536602 <-- SPRD
 Delta: O_D= -0.1320187E-12 O_OD= -0.2462535E-12 O_TOT= -0.3783640E-12 <-- DLTA
 ------------------------------------------------------------------------------
 Cycle:    493
  WF centre and spread    1  ( -0.000000,  0.000000,  0.000000 )     1.25121989
  WF centre and spread    2  ( -0.000000,  0.000000, -0.000000 )     1.25122019
  WF centre and spread    3  (  0.000000,  0.000000,  0.000000 )     1.25122008
  Sum of centres and spreads ( -0.000000,  0.000000,  0.000000 )     3.75366016
 
    493    -0.631E-13     0.0000045836        3.7536601585       2.90  <-- CONV
        O_D=      0.0000000 O_OD=      0.0041092 O_TOT=      3.7536602 <-- SPRD
 Delta: O_D= -0.2200293E-13 O_OD= -0.4105657E-13 O_TOT= -0.6306067E-13 <-- DLTA
 ------------------------------------------------------------------------------
 Cycle:    494
  WF centre and spread    1  ( -0.000000,  0.000000,  0.000000 )     1.25121989
  WF centre and spread    2  ( -0.000000,  0.000000, -0.000000 )     1.25122019
  WF centre and spread    3  (  0.000000,  0.000000,  0.000000 )     1.25122008
  Sum of centres and spreads ( -0.000000,  0.000000,  0.000000 )     3.75366016
 
    494    -0.126E-12     0.0000045834        3.7536601585       2.91  <-- CONV
        O_D=      0.0000000 O_OD=      0.0041092 O_TOT=      3.7536602 <-- SPRD
 Delta: O_D= -0.4400089E-13 O_OD= -0.8206370E-13 O_TOT= -0.1261213E-12 <-- DLTA
 ------------------------------------------------------------------------------
 Cycle:    495
  WF centre and spread    1  ( -0.000000,  0.000000,  0.000000 )     1.25121989
  WF centre and spread    2  ( -0.000000,  0.000000, -0.000000 )     1.25122019
  WF centre and spread    3  (  0.000000,  0.000000,  0.000000 )     1.25122008
  Sum of centres and spreads ( -0.000000,  0.000000,  0.000000 )     3.75366016
 
    495    -0.189E-12     0.0000045831        3.7536601585       2.92  <-- CONV
        O_D=      0.0000000 O_OD=      0.0041092 O_TOT=      3.7536602 <-- SPRD
 Delta: O_D= -0.6598725E-13 O_OD= -0.1231038E-12 O_TOT= -0.1891820E-12 <-- DLTA
 ------------------------------------------------------------------------------
 Cycle:    496
  WF centre and spread    1  ( -0.000000,  0.000000,  0.000000 )     1.25121989
  WF centre and spread    2  ( -0.000000,  0.000000, -0.000000 )     1.25122019
  WF centre and spread    3  (  0.000000,  0.000000,  0.000000 )     1.25122008
  Sum of centres and spreads ( -0.000000,  0.000000,  0.000000 )     3.75366016
 
    496    -0.252E-12     0.0000045825        3.7536601585       2.92  <-- CONV
        O_D=      0.0000000 O_OD=      0.0041092 O_TOT=      3.7536602 <-- SPRD
 Delta: O_D= -0.8795540E-13 O_OD= -0.1640606E-12 O_TOT= -0.2517986E-12 <-- DLTA
 ------------------------------------------------------------------------------
 Cycle:    497
  WF centre and spread    1  ( -0.000000,  0.000000,  0.000000 )     1.25121989
  WF centre and spread    2  ( -0.000000,  0.000000, -0.000000 )     1.25122019
  WF centre and spread    3  (  0.000000,  0.000000,  0.000000 )     1.25122008
  Sum of centres and spreads ( -0.000000,  0.000000,  0.000000 )     3.75366016
 
    497    -0.315E-12     0.0000045818        3.7536601585       2.93  <-- CONV
        O_D=      0.0000000 O_OD=      0.0041092 O_TOT=      3.7536602 <-- SPRD
 Delta: O_D= -0.1098987E-12 O_OD= -0.2050079E-12 O_TOT= -0.3148592E-12 <-- DLTA
 ------------------------------------------------------------------------------
 Cycle:    498
  WF centre and spread    1  ( -0.000000,  0.000000,  0.000000 )     1.25121989
  WF centre and spread    2  ( -0.000000,  0.000000, -0.000000 )     1.25122019
  WF centre and spread    3  (  0.000000,  0.000000,  0.000000 )     1.25122008
  Sum of centres and spreads ( -0.000000,  0.000000,  0.000000 )     3.75366016
 
    498    -0.377E-12     0.0000045810        3.7536601585       2.93  <-- CONV
        O_D=      0.0000000 O_OD=      0.0041092 O_TOT=      3.7536602 <-- SPRD
 Delta: O_D= -0.1318106E-12 O_OD= -0.2458667E-12 O_TOT= -0.3774758E-12 <-- DLTA
 ------------------------------------------------------------------------------
 Cycle:    499
  WF centre and spread    1  ( -0.000000,  0.000000,  0.000000 )     1.25121989
  WF centre and spread    2  ( -0.000000,  0.000000, -0.000000 )     1.25122019
  WF centre and spread    3  (  0.000000,  0.000000,  0.000000 )     1.25122008
  Sum of centres and spreads ( -0.000000,  0.000000,  0.000000 )     3.75366016
 
    499    -0.635E-13     0.0000045799        3.7536601585       2.94  <-- CONV
        O_D=      0.0000000 O_OD=      0.0041092 O_TOT=      3.7536602 <-- SPRD
 Delta: O_D= -0.2196824E-13 O_OD= -0.4098284E-13 O_TOT= -0.6350476E-13 <-- DLTA
 ------------------------------------------------------------------------------
 Cycle:    500
  WF centre and spread    1  ( -0.000000,  0.000000,  0.000000 )     1.25121989
  WF centre and spread    2  ( -0.000000,  0.000000, -0.000000 )     1.25122019
  WF centre and spread    3  (  0.000000,  0.000000,  0.000000 )     1.25122008
  Sum of centres and spreads ( -0.000000,  0.000000,  0.000000 )     3.75366016
 
    500    -0.126E-12     0.0000045798        3.7536601585       2.94  <-- CONV
        O_D=      0.0000000 O_OD=      0.0041092 O_TOT=      3.7536602 <-- SPRD
 Delta: O_D= -0.4393152E-13 O_OD= -0.8195181E-13 O_TOT= -0.1256772E-12 <-- DLTA
 ------------------------------------------------------------------------------

 Writing checkpoint file mp-612118.chk... done

 Final State
  WF centre and spread    1  ( -0.000000,  0.000000,  0.000000 )     1.25121989
  WF centre and spread    2  ( -0.000000,  0.000000, -0.000000 )     1.25122019
  WF centre and spread    3  (  0.000000,  0.000000,  0.000000 )     1.25122008
  Sum of centres and spreads ( -0.000000,  0.000000,  0.000000 )     3.75366016
 
         Spreads (Ang^2)       Omega I      =     3.749550934
        ================       Omega D      =     0.000000001
                               Omega OD     =     0.004109224
    Final Spread (Ang^2)       Omega Total  =     3.753660158
 ------------------------------------------------------------------------------
 Time for wannierise            2.942 (sec)

 Writing checkpoint file mp-612118.chk... done

 Time for plotting              0.000 (sec)
 Total Execution Time           4.982 (sec)

 *===========================================================================*
 |                             TIMING INFORMATION                            |
 *===========================================================================*
 |    Tag                                                Ncalls      Time (s)|
 |---------------------------------------------------------------------------|
 |kmesh: get                                        :         1         1.661|
 |overlap: allocate                                 :         1         0.002|
 |overlap: read                                     :         1         0.211|
 |wann: main                                        :         1         2.942|
 |plot: main                                        :         1         0.000|
 *---------------------------------------------------------------------------*
 
 All done: wannier90 exiting
