
     Program PWSCF v.7.1 starts on  3Jan2024 at 14:35:58 

     This program is part of the open-source Quantum ESPRESSO suite
     for quantum simulation of materials; please cite
         "P. Giannozzi et al., J. Phys.:Condens. Matter 21 395502 (2009);
         "P. Giannozzi et al., J. Phys.:Condens. Matter 29 465901 (2017);
         "P. Giannozzi et al., J. Chem. Phys. 152 154105 (2020);
          URL http://www.quantum-espresso.org", 
     in publications or presentations arising from this work. More details at
     http://www.quantum-espresso.org/quote

     Parallel version (MPI), running on     8 processors

     MPI processes distributed on     1 nodes
     122396 MiB available memory on the printing compute node when the environment starts
 
     Reading input from pw_mp-22875_nscf_k3000_E130.in
Warning: card &IONS ignored
Warning: card / ignored
Warning: card &CELL ignored
Warning: card / ignored

     Current dimensions of program PWSCF are:
     Max number of different atomic species (ntypx) = 10
     Max number of k-points (npk) =  40000
     Max angular momentum in pseudopotentials (lmaxx) =  4

     Atomic positions and unit cell read from directory:
     out/mp-22875.save/
 
 
     R & G space division:  proc/nbgrp/npool/nimage =       8
     Subspace diagonalization in iterative solution of the eigenvalue problem:
     a serial algorithm will be used

 
     Parallelization info
     --------------------
     sticks:   dense  smooth     PW     G-vecs:    dense   smooth      PW
     Min         295     295     83                10799    10799    1629
     Max         296     296     85                10804    10804    1632
     Sum        2361    2361    673                86407    86407   13037
 
     Using Slab Decomposition
 


     bravais-lattice index     =            1
     lattice parameter (alat)  =       7.5587  a.u.
     unit-cell volume          =     431.8631 (a.u.)^3
     number of atoms/cell      =            2
     number of atomic types    =            2
     number of electrons       =        20.00
     number of Kohn-Sham states=           20
     kinetic-energy cutoff     =     130.0000  Ry
     charge density cutoff     =     520.0000  Ry
     Exchange-correlation= PBE
                           (   1   4   3   4   0   0   0)

     celldm(1)=   7.558728  celldm(2)=   0.000000  celldm(3)=   0.000000
     celldm(4)=   0.000000  celldm(5)=   0.000000  celldm(6)=   0.000000

     crystal axes: (cart. coord. in units of alat)
               a(1) = (   1.000000   0.000000   0.000000 )  
               a(2) = (   0.000000   1.000000   0.000000 )  
               a(3) = (   0.000000   0.000000   1.000000 )  

     reciprocal axes: (cart. coord. in units 2 pi/alat)
               b(1) = (  1.000000  0.000000  0.000000 )  
               b(2) = (  0.000000  1.000000  0.000000 )  
               b(3) = (  0.000000  0.000000  1.000000 )  


     PseudoPot. # 1 for Br read from file:
     /usr/scratch4/magr4985/MG/devEb/pseudo/SG15/Br.upf
     MD5 check sum: d26c51d81abb03042b648ee3fecf55db
     Pseudo is Norm-conserving, Zval =  7.0
     Generated using ONCVPSP code by D. R. Hamann
     Using radial grid of  602 points,  6 beta functions with: 
                l(1) =   0
                l(2) =   0
                l(3) =   1
                l(4) =   1
                l(5) =   2
                l(6) =   2

     PseudoPot. # 2 for Tl read from file:
     /usr/scratch4/magr4985/MG/devEb/pseudo/SG15/Tl.upf
     MD5 check sum: 9df9092a7c7b421465112b12ba899e4a
     Pseudo is Norm-conserving, Zval = 13.0
     Generated using ONCVPSP code by D. R. Hamann
     Using radial grid of  602 points,  8 beta functions with: 
                l(1) =   0
                l(2) =   0
                l(3) =   1
                l(4) =   1
                l(5) =   2
                l(6) =   2
                l(7) =   3
                l(8) =   3

     atomic species   valence    mass     pseudopotential
        Br             7.00    79.90400     Br( 1.00)
        Tl            13.00   204.38330     Tl( 1.00)

     48 Sym. Ops., with inversion, found



   Cartesian axes

     site n.     atom                  positions (alat units)
         1           Tl  tau(   1) = (   0.0000000   0.0000000   0.0000000  )
         2           Br  tau(   2) = (   0.5000000   0.5000000   0.5000000  )

     number of k points=    84  Gaussian smearing, width (Ry)=  0.0005
                       cart. coord. in units 2pi/alat
        k(    1) = (   0.0000000   0.0000000   0.0000000), wk =   0.0011574
        k(    2) = (   0.0000000   0.0000000   0.0833333), wk =   0.0069444
        k(    3) = (   0.0000000   0.0000000   0.1666667), wk =   0.0069444
        k(    4) = (   0.0000000   0.0000000   0.2500000), wk =   0.0069444
        k(    5) = (   0.0000000   0.0000000   0.3333333), wk =   0.0069444
        k(    6) = (   0.0000000   0.0000000   0.4166667), wk =   0.0069444
        k(    7) = (   0.0000000   0.0000000  -0.5000000), wk =   0.0034722
        k(    8) = (   0.0000000   0.0833333   0.0833333), wk =   0.0138889
        k(    9) = (   0.0000000   0.0833333   0.1666667), wk =   0.0277778
        k(   10) = (   0.0000000   0.0833333   0.2500000), wk =   0.0277778
        k(   11) = (   0.0000000   0.0833333   0.3333333), wk =   0.0277778
        k(   12) = (   0.0000000   0.0833333   0.4166667), wk =   0.0277778
        k(   13) = (   0.0000000   0.0833333  -0.5000000), wk =   0.0138889
        k(   14) = (   0.0000000   0.1666667   0.1666667), wk =   0.0138889
        k(   15) = (   0.0000000   0.1666667   0.2500000), wk =   0.0277778
        k(   16) = (   0.0000000   0.1666667   0.3333333), wk =   0.0277778
        k(   17) = (   0.0000000   0.1666667   0.4166667), wk =   0.0277778
        k(   18) = (   0.0000000   0.1666667  -0.5000000), wk =   0.0138889
        k(   19) = (   0.0000000   0.2500000   0.2500000), wk =   0.0138889
        k(   20) = (   0.0000000   0.2500000   0.3333333), wk =   0.0277778
        k(   21) = (   0.0000000   0.2500000   0.4166667), wk =   0.0277778
        k(   22) = (   0.0000000   0.2500000  -0.5000000), wk =   0.0138889
        k(   23) = (   0.0000000   0.3333333   0.3333333), wk =   0.0138889
        k(   24) = (   0.0000000   0.3333333   0.4166667), wk =   0.0277778
        k(   25) = (   0.0000000   0.3333333  -0.5000000), wk =   0.0138889
        k(   26) = (   0.0000000   0.4166667   0.4166667), wk =   0.0138889
        k(   27) = (   0.0000000   0.4166667  -0.5000000), wk =   0.0138889
        k(   28) = (   0.0000000  -0.5000000  -0.5000000), wk =   0.0034722
        k(   29) = (   0.0833333   0.0833333   0.0833333), wk =   0.0092593
        k(   30) = (   0.0833333   0.0833333   0.1666667), wk =   0.0277778
        k(   31) = (   0.0833333   0.0833333   0.2500000), wk =   0.0277778
        k(   32) = (   0.0833333   0.0833333   0.3333333), wk =   0.0277778
        k(   33) = (   0.0833333   0.0833333   0.4166667), wk =   0.0277778
        k(   34) = (   0.0833333   0.0833333  -0.5000000), wk =   0.0138889
        k(   35) = (   0.0833333   0.1666667   0.1666667), wk =   0.0277778
        k(   36) = (   0.0833333   0.1666667   0.2500000), wk =   0.0555556
        k(   37) = (   0.0833333   0.1666667   0.3333333), wk =   0.0555556
        k(   38) = (   0.0833333   0.1666667   0.4166667), wk =   0.0555556
        k(   39) = (   0.0833333   0.1666667  -0.5000000), wk =   0.0277778
        k(   40) = (   0.0833333   0.2500000   0.2500000), wk =   0.0277778
        k(   41) = (   0.0833333   0.2500000   0.3333333), wk =   0.0555556
        k(   42) = (   0.0833333   0.2500000   0.4166667), wk =   0.0555556
        k(   43) = (   0.0833333   0.2500000  -0.5000000), wk =   0.0277778
        k(   44) = (   0.0833333   0.3333333   0.3333333), wk =   0.0277778
        k(   45) = (   0.0833333   0.3333333   0.4166667), wk =   0.0555556
        k(   46) = (   0.0833333   0.3333333  -0.5000000), wk =   0.0277778
        k(   47) = (   0.0833333   0.4166667   0.4166667), wk =   0.0277778
        k(   48) = (   0.0833333   0.4166667  -0.5000000), wk =   0.0277778
        k(   49) = (   0.0833333  -0.5000000  -0.5000000), wk =   0.0069444
        k(   50) = (   0.1666667   0.1666667   0.1666667), wk =   0.0092593
        k(   51) = (   0.1666667   0.1666667   0.2500000), wk =   0.0277778
        k(   52) = (   0.1666667   0.1666667   0.3333333), wk =   0.0277778
        k(   53) = (   0.1666667   0.1666667   0.4166667), wk =   0.0277778
        k(   54) = (   0.1666667   0.1666667  -0.5000000), wk =   0.0138889
        k(   55) = (   0.1666667   0.2500000   0.2500000), wk =   0.0277778
        k(   56) = (   0.1666667   0.2500000   0.3333333), wk =   0.0555556
        k(   57) = (   0.1666667   0.2500000   0.4166667), wk =   0.0555556
        k(   58) = (   0.1666667   0.2500000  -0.5000000), wk =   0.0277778
        k(   59) = (   0.1666667   0.3333333   0.3333333), wk =   0.0277778
        k(   60) = (   0.1666667   0.3333333   0.4166667), wk =   0.0555556
        k(   61) = (   0.1666667   0.3333333  -0.5000000), wk =   0.0277778
        k(   62) = (   0.1666667   0.4166667   0.4166667), wk =   0.0277778
        k(   63) = (   0.1666667   0.4166667  -0.5000000), wk =   0.0277778
        k(   64) = (   0.1666667  -0.5000000  -0.5000000), wk =   0.0069444
        k(   65) = (   0.2500000   0.2500000   0.2500000), wk =   0.0092593
        k(   66) = (   0.2500000   0.2500000   0.3333333), wk =   0.0277778
        k(   67) = (   0.2500000   0.2500000   0.4166667), wk =   0.0277778
        k(   68) = (   0.2500000   0.2500000  -0.5000000), wk =   0.0138889
        k(   69) = (   0.2500000   0.3333333   0.3333333), wk =   0.0277778
        k(   70) = (   0.2500000   0.3333333   0.4166667), wk =   0.0555556
        k(   71) = (   0.2500000   0.3333333  -0.5000000), wk =   0.0277778
        k(   72) = (   0.2500000   0.4166667   0.4166667), wk =   0.0277778
        k(   73) = (   0.2500000   0.4166667  -0.5000000), wk =   0.0277778
        k(   74) = (   0.2500000  -0.5000000  -0.5000000), wk =   0.0069444
        k(   75) = (   0.3333333   0.3333333   0.3333333), wk =   0.0092593
        k(   76) = (   0.3333333   0.3333333   0.4166667), wk =   0.0277778
        k(   77) = (   0.3333333   0.3333333  -0.5000000), wk =   0.0138889
        k(   78) = (   0.3333333   0.4166667   0.4166667), wk =   0.0277778
        k(   79) = (   0.3333333   0.4166667  -0.5000000), wk =   0.0277778
        k(   80) = (   0.3333333  -0.5000000  -0.5000000), wk =   0.0069444
        k(   81) = (   0.4166667   0.4166667   0.4166667), wk =   0.0092593
        k(   82) = (   0.4166667   0.4166667  -0.5000000), wk =   0.0138889
        k(   83) = (   0.4166667  -0.5000000  -0.5000000), wk =   0.0069444
        k(   84) = (  -0.5000000  -0.5000000  -0.5000000), wk =   0.0011574

     Dense  grid:    86407 G-vectors     FFT dimensions: (  60,  60,  60)

     Estimated max dynamical RAM per process >      50.37 MB

     Estimated total dynamical RAM >     402.98 MB

     The potential is recalculated from file :
     out/mp-22875.save/charge-density

     Starting wfcs are random

     Band Structure Calculation
     Davidson diagonalization with overlap

     ethr =  5.00E-06,  avg # of iterations = 30.8

     total cpu time spent up to now is       29.7 secs

     End of band structure calculation

          k = 0.0000 0.0000 0.0000 ( 10827 PWs)   bands (ev):

    -8.2385  -4.6696  -4.6696  -4.5005  -4.5005  -4.5005   0.7906   4.1737
     4.1737   4.1737  12.4664  12.4665  12.5863  12.5863  12.5863  16.4093
    18.8585  18.8585  18.8585  20.6404

          k = 0.0000 0.0000 0.0833 ( 10863 PWs)   bands (ev):

    -8.2243  -4.6689  -4.6611  -4.5044  -4.5044  -4.5002   0.7337   4.2030
     4.2030   4.2069  11.6763  12.4904  12.4904  12.5102  13.1663  16.8514
    18.6981  18.6981  18.8654  19.6368

          k = 0.0000 0.0000 0.1667 ( 10835 PWs)   bands (ev):

    -8.1849  -4.6672  -4.6381  -4.5149  -4.5149  -4.4993   0.5790   4.2850
     4.2850   4.3185  10.5966  12.2290  12.2290  12.6393  13.9346  17.7866
    18.4960  18.5413  18.5414  18.8846

          k = 0.0000 0.0000 0.2500 ( 10843 PWs)   bands (ev):

    -8.1296  -4.6647  -4.6071  -4.5291  -4.5291  -4.4980   0.3699   4.4020
     4.4020   4.5298   9.4793  11.8749  11.8749  12.8455  14.9740  17.4892
    18.6199  18.6200  18.7151  18.9119

          k = 0.0000 0.0000 0.3333 ( 10840 PWs)   bands (ev):

    -8.0727  -4.6623  -4.5769  -4.5433  -4.5433  -4.4967   0.1645   4.5258
     4.5258   4.8434   8.4583  11.5252  11.5252  13.1060  16.2417  16.6528
    18.9402  18.9499  18.9499  19.4335

          k = 0.0000 0.0000 0.4167 ( 10796 PWs)   bands (ev):

    -8.0298  -4.6605  -4.5554  -4.5535  -4.5535  -4.4957   0.0168   4.6214
     4.6214   5.2067   7.6511  11.2717  11.2717  13.3602  16.0516  17.6074
    18.9619  19.4968  19.4968  19.9091

          k = 0.0000 0.0000-0.5000 ( 10804 PWs)   bands (ev):

    -8.0138  -4.6599  -4.5573  -4.5573  -4.5477  -4.4954  -0.0367   4.6576
     4.6576   5.4077   7.2991  11.1793  11.1793  13.4781  15.8179  18.5128
    18.9700  19.9438  20.2045  20.2058

          k = 0.0000 0.0833 0.0833 ( 10871 PWs)   bands (ev):

    -8.2105  -4.6644  -4.6564  -4.5079  -4.5047  -4.5033   0.6901   4.0474
     4.2310   4.4068  11.5300  11.7810  12.4112  12.8448  13.5428  17.0419
    18.2917  18.5689  19.2276  20.1049

          k = 0.0000 0.0833 0.1667 ( 10817 PWs)   bands (ev):

    -8.1722  -4.6612  -4.6347  -4.5173  -4.5145  -4.5028   0.5665   3.9763
     4.3093   4.6239  10.5117  11.6827  12.1902  13.0111  14.2178  17.2689
    17.9780  18.5934  19.3828  19.4805

          k = 0.0000 0.0833 0.2500 ( 10810 PWs)   bands (ev):

    -8.1187  -4.6585  -4.6037  -4.5299  -4.5285  -4.5014   0.3895   4.0206
     4.4208   4.8408   9.4443  11.5359  11.8809  13.1562  15.1594  17.2868
    17.9037  18.0781  19.6216  19.8810

          k = 0.0000 0.0833 0.3333 ( 10829 PWs)   bands (ev):

    -8.0635  -4.6560  -4.5733  -4.5424  -4.5422  -4.4999   0.2071   4.1667
     4.5384   5.0429   8.5070  11.3137  11.5671  13.3335  16.3188  16.8888
    18.0355  18.1010  19.7124  20.4535

          k = 0.0000 0.0833 0.4167 ( 10801 PWs)   bands (ev):

    -8.0221  -4.6542  -4.5525  -4.5525  -4.5501  -4.4989   0.0719   4.3418
     4.6289   5.2051   7.8222  11.1183  11.3358  13.5189  16.3411  17.5973
    18.2613  18.6128  19.7663  20.0155

          k = 0.0000 0.0833-0.5000 ( 10796 PWs)   bands (ev):

    -8.0066  -4.6535  -4.5562  -4.5544  -4.5435  -4.4985   0.0222   4.4240
     4.6630   5.2745   7.5571  11.0417  11.2509  13.6055  16.1497  18.2616
    18.3838  18.9431  19.7827  20.0475

          k = 0.0000 0.1667 0.1667 ( 10825 PWs)   bands (ev):

    -8.1373  -4.6508  -4.6195  -4.5236  -4.5151  -4.5108   0.5223   3.7215
     4.3770   4.8888  10.0448  11.2421  12.0733  13.3858  14.8322  16.6802
    17.4712  19.3198  19.8000  19.9681

          k = 0.0000 0.1667 0.2500 ( 10820 PWs)   bands (ev):

    -8.0885  -4.6448  -4.5910  -4.5317  -4.5269  -4.5106   0.4383   3.6068
     4.4729   5.0566   9.2937  11.0882  11.8901  13.6629  15.6186  16.4948
    17.2270  18.8098  19.9909  20.3997

          k = 0.0000 0.1667 0.3333 ( 10827 PWs)   bands (ev):

    -8.0384  -4.6411  -4.5608  -4.5401  -4.5391  -4.5088   0.3291   3.6569
     4.5730   5.0873   8.6482  10.9518  11.6842  13.8071  16.3055  17.0197
    17.2408  18.1467  19.6130  19.7798

          k = 0.0000 0.1667 0.4167 ( 10790 PWs)   bands (ev):

    -8.0009  -4.6388  -4.5498  -4.5449  -4.5380  -4.5075   0.2356   3.8175
     4.6494   4.9829   8.2593  10.8187  11.5217  13.8826  16.6769  17.4268
    17.7753  17.9642  19.1220  19.3508

          k = 0.0000 0.1667-0.5000 ( 10810 PWs)   bands (ev):

    -7.9870  -4.6380  -4.5534  -4.5463  -4.5303  -4.5070   0.1989   3.9223
     4.6781   4.8935   8.1372  10.7616  11.4602  13.9117  16.8256  17.5644
    17.8571  17.9360  18.8714  20.2408

          k = 0.0000 0.2500 0.2500 ( 10837 PWs)   bands (ev):

    -8.0465  -4.6332  -4.5668  -4.5334  -4.5267  -4.5210   0.4886   3.3129
     4.5458   5.0600   9.0455  10.8348  11.8831  14.0830  15.9796  16.3166
    16.7966  19.3441  19.5600  19.9608

          k = 0.0000 0.2500 0.3333 ( 10790 PWs)   bands (ev):

    -8.0036  -4.6264  -4.5386  -4.5371  -4.5338  -4.5209   0.5099   3.2129
     4.6211   4.8423   8.8645  10.6870  11.8501  14.1952  16.0264  16.6482
    17.2086  18.7126  18.8382  19.5615

          k = 0.0000 0.2500 0.4167 ( 10800 PWs)   bands (ev):

    -7.9717  -4.6226  -4.5461  -4.5343  -4.5192  -4.5161   0.5009   3.2983
     4.5109   4.6778   8.8115  10.5687  11.8078  14.1335  16.4010  16.7428
    17.6866  18.1792  18.4902  19.4466

          k = 0.0000 0.2500-0.5000 ( 10814 PWs)   bands (ev):

    -7.9599  -4.6213  -4.5495  -4.5341  -4.5186  -4.5080   0.4918   3.3957
     4.3219   4.6989   8.8118  10.5161  11.7884  14.1004  16.6789  16.8705
    17.4936  17.8605  18.4231  20.5554

          k = 0.0000 0.3333 0.3333 ( 10782 PWs)   bands (ev):

    -7.9684  -4.6164  -4.5355  -4.5313  -4.5280  -4.5112   0.7039   2.9367
     4.3948   4.6701   9.1229  10.5297  12.0213  14.1536  16.0586  16.3136
    17.8228  17.9958  18.2500  20.6438

          k = 0.0000 0.3333 0.4167 ( 10815 PWs)   bands (ev):

    -7.9423  -4.6109  -4.5424  -4.5309  -4.5227  -4.4897   0.8449   2.8917
     3.9082   4.7066   9.3639  10.4179  12.1474  13.9305  16.1666  16.2608
    17.2847  17.9546  18.8031  20.5710

          k = 0.0000 0.3333-0.5000 ( 10806 PWs)   bands (ev):

    -7.9327  -4.6091  -4.5455  -4.5301  -4.5205  -4.4816   0.8925   2.9627
     3.6471   4.7201   9.4744  10.3625  12.1931  13.8340  16.1800  16.3545
    16.9282  17.9331  19.2505  20.9678

          k = 0.0000 0.4167 0.4167 ( 10804 PWs)   bands (ev):

    -7.9206  -4.6043  -4.5403  -4.5389  -4.5134  -4.4685   1.1957   2.6774
     3.3143   4.7279   9.8192  10.3345  12.4500  13.5345  15.9298  16.0259
    16.5734  18.7502  19.1257  21.5220

          k = 0.0000 0.4167-0.5000 ( 10802 PWs)   bands (ev):

    -7.9126  -4.6022  -4.5427  -4.5386  -4.5098  -4.4604   1.3663   2.6822
     2.9770   4.7358  10.0265  10.2879  12.5782  13.3487  15.8278  16.0374
    16.2161  18.9822  19.6816  21.4069

          k = 0.0000-0.5000-0.5000 ( 10800 PWs)   bands (ev):

    -7.9052  -4.6000  -4.5416  -4.5416  -4.5056  -4.4524   1.6872   2.5853
     2.5853   4.7416  10.2668  10.2668  12.7535  13.1059  15.7039  15.9305
    15.9305  19.8011  19.8012  21.6309

          k = 0.0833 0.0833 0.0833 ( 10834 PWs)   bands (ev):

    -8.1970  -4.6558  -4.6558  -4.5079  -4.5073  -4.5073   0.6568   4.0784
     4.0784   4.5836  11.4435  11.7419  11.7419  13.4972  13.4972  17.2733
    18.1550  18.1550  19.7230  20.2827

          k = 0.0833 0.0833 0.1667 ( 10813 PWs)   bands (ev):

    -8.1599  -4.6540  -4.6323  -4.5180  -4.5156  -4.5063   0.5586   3.9425
     4.1653   4.8092  10.4837  11.6040  11.7128  13.4202  14.3098  17.2682
    17.9511  18.3078  19.4876  20.1903

          k = 0.0833 0.0833 0.2500 ( 10811 PWs)   bands (ev):

    -8.1078  -4.6516  -4.6008  -4.5327  -4.5261  -4.5048   0.4102   3.9302
     4.2899   4.9988   9.4596  11.3538  11.7142  13.4201  15.2979  17.0513
    17.6423  18.8127  19.0066  20.4235

          k = 0.0833 0.0833 0.3333 ( 10816 PWs)   bands (ev):

    -8.0543  -4.6492  -4.5701  -4.5473  -4.5361  -4.5033   0.2496   4.0462
     4.4225   5.1253   8.5907  11.0562  11.6315  13.5251  16.4745  17.0891
    17.1105  19.0287  19.1467  19.9739

          k = 0.0833 0.0833 0.4167 ( 10810 PWs)   bands (ev):

    -8.0141  -4.6474  -4.5579  -4.5483  -4.5429  -4.5022   0.1269   4.2263
     4.5256   5.1678   7.9946  10.8208  11.5299  13.6683  16.6451  17.2606
    17.6806  19.0365  19.6539  19.6834

          k = 0.0833 0.0833-0.5000 ( 10812 PWs)   bands (ev):

    -7.9992  -4.6467  -4.5618  -4.5460  -4.5398  -4.5018   0.0812   4.3243
     4.5647   5.1615   7.7800  10.7320  11.4857  13.7380  16.4625  17.5348
    17.8628  19.6336  19.7521  20.1181

          k = 0.0833 0.1667 0.1667 ( 10825 PWs)   bands (ev):

    -8.1256  -4.6418  -4.6189  -4.5245  -4.5150  -4.5150   0.5278   3.7569
     4.1727   5.0256  10.1305  11.1618  11.5839  13.7841  14.7160  17.0589
    17.5827  18.7199  20.0813  20.2087

          k = 0.0833 0.1667 0.2500 ( 10805 PWs)   bands (ev):

    -8.0779  -4.6363  -4.5898  -4.5364  -4.5239  -4.5135   0.4629   3.6285
     4.2811   5.1349   9.4149  10.9508  11.5700  13.8955  15.5505  16.6587
    17.5785  18.8167  19.4998  20.2241

          k = 0.0833 0.1667 0.3333 ( 10808 PWs)   bands (ev):

    -8.0290  -4.6330  -4.5590  -4.5499  -4.5302  -4.5121   0.3720   3.6569
     4.4056   5.0994   8.7891  10.6889  11.6402  13.9639  16.3769  16.6529
    17.7182  18.3973  18.8768  20.2842

          k = 0.0833 0.1667 0.4167 ( 10802 PWs)   bands (ev):

    -7.9924  -4.6309  -4.5602  -4.5376  -4.5331  -4.5110   0.2904   3.8044
     4.5049   4.9409   8.4118  10.4599  11.6981  14.0303  16.4695  17.1305
    17.6101  18.6732  18.8029  20.1444

          k = 0.0833 0.1667-0.5000 ( 10822 PWs)   bands (ev):

    -7.9788  -4.6301  -4.5640  -4.5357  -4.5282  -4.5105   0.2577   3.9072
     4.5449   4.8276   8.2921  10.3705  11.7167  14.0601  16.6635  16.9515
    17.4508  18.9774  19.3903  20.3035

          k = 0.0833 0.2500 0.2500 ( 10813 PWs)   bands (ev):

    -8.0364  -4.6238  -4.5664  -4.5412  -4.5256  -4.5200   0.5212   3.3540
     4.3626   5.0831   9.2063  10.7032  11.5055  14.2596  15.9053  16.4778
    17.3856  18.4209  20.1307  20.2101

          k = 0.0833 0.2500 0.3333 ( 10810 PWs)   bands (ev):

    -7.9940  -4.6170  -4.5497  -4.5386  -4.5281  -4.5203   0.5539   3.2491
     4.4587   4.8389   8.9925  10.4756  11.6124  14.3470  16.1240  16.6196
    17.7067  17.8379  19.4742  20.0913

          k = 0.0833 0.2500 0.4167 ( 10812 PWs)   bands (ev):

    -7.9625  -4.6134  -4.5583  -4.5287  -4.5218  -4.5142   0.5551   3.3234
     4.4761   4.5609   8.8992  10.2399  11.7998  14.2882  16.1040  16.6635
    17.7336  18.4937  19.0623  19.7363

          k = 0.0833 0.2500-0.5000 ( 10816 PWs)   bands (ev):

    -7.9508  -4.6122  -4.5616  -4.5261  -4.5236  -4.5063   0.5499   3.4152
     4.3047   4.5734   8.8846  10.1364  11.8895  14.2430  16.2284  16.3971
    18.1600  18.3498  18.9146  20.6133

          k = 0.0833 0.3333 0.3333 ( 10800 PWs)   bands (ev):

    -7.9585  -4.6067  -4.5491  -4.5370  -4.5194  -4.5104   0.7514   2.9831
     4.3785   4.5482   9.1634  10.3532  11.6698  14.3438  16.2711  16.3829
    17.2846  18.1577  19.2940  20.7480

          k = 0.0833 0.3333 0.4167 ( 10808 PWs)   bands (ev):

    -7.9322  -4.6011  -4.5533  -4.5371  -4.5186  -4.4891   0.8981   2.9351
     3.9176   4.5891   9.3373  10.1704  11.8668  14.1016  16.1021  16.2982
    17.4655  18.5495  19.1108  20.6438

          k = 0.0833 0.3333-0.5000 ( 10798 PWs)   bands (ev):

    -7.9225  -4.5993  -4.5560  -4.5354  -4.5187  -4.4810   0.9489   3.0009
     3.6653   4.6079   9.4440  10.0453  11.9946  13.9534  16.0195  16.2477
    17.6721  18.3589  19.4521  21.0181

          k = 0.0833 0.4167 0.4167 ( 10797 PWs)   bands (ev):

    -7.9098  -4.5943  -4.5489  -4.5446  -4.5153  -4.4682   1.2481   2.7275
     3.3444   4.6221   9.6806  10.1289  11.9568  13.7299  16.0148  16.1826
    17.1827  19.0169  19.3143  21.5940

          k = 0.0833 0.4167-0.5000 ( 10798 PWs)   bands (ev):

    -7.9016  -4.5922  -4.5501  -4.5443  -4.5144  -4.4602   1.4187   2.7304
     3.0172   4.6345   9.8775  10.0412  12.0264  13.5377  15.9775  16.1892
    16.9669  19.1848  19.8558  21.4448

          k = 0.0833-0.5000-0.5000 ( 10776 PWs)   bands (ev):

    -7.8939  -4.5899  -4.5475  -4.5475  -4.5130  -4.4522   1.7339   2.6368
     2.6368   4.6444  10.0514  10.0514  12.0257  13.3542  16.1323  16.1323
    16.5540  19.9698  19.9698  21.6766

          k = 0.1667 0.1667 0.1667 ( 10822 PWs)   bands (ev):

    -8.0936  -4.6173  -4.6173  -4.5267  -4.5267  -4.5148   0.5363   3.8569
     3.8569   5.1667  10.2034  10.9268  10.9268  14.5072  14.5072  17.8412
    17.8413  17.9625  19.6961  20.5065

          k = 0.1667 0.1667 0.2500 ( 10821 PWs)   bands (ev):

    -8.0489  -4.6151  -4.5844  -4.5425  -4.5285  -4.5151   0.5291   3.6370
     4.0018   5.1672   9.6735  10.5790  11.0440  14.3829  15.3632  17.2579
    18.1278  18.2108  19.3449  19.9940

          k = 0.1667 0.1667 0.3333 ( 10793 PWs)   bands (ev):

    -8.0032  -4.6128  -4.5582  -4.5525  -4.5282  -4.5164   0.4956   3.5871
     4.1585   5.0118   9.1025  10.2111  11.4271  14.3757  15.9491  17.0625
    17.8100  18.2284  19.6949  19.7490

          k = 0.1667 0.1667 0.4167 ( 10820 PWs)   bands (ev):

    -7.9691  -4.6109  -4.5699  -4.5322  -4.5240  -4.5182   0.4530   3.6880
     4.2823   4.7625   8.7560   9.9329  11.7561  14.4263  15.8996  16.7328
    18.0581  18.6753  19.9060  20.1158

          k = 0.1667 0.1667-0.5000 ( 10794 PWs)   bands (ev):

    -7.9565  -4.6102  -4.5742  -4.5255  -4.5250  -4.5156   0.4335   3.7810
     4.3299   4.6144   8.6443   9.8293  11.8886  14.4557  15.8311  16.5333
    17.9524  19.8135  19.9715  20.4909

          k = 0.1667 0.2500 0.2500 ( 10803 PWs)   bands (ev):

    -8.0086  -4.5984  -4.5657  -4.5501  -4.5379  -4.5138   0.6133   3.4708
     3.9955   5.0366   9.6044  10.3481  10.7658  14.7369  15.5558  17.2367
    17.8343  18.1942  19.7995  20.6245

          k = 0.1667 0.2500 0.3333 ( 10798 PWs)   bands (ev):

    -7.9675  -4.5924  -4.5630  -4.5440  -4.5316  -4.5149   0.6822   3.3440
     4.1220   4.7567   9.2644   9.9666  11.1257  14.7834  15.9108  16.6466
    17.8080  18.6824  19.8575  20.6512

          k = 0.1667 0.2500 0.4167 ( 10818 PWs)   bands (ev):

    -7.9369  -4.5894  -4.5741  -4.5390  -4.5182  -4.5103   0.7158   3.3799
     4.2353   4.4202   9.0638   9.6158  11.5548  14.7330  15.7368  16.3222
    18.4980  19.3309  19.5279  20.6393

          k = 0.1667 0.2500-0.5000 ( 10806 PWs)   bands (ev):

    -7.9256  -4.5881  -4.5787  -4.5362  -4.5206  -4.5019   0.7233   3.4538
     4.2318   4.2861   9.0136   9.4722  11.7447  14.6707  15.6152  16.2241
    18.8421  19.5773  19.7929  20.7837

          k = 0.1667 0.3333 0.3333 ( 10800 PWs)   bands (ev):

    -7.9312  -4.5811  -4.5656  -4.5517  -4.5157  -4.5091   0.8912   3.1157
     4.1961   4.3732   9.1679   9.8986  11.0437  14.7668  16.2469  16.2554
    17.8791  18.9467  20.4605  21.0671

          k = 0.1667 0.3333 0.4167 ( 10801 PWs)   bands (ev):

    -7.9043  -4.5765  -4.5709  -4.5518  -4.5196  -4.4877   1.0556   3.0575
     3.9308   4.2982   9.1633   9.6211  11.2465  14.5044  16.1418  16.3227
    18.4009  19.4280  20.0424  20.8827

          k = 0.1667 0.3333-0.5000 ( 10816 PWs)   bands (ev):

    -7.8943  -4.5763  -4.5727  -4.5496  -4.5222  -4.4794   1.1162   3.1074
     3.7044   4.3297   9.2967   9.3632  11.3699  14.3636  16.1664  16.2437
    18.9350  19.3195  20.0379  21.1632

          k = 0.1667 0.4167 0.4167 ( 10807 PWs)   bands (ev):

    -7.8801  -4.5703  -4.5654  -4.5602  -4.5250  -4.4674   1.4025   2.8711
     3.4238   4.3543   9.2641   9.6131  11.0252  14.2302  16.3414  16.5477
    18.4254  19.7823  19.8615  21.8121

          k = 0.1667 0.4167-0.5000 ( 10814 PWs)   bands (ev):

    -7.8711  -4.5688  -4.5650  -4.5595  -4.5289  -4.4595   1.5727   2.8684
     3.1288   4.3773   9.4379   9.4623  10.9606  14.1271  16.4630  16.5406
    18.4366  19.7694  20.3721  21.5511

          k = 0.1667-0.5000-0.5000 ( 10796 PWs)   bands (ev):

    -7.8626  -4.5635  -4.5635  -4.5624  -4.5338  -4.4517   1.8702   2.7843
     2.7843   4.3965   9.5151   9.5152  10.7659  14.0503  16.6154  16.6154
    18.1734  20.4719  20.4719  21.7132

          k = 0.2500 0.2500 0.2500 ( 10771 PWs)   bands (ev):

    -7.9700  -4.5664  -4.5664  -4.5529  -4.5529  -4.5120   0.7451   3.6425
     3.6425   4.8569   9.8725   9.8725  10.2984  15.4125  15.4125  16.5198
    18.9391  18.9393  19.1927  21.0279

          k = 0.2500 0.2500 0.3333 ( 10796 PWs)   bands (ev):

    -7.9307  -4.5759  -4.5589  -4.5589  -4.5267  -4.5147   0.8800   3.4212
     3.8319   4.5609   9.4034   9.4482  10.6978  15.4081  15.6963  16.2255
    18.8005  19.5749  20.0590  20.7360

          k = 0.2500 0.2500 0.4167 ( 10817 PWs)   bands (ev):

    -7.9015  -4.5872  -4.5589  -4.5554  -4.5204  -4.5021   0.9748   3.3819
     3.9852   4.2276   9.0594   9.1554  11.0672  15.3083  15.4564  16.3962
    19.4118  19.8379  20.4650  20.8287

          k = 0.2500 0.2500-0.5000 ( 10808 PWs)   bands (ev):

    -7.8906  -4.5915  -4.5586  -4.5528  -4.5239  -4.4930   1.0070   3.4258
     4.0452   4.0494   8.9324   9.0606  11.2116  15.1490  15.4831  16.3891
    19.7947  20.3701  20.5524  21.0519

          k = 0.2500 0.3333 0.3333 ( 10813 PWs)   bands (ev):

    -7.8933  -4.5827  -4.5712  -4.5424  -4.5207  -4.5076   1.1116   3.3131
     3.8383   4.2555   8.9960   9.3216  10.5307  15.3037  16.0519  16.3313
    19.2220  19.8834  20.9991  21.2562

          k = 0.2500 0.3333 0.4167 ( 10811 PWs)   bands (ev):

    -7.8654  -4.5920  -4.5715  -4.5380  -4.5302  -4.4854   1.3085   3.2308
     3.9019   3.9625   8.7567   9.0946  10.5205  15.1214  16.2073  16.6599
    19.6248  20.3774  20.9819  21.3989

          k = 0.2500 0.3333-0.5000 ( 10810 PWs)   bands (ev):

    -7.8550  -4.5961  -4.5690  -4.5370  -4.5356  -4.4766   1.3869   3.2515
     3.7163   4.0097   8.6789   8.9982  10.5246  15.0725  16.2665  16.7131
    20.2817  20.4567  20.8372  21.3845

          k = 0.2500 0.4167 0.4167 ( 10809 PWs)   bands (ev):

    -7.8385  -4.5910  -4.5812  -4.5439  -4.5294  -4.4664   1.6488   3.0867
     3.5178   4.0282   8.6893   8.9747  10.0726  15.0678  16.7388  16.9556
    19.8114  20.6624  20.8740  22.1721

          k = 0.2500 0.4167-0.5000 ( 10808 PWs)   bands (ev):

    -7.8285  -4.5916  -4.5807  -4.5522  -4.5273  -4.4585   1.8167   3.0742
     3.2815   4.0634   8.7224   8.9010   9.8872  15.0679  16.9380  17.0299
    20.0848  20.6183  21.1592  21.7034

          k = 0.2500-0.5000-0.5000 ( 10816 PWs)   bands (ev):

    -7.8188  -4.5850  -4.5850  -4.5633  -4.5247  -4.4509   2.0817   3.0064
     3.0064   4.0916   8.8565   8.8565   9.5549  15.0815  17.1701  17.1701
    19.9445  21.2517  21.2517  21.7576

          k = 0.3333 0.3333 0.3333 ( 10819 PWs)   bands (ev):

    -7.8545  -4.5903  -4.5903  -4.5331  -4.5064  -4.5064   1.3822   3.5351
     3.5351   4.0500   8.7701   8.7701  10.1301  15.6080  16.4624  16.4624
    20.3165  20.7790  20.7790  21.8322

          k = 0.3333 0.3333 0.4167 ( 10818 PWs)   bands (ev):

    -7.8255  -4.6041  -4.5903  -4.5483  -4.5055  -4.4799   1.6323   3.3713
     3.7192   3.7852   8.3687   8.6553   9.8133  15.7536  16.5849  17.0013
    20.6038  21.2243  21.5979  21.6774

          k = 0.3333 0.3333-0.5000 ( 10826 PWs)   bands (ev):

    -7.8148  -4.6091  -4.5877  -4.5566  -4.5051  -4.4703   1.7410   3.3498
     3.6300   3.7926   8.2200   8.6371   9.6802  15.8229  16.6352  17.1796
    21.2804  21.3605  21.5363  21.6452

          k = 0.3333 0.4167 0.4167 ( 10831 PWs)   bands (ev):

    -7.7958  -4.6086  -4.6018  -4.5684  -4.4921  -4.4655   1.9599   3.3325
     3.5681   3.7365   8.1822   8.3715   9.2305  16.0978  17.1387  17.3157
    20.9964  21.4752  21.8484  22.5684

          k = 0.3333 0.4167-0.5000 ( 10820 PWs)   bands (ev):

    -7.7847  -4.6114  -4.6012  -4.5796  -4.4901  -4.4574   2.1216   3.3046
     3.4194   3.7849   8.1061   8.3469   8.9599  16.2048  17.3100  17.5282
    21.4457  21.5748  21.8729  21.9571

          k = 0.3333-0.5000-0.5000 ( 10808 PWs)   bands (ev):

    -7.7736  -4.6061  -4.6061  -4.5943  -4.4871  -4.4502   2.3334   3.2609
     3.2609   3.8167   8.2358   8.2358   8.5495  16.3093  17.6620  17.6620
    21.5455  21.7905  22.0434  22.0819

          k = 0.4167 0.4167 0.4167 ( 10843 PWs)   bands (ev):

    -7.7637  -4.6168  -4.6168  -4.5918  -4.4649  -4.4649   2.2683   3.5306
     3.5400   3.5400   7.9318   7.9318   8.5712  16.9556  17.5729  17.5729
    21.5859  22.0765  22.0769  22.6314

          k = 0.4167 0.4167-0.5000 ( 10836 PWs)   bands (ev):

    -7.7518  -4.6222  -4.6161  -4.6042  -4.4646  -4.4549   2.4169   3.4715
     3.4795   3.6240   7.7680   7.9364   8.2492  17.2220  17.6687  17.8802
    21.7934  22.0995  22.3594  22.3785

          k = 0.4167-0.5000-0.5000 ( 10820 PWs)   bands (ev):

    -7.7396  -4.6214  -4.6214  -4.6181  -4.4596  -4.4497   2.5550   3.4772
     3.4772   3.6306   7.7827   7.7827   7.8627  17.5189  18.0110  18.0110
    21.7302  22.1620  22.4262  22.5375

          k =-0.5000-0.5000-0.5000 ( 10768 PWs)   bands (ev):

    -7.7269  -4.6270  -4.6270  -4.6270  -4.4495  -4.4495   2.6473   3.5652
     3.5652   3.5652   7.6134   7.6134   7.6134  18.1407  18.1407  18.1407
    21.5103  22.2089  22.2091  22.6116

     the Fermi energy is     7.1964 ev
     (compare with:     7.1963 eV, computed in scf)

     Writing all to output data dir out/mp-22875.save/
 
     init_run     :      0.18s CPU      0.20s WALL (       1 calls)
     electrons    :     28.65s CPU     29.24s WALL (       1 calls)

     Called by init_run:
     wfcinit      :      0.00s CPU      0.00s WALL (       1 calls)
     potinit      :      0.03s CPU      0.04s WALL (       1 calls)
     hinit0       :      0.02s CPU      0.03s WALL (       1 calls)

     Called by electrons:
     c_bands      :     28.65s CPU     29.24s WALL (       1 calls)
     v_of_rho     :      0.02s CPU      0.02s WALL (       1 calls)

     Called by c_bands:
     init_us_2    :      0.05s CPU      0.06s WALL (      84 calls)
     init_us_2:cp :      0.05s CPU      0.06s WALL (      84 calls)
     cegterg      :     26.76s CPU     27.21s WALL (     173 calls)

     Called by *egterg:
     cdiaghg      :      1.53s CPU      1.55s WALL (    2673 calls)
     h_psi        :     22.34s CPU     22.75s WALL (    2846 calls)
     g_psi        :      0.27s CPU      0.27s WALL (    2589 calls)

     Called by h_psi:
     h_psi:calbec :      1.02s CPU      1.04s WALL (    2846 calls)
     vloc_psi     :     20.32s CPU     20.69s WALL (    2846 calls)
     add_vuspsi   :      0.88s CPU      0.90s WALL (    2846 calls)

     General routines
     calbec       :      1.01s CPU      1.03s WALL (    2846 calls)
     fft          :      0.01s CPU      0.01s WALL (      10 calls)
     fftw         :     17.83s CPU     18.14s WALL (   74380 calls)
 
     Parallel routines
 
     PWSCF        :     29.34s CPU     30.28s WALL

 
   This run was terminated on:  14:36:28   3Jan2024            

=------------------------------------------------------------------------------=
   JOB DONE.
=------------------------------------------------------------------------------=
