<?xml version="1.0" encoding="ISO-8859-1"?>
<modeling>
 <generator>
  <i name="program" type="string">vasp </i>
  <i name="version" type="string">5.4.4.18Apr17-6-g9f103f2a35  </i>
  <i name="subversion" type="string">(build Aug 24 2017 11:22:49) complex            parallel </i>
  <i name="platform" type="string">LinuxIFC </i>
  <i name="date" type="string">2023 12 25 </i>
  <i name="time" type="string">13:07:39 </i>
 </generator>
 <incar>
  <i type="string" name="PREC">accurate</i>
  <i type="string" name="ALGO"> Normal</i>
  <i type="int" name="NELM">   100</i>
  <i type="int" name="IBRION">     8</i>
  <i name="EDIFF">      0.00000001</i>
  <i name="SYMPREC">      0.00000001</i>
  <i name="ENCUT">    520.00000000</i>
  <i type="logical" name="LREAL"> F  </i>
  <i type="int" name="ISMEAR">     0</i>
  <i name="SIGMA">      0.01000000</i>
  <i type="logical" name="LWAVE"> F  </i>
  <v type="int" name="KPOINT_BSE">    -1     0     0     0</v>
  <i type="int" name="NELM">   100</i>
  <i type="logical" name="LPEAD"> T  </i>
  <i type="logical" name="LEPSILON"> T  </i>
 </incar>
 <structure name="primitive_cell" >
  <crystal>
   <varray name="basis" >
    <v>      -3.54243534       0.00000000       3.54243534 </v>
    <v>       0.00000000       3.54243534       3.54243534 </v>
    <v>      -3.54243534       3.54243534       0.00000000 </v>
   </varray>
   <i name="volume">     88.90696651 </i>
   <varray name="rec_basis" >
    <v>      -0.14114584      -0.14114584       0.14114584 </v>
    <v>       0.14114584       0.14114584       0.14114584 </v>
    <v>      -0.14114584       0.14114584      -0.14114584 </v>
   </varray>
  </crystal>
  <varray name="positions" >
   <v>       0.00000000       0.00000000       0.00000000 </v>
   <v>       0.49999996      -0.49999996       0.49999996 </v>
  </varray>
 </structure>
 <varray name="primitive_index" >
  <v type="int" >        1 </v>
  <v type="int" >        2 </v>
 </varray>
 <kpoints>
  <generation param="Gamma">
   <v type="int" name="divisions">      12       12       12 </v>
   <v name="usershift">      0.00000000       0.00000000       0.00000000 </v>
   <v name="genvec1">      0.08333333      -0.00000000      -0.00000000 </v>
   <v name="genvec2">     -0.00000000       0.08333333       0.00000000 </v>
   <v name="genvec3">      0.00000000       0.00000000       0.08333333 </v>
   <v name="shift">      0.00000000       0.00000000       0.00000000 </v>
  </generation>
  <varray name="kpointlist" >
   <v>       0.00000000       0.00000000       0.00000000 </v>
   <v>       0.08333333       0.00000000       0.00000000 </v>
   <v>       0.16666667       0.00000000       0.00000000 </v>
   <v>       0.25000000       0.00000000       0.00000000 </v>
   <v>       0.33333333       0.00000000       0.00000000 </v>
   <v>       0.41666667      -0.00000000      -0.00000000 </v>
   <v>       0.50000000       0.00000000       0.00000000 </v>
   <v>       0.08333333       0.08333333      -0.00000000 </v>
   <v>       0.16666667       0.08333333      -0.00000000 </v>
   <v>       0.25000000       0.08333333      -0.00000000 </v>
   <v>       0.33333333       0.08333333       0.00000000 </v>
   <v>       0.41666667       0.08333333       0.00000000 </v>
   <v>       0.50000000       0.08333333      -0.00000000 </v>
   <v>      -0.41666667       0.08333333      -0.00000000 </v>
   <v>      -0.33333333       0.08333333       0.00000000 </v>
   <v>      -0.25000000       0.08333333      -0.00000000 </v>
   <v>      -0.16666667       0.08333333      -0.00000000 </v>
   <v>      -0.08333333       0.08333333      -0.00000000 </v>
   <v>       0.16666667       0.16666667      -0.00000000 </v>
   <v>       0.25000000       0.16666667      -0.00000000 </v>
   <v>       0.33333333       0.16666667       0.00000000 </v>
   <v>       0.41666667       0.16666667       0.00000000 </v>
   <v>       0.50000000       0.16666667      -0.00000000 </v>
   <v>      -0.41666667       0.16666667      -0.00000000 </v>
   <v>      -0.33333333       0.16666667      -0.00000000 </v>
   <v>      -0.25000000       0.16666667       0.00000000 </v>
   <v>      -0.16666667       0.16666667      -0.00000000 </v>
   <v>       0.25000000       0.25000000      -0.00000000 </v>
   <v>       0.33333333       0.25000000      -0.00000000 </v>
   <v>       0.41666667       0.25000000       0.00000000 </v>
   <v>       0.50000000       0.25000000       0.00000000 </v>
   <v>      -0.41666667       0.25000000      -0.00000000 </v>
   <v>      -0.33333333       0.25000000      -0.00000000 </v>
   <v>      -0.25000000       0.25000000      -0.00000000 </v>
   <v>       0.33333333       0.33333333      -0.00000000 </v>
   <v>       0.41666667       0.33333333      -0.00000000 </v>
   <v>       0.50000000       0.33333333      -0.00000000 </v>
   <v>      -0.41666667       0.33333333      -0.00000000 </v>
   <v>      -0.33333333       0.33333333      -0.00000000 </v>
   <v>       0.41666667       0.41666667      -0.00000000 </v>
   <v>       0.50000000       0.41666667      -0.00000000 </v>
   <v>      -0.41666667       0.41666667       0.00000000 </v>
   <v>       0.50000000       0.50000000      -0.00000000 </v>
   <v>       0.08333333      -0.00000000       0.08333333 </v>
   <v>       0.16666667       0.00000000       0.08333333 </v>
   <v>       0.25000000       0.00000000       0.08333333 </v>
   <v>       0.33333333       0.00000000       0.08333333 </v>
   <v>       0.41666667      -0.00000000       0.08333333 </v>
   <v>       0.50000000      -0.00000000       0.08333333 </v>
   <v>      -0.41666667      -0.00000000       0.08333333 </v>
   <v>      -0.33333333       0.00000000       0.08333333 </v>
   <v>      -0.25000000      -0.00000000       0.08333333 </v>
   <v>      -0.16666667      -0.00000000       0.08333333 </v>
   <v>      -0.08333333      -0.00000000       0.08333333 </v>
   <v>       0.25000000       0.16666667       0.08333333 </v>
   <v>       0.33333333       0.16666667       0.08333333 </v>
   <v>       0.41666667       0.16666667       0.08333333 </v>
   <v>       0.50000000       0.16666667       0.08333333 </v>
   <v>      -0.41666667       0.16666667       0.08333333 </v>
   <v>       0.16666667       0.25000000       0.08333333 </v>
   <v>       0.33333333       0.25000000       0.08333333 </v>
   <v>       0.41666667       0.25000000       0.08333333 </v>
   <v>       0.50000000       0.25000000       0.08333333 </v>
   <v>      -0.41666667       0.25000000       0.08333333 </v>
   <v>      -0.33333333       0.25000000       0.08333333 </v>
   <v>      -0.25000000       0.25000000       0.08333333 </v>
   <v>      -0.16666667       0.25000000       0.08333333 </v>
   <v>       0.16666667       0.33333333       0.08333333 </v>
   <v>       0.25000000       0.33333333       0.08333333 </v>
   <v>       0.41666667       0.33333333       0.08333333 </v>
   <v>       0.50000000       0.33333333       0.08333333 </v>
   <v>      -0.41666667       0.33333333       0.08333333 </v>
   <v>      -0.33333333       0.33333333       0.08333333 </v>
   <v>      -0.25000000       0.33333333       0.08333333 </v>
   <v>       0.16666667       0.41666667       0.08333333 </v>
   <v>       0.25000000       0.41666667       0.08333333 </v>
   <v>       0.33333333       0.41666667       0.08333333 </v>
   <v>       0.50000000       0.41666667       0.08333333 </v>
   <v>      -0.41666667       0.41666667       0.08333333 </v>
   <v>      -0.33333333       0.41666667       0.08333333 </v>
   <v>       0.16666667       0.50000000       0.08333333 </v>
   <v>       0.25000000       0.50000000       0.08333333 </v>
   <v>       0.33333333       0.50000000       0.08333333 </v>
   <v>       0.41666667       0.50000000       0.08333333 </v>
   <v>      -0.41666667       0.50000000       0.08333333 </v>
   <v>       0.16666667      -0.41666667       0.08333333 </v>
   <v>       0.25000000      -0.41666667       0.08333333 </v>
   <v>       0.33333333      -0.41666667       0.08333333 </v>
   <v>       0.41666667      -0.41666667       0.08333333 </v>
   <v>       0.50000000      -0.41666667       0.08333333 </v>
   <v>       0.16666667      -0.33333333       0.08333333 </v>
   <v>       0.25000000      -0.33333333       0.08333333 </v>
   <v>       0.33333333      -0.33333333       0.08333333 </v>
   <v>       0.41666667      -0.33333333       0.08333333 </v>
   <v>       0.16666667      -0.25000000       0.08333333 </v>
   <v>       0.25000000      -0.25000000       0.08333333 </v>
   <v>       0.33333333      -0.25000000       0.08333333 </v>
   <v>       0.16666667      -0.16666667       0.08333333 </v>
   <v>       0.25000000      -0.16666667       0.08333333 </v>
   <v>       0.16666667      -0.08333333       0.08333333 </v>
   <v>       0.16666667      -0.00000000       0.16666667 </v>
   <v>       0.25000000      -0.00000000       0.16666667 </v>
   <v>       0.33333333       0.00000000       0.16666667 </v>
   <v>       0.41666667      -0.00000000       0.16666667 </v>
   <v>       0.50000000       0.00000000       0.16666667 </v>
   <v>      -0.41666667      -0.00000000       0.16666667 </v>
   <v>      -0.33333333      -0.00000000       0.16666667 </v>
   <v>      -0.25000000       0.00000000       0.16666667 </v>
   <v>      -0.16666667      -0.00000000       0.16666667 </v>
   <v>       0.50000000       0.33333333       0.16666667 </v>
   <v>      -0.41666667       0.33333333       0.16666667 </v>
   <v>      -0.33333333       0.33333333       0.16666667 </v>
   <v>       0.25000000       0.41666667       0.16666667 </v>
   <v>      -0.41666667       0.41666667       0.16666667 </v>
   <v>      -0.33333333       0.41666667       0.16666667 </v>
   <v>      -0.25000000       0.41666667       0.16666667 </v>
   <v>       0.25000000       0.50000000       0.16666667 </v>
   <v>       0.33333333       0.50000000       0.16666667 </v>
   <v>      -0.33333333       0.50000000       0.16666667 </v>
   <v>       0.25000000      -0.41666667       0.16666667 </v>
   <v>       0.33333333      -0.41666667       0.16666667 </v>
   <v>       0.41666667      -0.41666667       0.16666667 </v>
   <v>       0.25000000      -0.33333333       0.16666667 </v>
   <v>       0.33333333      -0.33333333       0.16666667 </v>
   <v>       0.41666667      -0.33333333       0.16666667 </v>
   <v>       0.50000000      -0.33333333       0.16666667 </v>
   <v>       0.25000000      -0.25000000       0.16666667 </v>
   <v>       0.33333333      -0.25000000       0.16666667 </v>
   <v>       0.41666667      -0.25000000       0.16666667 </v>
   <v>       0.25000000      -0.16666667       0.16666667 </v>
   <v>       0.33333333      -0.16666667       0.16666667 </v>
   <v>       0.25000000      -0.08333333       0.16666667 </v>
   <v>       0.25000000      -0.00000000       0.25000000 </v>
   <v>       0.33333333       0.00000000       0.25000000 </v>
   <v>       0.41666667       0.00000000       0.25000000 </v>
   <v>       0.50000000      -0.00000000       0.25000000 </v>
   <v>      -0.41666667      -0.00000000       0.25000000 </v>
   <v>      -0.33333333      -0.00000000       0.25000000 </v>
   <v>      -0.25000000      -0.00000000       0.25000000 </v>
   <v>      -0.25000000       0.50000000       0.25000000 </v>
   <v>       0.33333333      -0.41666667       0.25000000 </v>
   <v>       0.33333333      -0.33333333       0.25000000 </v>
   <v>       0.41666667      -0.33333333       0.25000000 </v>
   <v>       0.33333333      -0.25000000       0.25000000 </v>
   <v>       0.41666667      -0.25000000       0.25000000 </v>
   <v>       0.50000000      -0.25000000       0.25000000 </v>
   <v>       0.33333333      -0.16666667       0.25000000 </v>
   <v>       0.41666667      -0.16666667       0.25000000 </v>
   <v>       0.33333333      -0.08333333       0.25000000 </v>
   <v>       0.33333333      -0.00000000       0.33333333 </v>
   <v>       0.41666667      -0.00000000       0.33333333 </v>
   <v>       0.50000000      -0.00000000       0.33333333 </v>
   <v>      -0.41666667       0.00000000       0.33333333 </v>
   <v>      -0.33333333      -0.00000000       0.33333333 </v>
   <v>       0.41666667      -0.25000000       0.33333333 </v>
   <v>       0.41666667      -0.16666667       0.33333333 </v>
   <v>       0.50000000      -0.16666667       0.33333333 </v>
   <v>       0.41666667      -0.08333333       0.33333333 </v>
   <v>       0.41666667      -0.00000000       0.41666667 </v>
   <v>       0.50000000      -0.00000000       0.41666667 </v>
   <v>      -0.41666667       0.00000000       0.41666667 </v>
   <v>       0.50000000      -0.08333333       0.41666667 </v>
   <v>       0.50000000      -0.00000000       0.50000000 </v>
  </varray>
  <varray name="weights" >
   <v>       0.00057870 </v>
   <v>       0.00462963 </v>
   <v>       0.00462963 </v>
   <v>       0.00462963 </v>
   <v>       0.00462963 </v>
   <v>       0.00462963 </v>
   <v>       0.00231481 </v>
   <v>       0.00231481 </v>
   <v>       0.00925926 </v>
   <v>       0.00925926 </v>
   <v>       0.00925926 </v>
   <v>       0.00925926 </v>
   <v>       0.00925926 </v>
   <v>       0.00925926 </v>
   <v>       0.00925926 </v>
   <v>       0.00925926 </v>
   <v>       0.00925926 </v>
   <v>       0.00462963 </v>
   <v>       0.00231481 </v>
   <v>       0.00925926 </v>
   <v>       0.00925926 </v>
   <v>       0.00925926 </v>
   <v>       0.00925926 </v>
   <v>       0.00925926 </v>
   <v>       0.00925926 </v>
   <v>       0.00925926 </v>
   <v>       0.00462963 </v>
   <v>       0.00231481 </v>
   <v>       0.00925926 </v>
   <v>       0.00925926 </v>
   <v>       0.00925926 </v>
   <v>       0.00925926 </v>
   <v>       0.00925926 </v>
   <v>       0.00462963 </v>
   <v>       0.00231481 </v>
   <v>       0.00925926 </v>
   <v>       0.00925926 </v>
   <v>       0.00925926 </v>
   <v>       0.00462963 </v>
   <v>       0.00231481 </v>
   <v>       0.00925926 </v>
   <v>       0.00462963 </v>
   <v>       0.00115741 </v>
   <v>       0.00115741 </v>
   <v>       0.00462963 </v>
   <v>       0.00462963 </v>
   <v>       0.00462963 </v>
   <v>       0.00462963 </v>
   <v>       0.00462963 </v>
   <v>       0.00462963 </v>
   <v>       0.00462963 </v>
   <v>       0.00462963 </v>
   <v>       0.00462963 </v>
   <v>       0.00231481 </v>
   <v>       0.00462963 </v>
   <v>       0.00925926 </v>
   <v>       0.00925926 </v>
   <v>       0.00925926 </v>
   <v>       0.00462963 </v>
   <v>       0.00462963 </v>
   <v>       0.00462963 </v>
   <v>       0.00925926 </v>
   <v>       0.00925926 </v>
   <v>       0.00925926 </v>
   <v>       0.00925926 </v>
   <v>       0.00925926 </v>
   <v>       0.00462963 </v>
   <v>       0.00925926 </v>
   <v>       0.00462963 </v>
   <v>       0.00462963 </v>
   <v>       0.00925926 </v>
   <v>       0.00925926 </v>
   <v>       0.00925926 </v>
   <v>       0.00462963 </v>
   <v>       0.00925926 </v>
   <v>       0.00925926 </v>
   <v>       0.00462963 </v>
   <v>       0.00462963 </v>
   <v>       0.00925926 </v>
   <v>       0.00462963 </v>
   <v>       0.00925926 </v>
   <v>       0.00925926 </v>
   <v>       0.00925926 </v>
   <v>       0.00462963 </v>
   <v>       0.00231481 </v>
   <v>       0.00925926 </v>
   <v>       0.00925926 </v>
   <v>       0.00925926 </v>
   <v>       0.00925926 </v>
   <v>       0.00231481 </v>
   <v>       0.00925926 </v>
   <v>       0.00925926 </v>
   <v>       0.00925926 </v>
   <v>       0.00462963 </v>
   <v>       0.00925926 </v>
   <v>       0.00925926 </v>
   <v>       0.00462963 </v>
   <v>       0.00925926 </v>
   <v>       0.00462963 </v>
   <v>       0.00462963 </v>
   <v>       0.00115741 </v>
   <v>       0.00462963 </v>
   <v>       0.00462963 </v>
   <v>       0.00462963 </v>
   <v>       0.00462963 </v>
   <v>       0.00462963 </v>
   <v>       0.00462963 </v>
   <v>       0.00462963 </v>
   <v>       0.00231481 </v>
   <v>       0.00462963 </v>
   <v>       0.00925926 </v>
   <v>       0.00462963 </v>
   <v>       0.00462963 </v>
   <v>       0.00462963 </v>
   <v>       0.00925926 </v>
   <v>       0.00462963 </v>
   <v>       0.00925926 </v>
   <v>       0.00462963 </v>
   <v>       0.00231481 </v>
   <v>       0.00925926 </v>
   <v>       0.00925926 </v>
   <v>       0.00462963 </v>
   <v>       0.00925926 </v>
   <v>       0.00925926 </v>
   <v>       0.00925926 </v>
   <v>       0.00231481 </v>
   <v>       0.00925926 </v>
   <v>       0.00925926 </v>
   <v>       0.00462963 </v>
   <v>       0.00925926 </v>
   <v>       0.00462963 </v>
   <v>       0.00462963 </v>
   <v>       0.00115741 </v>
   <v>       0.00462963 </v>
   <v>       0.00462963 </v>
   <v>       0.00462963 </v>
   <v>       0.00462963 </v>
   <v>       0.00462963 </v>
   <v>       0.00231481 </v>
   <v>       0.00115741 </v>
   <v>       0.00462963 </v>
   <v>       0.00925926 </v>
   <v>       0.00462963 </v>
   <v>       0.00925926 </v>
   <v>       0.00925926 </v>
   <v>       0.00231481 </v>
   <v>       0.00925926 </v>
   <v>       0.00462963 </v>
   <v>       0.00462963 </v>
   <v>       0.00115741 </v>
   <v>       0.00462963 </v>
   <v>       0.00462963 </v>
   <v>       0.00462963 </v>
   <v>       0.00231481 </v>
   <v>       0.00462963 </v>
   <v>       0.00925926 </v>
   <v>       0.00231481 </v>
   <v>       0.00462963 </v>
   <v>       0.00115741 </v>
   <v>       0.00462963 </v>
   <v>       0.00231481 </v>
   <v>       0.00231481 </v>
   <v>       0.00057870 </v>
  </varray>
 </kpoints>
 <parameters>
  <separator name="general" >
   <i type="string" name="SYSTEM">unknown system</i>
   <i type="logical" name="LCOMPAT"> F  </i>
  </separator>
  <separator name="electronic" >
   <i type="string" name="PREC">accura</i>
   <i name="ENMAX">    520.00000000</i>
   <i name="ENAUG">    427.85300000</i>
   <i name="EDIFF">      0.00000001</i>
   <i type="int" name="IALGO">    38</i>
   <i type="int" name="IWAVPR">    11</i>
   <i type="int" name="NBANDS">    16</i>
   <i name="NELECT">     16.00000000</i>
   <i type="int" name="TURBO">     0</i>
   <i type="int" name="IRESTART">     0</i>
   <i type="int" name="NREBOOT">     0</i>
   <i type="int" name="NMIN">     0</i>
   <i name="EREF">      0.00000000</i>
   <separator name="electronic smearing" >
    <i type="int" name="ISMEAR">     0</i>
    <i name="SIGMA">      0.01000000</i>
    <i name="KSPACING">      0.50000000</i>
    <i type="logical" name="KGAMMA"> T  </i>
   </separator>
   <separator name="electronic projectors" >
    <i type="logical" name="LREAL"> F  </i>
    <v name="ROPT">      0.00000000      0.00000000</v>
    <i type="int" name="LMAXPAW">  -100</i>
    <i type="int" name="LMAXMIX">     2</i>
    <i type="logical" name="NLSPLINE"> F  </i>
   </separator>
   <separator name="electronic startup" >
    <i type="int" name="ISTART">     0</i>
    <i type="int" name="ICHARG">     2</i>
    <i type="int" name="INIWAV">     1</i>
   </separator>
   <separator name="electronic spin" >
    <i type="int" name="ISPIN">     1</i>
    <i type="logical" name="LNONCOLLINEAR"> F  </i>
    <v name="MAGMOM">      1.00000000      1.00000000</v>
    <i name="NUPDOWN">     -1.00000000</i>
    <i type="logical" name="LSORBIT"> F  </i>
    <v name="SAXIS">      0.00000000      0.00000000      1.00000000</v>
    <i type="logical" name="LSPIRAL"> F  </i>
    <v name="QSPIRAL">      0.00000000      0.00000000      0.00000000</v>
    <i type="logical" name="LZEROZ"> F  </i>
   </separator>
   <separator name="electronic exchange-correlation" >
    <i type="logical" name="LASPH"> F  </i>
    <i type="logical" name="LMETAGGA"> F  </i>
   </separator>
   <separator name="electronic convergence" >
    <i type="int" name="NELM">   100</i>
    <i type="int" name="NELMDL">    -5</i>
    <i type="int" name="NELMIN">     2</i>
    <i name="ENINI">    520.00000000</i>
    <separator name="electronic convergence detail" >
     <i type="logical" name="LDIAG"> T  </i>
     <i type="logical" name="LSUBROT"> F  </i>
     <i name="WEIMIN">      0.00100000</i>
     <i name="EBREAK">      0.00000000</i>
     <i name="DEPER">      0.30000000</i>
     <i type="int" name="NRMM">     4</i>
     <i name="TIME">      0.40000000</i>
    </separator>
   </separator>
   <separator name="electronic mixer" >
    <i name="AMIX">      0.40000000</i>
    <i name="BMIX">      1.00000000</i>
    <i name="AMIN">      0.10000000</i>
    <i name="AMIX_MAG">      1.60000000</i>
    <i name="BMIX_MAG">      1.00000000</i>
    <separator name="electronic mixer details" >
     <i type="int" name="IMIX">     4</i>
     <i type="logical" name="MIXFIRST"> F  </i>
     <i type="int" name="MAXMIX">   -45</i>
     <i name="WC">    100.00000000</i>
     <i type="int" name="INIMIX">     1</i>
     <i type="int" name="MIXPRE">     1</i>
     <i type="int" name="MREMOVE">     5</i>
    </separator>
   </separator>
   <separator name="electronic dipolcorrection" >
    <i type="logical" name="LDIPOL"> F  </i>
    <i type="logical" name="LMONO"> F  </i>
    <i type="int" name="IDIPOL">     0</i>
    <i name="EPSILON">      1.00000000</i>
    <v name="DIPOL">   -100.00000000   -100.00000000   -100.00000000</v>
    <i name="EFIELD">      0.00000000</i>
   </separator>
  </separator>
  <separator name="grids" >
   <i type="int" name="NGX">    40</i>
   <i type="int" name="NGY">    40</i>
   <i type="int" name="NGZ">    40</i>
   <i type="int" name="NGXF">    80</i>
   <i type="int" name="NGYF">    80</i>
   <i type="int" name="NGZF">    80</i>
   <i type="logical" name="ADDGRID"> F  </i>
  </separator>
  <separator name="ionic" >
   <i type="int" name="NSW">     1</i>
   <i type="int" name="IBRION">     8</i>
   <i type="int" name="MDALGO">     0</i>
   <i type="int" name="ISIF">     2</i>
   <i name="PSTRESS">      0.00000000</i>
   <i name="EDIFFG">      0.00000010</i>
   <i type="int" name="NFREE">     0</i>
   <i name="POTIM">      0.50000000</i>
   <i name="SMASS">     -3.00000000</i>
   <i name="SCALEE">      1.00000000</i>
  </separator>
  <separator name="ionic md" >
   <i name="TEBEG">      0.00010000</i>
   <i name="TEEND">      0.00010000</i>
   <i type="int" name="NBLOCK">     1</i>
   <i type="int" name="KBLOCK">     1</i>
   <i type="int" name="NPACO">   256</i>
   <i name="APACO">     16.00000000</i>
  </separator>
  <separator name="symmetry" >
   <i type="int" name="ISYM">     2</i>
   <i name="SYMPREC">      0.00000001</i>
  </separator>
  <separator name="dos" >
   <i type="int" name="LORBIT">     0</i>
   <v name="RWIGS">     -1.00000000     -1.00000000</v>
   <i type="int" name="NEDOS">   301</i>
   <i name="EMIN">     10.00000000</i>
   <i name="EMAX">    -10.00000000</i>
   <i name="EFERMI">      0.00000000</i>
  </separator>
  <separator name="writing" >
   <i type="int" name="NWRITE">     2</i>
   <i type="logical" name="LWAVE"> F  </i>
   <i type="logical" name="LDOWNSAMPLE"> F  </i>
   <i type="logical" name="LCHARG"> T  </i>
   <i type="logical" name="LPARD"> F  </i>
   <i type="logical" name="LVTOT"> F  </i>
   <i type="logical" name="LVHAR"> F  </i>
   <i type="logical" name="LELF"> F  </i>
   <i type="logical" name="LOPTICS"> F  </i>
   <v name="STM">      0.00000000      0.00000000      0.00000000      0.00000000      0.00000000      0.00000000      0.00000000</v>
  </separator>
  <separator name="performance" >
   <i type="int" name="NPAR">     8</i>
   <i type="int" name="NSIM">     4</i>
   <i type="int" name="NBLK">    -1</i>
   <i type="logical" name="LPLANE"> T  </i>
   <i type="logical" name="LSCALAPACK"> T  </i>
   <i type="logical" name="LSCAAWARE"> F  </i>
   <i type="logical" name="LSCALU"> F  </i>
   <i type="logical" name="LASYNC"> F  </i>
   <i type="logical" name="LORBITALREAL"> F  </i>
  </separator>
  <separator name="miscellaneous" >
   <i type="int" name="IDIOT">     3</i>
   <i type="int" name="ISPECIAL">     0</i>
   <i type="logical" name="LMUSIC"> F  </i>
   <v name="POMASS">     39.09800000    126.90400000</v>
   <v name="DARWINR">      0.00000000      0.00000000</v>
   <v name="DARWINV">      1.00000000      1.00000000</v>
   <i type="logical" name="LCORR"> T  </i>
  </separator>
  <i type="logical" name="GGA_COMPAT"> T  </i>
  <i type="logical" name="LBERRY"> F  </i>
  <i type="int" name="ICORELEVEL">     0</i>
  <i type="logical" name="LDAU"> F  </i>
  <i type="int" name="I_CONSTRAINED_M">     0</i>
  <separator name="electronic exchange-correlation" >
   <i type="string" name="GGA">--</i>
   <i type="int" name="VOSKOWN">     0</i>
   <i type="logical" name="LHFCALC"> F  </i>
   <i type="string" name="PRECFOCK"></i>
   <i type="logical" name="LSYMGRAD"> F  </i>
   <i type="logical" name="LHFONE"> F  </i>
   <i type="logical" name="LRHFCALC"> F  </i>
   <i type="logical" name="LTHOMAS"> F  </i>
   <i type="logical" name="LMODELHF"> F  </i>
   <i name="ENCUT4O">     -1.00000000</i>
   <i type="int" name="EXXOEP">     0</i>
   <i type="int" name="FOURORBIT">     0</i>
   <i name="AEXX">      0.00000000</i>
   <i name="HFALPHA">      0.00000000</i>
   <i name="MCALPHA">      0.00000000</i>
   <i name="ALDAX">      1.00000000</i>
   <i name="AGGAX">      1.00000000</i>
   <i name="ALDAC">      1.00000000</i>
   <i name="AGGAC">      1.00000000</i>
   <i type="int" name="NKREDX">     1</i>
   <i type="int" name="NKREDY">     1</i>
   <i type="int" name="NKREDZ">     1</i>
   <i type="logical" name="SHIFTRED"> F  </i>
   <i type="logical" name="ODDONLY"> F  </i>
   <i type="logical" name="EVENONLY"> F  </i>
   <i type="int" name="LMAXFOCK">     0</i>
   <i type="int" name="NMAXFOCKAE">     0</i>
   <i type="logical" name="LFOCKAEDFT"> F  </i>
   <i name="HFSCREEN">      0.00000000</i>
   <i name="HFSCREENC">      0.00000000</i>
   <i type="int" name="NBANDSGWLOW">     0</i>
  </separator>
  <separator name="vdW DFT" >
   <i type="logical" name="LUSE_VDW"> F  </i>
   <i name="Zab_VDW">     -0.84910000</i>
   <i name="PARAM1">      0.12340000</i>
   <i name="PARAM2">      1.00000000</i>
   <i name="PARAM3">      0.00000000</i>
  </separator>
  <separator name="model GW" >
   <i type="int" name="MODEL_GW">     0</i>
   <i name="MODEL_EPS0">     26.67208995</i>
   <i name="MODEL_ALPHA">      1.00000000</i>
  </separator>
  <separator name="linear response parameters" >
   <i type="logical" name="LEPSILON"> T  </i>
   <i type="logical" name="LRPA"> F  </i>
   <i type="logical" name="LNABLA"> F  </i>
   <i type="logical" name="LVEL"> F  </i>
   <i type="int" name="KINTER">     0</i>
   <i name="CSHIFT">      0.10000000</i>
   <i name="OMEGAMAX">     -1.00000000</i>
   <i name="DEG_THRESHOLD">      0.00200000</i>
   <i name="RTIME">     -0.10000000</i>
   <i name="WPLASMAI">      0.00000000</i>
   <v name="DFIELD">      0.00000000      0.00000000      0.00000000</v>
   <v name="WPLASMA">      0.00000000      0.00000000      0.00000000      0.00000000      0.00000000      0.00000000      0.00000000      0.00000000      0.00000000</v>
  </separator>
  <separator name="orbital magnetization" >
   <i type="logical" name="NUCIND"> F  </i>
   <v name="MAGPOS">      0.00000000      0.00000000      0.00000000</v>
   <i type="logical" name="LNICSALL"> T  </i>
   <i type="logical" name="ORBITALMAG"> F  </i>
   <i type="logical" name="LMAGBLOCH"> F  </i>
   <i type="logical" name="LCHIMAG"> F  </i>
   <i type="logical" name="LGAUGE"> T  </i>
   <i type="int" name="MAGATOM">     0</i>
   <v name="MAGDIPOL">      0.00000000      0.00000000      0.00000000</v>
   <v name="AVECCONST">      0.00000000      0.00000000      0.00000000</v>
  </separator>
  <separator name="response functions" >
   <i type="logical" name="LADDER"> F  </i>
   <i type="logical" name="LRPAFORCE"> F  </i>
   <i type="logical" name="LFXC"> F  </i>
   <i type="logical" name="LHARTREE"> T  </i>
   <i type="int" name="IBSE">     0</i>
   <v type="int" name="KPOINT">    -1     0     0     0</v>
   <i type="logical" name="LTCTE"> F  </i>
   <i type="logical" name="LTETE"> F  </i>
   <i type="logical" name="LTRIPLET"> F  </i>
   <i type="logical" name="LFXCEPS"> F  </i>
   <i type="logical" name="LFXHEG"> F  </i>
   <i type="int" name="NATURALO">     2</i>
   <i type="logical" name="L2ORDER"> F  </i>
   <i type="logical" name="LMP2LT"> F  </i>
   <i type="logical" name="LUSEW"> F  </i>
   <i name="ENCUTGW">     -2.00000000</i>
   <i name="ENCUTGWSOFT">     -2.00000000</i>
   <i name="ENCUTLF">     -1.00000000</i>
   <i type="int" name="LMAXMP2">    -1</i>
   <i name="SCISSOR">      0.00000000</i>
   <i type="int" name="NOMEGA">     0</i>
   <i type="int" name="NOMEGAR">     0</i>
   <i type="int" name="NBANDSGW">    -1</i>
   <i type="int" name="NBANDSO">    -1</i>
   <i type="int" name="NBANDSV">    -1</i>
   <i type="int" name="NELM">   100</i>
   <i type="int" name="NELMHF">     1</i>
   <i type="int" name="DIM">     3</i>
   <i type="int" name="ANTIRES">     0</i>
   <i name="OMEGAMAX">    -30.00000000</i>
   <i name="OMEGAMIN">    -30.00000000</i>
   <i name="OMEGATL">   -200.00000000</i>
   <i type="int" name="OMEGAGRID">   140</i>
   <i name="CSHIFT">     -0.10000000</i>
   <i type="logical" name="SELFENERGY"> F  </i>
   <i type="logical" name="LSPECTRAL"> F  </i>
   <i type="logical" name="LSPECTRALGW"> F  </i>
   <i type="logical" name="LSINGLES"> F  </i>
   <i type="logical" name="LFERMIGW"> F  </i>
   <i type="logical" name="ODDONLYGW"> F  </i>
   <i type="logical" name="EVENONLYGW"> F  </i>
   <i type="int" name="NKREDLFX">     1</i>
   <i type="int" name="NKREDLFY">     1</i>
   <i type="int" name="NKREDLFZ">     1</i>
   <i type="int" name="MAXMEM">  2800</i>
   <i type="int" name="TELESCOPE">     0</i>
   <i type="int" name="TAUPAR">     1</i>
   <i type="int" name="OMEGAPAR">    -1</i>
   <i name="LAMBDA">      1.00000000</i>
  </separator>
  <separator name="External order field" >
   <i name="OFIELD_KAPPA">      0.00000000</i>
   <v name="OFIELD_K">      0.00000000      0.00000000      0.00000000</v>
   <i name="OFIELD_Q6_NEAR">      0.00000000</i>
   <i name="OFIELD_Q6_FAR">      0.00000000</i>
   <i name="OFIELD_A">      0.00000000</i>
  </separator>
 </parameters>
 <atominfo>
  <atoms>       2 </atoms>
  <types>       2 </types>
  <array name="atoms" >
   <dimension dim="1">ion</dimension>
   <field type="string">element</field>
   <field type="int">atomtype</field>
   <set>
    <rc><c>K </c><c>   1</c></rc>
    <rc><c>I </c><c>   2</c></rc>
   </set>
  </array>
  <array name="atomtypes" >
   <dimension dim="1">type</dimension>
   <field type="int">atomspertype</field>
   <field type="string">element</field>
   <field>mass</field>
   <field>valence</field>
   <field type="string">pseudopotential</field>
   <set>
    <rc><c>   1</c><c>K </c><c>     39.09800000</c><c>      9.00000000</c><c>  PAW_PBE K_sv 06Sep2000                </c></rc>
    <rc><c>   1</c><c>I </c><c>    126.90400000</c><c>      7.00000000</c><c>  PAW_PBE I 08Apr2002                   </c></rc>
   </set>
  </array>
 </atominfo>
 <structure name="initialpos" >
  <crystal>
   <varray name="basis" >
    <v>      -3.54243534       0.00000000       3.54243534 </v>
    <v>       0.00000000       3.54243534       3.54243534 </v>
    <v>      -3.54243534       3.54243534       0.00000000 </v>
   </varray>
   <i name="volume">     88.90696651 </i>
   <varray name="rec_basis" >
    <v>      -0.14114584      -0.14114584       0.14114584 </v>
    <v>       0.14114584       0.14114584       0.14114584 </v>
    <v>      -0.14114584       0.14114584      -0.14114584 </v>
   </varray>
  </crystal>
  <varray name="positions" >
   <v>       0.00000000       0.00000000       0.00000000 </v>
   <v>       0.49999996       0.50000004       0.49999996 </v>
  </varray>
 </structure>
 <calculation>
  <scstep>
   <time name="dav">    2.13    2.14</time>
   <time name="total">    2.17    2.18</time>
   <energy>
    <i name="alphaZ">     28.23447334 </i>
    <i name="ewald">   -745.24417044 </i>
    <i name="hartreedc">   -270.19356150 </i>
    <i name="XCdc">     21.95767228 </i>
    <i name="pawpsdc">    865.95253967 </i>
    <i name="pawaedc">   -834.62513174 </i>
    <i name="eentropy">     -0.00001124 </i>
    <i name="bandstr">    -69.24157893 </i>
    <i name="atom">   1090.87225011 </i>
    <i name="e_fr_energy">     87.71248154 </i>
    <i name="e_wo_entrp">     87.71249279 </i>
    <i name="e_0_energy">     87.71248716 </i>
   </energy>
  </scstep>
  <scstep>
   <time name="dav">    2.57    2.58</time>
   <time name="total">    2.57    2.59</time>
   <energy>
    <i name="e_fr_energy">     -0.17591592 </i>
    <i name="e_wo_entrp">     -0.17591592 </i>
    <i name="e_0_energy">     -0.17591592 </i>
   </energy>
  </scstep>
  <scstep>
   <time name="dav">    2.71    2.72</time>
   <time name="total">    2.71    2.72</time>
   <energy>
    <i name="e_fr_energy">     -5.37299269 </i>
    <i name="e_wo_entrp">     -5.37299269 </i>
    <i name="e_0_energy">     -5.37299269 </i>
   </energy>
  </scstep>
  <scstep>
   <time name="dav">    2.94    2.95</time>
   <time name="total">    2.94    2.95</time>
   <energy>
    <i name="e_fr_energy">     -5.63892523 </i>
    <i name="e_wo_entrp">     -5.63892523 </i>
    <i name="e_0_energy">     -5.63892523 </i>
   </energy>
  </scstep>
  <scstep>
   <time name="dav">    2.75    2.76</time>
   <time name="total">    2.89    2.90</time>
   <energy>
    <i name="e_fr_energy">     -5.64110328 </i>
    <i name="e_wo_entrp">     -5.64110328 </i>
    <i name="e_0_energy">     -5.64110328 </i>
   </energy>
  </scstep>
  <scstep>
   <time name="dav">    2.58    2.59</time>
   <time name="total">    2.75    2.76</time>
   <energy>
    <i name="e_fr_energy">     -5.55716733 </i>
    <i name="e_wo_entrp">     -5.55716733 </i>
    <i name="e_0_energy">     -5.55716733 </i>
   </energy>
  </scstep>
  <scstep>
   <time name="dav">    2.65    2.66</time>
   <time name="total">    2.82    2.83</time>
   <energy>
    <i name="e_fr_energy">     -5.55313906 </i>
    <i name="e_wo_entrp">     -5.55313906 </i>
    <i name="e_0_energy">     -5.55313906 </i>
   </energy>
  </scstep>
  <scstep>
   <time name="dav">    2.33    2.34</time>
   <time name="total">    2.51    2.52</time>
   <energy>
    <i name="e_fr_energy">     -5.55836483 </i>
    <i name="e_wo_entrp">     -5.55836483 </i>
    <i name="e_0_energy">     -5.55836483 </i>
   </energy>
  </scstep>
  <scstep>
   <time name="dav">    2.82    2.82</time>
   <time name="total">    2.99    3.00</time>
   <energy>
    <i name="e_fr_energy">     -5.55884356 </i>
    <i name="e_wo_entrp">     -5.55884356 </i>
    <i name="e_0_energy">     -5.55884356 </i>
   </energy>
  </scstep>
  <scstep>
   <time name="dav">    2.53    2.54</time>
   <time name="total">    2.70    2.71</time>
   <energy>
    <i name="e_fr_energy">     -5.55893584 </i>
    <i name="e_wo_entrp">     -5.55893584 </i>
    <i name="e_0_energy">     -5.55893584 </i>
   </energy>
  </scstep>
  <scstep>
   <time name="dav">    2.50    2.51</time>
   <time name="total">    2.67    2.68</time>
   <energy>
    <i name="e_fr_energy">     -5.55899008 </i>
    <i name="e_wo_entrp">     -5.55899008 </i>
    <i name="e_0_energy">     -5.55899008 </i>
   </energy>
  </scstep>
  <scstep>
   <time name="dav">    2.67    2.68</time>
   <time name="total">    2.85    2.85</time>
   <energy>
    <i name="e_fr_energy">     -5.55898944 </i>
    <i name="e_wo_entrp">     -5.55898944 </i>
    <i name="e_0_energy">     -5.55898944 </i>
   </energy>
  </scstep>
  <scstep>
   <time name="dav">    2.55    2.56</time>
   <time name="total">    2.73    2.73</time>
   <energy>
    <i name="e_fr_energy">     -5.55898953 </i>
    <i name="e_wo_entrp">     -5.55898953 </i>
    <i name="e_0_energy">     -5.55898953 </i>
   </energy>
  </scstep>
  <scstep>
   <time name="dav">    2.66    2.67</time>
   <time name="total">    2.83    2.84</time>
   <energy>
    <i name="e_fr_energy">     -5.55898972 </i>
    <i name="e_wo_entrp">     -5.55898972 </i>
    <i name="e_0_energy">     -5.55898972 </i>
   </energy>
  </scstep>
  <scstep>
   <time name="dav">    2.40    2.41</time>
   <time name="total">    2.57    2.58</time>
   <energy>
    <i name="e_fr_energy">     -5.55898968 </i>
    <i name="e_wo_entrp">     -5.55898968 </i>
    <i name="e_0_energy">     -5.55898968 </i>
   </energy>
  </scstep>
  <scstep>
   <time name="dav">    2.30    2.31</time>
   <time name="total">    2.47    2.48</time>
   <energy>
    <i name="e_fr_energy">     -5.55898969 </i>
    <i name="e_wo_entrp">     -5.55898969 </i>
    <i name="e_0_energy">     -5.55898969 </i>
   </energy>
  </scstep>
  <scstep>
   <time name="dav">    2.22    2.22</time>
   <time name="total">    2.39    2.40</time>
   <energy>
    <i name="e_fr_energy">     -5.55898971 </i>
    <i name="e_wo_entrp">     -5.55898971 </i>
    <i name="e_0_energy">     -5.55898971 </i>
   </energy>
  </scstep>
  <scstep>
   <time name="dav">    1.97    1.98</time>
   <time name="total">    2.00    2.01</time>
   <energy>
    <i name="alphaZ">     28.23447334 </i>
    <i name="ewald">   -745.24417044 </i>
    <i name="hartreedc">   -271.22790100 </i>
    <i name="XCdc">     22.40157739 </i>
    <i name="pawpsdc">    961.06486805 </i>
    <i name="pawaedc">   -931.09348049 </i>
    <i name="eentropy">     -0.00000000 </i>
    <i name="bandstr">   -160.56660667 </i>
    <i name="atom">   1090.87225011 </i>
    <i name="e_fr_energy">     -5.55898971 </i>
    <i name="e_wo_entrp">     -5.55898971 </i>
    <i name="e_0_energy">     -5.55898971 </i>
   </energy>
  </scstep>
  <structure>
   <crystal>
    <varray name="basis" >
     <v>      -3.54243534       0.00000000       3.54243534 </v>
     <v>       0.00000000       3.54243534       3.54243534 </v>
     <v>      -3.54243534       3.54243534       0.00000000 </v>
    </varray>
    <i name="volume">     88.90696651 </i>
    <varray name="rec_basis" >
     <v>      -0.14114584      -0.14114584       0.14114584 </v>
     <v>       0.14114584       0.14114584       0.14114584 </v>
     <v>      -0.14114584       0.14114584      -0.14114584 </v>
    </varray>
   </crystal>
   <varray name="positions" >
    <v>       0.00000000       0.00000000       0.00000000 </v>
    <v>       0.49999996       0.50000004       0.49999996 </v>
   </varray>
  </structure>
  <varray name="forces" >
   <v>       0.00000028      -0.00000000      -0.00000000 </v>
   <v>      -0.00000028       0.00000000       0.00000000 </v>
  </varray>
  <varray name="stress" >
   <v>       5.03452653       0.00000000       0.00000000 </v>
   <v>      -0.00000000       5.03452647      -0.00000000 </v>
   <v>       0.00000000      -0.00000000       5.03452647 </v>
  </varray>
  <energy>
   <i name="e_fr_energy">     -5.55898971 </i>
   <i name="e_wo_entrp">     -5.55898971 </i>
   <i name="e_0_energy">     -0.00000000 </i>
  </energy>
  <scstep>
   <time name="total">    2.37    2.37</time>
   <energy>
    <i name="e_fr_energy">     -0.51624214 </i>
    <i name="e_wo_entrp">     -0.51624214 </i>
    <i name="e_0_energy">     -0.51624214 </i>
   </energy>
  </scstep>
  <scstep>
   <time name="total">    2.47    2.47</time>
   <energy>
    <i name="e_fr_energy">     -0.53433977 </i>
    <i name="e_wo_entrp">     -0.53433977 </i>
    <i name="e_0_energy">     -0.53433977 </i>
   </energy>
  </scstep>
  <scstep>
   <time name="total">    2.56    2.56</time>
   <energy>
    <i name="e_fr_energy">     -0.53783557 </i>
    <i name="e_wo_entrp">     -0.53783557 </i>
    <i name="e_0_energy">     -0.53783557 </i>
   </energy>
  </scstep>
  <scstep>
   <time name="total">    2.48    2.48</time>
   <energy>
    <i name="e_fr_energy">     -0.53840129 </i>
    <i name="e_wo_entrp">     -0.53840129 </i>
    <i name="e_0_energy">     -0.53840129 </i>
   </energy>
  </scstep>
  <scstep>
   <time name="total">    2.49    2.49</time>
   <energy>
    <i name="e_fr_energy">     -0.53847265 </i>
    <i name="e_wo_entrp">     -0.53847265 </i>
    <i name="e_0_energy">     -0.53847265 </i>
   </energy>
  </scstep>
  <scstep>
   <time name="total">    2.48    2.48</time>
   <energy>
    <i name="e_fr_energy">     -0.53848383 </i>
    <i name="e_wo_entrp">     -0.53848383 </i>
    <i name="e_0_energy">     -0.53848383 </i>
   </energy>
  </scstep>
  <scstep>
   <time name="total">    2.42    2.42</time>
   <energy>
    <i name="e_fr_energy">     -0.53848590 </i>
    <i name="e_wo_entrp">     -0.53848590 </i>
    <i name="e_0_energy">     -0.53848590 </i>
   </energy>
  </scstep>
  <scstep>
   <time name="total">    2.40    2.40</time>
   <energy>
    <i name="e_fr_energy">     -0.53848627 </i>
    <i name="e_wo_entrp">     -0.53848627 </i>
    <i name="e_0_energy">     -0.53848627 </i>
   </energy>
  </scstep>
  <scstep>
   <time name="total">    2.41    2.41</time>
   <energy>
    <i name="e_fr_energy">     -0.53848634 </i>
    <i name="e_wo_entrp">     -0.53848634 </i>
    <i name="e_0_energy">     -0.53848634 </i>
   </energy>
  </scstep>
  <scstep>
   <time name="total">    2.40    2.40</time>
   <energy>
    <i name="e_fr_energy">     -0.53848635 </i>
    <i name="e_wo_entrp">     -0.53848635 </i>
    <i name="e_0_energy">     -0.53848635 </i>
   </energy>
  </scstep>
  <scstep>
   <time name="total">    2.36    2.36</time>
   <energy>
    <i name="e_fr_energy">     -0.53848636 </i>
    <i name="e_wo_entrp">     -0.53848636 </i>
    <i name="e_0_energy">     -0.53848636 </i>
   </energy>
  </scstep>
  <scstep>
   <time name="total">    2.38    2.38</time>
   <energy>
    <i name="e_fr_energy">     -0.55185593 </i>
    <i name="e_wo_entrp">     -0.55185593 </i>
    <i name="e_0_energy">     -0.55185593 </i>
   </energy>
  </scstep>
  <scstep>
   <time name="total">    2.54    2.54</time>
   <energy>
    <i name="e_fr_energy">     -0.57133261 </i>
    <i name="e_wo_entrp">     -0.57133261 </i>
    <i name="e_0_energy">     -0.57133261 </i>
   </energy>
  </scstep>
  <scstep>
   <time name="total">    2.59    2.59</time>
   <energy>
    <i name="e_fr_energy">     -0.57472537 </i>
    <i name="e_wo_entrp">     -0.57472537 </i>
    <i name="e_0_energy">     -0.57472537 </i>
   </energy>
  </scstep>
  <scstep>
   <time name="total">    2.55    2.55</time>
   <energy>
    <i name="e_fr_energy">     -0.57529247 </i>
    <i name="e_wo_entrp">     -0.57529247 </i>
    <i name="e_0_energy">     -0.57529247 </i>
   </energy>
  </scstep>
  <scstep>
   <time name="total">    2.53    2.53</time>
   <energy>
    <i name="e_fr_energy">     -0.57535948 </i>
    <i name="e_wo_entrp">     -0.57535948 </i>
    <i name="e_0_energy">     -0.57535948 </i>
   </energy>
  </scstep>
  <scstep>
   <time name="total">    2.54    2.54</time>
   <energy>
    <i name="e_fr_energy">     -0.57536919 </i>
    <i name="e_wo_entrp">     -0.57536919 </i>
    <i name="e_0_energy">     -0.57536919 </i>
   </energy>
  </scstep>
  <scstep>
   <time name="total">    2.54    2.54</time>
   <energy>
    <i name="e_fr_energy">     -0.57537078 </i>
    <i name="e_wo_entrp">     -0.57537078 </i>
    <i name="e_0_energy">     -0.57537078 </i>
   </energy>
  </scstep>
  <scstep>
   <time name="total">    2.53    2.53</time>
   <energy>
    <i name="e_fr_energy">     -0.57537103 </i>
    <i name="e_wo_entrp">     -0.57537103 </i>
    <i name="e_0_energy">     -0.57537103 </i>
   </energy>
  </scstep>
  <scstep>
   <time name="total">    2.51    2.51</time>
   <energy>
    <i name="e_fr_energy">     -0.57537108 </i>
    <i name="e_wo_entrp">     -0.57537108 </i>
    <i name="e_0_energy">     -0.57537108 </i>
   </energy>
  </scstep>
  <scstep>
   <time name="total">    2.49    2.49</time>
   <energy>
    <i name="e_fr_energy">     -0.57537109 </i>
    <i name="e_wo_entrp">     -0.57537109 </i>
    <i name="e_0_energy">     -0.57537109 </i>
   </energy>
  </scstep>
  <scstep>
   <time name="total">    2.39    2.39</time>
   <energy>
    <i name="e_fr_energy">     -0.48064593 </i>
    <i name="e_wo_entrp">     -0.48064593 </i>
    <i name="e_0_energy">     -0.48064593 </i>
   </energy>
  </scstep>
  <scstep>
   <time name="total">    2.49    2.49</time>
   <energy>
    <i name="e_fr_energy">     -0.49733349 </i>
    <i name="e_wo_entrp">     -0.49733349 </i>
    <i name="e_0_energy">     -0.49733349 </i>
   </energy>
  </scstep>
  <scstep>
   <time name="total">    2.57    2.57</time>
   <energy>
    <i name="e_fr_energy">     -0.50094331 </i>
    <i name="e_wo_entrp">     -0.50094331 </i>
    <i name="e_0_energy">     -0.50094331 </i>
   </energy>
  </scstep>
  <scstep>
   <time name="total">    2.50    2.50</time>
   <energy>
    <i name="e_fr_energy">     -0.50151020 </i>
    <i name="e_wo_entrp">     -0.50151020 </i>
    <i name="e_0_energy">     -0.50151020 </i>
   </energy>
  </scstep>
  <scstep>
   <time name="total">    2.49    2.49</time>
   <energy>
    <i name="e_fr_energy">     -0.50158632 </i>
    <i name="e_wo_entrp">     -0.50158632 </i>
    <i name="e_0_energy">     -0.50158632 </i>
   </energy>
  </scstep>
  <scstep>
   <time name="total">    2.45    2.45</time>
   <energy>
    <i name="e_fr_energy">     -0.50159902 </i>
    <i name="e_wo_entrp">     -0.50159902 </i>
    <i name="e_0_energy">     -0.50159902 </i>
   </energy>
  </scstep>
  <scstep>
   <time name="total">    2.44    2.44</time>
   <energy>
    <i name="e_fr_energy">     -0.50160157 </i>
    <i name="e_wo_entrp">     -0.50160157 </i>
    <i name="e_0_energy">     -0.50160157 </i>
   </energy>
  </scstep>
  <scstep>
   <time name="total">    2.41    2.41</time>
   <energy>
    <i name="e_fr_energy">     -0.50160205 </i>
    <i name="e_wo_entrp">     -0.50160205 </i>
    <i name="e_0_energy">     -0.50160205 </i>
   </energy>
  </scstep>
  <scstep>
   <time name="total">    2.45    2.45</time>
   <energy>
    <i name="e_fr_energy">     -0.50160216 </i>
    <i name="e_wo_entrp">     -0.50160216 </i>
    <i name="e_0_energy">     -0.50160216 </i>
   </energy>
  </scstep>
  <scstep>
   <time name="total">    2.42    2.42</time>
   <energy>
    <i name="e_fr_energy">     -0.50160218 </i>
    <i name="e_wo_entrp">     -0.50160218 </i>
    <i name="e_0_energy">     -0.50160218 </i>
   </energy>
  </scstep>
  <scstep>
   <time name="total">    2.42    2.42</time>
   <energy>
    <i name="e_fr_energy">     -0.50160218 </i>
    <i name="e_wo_entrp">     -0.50160218 </i>
    <i name="e_0_energy">     -0.50160218 </i>
   </energy>
  </scstep>
  <varray name="epsilon_rpa" >
   <v>       3.19197127      -0.00000000       0.00000000 </v>
   <v>      -0.00000000       3.19197269      -0.00000000 </v>
   <v>       0.00000000      -0.00000000       3.19197269 </v>
  </varray>
  <kpoints>
   <generation param="Gamma">
    <v type="int" name="divisions">      12       12       12 </v>
    <v name="usershift">      0.00000000       0.00000000       0.00000000 </v>
    <v name="genvec1">      0.08333333      -0.00000000      -0.00000000 </v>
    <v name="genvec2">     -0.00000000       0.08333333       0.00000000 </v>
    <v name="genvec3">      0.00000000       0.00000000       0.08333333 </v>
    <v name="shift">      0.00000000       0.00000000       0.00000000 </v>
   </generation>
   <varray name="kpointlist" >
    <v>       0.00000000       0.00000000       0.00000000 </v>
    <v>       0.08333333       0.00000000       0.00000000 </v>
    <v>       0.16666667       0.00000000       0.00000000 </v>
    <v>       0.25000000       0.00000000       0.00000000 </v>
    <v>       0.33333333       0.00000000       0.00000000 </v>
    <v>       0.41666667      -0.00000000      -0.00000000 </v>
    <v>       0.50000000       0.00000000       0.00000000 </v>
    <v>       0.08333333       0.08333333      -0.00000000 </v>
    <v>       0.16666667       0.08333333      -0.00000000 </v>
    <v>       0.25000000       0.08333333      -0.00000000 </v>
    <v>       0.33333333       0.08333333       0.00000000 </v>
    <v>       0.41666667       0.08333333       0.00000000 </v>
    <v>       0.50000000       0.08333333      -0.00000000 </v>
    <v>      -0.41666667       0.08333333      -0.00000000 </v>
    <v>      -0.33333333       0.08333333       0.00000000 </v>
    <v>      -0.25000000       0.08333333      -0.00000000 </v>
    <v>      -0.16666667       0.08333333      -0.00000000 </v>
    <v>      -0.08333333       0.08333333      -0.00000000 </v>
    <v>       0.16666667       0.16666667      -0.00000000 </v>
    <v>       0.25000000       0.16666667      -0.00000000 </v>
    <v>       0.33333333       0.16666667       0.00000000 </v>
    <v>       0.41666667       0.16666667       0.00000000 </v>
    <v>       0.50000000       0.16666667      -0.00000000 </v>
    <v>      -0.41666667       0.16666667      -0.00000000 </v>
    <v>      -0.33333333       0.16666667      -0.00000000 </v>
    <v>      -0.25000000       0.16666667       0.00000000 </v>
    <v>      -0.16666667       0.16666667      -0.00000000 </v>
    <v>       0.25000000       0.25000000      -0.00000000 </v>
    <v>       0.33333333       0.25000000      -0.00000000 </v>
    <v>       0.41666667       0.25000000       0.00000000 </v>
    <v>       0.50000000       0.25000000       0.00000000 </v>
    <v>      -0.41666667       0.25000000      -0.00000000 </v>
    <v>      -0.33333333       0.25000000      -0.00000000 </v>
    <v>      -0.25000000       0.25000000      -0.00000000 </v>
    <v>       0.33333333       0.33333333      -0.00000000 </v>
    <v>       0.41666667       0.33333333      -0.00000000 </v>
    <v>       0.50000000       0.33333333      -0.00000000 </v>
    <v>      -0.41666667       0.33333333      -0.00000000 </v>
    <v>      -0.33333333       0.33333333      -0.00000000 </v>
    <v>       0.41666667       0.41666667      -0.00000000 </v>
    <v>       0.50000000       0.41666667      -0.00000000 </v>
    <v>      -0.41666667       0.41666667       0.00000000 </v>
    <v>       0.50000000       0.50000000      -0.00000000 </v>
    <v>       0.08333333      -0.00000000       0.08333333 </v>
    <v>       0.16666667       0.00000000       0.08333333 </v>
    <v>       0.25000000       0.00000000       0.08333333 </v>
    <v>       0.33333333       0.00000000       0.08333333 </v>
    <v>       0.41666667      -0.00000000       0.08333333 </v>
    <v>       0.50000000      -0.00000000       0.08333333 </v>
    <v>      -0.41666667      -0.00000000       0.08333333 </v>
    <v>      -0.33333333       0.00000000       0.08333333 </v>
    <v>      -0.25000000      -0.00000000       0.08333333 </v>
    <v>      -0.16666667      -0.00000000       0.08333333 </v>
    <v>      -0.08333333      -0.00000000       0.08333333 </v>
    <v>       0.25000000       0.16666667       0.08333333 </v>
    <v>       0.33333333       0.16666667       0.08333333 </v>
    <v>       0.41666667       0.16666667       0.08333333 </v>
    <v>       0.50000000       0.16666667       0.08333333 </v>
    <v>      -0.41666667       0.16666667       0.08333333 </v>
    <v>       0.16666667       0.25000000       0.08333333 </v>
    <v>       0.33333333       0.25000000       0.08333333 </v>
    <v>       0.41666667       0.25000000       0.08333333 </v>
    <v>       0.50000000       0.25000000       0.08333333 </v>
    <v>      -0.41666667       0.25000000       0.08333333 </v>
    <v>      -0.33333333       0.25000000       0.08333333 </v>
    <v>      -0.25000000       0.25000000       0.08333333 </v>
    <v>      -0.16666667       0.25000000       0.08333333 </v>
    <v>       0.16666667       0.33333333       0.08333333 </v>
    <v>       0.25000000       0.33333333       0.08333333 </v>
    <v>       0.41666667       0.33333333       0.08333333 </v>
    <v>       0.50000000       0.33333333       0.08333333 </v>
    <v>      -0.41666667       0.33333333       0.08333333 </v>
    <v>      -0.33333333       0.33333333       0.08333333 </v>
    <v>      -0.25000000       0.33333333       0.08333333 </v>
    <v>       0.16666667       0.41666667       0.08333333 </v>
    <v>       0.25000000       0.41666667       0.08333333 </v>
    <v>       0.33333333       0.41666667       0.08333333 </v>
    <v>       0.50000000       0.41666667       0.08333333 </v>
    <v>      -0.41666667       0.41666667       0.08333333 </v>
    <v>      -0.33333333       0.41666667       0.08333333 </v>
    <v>       0.16666667       0.50000000       0.08333333 </v>
    <v>       0.25000000       0.50000000       0.08333333 </v>
    <v>       0.33333333       0.50000000       0.08333333 </v>
    <v>       0.41666667       0.50000000       0.08333333 </v>
    <v>      -0.41666667       0.50000000       0.08333333 </v>
    <v>       0.16666667      -0.41666667       0.08333333 </v>
    <v>       0.25000000      -0.41666667       0.08333333 </v>
    <v>       0.33333333      -0.41666667       0.08333333 </v>
    <v>       0.41666667      -0.41666667       0.08333333 </v>
    <v>       0.50000000      -0.41666667       0.08333333 </v>
    <v>       0.16666667      -0.33333333       0.08333333 </v>
    <v>       0.25000000      -0.33333333       0.08333333 </v>
    <v>       0.33333333      -0.33333333       0.08333333 </v>
    <v>       0.41666667      -0.33333333       0.08333333 </v>
    <v>       0.16666667      -0.25000000       0.08333333 </v>
    <v>       0.25000000      -0.25000000       0.08333333 </v>
    <v>       0.33333333      -0.25000000       0.08333333 </v>
    <v>       0.16666667      -0.16666667       0.08333333 </v>
    <v>       0.25000000      -0.16666667       0.08333333 </v>
    <v>       0.16666667      -0.08333333       0.08333333 </v>
    <v>       0.16666667      -0.00000000       0.16666667 </v>
    <v>       0.25000000      -0.00000000       0.16666667 </v>
    <v>       0.33333333       0.00000000       0.16666667 </v>
    <v>       0.41666667      -0.00000000       0.16666667 </v>
    <v>       0.50000000       0.00000000       0.16666667 </v>
    <v>      -0.41666667      -0.00000000       0.16666667 </v>
    <v>      -0.33333333      -0.00000000       0.16666667 </v>
    <v>      -0.25000000       0.00000000       0.16666667 </v>
    <v>      -0.16666667      -0.00000000       0.16666667 </v>
    <v>       0.50000000       0.33333333       0.16666667 </v>
    <v>      -0.41666667       0.33333333       0.16666667 </v>
    <v>      -0.33333333       0.33333333       0.16666667 </v>
    <v>       0.25000000       0.41666667       0.16666667 </v>
    <v>      -0.41666667       0.41666667       0.16666667 </v>
    <v>      -0.33333333       0.41666667       0.16666667 </v>
    <v>      -0.25000000       0.41666667       0.16666667 </v>
    <v>       0.25000000       0.50000000       0.16666667 </v>
    <v>       0.33333333       0.50000000       0.16666667 </v>
    <v>      -0.33333333       0.50000000       0.16666667 </v>
    <v>       0.25000000      -0.41666667       0.16666667 </v>
    <v>       0.33333333      -0.41666667       0.16666667 </v>
    <v>       0.41666667      -0.41666667       0.16666667 </v>
    <v>       0.25000000      -0.33333333       0.16666667 </v>
    <v>       0.33333333      -0.33333333       0.16666667 </v>
    <v>       0.41666667      -0.33333333       0.16666667 </v>
    <v>       0.50000000      -0.33333333       0.16666667 </v>
    <v>       0.25000000      -0.25000000       0.16666667 </v>
    <v>       0.33333333      -0.25000000       0.16666667 </v>
    <v>       0.41666667      -0.25000000       0.16666667 </v>
    <v>       0.25000000      -0.16666667       0.16666667 </v>
    <v>       0.33333333      -0.16666667       0.16666667 </v>
    <v>       0.25000000      -0.08333333       0.16666667 </v>
    <v>       0.25000000      -0.00000000       0.25000000 </v>
    <v>       0.33333333       0.00000000       0.25000000 </v>
    <v>       0.41666667       0.00000000       0.25000000 </v>
    <v>       0.50000000      -0.00000000       0.25000000 </v>
    <v>      -0.41666667      -0.00000000       0.25000000 </v>
    <v>      -0.33333333      -0.00000000       0.25000000 </v>
    <v>      -0.25000000      -0.00000000       0.25000000 </v>
    <v>      -0.25000000       0.50000000       0.25000000 </v>
    <v>       0.33333333      -0.41666667       0.25000000 </v>
    <v>       0.33333333      -0.33333333       0.25000000 </v>
    <v>       0.41666667      -0.33333333       0.25000000 </v>
    <v>       0.33333333      -0.25000000       0.25000000 </v>
    <v>       0.41666667      -0.25000000       0.25000000 </v>
    <v>       0.50000000      -0.25000000       0.25000000 </v>
    <v>       0.33333333      -0.16666667       0.25000000 </v>
    <v>       0.41666667      -0.16666667       0.25000000 </v>
    <v>       0.33333333      -0.08333333       0.25000000 </v>
    <v>       0.33333333      -0.00000000       0.33333333 </v>
    <v>       0.41666667      -0.00000000       0.33333333 </v>
    <v>       0.50000000      -0.00000000       0.33333333 </v>
    <v>      -0.41666667       0.00000000       0.33333333 </v>
    <v>      -0.33333333      -0.00000000       0.33333333 </v>
    <v>       0.41666667      -0.25000000       0.33333333 </v>
    <v>       0.41666667      -0.16666667       0.33333333 </v>
    <v>       0.50000000      -0.16666667       0.33333333 </v>
    <v>       0.41666667      -0.08333333       0.33333333 </v>
    <v>       0.41666667      -0.00000000       0.41666667 </v>
    <v>       0.50000000      -0.00000000       0.41666667 </v>
    <v>      -0.41666667       0.00000000       0.41666667 </v>
    <v>       0.50000000      -0.08333333       0.41666667 </v>
    <v>       0.50000000      -0.00000000       0.50000000 </v>
   </varray>
   <varray name="weights" >
    <v>       0.00057870 </v>
    <v>       0.00462963 </v>
    <v>       0.00462963 </v>
    <v>       0.00462963 </v>
    <v>       0.00462963 </v>
    <v>       0.00462963 </v>
    <v>       0.00231481 </v>
    <v>       0.00231481 </v>
    <v>       0.00925926 </v>
    <v>       0.00925926 </v>
    <v>       0.00925926 </v>
    <v>       0.00925926 </v>
    <v>       0.00925926 </v>
    <v>       0.00925926 </v>
    <v>       0.00925926 </v>
    <v>       0.00925926 </v>
    <v>       0.00925926 </v>
    <v>       0.00462963 </v>
    <v>       0.00231481 </v>
    <v>       0.00925926 </v>
    <v>       0.00925926 </v>
    <v>       0.00925926 </v>
    <v>       0.00925926 </v>
    <v>       0.00925926 </v>
    <v>       0.00925926 </v>
    <v>       0.00925926 </v>
    <v>       0.00462963 </v>
    <v>       0.00231481 </v>
    <v>       0.00925926 </v>
    <v>       0.00925926 </v>
    <v>       0.00925926 </v>
    <v>       0.00925926 </v>
    <v>       0.00925926 </v>
    <v>       0.00462963 </v>
    <v>       0.00231481 </v>
    <v>       0.00925926 </v>
    <v>       0.00925926 </v>
    <v>       0.00925926 </v>
    <v>       0.00462963 </v>
    <v>       0.00231481 </v>
    <v>       0.00925926 </v>
    <v>       0.00462963 </v>
    <v>       0.00115741 </v>
    <v>       0.00115741 </v>
    <v>       0.00462963 </v>
    <v>       0.00462963 </v>
    <v>       0.00462963 </v>
    <v>       0.00462963 </v>
    <v>       0.00462963 </v>
    <v>       0.00462963 </v>
    <v>       0.00462963 </v>
    <v>       0.00462963 </v>
    <v>       0.00462963 </v>
    <v>       0.00231481 </v>
    <v>       0.00462963 </v>
    <v>       0.00925926 </v>
    <v>       0.00925926 </v>
    <v>       0.00925926 </v>
    <v>       0.00462963 </v>
    <v>       0.00462963 </v>
    <v>       0.00462963 </v>
    <v>       0.00925926 </v>
    <v>       0.00925926 </v>
    <v>       0.00925926 </v>
    <v>       0.00925926 </v>
    <v>       0.00925926 </v>
    <v>       0.00462963 </v>
    <v>       0.00925926 </v>
    <v>       0.00462963 </v>
    <v>       0.00462963 </v>
    <v>       0.00925926 </v>
    <v>       0.00925926 </v>
    <v>       0.00925926 </v>
    <v>       0.00462963 </v>
    <v>       0.00925926 </v>
    <v>       0.00925926 </v>
    <v>       0.00462963 </v>
    <v>       0.00462963 </v>
    <v>       0.00925926 </v>
    <v>       0.00462963 </v>
    <v>       0.00925926 </v>
    <v>       0.00925926 </v>
    <v>       0.00925926 </v>
    <v>       0.00462963 </v>
    <v>       0.00231481 </v>
    <v>       0.00925926 </v>
    <v>       0.00925926 </v>
    <v>       0.00925926 </v>
    <v>       0.00925926 </v>
    <v>       0.00231481 </v>
    <v>       0.00925926 </v>
    <v>       0.00925926 </v>
    <v>       0.00925926 </v>
    <v>       0.00462963 </v>
    <v>       0.00925926 </v>
    <v>       0.00925926 </v>
    <v>       0.00462963 </v>
    <v>       0.00925926 </v>
    <v>       0.00462963 </v>
    <v>       0.00462963 </v>
    <v>       0.00115741 </v>
    <v>       0.00462963 </v>
    <v>       0.00462963 </v>
    <v>       0.00462963 </v>
    <v>       0.00462963 </v>
    <v>       0.00462963 </v>
    <v>       0.00462963 </v>
    <v>       0.00462963 </v>
    <v>       0.00231481 </v>
    <v>       0.00462963 </v>
    <v>       0.00925926 </v>
    <v>       0.00462963 </v>
    <v>       0.00462963 </v>
    <v>       0.00462963 </v>
    <v>       0.00925926 </v>
    <v>       0.00462963 </v>
    <v>       0.00925926 </v>
    <v>       0.00462963 </v>
    <v>       0.00231481 </v>
    <v>       0.00925926 </v>
    <v>       0.00925926 </v>
    <v>       0.00462963 </v>
    <v>       0.00925926 </v>
    <v>       0.00925926 </v>
    <v>       0.00925926 </v>
    <v>       0.00231481 </v>
    <v>       0.00925926 </v>
    <v>       0.00925926 </v>
    <v>       0.00462963 </v>
    <v>       0.00925926 </v>
    <v>       0.00462963 </v>
    <v>       0.00462963 </v>
    <v>       0.00115741 </v>
    <v>       0.00462963 </v>
    <v>       0.00462963 </v>
    <v>       0.00462963 </v>
    <v>       0.00462963 </v>
    <v>       0.00462963 </v>
    <v>       0.00231481 </v>
    <v>       0.00115741 </v>
    <v>       0.00462963 </v>
    <v>       0.00925926 </v>
    <v>       0.00462963 </v>
    <v>       0.00925926 </v>
    <v>       0.00925926 </v>
    <v>       0.00231481 </v>
    <v>       0.00925926 </v>
    <v>       0.00462963 </v>
    <v>       0.00462963 </v>
    <v>       0.00115741 </v>
    <v>       0.00462963 </v>
    <v>       0.00462963 </v>
    <v>       0.00462963 </v>
    <v>       0.00231481 </v>
    <v>       0.00462963 </v>
    <v>       0.00925926 </v>
    <v>       0.00231481 </v>
    <v>       0.00462963 </v>
    <v>       0.00115741 </v>
    <v>       0.00462963 </v>
    <v>       0.00231481 </v>
    <v>       0.00231481 </v>
    <v>       0.00057870 </v>
   </varray>
  </kpoints>
  <scstep>
   <time name="total">    2.42    2.42</time>
   <energy>
    <i name="e_fr_energy">     -0.51624214 </i>
    <i name="e_wo_entrp">     -0.51624214 </i>
    <i name="e_0_energy">     -0.51624214 </i>
   </energy>
  </scstep>
  <scstep>
   <time name="total">    2.75    2.75</time>
   <energy>
    <i name="e_fr_energy">     -0.53433977 </i>
    <i name="e_wo_entrp">     -0.53433977 </i>
    <i name="e_0_energy">     -0.53433977 </i>
   </energy>
  </scstep>
  <scstep>
   <time name="total">    3.29    3.29</time>
   <energy>
    <i name="e_fr_energy">     -0.47740588 </i>
    <i name="e_wo_entrp">     -0.47740588 </i>
    <i name="e_0_energy">     -0.47740588 </i>
   </energy>
  </scstep>
  <scstep>
   <time name="total">    4.04    4.04</time>
   <energy>
    <i name="e_fr_energy">     -0.50231876 </i>
    <i name="e_wo_entrp">     -0.50231876 </i>
    <i name="e_0_energy">     -0.50231876 </i>
   </energy>
  </scstep>
  <scstep>
   <time name="total">    3.92    3.92</time>
   <energy>
    <i name="e_fr_energy">     -0.52992186 </i>
    <i name="e_wo_entrp">     -0.52992186 </i>
    <i name="e_0_energy">     -0.52992186 </i>
   </energy>
  </scstep>
  <scstep>
   <time name="total">    4.39    4.39</time>
   <energy>
    <i name="e_fr_energy">     -0.53364288 </i>
    <i name="e_wo_entrp">     -0.53364288 </i>
    <i name="e_0_energy">     -0.53364288 </i>
   </energy>
  </scstep>
  <scstep>
   <time name="total">    4.44    4.44</time>
   <energy>
    <i name="e_fr_energy">     -0.53560178 </i>
    <i name="e_wo_entrp">     -0.53560178 </i>
    <i name="e_0_energy">     -0.53560178 </i>
   </energy>
  </scstep>
  <scstep>
   <time name="total">    4.36    4.36</time>
   <energy>
    <i name="e_fr_energy">     -0.53620935 </i>
    <i name="e_wo_entrp">     -0.53620935 </i>
    <i name="e_0_energy">     -0.53620935 </i>
   </energy>
  </scstep>
  <scstep>
   <time name="total">    4.50    4.50</time>
   <energy>
    <i name="e_fr_energy">     -0.53633313 </i>
    <i name="e_wo_entrp">     -0.53633313 </i>
    <i name="e_0_energy">     -0.53633313 </i>
   </energy>
  </scstep>
  <scstep>
   <time name="total">    4.48    4.48</time>
   <energy>
    <i name="e_fr_energy">     -0.53635893 </i>
    <i name="e_wo_entrp">     -0.53635893 </i>
    <i name="e_0_energy">     -0.53635893 </i>
   </energy>
  </scstep>
  <scstep>
   <time name="total">    4.46    4.46</time>
   <energy>
    <i name="e_fr_energy">     -0.53635469 </i>
    <i name="e_wo_entrp">     -0.53635469 </i>
    <i name="e_0_energy">     -0.53635469 </i>
   </energy>
  </scstep>
  <scstep>
   <time name="total">    4.48    4.48</time>
   <energy>
    <i name="e_fr_energy">     -0.53635146 </i>
    <i name="e_wo_entrp">     -0.53635146 </i>
    <i name="e_0_energy">     -0.53635146 </i>
   </energy>
  </scstep>
  <scstep>
   <time name="total">    4.38    4.38</time>
   <energy>
    <i name="e_fr_energy">     -0.53635063 </i>
    <i name="e_wo_entrp">     -0.53635063 </i>
    <i name="e_0_energy">     -0.53635063 </i>
   </energy>
  </scstep>
  <scstep>
   <time name="total">    4.13    4.13</time>
   <energy>
    <i name="e_fr_energy">     -0.53634995 </i>
    <i name="e_wo_entrp">     -0.53634995 </i>
    <i name="e_0_energy">     -0.53634995 </i>
   </energy>
  </scstep>
  <scstep>
   <time name="total">    4.08    4.08</time>
   <energy>
    <i name="e_fr_energy">     -0.53634982 </i>
    <i name="e_wo_entrp">     -0.53634982 </i>
    <i name="e_0_energy">     -0.53634982 </i>
   </energy>
  </scstep>
  <scstep>
   <time name="total">    3.86    3.86</time>
   <energy>
    <i name="e_fr_energy">     -0.53634972 </i>
    <i name="e_wo_entrp">     -0.53634972 </i>
    <i name="e_0_energy">     -0.53634972 </i>
   </energy>
  </scstep>
  <scstep>
   <time name="total">    3.63    3.63</time>
   <energy>
    <i name="e_fr_energy">     -0.53634973 </i>
    <i name="e_wo_entrp">     -0.53634973 </i>
    <i name="e_0_energy">     -0.53634973 </i>
   </energy>
  </scstep>
  <kpoints>
   <generation param="Gamma">
    <v type="int" name="divisions">      12       12       12 </v>
    <v name="usershift">      0.00000000       0.00000000       0.00000000 </v>
    <v name="genvec1">      0.08333333      -0.00000000      -0.00000000 </v>
    <v name="genvec2">     -0.00000000       0.08333333       0.00000000 </v>
    <v name="genvec3">      0.00000000       0.00000000       0.08333333 </v>
    <v name="shift">      0.00000000       0.00000000       0.00000000 </v>
   </generation>
   <varray name="kpointlist" >
    <v>       0.00000000       0.00000000       0.00000000 </v>
    <v>       0.08333333       0.00000000       0.00000000 </v>
    <v>       0.16666667       0.00000000       0.00000000 </v>
    <v>       0.25000000       0.00000000       0.00000000 </v>
    <v>       0.33333333       0.00000000       0.00000000 </v>
    <v>       0.41666667      -0.00000000      -0.00000000 </v>
    <v>       0.50000000       0.00000000       0.00000000 </v>
    <v>       0.08333333       0.08333333      -0.00000000 </v>
    <v>       0.16666667       0.08333333      -0.00000000 </v>
    <v>       0.25000000       0.08333333      -0.00000000 </v>
    <v>       0.33333333       0.08333333       0.00000000 </v>
    <v>       0.41666667       0.08333333       0.00000000 </v>
    <v>       0.50000000       0.08333333      -0.00000000 </v>
    <v>      -0.41666667       0.08333333      -0.00000000 </v>
    <v>      -0.33333333       0.08333333       0.00000000 </v>
    <v>      -0.25000000       0.08333333      -0.00000000 </v>
    <v>      -0.16666667       0.08333333      -0.00000000 </v>
    <v>      -0.08333333       0.08333333      -0.00000000 </v>
    <v>       0.16666667       0.16666667      -0.00000000 </v>
    <v>       0.25000000       0.16666667      -0.00000000 </v>
    <v>       0.33333333       0.16666667       0.00000000 </v>
    <v>       0.41666667       0.16666667       0.00000000 </v>
    <v>       0.50000000       0.16666667      -0.00000000 </v>
    <v>      -0.41666667       0.16666667      -0.00000000 </v>
    <v>      -0.33333333       0.16666667      -0.00000000 </v>
    <v>      -0.25000000       0.16666667       0.00000000 </v>
    <v>      -0.16666667       0.16666667      -0.00000000 </v>
    <v>       0.25000000       0.25000000      -0.00000000 </v>
    <v>       0.33333333       0.25000000      -0.00000000 </v>
    <v>       0.41666667       0.25000000       0.00000000 </v>
    <v>       0.50000000       0.25000000       0.00000000 </v>
    <v>      -0.41666667       0.25000000      -0.00000000 </v>
    <v>      -0.33333333       0.25000000      -0.00000000 </v>
    <v>      -0.25000000       0.25000000      -0.00000000 </v>
    <v>       0.33333333       0.33333333      -0.00000000 </v>
    <v>       0.41666667       0.33333333      -0.00000000 </v>
    <v>       0.50000000       0.33333333      -0.00000000 </v>
    <v>      -0.41666667       0.33333333      -0.00000000 </v>
    <v>      -0.33333333       0.33333333      -0.00000000 </v>
    <v>       0.41666667       0.41666667      -0.00000000 </v>
    <v>       0.50000000       0.41666667      -0.00000000 </v>
    <v>      -0.41666667       0.41666667       0.00000000 </v>
    <v>       0.50000000       0.50000000      -0.00000000 </v>
    <v>      -0.00000000      -0.00000000       0.08333333 </v>
    <v>       0.08333333      -0.00000000       0.08333333 </v>
    <v>       0.16666667       0.00000000       0.08333333 </v>
    <v>       0.25000000       0.00000000       0.08333333 </v>
    <v>       0.33333333       0.00000000       0.08333333 </v>
    <v>       0.41666667      -0.00000000       0.08333333 </v>
    <v>       0.50000000      -0.00000000       0.08333333 </v>
    <v>      -0.41666667      -0.00000000       0.08333333 </v>
    <v>      -0.33333333       0.00000000       0.08333333 </v>
    <v>      -0.25000000      -0.00000000       0.08333333 </v>
    <v>      -0.16666667      -0.00000000       0.08333333 </v>
    <v>      -0.08333333      -0.00000000       0.08333333 </v>
    <v>      -0.00000000       0.08333333       0.08333333 </v>
    <v>       0.16666667       0.08333333       0.08333333 </v>
    <v>       0.25000000       0.08333333       0.08333333 </v>
    <v>       0.33333333       0.08333333       0.08333333 </v>
    <v>       0.41666667       0.08333333       0.08333333 </v>
    <v>       0.50000000       0.08333333       0.08333333 </v>
    <v>      -0.41666667       0.08333333       0.08333333 </v>
    <v>      -0.33333333       0.08333333       0.08333333 </v>
    <v>      -0.25000000       0.08333333       0.08333333 </v>
    <v>      -0.16666667       0.08333333       0.08333333 </v>
    <v>      -0.08333333       0.08333333       0.08333333 </v>
    <v>       0.16666667       0.16666667       0.08333333 </v>
    <v>       0.25000000       0.16666667       0.08333333 </v>
    <v>       0.33333333       0.16666667       0.08333333 </v>
    <v>       0.41666667       0.16666667       0.08333333 </v>
    <v>       0.50000000       0.16666667       0.08333333 </v>
    <v>      -0.41666667       0.16666667       0.08333333 </v>
    <v>      -0.33333333       0.16666667       0.08333333 </v>
    <v>      -0.25000000       0.16666667       0.08333333 </v>
    <v>      -0.16666667       0.16666667       0.08333333 </v>
    <v>      -0.08333333       0.16666667       0.08333333 </v>
    <v>       0.16666667       0.25000000       0.08333333 </v>
    <v>       0.25000000       0.25000000       0.08333333 </v>
    <v>       0.33333333       0.25000000       0.08333333 </v>
    <v>       0.41666667       0.25000000       0.08333333 </v>
    <v>       0.50000000       0.25000000       0.08333333 </v>
    <v>      -0.41666667       0.25000000       0.08333333 </v>
    <v>      -0.33333333       0.25000000       0.08333333 </v>
    <v>      -0.25000000       0.25000000       0.08333333 </v>
    <v>      -0.16666667       0.25000000       0.08333333 </v>
    <v>       0.16666667       0.33333333       0.08333333 </v>
    <v>       0.25000000       0.33333333       0.08333333 </v>
    <v>       0.33333333       0.33333333       0.08333333 </v>
    <v>       0.41666667       0.33333333       0.08333333 </v>
    <v>       0.50000000       0.33333333       0.08333333 </v>
    <v>      -0.41666667       0.33333333       0.08333333 </v>
    <v>      -0.33333333       0.33333333       0.08333333 </v>
    <v>      -0.25000000       0.33333333       0.08333333 </v>
    <v>       0.16666667       0.41666667       0.08333333 </v>
    <v>       0.25000000       0.41666667       0.08333333 </v>
    <v>       0.33333333       0.41666667       0.08333333 </v>
    <v>       0.41666667       0.41666667       0.08333333 </v>
    <v>       0.50000000       0.41666667       0.08333333 </v>
    <v>      -0.41666667       0.41666667       0.08333333 </v>
    <v>      -0.33333333       0.41666667       0.08333333 </v>
    <v>       0.16666667       0.50000000       0.08333333 </v>
    <v>       0.25000000       0.50000000       0.08333333 </v>
    <v>       0.33333333       0.50000000       0.08333333 </v>
    <v>       0.41666667       0.50000000       0.08333333 </v>
    <v>       0.50000000       0.50000000       0.08333333 </v>
    <v>      -0.41666667       0.50000000       0.08333333 </v>
    <v>       0.16666667      -0.41666667       0.08333333 </v>
    <v>       0.25000000      -0.41666667       0.08333333 </v>
    <v>       0.33333333      -0.41666667       0.08333333 </v>
    <v>       0.41666667      -0.41666667       0.08333333 </v>
    <v>       0.50000000      -0.41666667       0.08333333 </v>
    <v>       0.16666667      -0.33333333       0.08333333 </v>
    <v>       0.25000000      -0.33333333       0.08333333 </v>
    <v>       0.33333333      -0.33333333       0.08333333 </v>
    <v>       0.41666667      -0.33333333       0.08333333 </v>
    <v>       0.16666667      -0.25000000       0.08333333 </v>
    <v>       0.25000000      -0.25000000       0.08333333 </v>
    <v>       0.33333333      -0.25000000       0.08333333 </v>
    <v>       0.16666667      -0.16666667       0.08333333 </v>
    <v>       0.25000000      -0.16666667       0.08333333 </v>
    <v>       0.16666667      -0.08333333       0.08333333 </v>
    <v>      -0.00000000      -0.00000000       0.16666667 </v>
    <v>       0.08333333      -0.00000000       0.16666667 </v>
    <v>       0.16666667      -0.00000000       0.16666667 </v>
    <v>       0.25000000      -0.00000000       0.16666667 </v>
    <v>       0.33333333       0.00000000       0.16666667 </v>
    <v>       0.41666667      -0.00000000       0.16666667 </v>
    <v>       0.50000000       0.00000000       0.16666667 </v>
    <v>      -0.41666667      -0.00000000       0.16666667 </v>
    <v>      -0.33333333      -0.00000000       0.16666667 </v>
    <v>      -0.25000000       0.00000000       0.16666667 </v>
    <v>      -0.16666667      -0.00000000       0.16666667 </v>
    <v>      -0.08333333      -0.00000000       0.16666667 </v>
    <v>      -0.00000000       0.08333333       0.16666667 </v>
    <v>       0.08333333       0.08333333       0.16666667 </v>
    <v>       0.25000000       0.08333333       0.16666667 </v>
    <v>       0.33333333       0.08333333       0.16666667 </v>
    <v>       0.41666667       0.08333333       0.16666667 </v>
    <v>       0.50000000       0.08333333       0.16666667 </v>
    <v>      -0.41666667       0.08333333       0.16666667 </v>
    <v>      -0.33333333       0.08333333       0.16666667 </v>
    <v>      -0.25000000       0.08333333       0.16666667 </v>
    <v>      -0.16666667       0.08333333       0.16666667 </v>
    <v>      -0.08333333       0.08333333       0.16666667 </v>
    <v>      -0.00000000       0.16666667       0.16666667 </v>
    <v>       0.25000000       0.16666667       0.16666667 </v>
    <v>       0.33333333       0.16666667       0.16666667 </v>
    <v>       0.41666667       0.16666667       0.16666667 </v>
    <v>       0.50000000       0.16666667       0.16666667 </v>
    <v>      -0.41666667       0.16666667       0.16666667 </v>
    <v>      -0.33333333       0.16666667       0.16666667 </v>
    <v>      -0.25000000       0.16666667       0.16666667 </v>
    <v>      -0.16666667       0.16666667       0.16666667 </v>
    <v>      -0.08333333       0.16666667       0.16666667 </v>
    <v>       0.25000000       0.25000000       0.16666667 </v>
    <v>       0.33333333       0.25000000       0.16666667 </v>
    <v>       0.41666667       0.25000000       0.16666667 </v>
    <v>       0.50000000       0.25000000       0.16666667 </v>
    <v>      -0.41666667       0.25000000       0.16666667 </v>
    <v>      -0.33333333       0.25000000       0.16666667 </v>
    <v>      -0.25000000       0.25000000       0.16666667 </v>
    <v>      -0.16666667       0.25000000       0.16666667 </v>
    <v>      -0.08333333       0.25000000       0.16666667 </v>
    <v>       0.25000000       0.33333333       0.16666667 </v>
    <v>       0.33333333       0.33333333       0.16666667 </v>
    <v>       0.41666667       0.33333333       0.16666667 </v>
    <v>       0.50000000       0.33333333       0.16666667 </v>
    <v>      -0.41666667       0.33333333       0.16666667 </v>
    <v>      -0.33333333       0.33333333       0.16666667 </v>
    <v>      -0.25000000       0.33333333       0.16666667 </v>
    <v>      -0.16666667       0.33333333       0.16666667 </v>
    <v>       0.25000000       0.41666667       0.16666667 </v>
    <v>       0.33333333       0.41666667       0.16666667 </v>
    <v>       0.41666667       0.41666667       0.16666667 </v>
    <v>       0.50000000       0.41666667       0.16666667 </v>
    <v>      -0.41666667       0.41666667       0.16666667 </v>
    <v>      -0.33333333       0.41666667       0.16666667 </v>
    <v>      -0.25000000       0.41666667       0.16666667 </v>
    <v>       0.25000000       0.50000000       0.16666667 </v>
    <v>       0.33333333       0.50000000       0.16666667 </v>
    <v>       0.41666667       0.50000000       0.16666667 </v>
    <v>       0.50000000       0.50000000       0.16666667 </v>
    <v>      -0.41666667       0.50000000       0.16666667 </v>
    <v>      -0.33333333       0.50000000       0.16666667 </v>
    <v>       0.25000000      -0.41666667       0.16666667 </v>
    <v>       0.33333333      -0.41666667       0.16666667 </v>
    <v>       0.41666667      -0.41666667       0.16666667 </v>
    <v>       0.50000000      -0.41666667       0.16666667 </v>
    <v>      -0.41666667      -0.41666667       0.16666667 </v>
    <v>       0.25000000      -0.33333333       0.16666667 </v>
    <v>       0.33333333      -0.33333333       0.16666667 </v>
    <v>       0.41666667      -0.33333333       0.16666667 </v>
    <v>       0.50000000      -0.33333333       0.16666667 </v>
    <v>       0.25000000      -0.25000000       0.16666667 </v>
    <v>       0.33333333      -0.25000000       0.16666667 </v>
    <v>       0.41666667      -0.25000000       0.16666667 </v>
    <v>       0.25000000      -0.16666667       0.16666667 </v>
    <v>       0.33333333      -0.16666667       0.16666667 </v>
    <v>       0.25000000      -0.08333333       0.16666667 </v>
    <v>      -0.00000000      -0.00000000       0.25000000 </v>
[...]
       <r>    7.8338    0.0000 </r>
       <r>    8.0721    0.0000 </r>
       <r>    9.1609    0.0000 </r>
       <r>    9.5854    0.0000 </r>
       <r>    9.9714    0.0000 </r>
      </set>
      <set comment="kpoint 158">
       <r>  -28.9717    1.0000 </r>
       <r>  -12.5128    1.0000 </r>
       <r>  -12.4798    1.0000 </r>
       <r>  -12.4788    1.0000 </r>
       <r>  -10.7881    1.0000 </r>
       <r>   -1.4198    1.0000 </r>
       <r>   -0.8540    1.0000 </r>
       <r>   -0.8500    1.0000 </r>
       <r>    4.7452    0.0000 </r>
       <r>    5.5176    0.0000 </r>
       <r>    7.4165    0.0000 </r>
       <r>    7.6745    0.0000 </r>
       <r>    8.5561    0.0000 </r>
       <r>    8.9775    0.0000 </r>
       <r>    9.2776    0.0000 </r>
       <r>   10.0623    0.0000 </r>
      </set>
      <set comment="kpoint 159">
       <r>  -28.9717    1.0000 </r>
       <r>  -12.5093    1.0000 </r>
       <r>  -12.4771    1.0000 </r>
       <r>  -12.4771    1.0000 </r>
       <r>  -10.8026    1.0000 </r>
       <r>   -1.4374    1.0000 </r>
       <r>   -0.8003    1.0000 </r>
       <r>   -0.8003    1.0000 </r>
       <r>    4.5582    0.0000 </r>
       <r>    5.3200    0.0000 </r>
       <r>    7.5544    0.0000 </r>
       <r>    7.7045    0.0000 </r>
       <r>    8.9572    0.0000 </r>
       <r>    9.0044    0.0000 </r>
       <r>    9.0044    0.0000 </r>
       <r>   10.1257    0.0000 </r>
      </set>
      <set comment="kpoint 160">
       <r>  -28.9715    1.0000 </r>
       <r>  -12.5057    1.0000 </r>
       <r>  -12.4828    1.0000 </r>
       <r>  -12.4773    1.0000 </r>
       <r>  -10.7985    1.0000 </r>
       <r>   -1.4276    1.0000 </r>
       <r>   -0.8698    1.0000 </r>
       <r>   -0.8176    1.0000 </r>
       <r>    4.5999    0.0000 </r>
       <r>    5.4055    0.0000 </r>
       <r>    7.6577    0.0000 </r>
       <r>    7.8107    0.0000 </r>
       <r>    8.4466    0.0000 </r>
       <r>    9.0491    0.0000 </r>
       <r>    9.2764    0.0000 </r>
       <r>   10.4069    0.0000 </r>
      </set>
      <set comment="kpoint 161">
       <r>  -28.9715    1.0000 </r>
       <r>  -12.5008    1.0000 </r>
       <r>  -12.4994    1.0000 </r>
       <r>  -12.4755    1.0000 </r>
       <r>  -10.7802    1.0000 </r>
       <r>   -1.3785    1.0000 </r>
       <r>   -1.0221    1.0000 </r>
       <r>   -0.8283    1.0000 </r>
       <r>    4.8265    0.0000 </r>
       <r>    5.7006    0.0000 </r>
       <r>    7.6141    0.0000 </r>
       <r>    7.8200    0.0000 </r>
       <r>    8.0080    0.0000 </r>
       <r>    8.8367    0.0000 </r>
       <r>    9.5393    0.0000 </r>
       <r>   10.2900    0.0000 </r>
      </set>
      <set comment="kpoint 162">
       <r>  -28.9715    1.0000 </r>
       <r>  -12.5025    1.0000 </r>
       <r>  -12.4860    1.0000 </r>
       <r>  -12.4800    1.0000 </r>
       <r>  -10.7935    1.0000 </r>
       <r>   -1.4101    1.0000 </r>
       <r>   -0.8790    1.0000 </r>
       <r>   -0.8747    1.0000 </r>
       <r>    4.6803    0.0000 </r>
       <r>    5.4832    0.0000 </r>
       <r>    7.7271    0.0000 </r>
       <r>    7.8353    0.0000 </r>
       <r>    8.1215    0.0000 </r>
       <r>    9.1452    0.0000 </r>
       <r>    9.3220    0.0000 </r>
       <r>   10.5177    0.0000 </r>
      </set>
      <set comment="kpoint 163">
       <r>  -28.9715    1.0000 </r>
       <r>  -12.5043    1.0000 </r>
       <r>  -12.4783    1.0000 </r>
       <r>  -12.4783    1.0000 </r>
       <r>  -10.8075    1.0000 </r>
       <r>   -1.4423    1.0000 </r>
       <r>   -0.8196    1.0000 </r>
       <r>   -0.8196    1.0000 </r>
       <r>    4.4903    0.0000 </r>
       <r>    5.2891    0.0000 </r>
       <r>    7.6297    0.0000 </r>
       <r>    8.2302    0.0000 </r>
       <r>    8.3093    0.0000 </r>
       <r>    9.1375    0.0000 </r>
       <r>    9.1375    0.0000 </r>
       <r>   10.6868    0.0000 </r>
      </set>
     </set>
    </set>
   </array>
  </eigenvalues>
  <separator name="orbital magnetization" >
   <v name="MAGDIPOLOUT">      0.00000000      0.00000000      0.00000000</v>
  </separator>
  <dos>
   <i name="efermi">     -0.33720727 </i>
   <total>
    <array>
     <dimension dim="1">gridpoints</dimension>
     <dimension dim="2">spin</dimension>
     <field>energy</field>
     <field>total</field>
     <field>integrated</field>
     <set>
      <set comment="spin 1">
       <r>   -31.0335     0.0000     0.0000 </r>
       <r>   -30.8825     0.0000     0.0000 </r>
       <r>   -30.7315     0.0000     0.0000 </r>
       <r>   -30.5804     0.0000     0.0000 </r>
       <r>   -30.4294     0.0000     0.0000 </r>
       <r>   -30.2784     0.0000     0.0000 </r>
       <r>   -30.1274     0.0000     0.0000 </r>
       <r>   -29.9763     0.0000     0.0000 </r>
       <r>   -29.8253     0.0000     0.0000 </r>
       <r>   -29.6743     0.0000     0.0000 </r>
       <r>   -29.5233     0.0000     0.0000 </r>
       <r>   -29.3722     0.0000     0.0000 </r>
       <r>   -29.2212     0.0000     0.0000 </r>
       <r>   -29.0702     0.0000     0.0000 </r>
       <r>   -28.9191    13.2426     2.0000 </r>
       <r>   -28.7681     0.0000     2.0000 </r>
       <r>   -28.6171     0.0000     2.0000 </r>
       <r>   -28.4661     0.0000     2.0000 </r>
       <r>   -28.3150     0.0000     2.0000 </r>
       <r>   -28.1640     0.0000     2.0000 </r>
       <r>   -28.0130     0.0000     2.0000 </r>
       <r>   -27.8620     0.0000     2.0000 </r>
       <r>   -27.7109     0.0000     2.0000 </r>
       <r>   -27.5599     0.0000     2.0000 </r>
       <r>   -27.4089     0.0000     2.0000 </r>
       <r>   -27.2578     0.0000     2.0000 </r>
       <r>   -27.1068     0.0000     2.0000 </r>
       <r>   -26.9558     0.0000     2.0000 </r>
       <r>   -26.8048     0.0000     2.0000 </r>
       <r>   -26.6537     0.0000     2.0000 </r>
       <r>   -26.5027     0.0000     2.0000 </r>
       <r>   -26.3517     0.0000     2.0000 </r>
       <r>   -26.2007     0.0000     2.0000 </r>
       <r>   -26.0496     0.0000     2.0000 </r>
       <r>   -25.8986     0.0000     2.0000 </r>
       <r>   -25.7476     0.0000     2.0000 </r>
       <r>   -25.5965     0.0000     2.0000 </r>
       <r>   -25.4455     0.0000     2.0000 </r>
       <r>   -25.2945     0.0000     2.0000 </r>
       <r>   -25.1435     0.0000     2.0000 </r>
       <r>   -24.9924     0.0000     2.0000 </r>
       <r>   -24.8414     0.0000     2.0000 </r>
       <r>   -24.6904     0.0000     2.0000 </r>
       <r>   -24.5394     0.0000     2.0000 </r>
       <r>   -24.3883     0.0000     2.0000 </r>
       <r>   -24.2373     0.0000     2.0000 </r>
       <r>   -24.0863     0.0000     2.0000 </r>
       <r>   -23.9352     0.0000     2.0000 </r>
       <r>   -23.7842     0.0000     2.0000 </r>
       <r>   -23.6332     0.0000     2.0000 </r>
       <r>   -23.4822     0.0000     2.0000 </r>
       <r>   -23.3311     0.0000     2.0000 </r>
       <r>   -23.1801     0.0000     2.0000 </r>
       <r>   -23.0291     0.0000     2.0000 </r>
       <r>   -22.8781     0.0000     2.0000 </r>
       <r>   -22.7270     0.0000     2.0000 </r>
       <r>   -22.5760     0.0000     2.0000 </r>
       <r>   -22.4250     0.0000     2.0000 </r>
       <r>   -22.2739     0.0000     2.0000 </r>
       <r>   -22.1229     0.0000     2.0000 </r>
       <r>   -21.9719     0.0000     2.0000 </r>
       <r>   -21.8209     0.0000     2.0000 </r>
       <r>   -21.6698     0.0000     2.0000 </r>
       <r>   -21.5188     0.0000     2.0000 </r>
       <r>   -21.3678     0.0000     2.0000 </r>
       <r>   -21.2167     0.0000     2.0000 </r>
       <r>   -21.0657     0.0000     2.0000 </r>
       <r>   -20.9147     0.0000     2.0000 </r>
       <r>   -20.7637     0.0000     2.0000 </r>
       <r>   -20.6126     0.0000     2.0000 </r>
       <r>   -20.4616     0.0000     2.0000 </r>
       <r>   -20.3106     0.0000     2.0000 </r>
       <r>   -20.1596     0.0000     2.0000 </r>
       <r>   -20.0085     0.0000     2.0000 </r>
       <r>   -19.8575     0.0000     2.0000 </r>
       <r>   -19.7065     0.0000     2.0000 </r>
       <r>   -19.5554     0.0000     2.0000 </r>
       <r>   -19.4044     0.0000     2.0000 </r>
       <r>   -19.2534     0.0000     2.0000 </r>
       <r>   -19.1024     0.0000     2.0000 </r>
       <r>   -18.9513     0.0000     2.0000 </r>
       <r>   -18.8003     0.0000     2.0000 </r>
       <r>   -18.6493     0.0000     2.0000 </r>
       <r>   -18.4983     0.0000     2.0000 </r>
       <r>   -18.3472     0.0000     2.0000 </r>
       <r>   -18.1962     0.0000     2.0000 </r>
       <r>   -18.0452     0.0000     2.0000 </r>
       <r>   -17.8941     0.0000     2.0000 </r>
       <r>   -17.7431     0.0000     2.0000 </r>
       <r>   -17.5921     0.0000     2.0000 </r>
       <r>   -17.4411     0.0000     2.0000 </r>
       <r>   -17.2900     0.0000     2.0000 </r>
       <r>   -17.1390     0.0000     2.0000 </r>
       <r>   -16.9880     0.0000     2.0000 </r>
       <r>   -16.8370     0.0000     2.0000 </r>
       <r>   -16.6859     0.0000     2.0000 </r>
       <r>   -16.5349     0.0000     2.0000 </r>
       <r>   -16.3839     0.0000     2.0000 </r>
       <r>   -16.2328     0.0000     2.0000 </r>
       <r>   -16.0818     0.0000     2.0000 </r>
       <r>   -15.9308     0.0000     2.0000 </r>
       <r>   -15.7798     0.0000     2.0000 </r>
       <r>   -15.6287     0.0000     2.0000 </r>
       <r>   -15.4777     0.0000     2.0000 </r>
       <r>   -15.3267     0.0000     2.0000 </r>
       <r>   -15.1757     0.0000     2.0000 </r>
       <r>   -15.0246     0.0000     2.0000 </r>
       <r>   -14.8736     0.0000     2.0000 </r>
       <r>   -14.7226     0.0000     2.0000 </r>
       <r>   -14.5715     0.0000     2.0000 </r>
       <r>   -14.4205     0.0000     2.0000 </r>
       <r>   -14.2695     0.0000     2.0000 </r>
       <r>   -14.1185     0.0000     2.0000 </r>
       <r>   -13.9674     0.0000     2.0000 </r>
       <r>   -13.8164     0.0000     2.0000 </r>
       <r>   -13.6654     0.0000     2.0000 </r>
       <r>   -13.5143     0.0000     2.0000 </r>
       <r>   -13.3633     0.0000     2.0000 </r>
       <r>   -13.2123     0.0000     2.0000 </r>
       <r>   -13.0613     0.0000     2.0000 </r>
       <r>   -12.9102     0.0000     2.0000 </r>
       <r>   -12.7592     0.0000     2.0000 </r>
       <r>   -12.6082     0.0083     2.0013 </r>
       <r>   -12.4572    30.5797     7.7249 </r>
       <r>   -12.3061     0.0000     8.0000 </r>
       <r>   -12.1551     0.0000     8.0000 </r>
       <r>   -12.0041     0.0000     8.0000 </r>
       <r>   -11.8530     0.0000     8.0000 </r>
       <r>   -11.7020     0.0000     8.0000 </r>
       <r>   -11.5510     0.0000     8.0000 </r>
       <r>   -11.4000     0.0000     8.0000 </r>
       <r>   -11.2489     0.0000     8.0000 </r>
       <r>   -11.0979     0.0000     8.0000 </r>
       <r>   -10.9469     0.0044     8.0007 </r>
       <r>   -10.7959     1.7744     8.3363 </r>
       <r>   -10.6448     2.6669    10.0000 </r>
       <r>   -10.4938     0.0000    10.0000 </r>
       <r>   -10.3428     0.0000    10.0000 </r>
       <r>   -10.1917     0.0000    10.0000 </r>
       <r>   -10.0407     0.0000    10.0000 </r>
       <r>    -9.8897     0.0000    10.0000 </r>
       <r>    -9.7387     0.0000    10.0000 </r>
       <r>    -9.5876     0.0000    10.0000 </r>
       <r>    -9.4366     0.0000    10.0000 </r>
       <r>    -9.2856     0.0000    10.0000 </r>
       <r>    -9.1346     0.0000    10.0000 </r>
       <r>    -8.9835     0.0000    10.0000 </r>
       <r>    -8.8325     0.0000    10.0000 </r>
       <r>    -8.6815     0.0000    10.0000 </r>
       <r>    -8.5304     0.0000    10.0000 </r>
       <r>    -8.3794     0.0000    10.0000 </r>
       <r>    -8.2284     0.0000    10.0000 </r>
       <r>    -8.0774     0.0000    10.0000 </r>
       <r>    -7.9263     0.0000    10.0000 </r>
       <r>    -7.7753     0.0000    10.0000 </r>
       <r>    -7.6243     0.0000    10.0000 </r>
       <r>    -7.4733     0.0000    10.0000 </r>
       <r>    -7.3222     0.0000    10.0000 </r>
       <r>    -7.1712     0.0000    10.0000 </r>
       <r>    -7.0202     0.0000    10.0000 </r>
       <r>    -6.8691     0.0000    10.0000 </r>
       <r>    -6.7181     0.0000    10.0000 </r>
       <r>    -6.5671     0.0000    10.0000 </r>
       <r>    -6.4161     0.0000    10.0000 </r>
       <r>    -6.2650     0.0000    10.0000 </r>
       <r>    -6.1140     0.0000    10.0000 </r>
       <r>    -5.9630     0.0000    10.0000 </r>
       <r>    -5.8120     0.0000    10.0000 </r>
       <r>    -5.6609     0.0000    10.0000 </r>
       <r>    -5.5099     0.0000    10.0000 </r>
       <r>    -5.3589     0.0000    10.0000 </r>
       <r>    -5.2078     0.0000    10.0000 </r>
       <r>    -5.0568     0.0000    10.0000 </r>
       <r>    -4.9058     0.0000    10.0000 </r>
       <r>    -4.7548     0.0000    10.0000 </r>
       <r>    -4.6037     0.0000    10.0000 </r>
       <r>    -4.4527     0.0000    10.0000 </r>
       <r>    -4.3017     0.0000    10.0000 </r>
       <r>    -4.1506     0.0000    10.0000 </r>
       <r>    -3.9996     0.0000    10.0000 </r>
       <r>    -3.8486     0.0000    10.0000 </r>
       <r>    -3.6976     0.0000    10.0000 </r>
       <r>    -3.5465     0.0000    10.0000 </r>
       <r>    -3.3955     0.0000    10.0000 </r>
       <r>    -3.2445     0.0000    10.0000 </r>
       <r>    -3.0935     0.0000    10.0000 </r>
       <r>    -2.9424     0.0000    10.0000 </r>
       <r>    -2.7914     0.0000    10.0000 </r>
       <r>    -2.6404     0.0000    10.0000 </r>
       <r>    -2.4893     0.0000    10.0000 </r>
       <r>    -2.3383     0.0000    10.0000 </r>
       <r>    -2.1873     0.0000    10.0000 </r>
       <r>    -2.0363     0.0000    10.0000 </r>
       <r>    -1.8852     0.0000    10.0000 </r>
       <r>    -1.7342     0.0326    10.0049 </r>
       <r>    -1.5832     1.1035    10.2361 </r>
       <r>    -1.4322     2.5491    10.7878 </r>
       <r>    -1.2811     1.6322    11.6898 </r>
       <r>    -1.1301     1.4432    12.0154 </r>
       <r>    -0.9791     2.6992    12.6310 </r>
       <r>    -0.8280     5.0104    13.7995 </r>
       <r>    -0.6770     4.1466    15.4908 </r>
       <r>    -0.5260     1.4041    15.9401 </r>
       <r>    -0.3750     0.0000    16.0000 </r>
       <r>    -0.2239     0.0000    16.0000 </r>
       <r>    -0.0729     0.0000    16.0000 </r>
       <r>     0.0781     0.0000    16.0000 </r>
       <r>     0.2291     0.0000    16.0000 </r>
       <r>     0.3802     0.0000    16.0000 </r>
       <r>     0.5312     0.0000    16.0000 </r>
       <r>     0.6822     0.0000    16.0000 </r>
       <r>     0.8333     0.0000    16.0000 </r>
       <r>     0.9843     0.0000    16.0000 </r>
       <r>     1.1353     0.0000    16.0000 </r>
       <r>     1.2863     0.0000    16.0000 </r>
       <r>     1.4374     0.0000    16.0000 </r>
       <r>     1.5884     0.0000    16.0000 </r>
       <r>     1.7394     0.0000    16.0000 </r>
       <r>     1.8904     0.0000    16.0000 </r>
       <r>     2.0415     0.0000    16.0000 </r>
       <r>     2.1925     0.0000    16.0000 </r>
       <r>     2.3435     0.0000    16.0000 </r>
       <r>     2.4946     0.0000    16.0000 </r>
       <r>     2.6456     0.0000    16.0000 </r>
       <r>     2.7966     0.0000    16.0000 </r>
       <r>     2.9476     0.0000    16.0000 </r>
       <r>     3.0987     0.0000    16.0000 </r>
       <r>     3.2497     0.0000    16.0000 </r>
       <r>     3.4007     0.0000    16.0000 </r>
       <r>     3.5517     0.0077    16.0012 </r>
       <r>     3.7028     0.0620    16.0105 </r>
       <r>     3.8538     0.0000    16.0174 </r>
       <r>     4.0048     0.0920    16.0313 </r>
       <r>     4.1559     0.0613    16.0683 </r>
       <r>     4.3069     0.0460    16.0752 </r>
       <r>     4.4579     0.3679    16.1308 </r>
       <r>     4.6089     0.3372    16.2130 </r>
       <r>     4.7600     0.4841    16.3069 </r>
       <r>     4.9110     0.7970    16.4931 </r>
       <r>     5.0620     0.7924    16.7794 </r>
       <r>     5.2131     1.8741    17.1025 </r>
       <r>     5.3641     1.5365    17.5168 </r>
       <r>     5.5151     0.9042    17.8206 </r>
       <r>     5.6661     2.3592    18.3251 </r>
       <r>     5.8172     1.7456    18.6491 </r>
       <r>     5.9682     0.6752    18.7860 </r>
       <r>     6.1192     1.7736    19.1510 </r>
       <r>     6.2702     1.0116    19.5185 </r>
       <r>     6.4213     1.4097    19.7777 </r>
       <r>     6.5723     1.5951    20.2363 </r>
       <r>     6.7233     1.7483    20.6020 </r>
       <r>     6.8744     1.2030    21.0544 </r>
       <r>     7.0254     2.1681    21.6145 </r>
       <r>     7.1764     1.5522    22.0816 </r>
       <r>     7.3274     1.8040    22.6035 </r>
       <r>     7.4785     1.5925    22.9049 </r>
       <r>     7.6295     1.7828    23.4290 </r>
       <r>     7.7805     3.7959    24.1416 </r>
       <r>     7.9315     1.8062    24.7300 </r>
       <r>     8.0826     1.9477    25.4365 </r>
       <r>     8.2336     1.6802    26.2711 </r>
       <r>     8.3846     1.4073    26.7889 </r>
       <r>     8.5357     1.0947    27.4049 </r>
       <r>     8.6867     0.5531    27.5453 </r>
       <r>     8.8377     0.3337    27.7344 </r>
       <r>     8.9887     0.2927    27.8393 </r>
       <r>     9.1398     0.5082    28.0594 </r>
       <r>     9.2908     1.0035    28.2962 </r>
       <r>     9.4418     3.3236    29.0367 </r>
       <r>     9.5928     5.0242    30.0782 </r>
       <r>     9.7439     1.8740    30.6580 </r>
       <r>     9.8949     1.9130    31.0922 </r>
       <r>    10.0459     0.7870    31.3179 </r>
       <r>    10.1970     0.4743    31.5508 </r>
       <r>    10.3480     0.0921    31.6482 </r>
       <r>    10.4990     0.0001    31.7801 </r>
       <r>    10.6500     0.7163    31.9161 </r>
       <r>    10.8011     0.1839    31.9687 </r>
       <r>    10.9521     0.0919    31.9826 </r>
       <r>    11.1031     0.0000    31.9826 </r>
       <r>    11.2541     0.0000    31.9826 </r>
       <r>    11.4052     0.0000    31.9826 </r>
       <r>    11.5562     0.1072    31.9988 </r>
       <r>    11.7072     0.0000    31.9988 </r>
       <r>    11.8583     0.0000    31.9988 </r>
       <r>    12.0093     0.0000    31.9988 </r>
       <r>    12.1603     0.0000    31.9988 </r>
       <r>    12.3113     0.0000    32.0000 </r>
       <r>    12.4624     0.0000    32.0000 </r>
       <r>    12.6134     0.0000    32.0000 </r>
       <r>    12.7644     0.0000    32.0000 </r>
       <r>    12.9154     0.0000    32.0000 </r>
       <r>    13.0665     0.0000    32.0000 </r>
       <r>    13.2175     0.0000    32.0000 </r>
       <r>    13.3685     0.0000    32.0000 </r>
       <r>    13.5196     0.0000    32.0000 </r>
       <r>    13.6706     0.0000    32.0000 </r>
       <r>    13.8216     0.0000    32.0000 </r>
       <r>    13.9726     0.0000    32.0000 </r>
       <r>    14.1237     0.0000    32.0000 </r>
       <r>    14.2747     0.0000    32.0000 </r>
      </set>
     </set>
    </array>
   </total>
  </dos>
 </calculation>
 <structure name="finalpos" >
  <crystal>
   <varray name="basis" >
    <v>      -3.54243534       0.00000000       3.54243534 </v>
    <v>       0.00000000       3.54243534       3.54243534 </v>
    <v>      -3.54243534       3.54243534       0.00000000 </v>
   </varray>
   <i name="volume">     88.90696651 </i>
   <varray name="rec_basis" >
    <v>      -0.14114584      -0.14114584       0.14114584 </v>
    <v>       0.14114584       0.14114584       0.14114584 </v>
    <v>      -0.14114584       0.14114584      -0.14114584 </v>
   </varray>
  </crystal>
  <varray name="positions" >
   <v>       0.00000000       0.00000000       0.00000000 </v>
   <v>       0.49999996       0.50000004       0.49999996 </v>
  </varray>
 </structure>
</modeling>
