
     Program PWSCF v.7.1 starts on  3Jan2024 at 21:52:58 

     This program is part of the open-source Quantum ESPRESSO suite
     for quantum simulation of materials; please cite
         "P. Giannozzi et al., J. Phys.:Condens. Matter 21 395502 (2009);
         "P. Giannozzi et al., J. Phys.:Condens. Matter 29 465901 (2017);
         "P. Giannozzi et al., J. Chem. Phys. 152 154105 (2020);
          URL http://www.quantum-espresso.org", 
     in publications or presentations arising from this work. More details at
     http://www.quantum-espresso.org/quote

     Parallel version (MPI), running on     8 processors

     MPI processes distributed on     1 nodes
     121846 MiB available memory on the printing compute node when the environment starts
 
     Reading input from pw_mp-2160_emass_k3000_E130.in
Warning: card &IONS ignored
Warning: card / ignored
Warning: card &CELL ignored
Warning: card / ignored

     Current dimensions of program PWSCF are:
     Max number of different atomic species (ntypx) = 10
     Max number of k-points (npk) =  40000
     Max angular momentum in pseudopotentials (lmaxx) =  4

     Atomic positions and unit cell read from directory:
     out/mp-2160.save/
     Atomic positions from file used, from input discarded
 
 
     R & G space division:  proc/nbgrp/npool/nimage =       8
     Subspace diagonalization in iterative solution of the eigenvalue problem:
     one sub-group per band group will be used
     scalapack distributed-memory algorithm (size of sub-group:  2*  2 procs)

 
     Parallelization info
     --------------------
     sticks:   dense  smooth     PW     G-vecs:    dense   smooth      PW
     Min         866     866    220                97870    97870   12596
     Max         867     867    221                97873    97873   12599
     Sum        6931    6931   1763               782975   782975  100779
 
     Using Slab Decomposition
 


     bravais-lattice index     =            8
     lattice parameter (alat)  =       7.5618  a.u.
     unit-cell volume          =    3910.2840 (a.u.)^3
     number of atoms/cell      =           20
     number of atomic types    =            2
     number of electrons       =       192.00
     number of Kohn-Sham states=          192
     kinetic-energy cutoff     =     130.0000  Ry
     charge density cutoff     =     520.0000  Ry
     Exchange-correlation= PBE
                           (   1   4   3   4   0   0   0)

     celldm(1)=   7.561846  celldm(2)=   2.927268  celldm(3)=   3.089316
     celldm(4)=   0.000000  celldm(5)=   0.000000  celldm(6)=   0.000000

     crystal axes: (cart. coord. in units of alat)
               a(1) = (   1.000000   0.000000   0.000000 )  
               a(2) = (   0.000000   2.927268   0.000000 )  
               a(3) = (   0.000000   0.000000   3.089316 )  

     reciprocal axes: (cart. coord. in units 2 pi/alat)
               b(1) = (  1.000000  0.000000  0.000000 )  
               b(2) = (  0.000000  0.341615  0.000000 )  
               b(3) = (  0.000000  0.000000  0.323696 )  


     PseudoPot. # 1 for Sb read from file:
     /usr/scratch4/magr4985/MG/devEb/pseudo/SG15/Sb.upf
     MD5 check sum: 41236ccde766b6cc6001abcc7908fa05
     Pseudo is Norm-conserving, Zval = 15.0
     Generated using ONCVPSP code by D. R. Hamann
     Using radial grid of  602 points,  6 beta functions with: 
                l(1) =   0
                l(2) =   0
                l(3) =   1
                l(4) =   1
                l(5) =   2
                l(6) =   2

     PseudoPot. # 2 for Se read from file:
     /usr/scratch4/magr4985/MG/devEb/pseudo/SG15/Se.upf
     MD5 check sum: c44afd8c4e480dd2a5f8f6cb06637de2
     Pseudo is Norm-conserving, Zval =  6.0
     Generated using ONCVPSP code by D. R. Hamann
     Using radial grid of  602 points,  6 beta functions with: 
                l(1) =   0
                l(2) =   0
                l(3) =   1
                l(4) =   1
                l(5) =   2
                l(6) =   2

     atomic species   valence    mass     pseudopotential
        Sb            15.00   121.76000     Sb( 1.00)
        Se             6.00    78.96000     Se( 1.00)

      8 Sym. Ops., with inversion, found ( 6 have fractional translation)



   Cartesian axes

     site n.     atom                  positions (alat units)
         1           Sb  tau(   1) = (   0.7500001   0.1115131   0.4335002  )
         2           Sb  tau(   2) = (   0.2500000   2.8157552   2.6558160  )
         3           Sb  tau(   3) = (   0.2500000   1.5751473   1.1111579  )
         4           Sb  tau(   4) = (   0.7500001   1.3521211   1.9781582  )
         5           Sb  tau(   5) = (   0.2500000   0.9648024   0.1044585  )
         6           Sb  tau(   6) = (   0.7500001   1.9624659   2.9848576  )
         7           Sb  tau(   7) = (   0.7500001   2.4284365   1.4401995  )
         8           Sb  tau(   8) = (   0.2500000   0.4988317   1.6491166  )
         9           Se  tau(   9) = (   0.7500001   0.3733009   2.9297381  )
        10           Se  tau(  10) = (   0.2500000   2.5539674   0.1595780  )
        11           Se  tau(  11) = (   0.2500000   1.8369351   1.7042361  )
        12           Se  tau(  12) = (   0.7500001   1.0903332   1.3850800  )
        13           Se  tau(  13) = (   0.2500000   0.5623302   0.6343334  )
        14           Se  tau(  14) = (   0.7500001   2.3649381   2.4549828  )
        15           Se  tau(  15) = (   0.7500001   2.0259643   0.9103247  )
        16           Se  tau(  16) = (   0.2500000   0.9013039   2.1789914  )
        17           Se  tau(  17) = (   0.7500001   0.1583614   1.9380798  )
        18           Se  tau(  18) = (   0.2500000   2.7689069   1.1512363  )
        19           Se  tau(  19) = (   0.2500000   1.6219955   2.6958943  )
        20           Se  tau(  20) = (   0.7500001   1.3052728   0.3934218  )

     number of k points=     7  Gaussian smearing, width (Ry)=  0.0005
                       cart. coord. in units 2pi/alat
        k(    1) = (   0.0000000   0.1281058   0.0000000), wk =   0.2857143
        k(    2) = (   0.0100000   0.1281058   0.0000000), wk =   0.2857143
        k(    3) = (  -0.0100000   0.1281058   0.0000000), wk =   0.2857143
        k(    4) = (   0.0000000   0.1381058   0.0000000), wk =   0.2857143
        k(    5) = (   0.0000000   0.1181058   0.0000000), wk =   0.2857143
        k(    6) = (   0.0000000   0.1281058   0.0100000), wk =   0.2857143
        k(    7) = (   0.0000000   0.1281058  -0.0100000), wk =   0.2857143

     Dense  grid:   782975 G-vectors     FFT dimensions: (  60, 162, 180)

     Estimated max dynamical RAM per process >     462.07 MB

     Estimated total dynamical RAM >       3.61 GB

     The potential is recalculated from file :
     out/mp-2160.save/charge-density

     Starting wfcs are random

     Band Structure Calculation
     ParO style diagonalization

     ethr =  5.00E-06,  avg # of iterations = 22.6

     total cpu time spent up to now is      420.8 secs

     End of band structure calculation

          k = 0.0000 0.1281 0.0000 ( 97898 PWs)   bands (ev):

   -21.8839 -21.8839 -21.8838 -21.8838 -21.8787 -21.8787 -21.8779 -21.8778
   -21.8334 -21.8334 -21.8327 -21.8326 -21.8308 -21.8308 -21.8307 -21.8307
   -21.8146 -21.8145 -21.8142 -21.8141 -21.8122 -21.8122 -21.8114 -21.8114
   -21.8022 -21.8022 -21.7985 -21.7984 -21.7786 -21.7785 -21.7762 -21.7762
   -21.7655 -21.7655 -21.7655 -21.7654 -21.7625 -21.7624 -21.7608 -21.7607
    -6.6309  -6.5320  -6.2903  -6.2654  -5.6768  -5.6050  -5.4592  -5.2695
    -4.9669  -4.9060  -4.8692  -4.8552  -1.6137  -1.4900  -1.4212  -1.4017
    -0.6358  -0.4828   0.0461   0.2174   2.8735   3.0248   3.1011   3.1523
     3.6907   3.7783   4.2304   4.4050   4.4802   4.5734   4.6583   4.7212
     4.7517   4.8140   5.1143   5.2278   5.2508   5.2891   5.4887   5.4897
     5.5297   5.6570   6.0410   6.0500   6.2271   6.3360   6.4122   6.4628
     6.5366   6.5516   6.6232   6.6682   6.8887   7.0536   7.1491   7.1956
     8.1839   8.2572   8.9833   9.0042   9.3347   9.3423   9.4122   9.5152
     9.5235   9.5933   9.7784   9.7795   9.7882   9.8145  10.3260  10.5098
    10.5250  10.5271  11.0119  11.0572  11.0885  11.3283  11.5444  11.5610
    11.9168  12.0931  13.3513  13.4096  13.7937  14.0918  14.2288  14.3379
    14.5681  14.6765  14.7949  14.8555  15.0682  15.3011  15.3047  15.3929
    15.4702  15.5268  15.6009  15.6282  15.8240  15.9447  16.0934  16.2344
    16.2403  16.4216  16.4517  16.5818  16.6997  16.8466  17.1410  17.1520
    17.3127  17.4799  17.5022  17.5612  17.7540  17.7928  17.8243  17.8938
    18.0233  18.0479  18.0611  18.1931  18.4427  18.5219  18.6995  18.9030
    18.9336  18.9645  19.0327  19.1313  19.1641  19.2119  19.2525  19.4002
    19.5141  19.6204  19.6618  20.0053  20.1015  20.2352  20.3388  20.5983
    20.6958  20.7102  20.9734  21.3153  21.4251  21.5549  21.5672  21.6395

          k = 0.0100 0.1281 0.0000 ( 97893 PWs)   bands (ev):

   -21.8839 -21.8838 -21.8838 -21.8838 -21.8787 -21.8787 -21.8779 -21.8778
   -21.8334 -21.8334 -21.8327 -21.8326 -21.8308 -21.8308 -21.8307 -21.8307
   -21.8146 -21.8145 -21.8141 -21.8141 -21.8122 -21.8122 -21.8114 -21.8114
   -21.8023 -21.8022 -21.7985 -21.7984 -21.7786 -21.7785 -21.7762 -21.7762
   -21.7655 -21.7655 -21.7655 -21.7654 -21.7625 -21.7624 -21.7608 -21.7607
    -6.6303  -6.5314  -6.2897  -6.2648  -5.6763  -5.6045  -5.4588  -5.2691
    -4.9667  -4.9058  -4.8690  -4.8550  -1.6139  -1.4903  -1.4213  -1.4019
    -0.6360  -0.4832   0.0454   0.2164   2.8740   3.0250   3.1017   3.1526
     3.6891   3.7748   4.2266   4.3998   4.4746   4.5717   4.6581   4.7182
     4.7529   4.8164   5.1158   5.2104   5.2514   5.3006   5.4808   5.4897
     5.5289   5.6489   6.0472   6.0554   6.2247   6.3312   6.4081   6.4585
     6.5323   6.5511   6.6322   6.6729   6.8923   7.0552   7.1488   7.1953
     8.1909   8.2642   8.9864   9.0073   9.3107   9.3264   9.4405   9.5161
     9.5266   9.5923   9.7621   9.7900   9.7965   9.8207  10.3043  10.4711
    10.5341  10.5843  11.0127  11.0433  11.0987  11.3221  11.5468  11.5656
    11.9191  12.0954  13.3537  13.4111  13.7926  14.0908  14.2245  14.3364
    14.5654  14.6719  14.7920  14.8518  15.0634  15.3015  15.3055  15.3957
    15.4604  15.5289  15.6052  15.6375  15.8221  15.9439  16.0994  16.2279
    16.2397  16.4338  16.4416  16.5956  16.7053  16.8456  17.1436  17.1462
    17.3151  17.4697  17.4875  17.5767  17.7514  17.7533  17.8681  17.8956
    17.9871  18.0242  18.1227  18.1993  18.4438  18.5109  18.7008  18.8998
    18.9451  18.9548  19.0361  19.1273  19.1696  19.2346  19.2411  19.4184
    19.5243  19.6244  19.6590  19.9749  20.1165  20.2573  20.3446  20.5746
    20.6910  20.7335  20.9534  21.3145  21.4355  21.5533  21.5654  21.6438

          k =-0.0100 0.1281 0.0000 ( 97893 PWs)   bands (ev):

   -21.8839 -21.8838 -21.8838 -21.8838 -21.8787 -21.8787 -21.8779 -21.8778
   -21.8334 -21.8334 -21.8327 -21.8326 -21.8308 -21.8308 -21.8307 -21.8307
   -21.8146 -21.8145 -21.8141 -21.8141 -21.8122 -21.8122 -21.8114 -21.8114
   -21.8023 -21.8022 -21.7985 -21.7984 -21.7786 -21.7785 -21.7762 -21.7762
   -21.7655 -21.7655 -21.7655 -21.7654 -21.7625 -21.7624 -21.7608 -21.7607
    -6.6303  -6.5314  -6.2897  -6.2648  -5.6763  -5.6045  -5.4588  -5.2691
    -4.9667  -4.9058  -4.8690  -4.8550  -1.6139  -1.4903  -1.4213  -1.4019
    -0.6360  -0.4832   0.0454   0.2164   2.8740   3.0250   3.1017   3.1526
     3.6891   3.7748   4.2266   4.3998   4.4746   4.5717   4.6581   4.7182
     4.7529   4.8164   5.1158   5.2104   5.2514   5.3006   5.4808   5.4897
     5.5289   5.6489   6.0472   6.0554   6.2247   6.3312   6.4081   6.4585
     6.5323   6.5511   6.6322   6.6729   6.8923   7.0552   7.1488   7.1953
     8.1909   8.2642   8.9864   9.0073   9.3107   9.3264   9.4405   9.5161
     9.5266   9.5923   9.7621   9.7900   9.7965   9.8207  10.3043  10.4711
    10.5341  10.5843  11.0127  11.0433  11.0987  11.3221  11.5468  11.5656
    11.9191  12.0954  13.3537  13.4111  13.7926  14.0908  14.2245  14.3364
    14.5654  14.6719  14.7920  14.8518  15.0634  15.3015  15.3055  15.3957
    15.4604  15.5289  15.6052  15.6375  15.8221  15.9439  16.0994  16.2279
    16.2397  16.4338  16.4416  16.5956  16.7053  16.8456  17.1436  17.1462
    17.3151  17.4697  17.4875  17.5767  17.7514  17.7533  17.8681  17.8956
    17.9871  18.0242  18.1227  18.1993  18.4438  18.5109  18.7008  18.8998
    18.9451  18.9548  19.0361  19.1273  19.1696  19.2346  19.2411  19.4184
    19.5243  19.6243  19.6590  19.9749  20.1165  20.2573  20.3446  20.5746
    20.6910  20.7335  20.9534  21.3145  21.4355  21.5533  21.5654  21.6438

          k = 0.0000 0.1381 0.0000 ( 97882 PWs)   bands (ev):

   -21.8839 -21.8839 -21.8838 -21.8838 -21.8787 -21.8787 -21.8779 -21.8778
   -21.8334 -21.8334 -21.8327 -21.8326 -21.8308 -21.8308 -21.8307 -21.8307
   -21.8146 -21.8145 -21.8141 -21.8141 -21.8122 -21.8122 -21.8114 -21.8114
   -21.8022 -21.8022 -21.7985 -21.7984 -21.7786 -21.7785 -21.7762 -21.7762
   -21.7655 -21.7655 -21.7655 -21.7654 -21.7625 -21.7624 -21.7608 -21.7607
    -6.6191  -6.5412  -6.2949  -6.2734  -5.6610  -5.5924  -5.4571  -5.2978
    -4.9543  -4.9060  -4.8709  -4.8585  -1.6018  -1.4998  -1.4247  -1.4171
    -0.6064  -0.4820   0.0570   0.1942   2.8911   3.0390   3.0661   3.1369
     3.6942   3.7643   4.2478   4.3850   4.4846   4.5599   4.6861   4.7181
     4.7702   4.8754   5.0843   5.2381   5.2561   5.2618   5.4891   5.5015
     5.5145   5.6362   6.0287   6.0340   6.2710   6.3691   6.4196   6.4585
     6.5364   6.5482   6.6005   6.6358   6.8977   7.0513   7.1538   7.1747
     8.1891   8.2470   8.9928   9.0069   9.3736   9.3821   9.4157   9.4955
     9.5436   9.5744   9.7362   9.7502   9.7833   9.8088  10.3586  10.5142
    10.5175  10.5295  11.0399  11.0778  11.1114  11.3005  11.5158  11.5314
    11.9377  12.0737  13.3554  13.3993  13.8236  14.0728  14.2199  14.3324
    14.5720  14.6468  14.8641  14.8867  15.0723  15.2768  15.3054  15.3858
    15.4746  15.5213  15.6052  15.6158  15.8656  15.9709  16.0759  16.2104
    16.2127  16.3775  16.4257  16.5532  16.7125  16.8161  17.1462  17.2081
    17.2987  17.5147  17.5179  17.5898  17.7674  17.7913  17.8208  17.8732
    17.9834  18.0254  18.0414  18.1890  18.4920  18.5368  18.7785  18.8717
    18.9314  19.0120  19.0309  19.1076  19.1274  19.1824  19.2345  19.3376
    19.4950  19.5958  19.6878  20.0233  20.0976  20.2463  20.3743  20.5716
    20.6890  20.8058  21.0624  21.3524  21.4179  21.4770  21.5468  21.6728

          k = 0.0000 0.1181 0.0000 ( 97890 PWs)   bands (ev):

   -21.8839 -21.8839 -21.8838 -21.8838 -21.8787 -21.8787 -21.8779 -21.8778
   -21.8334 -21.8334 -21.8327 -21.8326 -21.8308 -21.8308 -21.8307 -21.8307
   -21.8146 -21.8145 -21.8142 -21.8141 -21.8122 -21.8122 -21.8114 -21.8114
   -21.8022 -21.8022 -21.7985 -21.7984 -21.7786 -21.7785 -21.7762 -21.7762
   -21.7655 -21.7655 -21.7655 -21.7654 -21.7625 -21.7624 -21.7608 -21.7607
    -6.6422  -6.5244  -6.2829  -6.2569  -5.6924  -5.6264  -5.4526  -5.2420
    -4.9804  -4.9073  -4.8672  -4.8519  -1.6241  -1.4844  -1.4174  -1.3800
    -0.6658  -0.4908   0.0397   0.2396   2.8581   3.0105   3.1383   3.1678
     3.6898   3.7914   4.2142   4.4187   4.4837   4.5869   4.6184   4.7157
     4.7494   4.7585   5.1386   5.2171   5.2343   5.3125   5.4821   5.4891
     5.5509   5.6766   6.0553   6.0676   6.1902   6.3008   6.4046   6.4669
     6.5370   6.5552   6.6447   6.6895   6.8928   7.0485   7.1424   7.2206
     8.1810   8.2684   8.9705   9.0004   9.2872   9.3088   9.4111   9.5076
     9.5361   9.6131   9.7755   9.8177   9.8213   9.8268  10.2931  10.5054
    10.5225  10.5258  10.9837  11.0349  11.0694  11.3546  11.5757  11.5922
    11.8966  12.1119  13.3476  13.4210  13.7672  14.0915  14.2597  14.3372
    14.5609  14.7099  14.7307  14.8290  15.0535  15.2992  15.3225  15.3875
    15.4811  15.5455  15.5735  15.6519  15.7812  15.9161  16.1247  16.2505
    16.2774  16.4220  16.5292  16.6094  16.6894  16.8842  17.0742  17.1643
    17.3065  17.4493  17.4633  17.5382  17.7488  17.7993  17.8360  17.8985
    18.0657  18.0662  18.0971  18.1862  18.3932  18.4920  18.6406  18.9146
    18.9436  18.9480  19.0252  19.1368  19.2298  19.2485  19.2634  19.4402
    19.5412  19.5760  19.7288  19.9864  20.1025  20.1047  20.4267  20.6210
    20.6436  20.6893  20.8830  21.2697  21.3455  21.5904  21.5942  21.5955

          k = 0.0000 0.1281 0.0100 ( 97905 PWs)   bands (ev):

   -21.8839 -21.8839 -21.8838 -21.8838 -21.8787 -21.8787 -21.8779 -21.8778
   -21.8334 -21.8334 -21.8327 -21.8326 -21.8308 -21.8308 -21.8307 -21.8307
   -21.8146 -21.8145 -21.8142 -21.8141 -21.8122 -21.8122 -21.8114 -21.8114
   -21.8022 -21.8022 -21.7985 -21.7984 -21.7786 -21.7785 -21.7762 -21.7762
   -21.7655 -21.7655 -21.7655 -21.7654 -21.7625 -21.7624 -21.7608 -21.7607
    -6.6307  -6.5321  -6.2907  -6.2655  -5.6765  -5.6050  -5.4587  -5.2699
    -4.9667  -4.9060  -4.8693  -4.8553  -1.6136  -1.4903  -1.4222  -1.4011
    -0.6351  -0.4825   0.0462   0.2168   2.8740   3.0250   3.1009   3.1533
     3.6911   3.7780   4.2307   4.4050   4.4797   4.5731   4.6534   4.7194
     4.7360   4.8319   5.1130   5.2278   5.2513   5.2912   5.4886   5.4900
     5.5288   5.6567   6.0304   6.0652   6.2276   6.3375   6.4122   6.4629
     6.5362   6.5518   6.6237   6.6678   6.8868   7.0537   7.1486   7.1951
     8.1843   8.2572   8.9833   9.0048   9.3102   9.3632   9.4125   9.5153
     9.5185   9.5985   9.7777   9.7779   9.7915   9.8145  10.3273  10.5090
    10.5259  10.5280  11.0117  11.0573  11.0884  11.3274  11.5444  11.5613
    11.9163  12.0920  13.3484  13.4114  13.7931  14.0929  14.2261  14.3406
    14.5688  14.6823  14.7646  14.8854  15.0652  15.3017  15.3047  15.3932
    15.4713  15.5276  15.5998  15.6292  15.8213  15.9331  16.1066  16.2099
    16.2650  16.4225  16.4513  16.5811  16.7039  16.8462  17.1344  17.1497
    17.3178  17.4687  17.4934  17.5688  17.7240  17.8229  17.8248  17.8871
    18.0174  18.0496  18.0662  18.2023  18.4258  18.5417  18.6988  18.8999
    18.9381  18.9426  19.0567  19.1334  19.1570  19.1832  19.2620  19.4140
    19.5172  19.6251  19.6788  20.0141  20.1106  20.2288  20.3434  20.6001
    20.6921  20.7100  20.9733  21.3116  21.4175  21.5579  21.5615  21.6433

          k = 0.0000 0.1281-0.0100 ( 97905 PWs)   bands (ev):

   -21.8839 -21.8839 -21.8838 -21.8838 -21.8787 -21.8787 -21.8779 -21.8778
   -21.8334 -21.8334 -21.8327 -21.8326 -21.8308 -21.8308 -21.8307 -21.8307
   -21.8146 -21.8145 -21.8142 -21.8141 -21.8122 -21.8122 -21.8114 -21.8114
   -21.8022 -21.8022 -21.7985 -21.7984 -21.7786 -21.7785 -21.7762 -21.7762
   -21.7655 -21.7655 -21.7655 -21.7654 -21.7625 -21.7624 -21.7608 -21.7607
    -6.6307  -6.5321  -6.2907  -6.2655  -5.6765  -5.6050  -5.4587  -5.2699
    -4.9667  -4.9060  -4.8693  -4.8553  -1.6136  -1.4903  -1.4222  -1.4011
    -0.6351  -0.4825   0.0462   0.2168   2.8740   3.0250   3.1008   3.1533
     3.6911   3.7780   4.2307   4.4050   4.4797   4.5731   4.6534   4.7194
     4.7360   4.8320   5.1130   5.2278   5.2513   5.2912   5.4886   5.4900
     5.5288   5.6567   6.0303   6.0652   6.2276   6.3374   6.4122   6.4629
     6.5362   6.5517   6.6237   6.6678   6.8868   7.0537   7.1486   7.1951
     8.1843   8.2572   8.9833   9.0048   9.3102   9.3632   9.4125   9.5153
     9.5185   9.5985   9.7777   9.7779   9.7915   9.8145  10.3273  10.5090
    10.5259  10.5280  11.0117  11.0573  11.0884  11.3274  11.5444  11.5613
    11.9163  12.0920  13.3484  13.4114  13.7931  14.0929  14.2261  14.3406
    14.5688  14.6823  14.7646  14.8854  15.0652  15.3017  15.3047  15.3932
    15.4713  15.5276  15.5998  15.6292  15.8213  15.9331  16.1066  16.2099
    16.2650  16.4225  16.4513  16.5811  16.7039  16.8462  17.1344  17.1497
    17.3178  17.4687  17.4934  17.5688  17.7240  17.8229  17.8248  17.8871
    18.0174  18.0496  18.0662  18.2023  18.4258  18.5417  18.6988  18.9000
    18.9381  18.9426  19.0567  19.1334  19.1570  19.1832  19.2620  19.4140
    19.5172  19.6251  19.6788  20.0140  20.1106  20.2288  20.3434  20.6001
    20.6921  20.7100  20.9733  21.3116  21.4175  21.5579  21.5615  21.6433

     the Fermi energy is     8.0848 ev
     (compare with:     7.9664 eV, computed in scf)

     Writing all to output data dir out/mp-2160.save/
 
     init_run     :      0.71s CPU      0.82s WALL (       1 calls)
     electrons    :    402.57s CPU    419.84s WALL (       1 calls)

     Called by init_run:
     wfcinit      :      0.00s CPU      0.00s WALL (       1 calls)
     potinit      :      0.14s CPU      0.20s WALL (       1 calls)
     hinit0       :      0.36s CPU      0.38s WALL (       1 calls)

     Called by electrons:
     c_bands      :    402.57s CPU    419.84s WALL (       1 calls)
     v_of_rho     :      0.12s CPU      0.14s WALL (       1 calls)

     Called by c_bands:
     init_us_2    :      0.11s CPU      0.13s WALL (       7 calls)
     init_us_2:cp :      0.11s CPU      0.13s WALL (       7 calls)
     paro_k       :    387.66s CPU    404.21s WALL (       7 calls)

     Called by paro_*:
     h_psi        :    222.30s CPU    235.69s WALL (     630 calls)
     g_psi        :      2.63s CPU      2.77s WALL (   35239 calls)

     Called by h_psi:
     h_psi:calbec :     36.22s CPU     36.55s WALL (     630 calls)
     vloc_psi     :    146.56s CPU    159.24s WALL (     630 calls)
     add_vuspsi   :     38.10s CPU     38.18s WALL (     630 calls)

     General routines
     calbec       :     36.22s CPU     36.55s WALL (     630 calls)
     fft          :      0.04s CPU      0.06s WALL (      10 calls)
     fftw         :    129.21s CPU    140.73s WALL (   60358 calls)
 
     Parallel routines
 
     PWSCF        :   6m43.42s CPU   7m 0.84s WALL

 
   This run was terminated on:  21:59:59   3Jan2024            

=------------------------------------------------------------------------------=
   JOB DONE.
=------------------------------------------------------------------------------=
