 vasp.5.4.4.18Apr17-6-g9f103f2a35 (build Aug 24 2017 11:22:49) complex          
  
 executed on             LinuxIFC date 2023.12.25  13:07:24
 running on    8 total cores
 distrk:  each k-point on    8 cores,    1 groups
 distr:  one band on NCORES_PER_BAND=   1 cores,    8 groups


--------------------------------------------------------------------------------------------------------


 INCAR:
 POTCAR:    PAW_PBE Al 04Jan2001                  
 POTCAR:    PAW_PBE P 06Sep2000                   

 ----------------------------------------------------------------------------- 
|                                                                             |
|           W    W    AA    RRRRR   N    N  II  N    N   GGGG   !!!           |
|           W    W   A  A   R    R  NN   N  II  NN   N  G    G  !!!           |
|           W    W  A    A  R    R  N N  N  II  N N  N  G       !!!           |
|           W WW W  AAAAAA  RRRRR   N  N N  II  N  N N  G  GGG   !            |
|           WW  WW  A    A  R   R   N   NN  II  N   NN  G    G                |
|           W    W  A    A  R    R  N    N  II  N    N   GGGG   !!!           |
|                                                                             |
|      For optimal performance we recommend to set                            |
|        NCORE= 4 - approx SQRT( number of cores)                             |
|      NCORE specifies how many cores store one orbital (NPAR=cpu/NCORE).     |
|      This setting can  greatly improve the performance of VASP for DFT.     |
|      The default,   NCORE=1            might be grossly inefficient         |
|      on modern multi-core architectures or massively parallel machines.     |
|      Do your own testing !!!!                                               |
|      Unfortunately you need to use the default for GW and RPA calculations. |
|      (for HF NCORE is supported but not extensively tested yet)             |
|                                                                             |
 ----------------------------------------------------------------------------- 

 POTCAR:    PAW_PBE Al 04Jan2001                  
   VRHFIN =Al: s2p1                                                             
   LEXCH  = PE                                                                  
   EATOM  =    53.5387 eV,    3.9350 Ry                                         
                                                                                
   TITEL  = PAW_PBE Al 04Jan2001                                                
   LULTRA =        F    use ultrasoft PP ?                                      
   IUNSCR =        1    unscreen: 0-lin 1-nonlin 2-no                           
   RPACOR =    1.500    partial core radius                                     
   POMASS =   26.981; ZVAL   =    3.000    mass and valenz                      
   RCORE  =    1.900    outmost cutoff radius                                   
   RWIGS  =    2.650; RWIGS  =    1.402    wigner-seitz radius (au A)           
   ENMAX  =  240.300; ENMIN  =  180.225 eV                                      
   ICORE  =        2    local potential                                         
   LCOR   =        T    correct aug charges                                     
   LPAW   =        T    paw PP                                                  
   EAUG   =  291.052                                                            
   DEXC   =    0.000                                                            
   RMAX   =    1.939    core radius for proj-oper                               
   RAUG   =    1.300    factor for augmentation sphere                          
   RDEP   =    1.966    radius for radial grids                                 
   RDEPT  =    1.856    core radius for aug-charge                              
                                                                                
   Atomic configuration                                                         
    6 entries                                                                   
     n  l   j            E        occ.                                          
     1  0  0.50     -1511.1048   2.0000                                         
     2  0  0.50      -108.1629   2.0000                                         
     2  1  1.50       -69.6402   6.0000                                         
     3  0  0.50        -7.7528   2.0000                                         
     3  1  1.50        -2.7121   1.0000                                         
     3  2  2.50        -2.7212   0.0000                                         
   Description                                                                  
     l       E           TYP  RCUT    TYP  RCUT                                 
     0     -7.7528455     23  1.900                                             
     0     -3.3096929     23  1.900                                             
     1     -2.7120682     23  1.900                                             
     1     13.6058260     23  1.900                                             
     2     -2.7211652      7  1.900                                             
  local pseudopotential read in
  partial core-charges read in
  partial kinetic energy density read in
  atomic valenz-charges read in
  non local Contribution for L=           0  read in
    real space projection operators read in
  non local Contribution for L=           0  read in
    real space projection operators read in
  non local Contribution for L=           1  read in
    real space projection operators read in
  non local Contribution for L=           1  read in
    real space projection operators read in
    PAW grid and wavefunctions read in
 
   number of l-projection  operators is LMAX  =           4
   number of lm-projection operators is LMMAX =           8
 
 POTCAR:    PAW_PBE P 06Sep2000                   
   VRHFIN =P : s2p3                                                             
   LEXCH  = PE                                                                  
   EATOM  =   176.0430 eV,   12.9388 Ry                                         
                                                                                
   TITEL  = PAW_PBE P 06Sep2000                                                 
   LULTRA =        F    use ultrasoft PP ?                                      
   IUNSCR =        1    unscreen: 0-lin 1-nonlin 2-no                           
   RPACOR =    1.500    partial core radius                                     
   POMASS =   30.974; ZVAL   =    5.000    mass and valenz                      
   RCORE  =    1.900    outmost cutoff radius                                   
   RWIGS  =    2.330; RWIGS  =    1.233    wigner-seitz radius (au A)           
   ENMAX  =  255.040; ENMIN  =  191.280 eV                                      
   ICORE  =        2    local potential                                         
   LCOR   =        T    correct aug charges                                     
   LPAW   =        T    paw PP                                                  
   EAUG   =  342.924                                                            
   DEXC   =    0.000                                                            
   RMAX   =    1.935    core radius for proj-oper                               
   RAUG   =    1.300    factor for augmentation sphere                          
   RDEP   =    1.931    radius for radial grids                                 
   RDEPT  =    1.794    core radius for aug-charge                              
                                                                                
   Atomic configuration                                                         
    6 entries                                                                   
     n  l   j            E        occ.                                          
     1  0  0.50     -2084.0982   2.0000                                         
     2  0  0.50      -173.9859   2.0000                                         
     2  1  1.50      -124.4865   6.0000                                         
     3  0  0.50       -13.9692   2.0000                                         
     3  1  0.50        -5.5067   3.0000                                         
     3  2  1.50        -5.4423   0.0000                                         
   Description                                                                  
     l       E           TYP  RCUT    TYP  RCUT                                 
     0    -13.9691527     23  1.900                                             
     0    -11.7794650     23  1.900                                             
     1     -5.5066937     23  1.900                                             
     1     -0.2556953     23  1.900                                             
     2     -5.4423304     23  1.900                                             
  local pseudopotential read in
  partial core-charges read in
  partial kinetic energy density read in
  atomic valenz-charges read in
  non local Contribution for L=           0  read in
    real space projection operators read in
  non local Contribution for L=           0  read in
    real space projection operators read in
  non local Contribution for L=           1  read in
    real space projection operators read in
  non local Contribution for L=           1  read in
    real space projection operators read in
    PAW grid and wavefunctions read in
 
   number of l-projection  operators is LMAX  =           4
   number of lm-projection operators is LMMAX =           8
 
  PAW_PBE Al 04Jan2001                  :
 energy of atom  1       EATOM=  -53.5387
 kinetic energy error for atom=    0.0002 (will be added to EATOM!!)
  PAW_PBE P 06Sep2000                   :
 energy of atom  2       EATOM= -176.0430
 kinetic energy error for atom=    0.0011 (will be added to EATOM!!)
 
 
 POSCAR: Al1 P1                                  
  positions in direct lattice
  No initial velocities read in
 exchange correlation table for  LEXCH =        8
   RHO(1)=    0.500       N(1)  =     2000
   RHO(2)=  100.500       N(2)  =     4000
 


--------------------------------------------------------------------------------------------------------


 ion  position               nearest neighbor table
   1  0.000  0.000  0.000-   2 2.37   2 2.37   2 2.37   2 2.37
   2  0.750  0.750  0.750-   1 2.37   1 2.37   1 2.37   1 2.37
 
  LATTYP: Found a face centered cubic cell.
 ALAT       =     5.4729670056
  
  Lattice vectors:
  
 A1 = (  -2.7364835028,   0.0000000000,   2.7364835028)
 A2 = (   0.0000000000,   2.7364835028,   2.7364835028)
 A3 = (  -2.7364835028,   2.7364835028,   0.0000000000)


Analysis of symmetry for initial positions (statically):
=====================================================================
 Subroutine PRICEL returns:
 Original cell was already a primitive cell.
 

 Routine SETGRP: Setting up the symmetry group for a 
 face centered cubic supercell.


 Subroutine GETGRP returns: Found  6 space group operations
 (whereof  6 operations were pure point group operations)
 out of a pool of 48 trial point group operations.


The static configuration has the point symmetry C_3v.


Analysis of symmetry for dynamics (positions and initial velocities):
=====================================================================
 Subroutine PRICEL returns:
 Original cell was already a primitive cell.
 

 Routine SETGRP: Setting up the symmetry group for a 
 face centered cubic supercell.


 Subroutine GETGRP returns: Found  6 space group operations
 (whereof  6 operations were pure point group operations)
 out of a pool of 48 trial point group operations.


The dynamic configuration has the point symmetry C_3v.


 Subroutine INISYM returns: Found  6 space group operations
 (whereof  6 operations are pure point group operations),
 and found     1 'primitive' translations

 
 
 KPOINTS: pymatgen with grid density = 3000 / numb

Automatic generation of k-mesh.
Space group operators:
 irot       det(A)        alpha          n_x          n_y          n_z        tau_x        tau_y        tau_z
    1     1.000000     0.000000     1.000000     0.000000     0.000000     0.000000     0.000000     0.000000
    2    -1.000000   180.000000     0.707107     0.000000    -0.707107     0.000000     0.000000     0.000000
    3     1.000000   120.000000    -0.577350    -0.577350    -0.577350     0.000000     0.000000     0.000000
    4     1.000000   120.000000     0.577350     0.577350     0.577350     0.000000     0.000000     0.000000
    5    -1.000000   180.000000     0.707107    -0.707107    -0.000000     0.000000     0.000000     0.000000
    6    -1.000000   180.000000    -0.000000    -0.707107     0.707107     0.000000     0.000000     0.000000
 
 Subroutine IBZKPT returns following result:
 ===========================================
 
 Found    189 irreducible k-points:
 
 Following reciprocal coordinates:
            Coordinates               Weight
  0.000000  0.000000  0.000000      1.000000
  0.083333 -0.000000  0.000000      6.000000
  0.166667  0.000000  0.000000      6.000000
  0.250000 -0.000000  0.000000      6.000000
  0.333333  0.000000  0.000000      6.000000
  0.416667 -0.000000 -0.000000      6.000000
  0.500000 -0.000000  0.000000      3.000000
 -0.000000  0.083333  0.000000      2.000000
  0.083333  0.083333  0.000000      6.000000
  0.166667  0.083333  0.000000      6.000000
  0.250000  0.083333  0.000000      6.000000
  0.333333  0.083333  0.000000      6.000000
  0.416667  0.083333  0.000000      6.000000
  0.500000  0.083333 -0.000000      6.000000
 -0.416667  0.083333 -0.000000      6.000000
 -0.333333  0.083333  0.000000      6.000000
 -0.250000  0.083333 -0.000000      6.000000
 -0.166667  0.083333 -0.000000      6.000000
 -0.083333  0.083333  0.000000      6.000000
  0.000000  0.166667  0.000000      2.000000
  0.083333  0.166667  0.000000      6.000000
  0.166667  0.166667  0.000000      6.000000
  0.250000  0.166667  0.000000      6.000000
  0.333333  0.166667  0.000000      6.000000
  0.416667  0.166667  0.000000      6.000000
  0.500000  0.166667 -0.000000      6.000000
 -0.416667  0.166667  0.000000      6.000000
 -0.333333  0.166667 -0.000000      6.000000
 -0.250000  0.166667  0.000000      6.000000
 -0.166667  0.166667 -0.000000      6.000000
 -0.083333  0.166667  0.000000      6.000000
 -0.000000  0.250000  0.000000      2.000000
  0.083333  0.250000  0.000000      6.000000
  0.166667  0.250000  0.000000      6.000000
  0.250000  0.250000  0.000000      6.000000
  0.333333  0.250000  0.000000      6.000000
  0.416667  0.250000  0.000000      6.000000
  0.500000  0.250000  0.000000      6.000000
 -0.416667  0.250000  0.000000      6.000000
 -0.333333  0.250000  0.000000      6.000000
 -0.250000  0.250000  0.000000      6.000000
 -0.166667  0.250000  0.000000      6.000000
 -0.083333  0.250000  0.000000      6.000000
  0.000000  0.333333 -0.000000      2.000000
  0.083333  0.333333  0.000000      6.000000
  0.166667  0.333333  0.000000      6.000000
  0.250000  0.333333  0.000000      6.000000
  0.333333  0.333333  0.000000      6.000000
  0.416667  0.333333  0.000000      6.000000
  0.500000  0.333333  0.000000      6.000000
 -0.416667  0.333333 -0.000000      6.000000
 -0.333333  0.333333 -0.000000      6.000000
 -0.250000  0.333333 -0.000000      6.000000
 -0.166667  0.333333  0.000000      6.000000
 -0.083333  0.333333  0.000000      6.000000
  0.000000  0.416667  0.000000      2.000000
  0.083333  0.416667 -0.000000      6.000000
  0.166667  0.416667  0.000000      6.000000
  0.250000  0.416667  0.000000      6.000000
  0.333333  0.416667  0.000000      6.000000
  0.416667  0.416667  0.000000      6.000000
  0.500000  0.416667  0.000000      6.000000
 -0.416667  0.416667  0.000000      6.000000
 -0.333333  0.416667  0.000000      6.000000
 -0.250000  0.416667  0.000000      6.000000
 -0.166667  0.416667  0.000000      6.000000
 -0.083333  0.416667  0.000000      6.000000
 -0.000000  0.500000  0.000000      1.000000
  0.083333  0.500000  0.000000      6.000000
  0.166667  0.500000  0.000000      6.000000
  0.250000  0.500000  0.000000      6.000000
  0.333333  0.500000  0.000000      6.000000
  0.416667  0.500000  0.000000      6.000000
  0.500000  0.500000  0.000000      3.000000
  0.166667  0.000000  0.083333     12.000000
  0.250000 -0.000000  0.083333     12.000000
  0.333333 -0.000000  0.083333     12.000000
  0.416667  0.000000  0.083333     12.000000
  0.500000  0.000000  0.083333     12.000000
 -0.416667  0.000000  0.083333     12.000000
 -0.333333  0.000000  0.083333     12.000000
 -0.250000 -0.000000  0.083333     12.000000
 -0.166667 -0.000000  0.083333     12.000000
 -0.083333  0.000000  0.083333      6.000000
  0.250000  0.166667  0.083333     12.000000
  0.333333  0.166667  0.083333     12.000000
  0.416667  0.166667  0.083333     12.000000
  0.500000  0.166667  0.083333     12.000000
 -0.416667  0.166667  0.083333     12.000000
 -0.333333  0.166667  0.083333     12.000000
 -0.250000  0.166667  0.083333     12.000000
 -0.166667  0.166667  0.083333     12.000000
 -0.083333  0.166667  0.083333     12.000000
  0.250000  0.250000  0.083333     12.000000
  0.333333  0.250000  0.083333     12.000000
  0.416667  0.250000  0.083333     12.000000
  0.500000  0.250000  0.083333     12.000000
 -0.416667  0.250000  0.083333     12.000000
 -0.333333  0.250000  0.083333     12.000000
 -0.250000  0.250000  0.083333     12.000000
 -0.166667  0.250000  0.083333     12.000000
 -0.083333  0.250000  0.083333     12.000000
  0.250000  0.333333  0.083333     12.000000
  0.333333  0.333333  0.083333     12.000000
  0.416667  0.333333  0.083333     12.000000
  0.500000  0.333333  0.083333     12.000000
 -0.416667  0.333333  0.083333     12.000000
 -0.333333  0.333333  0.083333     12.000000
 -0.250000  0.333333  0.083333     12.000000
 -0.166667  0.333333  0.083333     12.000000
 -0.083333  0.333333  0.083333     12.000000
  0.250000  0.416667  0.083333     12.000000
  0.333333  0.416667  0.083333     12.000000
  0.416667  0.416667  0.083333     12.000000
  0.500000  0.416667  0.083333     12.000000
 -0.416667  0.416667  0.083333     12.000000
 -0.333333  0.416667  0.083333     12.000000
 -0.250000  0.416667  0.083333     12.000000
 -0.166667  0.416667  0.083333     12.000000
 -0.083333  0.416667  0.083333     12.000000
  0.250000  0.500000  0.083333     12.000000
  0.333333  0.500000  0.083333     12.000000
  0.416667  0.500000  0.083333     12.000000
  0.500000  0.500000  0.083333     12.000000
 -0.416667  0.500000  0.083333     12.000000
 -0.333333  0.500000  0.083333     12.000000
 -0.250000  0.500000  0.083333     12.000000
 -0.166667  0.500000  0.083333     12.000000
 -0.083333  0.500000  0.083333      6.000000
  0.333333  0.000000  0.166667     12.000000
  0.416667  0.000000  0.166667     12.000000
  0.500000  0.000000  0.166667     12.000000
 -0.416667  0.000000  0.166667     12.000000
 -0.333333 -0.000000  0.166667     12.000000
 -0.250000  0.000000  0.166667     12.000000
 -0.166667 -0.000000  0.166667      6.000000
  0.333333  0.083333  0.166667     12.000000
  0.416667  0.083333  0.166667     12.000000
  0.500000  0.083333  0.166667     12.000000
 -0.416667  0.083333  0.166667      6.000000
  0.416667  0.250000  0.166667     12.000000
  0.500000  0.250000  0.166667     12.000000
 -0.416667  0.250000  0.166667     12.000000
 -0.333333  0.250000  0.166667     12.000000
 -0.250000  0.250000  0.166667     12.000000
 -0.166667  0.250000  0.166667     12.000000
  0.416667  0.333333  0.166667     12.000000
  0.500000  0.333333  0.166667     12.000000
 -0.416667  0.333333  0.166667     12.000000
 -0.333333  0.333333  0.166667     12.000000
 -0.250000  0.333333  0.166667     12.000000
 -0.166667  0.333333  0.166667     12.000000
  0.416667  0.416667  0.166667     12.000000
  0.500000  0.416667  0.166667     12.000000
 -0.416667  0.416667  0.166667     12.000000
 -0.333333  0.416667  0.166667     12.000000
 -0.250000  0.416667  0.166667     12.000000
 -0.166667  0.416667  0.166667     12.000000
  0.416667  0.500000  0.166667     12.000000
  0.500000  0.500000  0.166667     12.000000
 -0.416667  0.500000  0.166667     12.000000
 -0.333333  0.500000  0.166667     12.000000
 -0.250000  0.500000  0.166667     12.000000
 -0.166667  0.500000  0.166667      6.000000
  0.416667 -0.416667  0.166667     12.000000
  0.500000 -0.416667  0.166667     12.000000
 -0.416667 -0.416667  0.166667      6.000000
  0.500000  0.000000  0.250000     12.000000
 -0.416667  0.000000  0.250000     12.000000
 -0.333333  0.000000  0.250000     12.000000
 -0.250000 -0.000000  0.250000      6.000000
  0.500000  0.083333  0.250000     12.000000
 -0.416667  0.083333  0.250000     12.000000
 -0.333333  0.083333  0.250000     12.000000
 -0.250000  0.083333  0.250000     12.000000
 -0.416667  0.333333  0.250000     12.000000
 -0.333333  0.333333  0.250000     12.000000
 -0.250000  0.333333  0.250000     12.000000
 -0.416667  0.416667  0.250000     12.000000
 -0.333333  0.416667  0.250000     12.000000
 -0.250000  0.416667  0.250000     12.000000
 -0.416667  0.500000  0.250000     12.000000
 -0.333333  0.500000  0.250000     12.000000
 -0.250000  0.500000  0.250000      6.000000
 -0.416667 -0.416667  0.250000     12.000000
 -0.333333 -0.416667  0.250000     12.000000
 -0.333333 -0.000000  0.333333      6.000000
 -0.333333  0.083333  0.333333     12.000000
 -0.333333  0.166667  0.333333      6.000000
 
 Following cartesian coordinates:
            Coordinates               Weight
  0.000000  0.000000  0.000000      1.000000
 -0.015226 -0.015226  0.015226      6.000000
 -0.030453 -0.030453  0.030453      6.000000
 -0.045679 -0.045679  0.045679      6.000000
 -0.060905 -0.060905  0.060905      6.000000
 -0.076132 -0.076132  0.076132      6.000000
 -0.091358 -0.091358  0.091358      3.000000
  0.015226  0.015226  0.015226      2.000000
  0.000000  0.000000  0.030453      6.000000
 -0.015226 -0.015226  0.045679      6.000000
 -0.030453 -0.030453  0.060905      6.000000
 -0.045679 -0.045679  0.076132      6.000000
 -0.060905 -0.060905  0.091358      6.000000
 -0.076132 -0.076132  0.106584      6.000000
  0.091358  0.091358 -0.060905      6.000000
  0.076132  0.076132 -0.045679      6.000000
  0.060905  0.060905 -0.030453      6.000000
  0.045679  0.045679 -0.015226      6.000000
  0.030453  0.030453  0.000000      6.000000
  0.030453  0.030453  0.030453      2.000000
  0.015226  0.015226  0.045679      6.000000
  0.000000  0.000000  0.060905      6.000000
 -0.015226 -0.015226  0.076132      6.000000
 -0.030453 -0.030453  0.091358      6.000000
 -0.045679 -0.045679  0.106584      6.000000
 -0.060905 -0.060905  0.121811      6.000000
  0.106584  0.106584 -0.045679      6.000000
  0.091358  0.091358 -0.030453      6.000000
  0.076132  0.076132 -0.015226      6.000000
  0.060905  0.060905  0.000000      6.000000
  0.045679  0.045679  0.015226      6.000000
  0.045679  0.045679  0.045679      2.000000
  0.030453  0.030453  0.060905      6.000000
  0.015226  0.015226  0.076132      6.000000
  0.000000  0.000000  0.091358      6.000000
 -0.015226 -0.015226  0.106584      6.000000
 -0.030453 -0.030453  0.121811      6.000000
 -0.045679 -0.045679  0.137037      6.000000
  0.121811  0.121811 -0.030453      6.000000
  0.106584  0.106584 -0.015226      6.000000
  0.091358  0.091358  0.000000      6.000000
  0.076132  0.076132  0.015226      6.000000
  0.060905  0.060905  0.030453      6.000000
  0.060905  0.060905  0.060905      2.000000
  0.045679  0.045679  0.076132      6.000000
  0.030453  0.030453  0.091358      6.000000
  0.015226  0.015226  0.106584      6.000000
 -0.000000  0.000000  0.121811      6.000000
 -0.015226 -0.015226  0.137037      6.000000
 -0.030453 -0.030453  0.152264      6.000000
  0.137037  0.137037 -0.015226      6.000000
  0.121811  0.121811  0.000000      6.000000
  0.106584  0.106584  0.015226      6.000000
  0.091358  0.091358  0.030453      6.000000
  0.076132  0.076132  0.045679      6.000000
  0.076132  0.076132  0.076132      2.000000
  0.060905  0.060905  0.091358      6.000000
  0.045679  0.045679  0.106584      6.000000
  0.030453  0.030453  0.121811      6.000000
  0.015226  0.015226  0.137037      6.000000
  0.000000  0.000000  0.152264      6.000000
 -0.015226 -0.015226  0.167490      6.000000
  0.152264  0.152264  0.000000      6.000000
  0.137037  0.137037  0.015226      6.000000
  0.121811  0.121811  0.030453      6.000000
  0.106584  0.106584  0.045679      6.000000
  0.091358  0.091358  0.060905      6.000000
  0.091358  0.091358  0.091358      1.000000
  0.076132  0.076132  0.106584      6.000000
  0.060905  0.060905  0.121811      6.000000
  0.045679  0.045679  0.137037      6.000000
  0.030453  0.030453  0.152264      6.000000
  0.015226  0.015226  0.167490      6.000000
  0.000000  0.000000  0.182716      3.000000
 -0.045679 -0.015226  0.015226     12.000000
 -0.060905 -0.030453  0.030453     12.000000
 -0.076132 -0.045679  0.045679     12.000000
 -0.091358 -0.060905  0.060905     12.000000
 -0.106584 -0.076132  0.076132     12.000000
  0.060905  0.091358 -0.091358     12.000000
  0.045679  0.076132 -0.076132     12.000000
  0.030453  0.060905 -0.060905     12.000000
  0.015226  0.045679 -0.045679     12.000000
  0.000000  0.030453 -0.030453      6.000000
 -0.030453  0.000000  0.060905     12.000000
 -0.045679 -0.015226  0.076132     12.000000
 -0.060905 -0.030453  0.091358     12.000000
 -0.076132 -0.045679  0.106584     12.000000
  0.091358  0.121811 -0.060905     12.000000
  0.076132  0.106584 -0.045679     12.000000
  0.060905  0.091358 -0.030453     12.000000
  0.045679  0.076132 -0.015226     12.000000
  0.030453  0.060905  0.000000     12.000000
 -0.015226  0.015226  0.076132     12.000000
 -0.030453  0.000000  0.091358     12.000000
 -0.045679 -0.015226  0.106584     12.000000
 -0.060905 -0.030453  0.121811     12.000000
  0.106584  0.137037 -0.045679     12.000000
  0.091358  0.121811 -0.030453     12.000000
  0.076132  0.106584 -0.015226     12.000000
  0.060905  0.091358  0.000000     12.000000
  0.045679  0.076132  0.015226     12.000000
  0.000000  0.030453  0.091358     12.000000
 -0.015226  0.015226  0.106584     12.000000
 -0.030453 -0.000000  0.121811     12.000000
 -0.045679 -0.015226  0.137037     12.000000
  0.121811  0.152264 -0.030453     12.000000
  0.106584  0.137037 -0.015226     12.000000
  0.091358  0.121811  0.000000     12.000000
  0.076132  0.106584  0.015226     12.000000
  0.060905  0.091358  0.030453     12.000000
  0.015226  0.045679  0.106584     12.000000
  0.000000  0.030453  0.121811     12.000000
 -0.015226  0.015226  0.137037     12.000000
 -0.030453  0.000000  0.152264     12.000000
  0.137037  0.167490 -0.015226     12.000000
  0.121811  0.152264  0.000000     12.000000
  0.106584  0.137037  0.015226     12.000000
  0.091358  0.121811  0.030453     12.000000
  0.076132  0.106584  0.045679     12.000000
  0.030453  0.060905  0.121811     12.000000
  0.015226  0.045679  0.137037     12.000000
  0.000000  0.030453  0.152264     12.000000
 -0.015226  0.015226  0.167490     12.000000
  0.152264  0.182716  0.000000     12.000000
  0.137037  0.167490  0.015226     12.000000
  0.121811  0.152264  0.030453     12.000000
  0.106584  0.137037  0.045679     12.000000
  0.091358  0.121811  0.060905      6.000000
 -0.091358 -0.030453  0.030453     12.000000
 -0.106584 -0.045679  0.045679     12.000000
 -0.121811 -0.060905  0.060905     12.000000
  0.045679  0.106584 -0.106584     12.000000
  0.030453  0.091358 -0.091358     12.000000
  0.015226  0.076132 -0.076132     12.000000
  0.000000  0.060905 -0.060905      6.000000
 -0.076132 -0.015226  0.045679     12.000000
 -0.091358 -0.030453  0.060905     12.000000
 -0.106584 -0.045679  0.076132     12.000000
  0.060905  0.121811 -0.091358      6.000000
 -0.060905  0.000000  0.091358     12.000000
 -0.076132 -0.015226  0.106584     12.000000
  0.091358  0.152264 -0.060905     12.000000
  0.076132  0.137037 -0.045679     12.000000
  0.060905  0.121811 -0.030453     12.000000
  0.045679  0.106584 -0.015226     12.000000
 -0.045679  0.015226  0.106584     12.000000
 -0.060905  0.000000  0.121811     12.000000
  0.106584  0.167490 -0.045679     12.000000
  0.091358  0.152264 -0.030453     12.000000
  0.076132  0.137037 -0.015226     12.000000
  0.060905  0.121811 -0.000000     12.000000
 -0.030453  0.030453  0.121811     12.000000
 -0.045679  0.015226  0.137037     12.000000
  0.121811  0.182716 -0.030453     12.000000
  0.106584  0.167490 -0.015226     12.000000
  0.091358  0.152264  0.000000     12.000000
  0.076132  0.137037  0.015226     12.000000
 -0.015226  0.045679  0.137037     12.000000
 -0.030453  0.030453  0.152264     12.000000
  0.137037  0.197943 -0.015226     12.000000
  0.121811  0.182716  0.000000     12.000000
  0.106584  0.167490  0.015226     12.000000
  0.091358  0.152264  0.030453      6.000000
 -0.182716 -0.121811 -0.030453     12.000000
 -0.197943 -0.137037 -0.015226     12.000000
 -0.030453  0.030453 -0.182716      6.000000
 -0.137037 -0.045679  0.045679     12.000000
  0.030453  0.121811 -0.121811     12.000000
  0.015226  0.106584 -0.106584     12.000000
 -0.000000  0.091358 -0.091358      6.000000
 -0.121811 -0.030453  0.060905     12.000000
  0.045679  0.137037 -0.106584     12.000000
  0.030453  0.121811 -0.091358     12.000000
  0.015226  0.106584 -0.076132     12.000000
  0.091358  0.182716 -0.060905     12.000000
  0.076132  0.167490 -0.045679     12.000000
  0.060905  0.152264 -0.030453     12.000000
  0.106584  0.197943 -0.045679     12.000000
  0.091358  0.182716 -0.030453     12.000000
  0.076132  0.167490 -0.015226     12.000000
  0.121811  0.213169 -0.030453     12.000000
  0.106584  0.197943 -0.015226     12.000000
  0.091358  0.182716  0.000000      6.000000
 -0.045679  0.045679 -0.197943     12.000000
 -0.060905  0.030453 -0.182716     12.000000
  0.000000  0.121811 -0.121811      6.000000
  0.015226  0.137037 -0.106584     12.000000
  0.030453  0.152264 -0.091358      6.000000
 
 
 Subroutine IBZKPT_HF returns following result:
 ==============================================
 
 Found   1728 k-points in 1st BZ
 the following   1728 k-points will be used (e.g. in the exchange kernel)
 Following reciprocal coordinates:   # in IRBZ
  0.000000  0.000000  0.000000    0.00057870   1 t-inv F
  0.083333 -0.000000  0.000000    0.00057870   2 t-inv F
  0.166667  0.000000  0.000000    0.00057870   3 t-inv F
  0.250000 -0.000000  0.000000    0.00057870   4 t-inv F
  0.333333  0.000000  0.000000    0.00057870   5 t-inv F
  0.416667 -0.000000 -0.000000    0.00057870   6 t-inv F
  0.500000 -0.000000  0.000000    0.00057870   7 t-inv F
 -0.000000  0.083333  0.000000    0.00057870   8 t-inv F
  0.083333  0.083333  0.000000    0.00057870   9 t-inv F
  0.166667  0.083333  0.000000    0.00057870  10 t-inv F
  0.250000  0.083333  0.000000    0.00057870  11 t-inv F
  0.333333  0.083333  0.000000    0.00057870  12 t-inv F
  0.416667  0.083333  0.000000    0.00057870  13 t-inv F
  0.500000  0.083333 -0.000000    0.00057870  14 t-inv F
 -0.416667  0.083333 -0.000000    0.00057870  15 t-inv F
 -0.333333  0.083333  0.000000    0.00057870  16 t-inv F
 -0.250000  0.083333 -0.000000    0.00057870  17 t-inv F
 -0.166667  0.083333 -0.000000    0.00057870  18 t-inv F
 -0.083333  0.083333  0.000000    0.00057870  19 t-inv F
  0.000000  0.166667  0.000000    0.00057870  20 t-inv F
  0.083333  0.166667  0.000000    0.00057870  21 t-inv F
  0.166667  0.166667  0.000000    0.00057870  22 t-inv F
  0.250000  0.166667  0.000000    0.00057870  23 t-inv F
  0.333333  0.166667  0.000000    0.00057870  24 t-inv F
  0.416667  0.166667  0.000000    0.00057870  25 t-inv F
  0.500000  0.166667 -0.000000    0.00057870  26 t-inv F
 -0.416667  0.166667  0.000000    0.00057870  27 t-inv F
 -0.333333  0.166667 -0.000000    0.00057870  28 t-inv F
 -0.250000  0.166667  0.000000    0.00057870  29 t-inv F
 -0.166667  0.166667 -0.000000    0.00057870  30 t-inv F
 -0.083333  0.166667  0.000000    0.00057870  31 t-inv F
 -0.000000  0.250000  0.000000    0.00057870  32 t-inv F
  0.083333  0.250000  0.000000    0.00057870  33 t-inv F
  0.166667  0.250000  0.000000    0.00057870  34 t-inv F
  0.250000  0.250000  0.000000    0.00057870  35 t-inv F
  0.333333  0.250000  0.000000    0.00057870  36 t-inv F
  0.416667  0.250000  0.000000    0.00057870  37 t-inv F
  0.500000  0.250000  0.000000    0.00057870  38 t-inv F
 -0.416667  0.250000  0.000000    0.00057870  39 t-inv F
 -0.333333  0.250000  0.000000    0.00057870  40 t-inv F
 -0.250000  0.250000  0.000000    0.00057870  41 t-inv F
 -0.166667  0.250000  0.000000    0.00057870  42 t-inv F
 -0.083333  0.250000  0.000000    0.00057870  43 t-inv F
  0.000000  0.333333 -0.000000    0.00057870  44 t-inv F
  0.083333  0.333333  0.000000    0.00057870  45 t-inv F
  0.166667  0.333333  0.000000    0.00057870  46 t-inv F
  0.250000  0.333333  0.000000    0.00057870  47 t-inv F
  0.333333  0.333333  0.000000    0.00057870  48 t-inv F
  0.416667  0.333333  0.000000    0.00057870  49 t-inv F
  0.500000  0.333333  0.000000    0.00057870  50 t-inv F
 -0.416667  0.333333 -0.000000    0.00057870  51 t-inv F
 -0.333333  0.333333 -0.000000    0.00057870  52 t-inv F
 -0.250000  0.333333 -0.000000    0.00057870  53 t-inv F
 -0.166667  0.333333  0.000000    0.00057870  54 t-inv F
 -0.083333  0.333333  0.000000    0.00057870  55 t-inv F
  0.000000  0.416667  0.000000    0.00057870  56 t-inv F
  0.083333  0.416667 -0.000000    0.00057870  57 t-inv F
  0.166667  0.416667  0.000000    0.00057870  58 t-inv F
  0.250000  0.416667  0.000000    0.00057870  59 t-inv F
  0.333333  0.416667  0.000000    0.00057870  60 t-inv F
  0.416667  0.416667  0.000000    0.00057870  61 t-inv F
  0.500000  0.416667  0.000000    0.00057870  62 t-inv F
 -0.416667  0.416667  0.000000    0.00057870  63 t-inv F
 -0.333333  0.416667  0.000000    0.00057870  64 t-inv F
 -0.250000  0.416667  0.000000    0.00057870  65 t-inv F
 -0.166667  0.416667  0.000000    0.00057870  66 t-inv F
 -0.083333  0.416667  0.000000    0.00057870  67 t-inv F
 -0.000000  0.500000  0.000000    0.00057870  68 t-inv F
  0.083333  0.500000  0.000000    0.00057870  69 t-inv F
  0.166667  0.500000  0.000000    0.00057870  70 t-inv F
  0.250000  0.500000  0.000000    0.00057870  71 t-inv F
  0.333333  0.500000  0.000000    0.00057870  72 t-inv F
  0.416667  0.500000  0.000000    0.00057870  73 t-inv F
  0.500000  0.500000  0.000000    0.00057870  74 t-inv F
  0.166667  0.000000  0.083333    0.00057870  75 t-inv F
  0.250000 -0.000000  0.083333    0.00057870  76 t-inv F
  0.333333 -0.000000  0.083333    0.00057870  77 t-inv F
  0.416667  0.000000  0.083333    0.00057870  78 t-inv F
  0.500000  0.000000  0.083333    0.00057870  79 t-inv F
 -0.416667  0.000000  0.083333    0.00057870  80 t-inv F
 -0.333333  0.000000  0.083333    0.00057870  81 t-inv F
 -0.250000 -0.000000  0.083333    0.00057870  82 t-inv F
 -0.166667 -0.000000  0.083333    0.00057870  83 t-inv F
 -0.083333  0.000000  0.083333    0.00057870  84 t-inv F
  0.250000  0.166667  0.083333    0.00057870  85 t-inv F
  0.333333  0.166667  0.083333    0.00057870  86 t-inv F
  0.416667  0.166667  0.083333    0.00057870  87 t-inv F
  0.500000  0.166667  0.083333    0.00057870  88 t-inv F
 -0.416667  0.166667  0.083333    0.00057870  89 t-inv F
 -0.333333  0.166667  0.083333    0.00057870  90 t-inv F
 -0.250000  0.166667  0.083333    0.00057870  91 t-inv F
 -0.166667  0.166667  0.083333    0.00057870  92 t-inv F
 -0.083333  0.166667  0.083333    0.00057870  93 t-inv F
  0.250000  0.250000  0.083333    0.00057870  94 t-inv F
  0.333333  0.250000  0.083333    0.00057870  95 t-inv F
  0.416667  0.250000  0.083333    0.00057870  96 t-inv F
  0.500000  0.250000  0.083333    0.00057870  97 t-inv F
 -0.416667  0.250000  0.083333    0.00057870  98 t-inv F
 -0.333333  0.250000  0.083333    0.00057870  99 t-inv F
 -0.250000  0.250000  0.083333    0.00057870 100 t-inv F
 -0.166667  0.250000  0.083333    0.00057870 101 t-inv F
 -0.083333  0.250000  0.083333    0.00057870 102 t-inv F
  0.250000  0.333333  0.083333    0.00057870 103 t-inv F
  0.333333  0.333333  0.083333    0.00057870 104 t-inv F
  0.416667  0.333333  0.083333    0.00057870 105 t-inv F
  0.500000  0.333333  0.083333    0.00057870 106 t-inv F
 -0.416667  0.333333  0.083333    0.00057870 107 t-inv F
 -0.333333  0.333333  0.083333    0.00057870 108 t-inv F
 -0.250000  0.333333  0.083333    0.00057870 109 t-inv F
 -0.166667  0.333333  0.083333    0.00057870 110 t-inv F
 -0.083333  0.333333  0.083333    0.00057870 111 t-inv F
  0.250000  0.416667  0.083333    0.00057870 112 t-inv F
  0.333333  0.416667  0.083333    0.00057870 113 t-inv F
  0.416667  0.416667  0.083333    0.00057870 114 t-inv F
  0.500000  0.416667  0.083333    0.00057870 115 t-inv F
 -0.416667  0.416667  0.083333    0.00057870 116 t-inv F
 -0.333333  0.416667  0.083333    0.00057870 117 t-inv F
 -0.250000  0.416667  0.083333    0.00057870 118 t-inv F
 -0.166667  0.416667  0.083333    0.00057870 119 t-inv F
 -0.083333  0.416667  0.083333    0.00057870 120 t-inv F
  0.250000  0.500000  0.083333    0.00057870 121 t-inv F
  0.333333  0.500000  0.083333    0.00057870 122 t-inv F
  0.416667  0.500000  0.083333    0.00057870 123 t-inv F
  0.500000  0.500000  0.083333    0.00057870 124 t-inv F
 -0.416667  0.500000  0.083333    0.00057870 125 t-inv F
 -0.333333  0.500000  0.083333    0.00057870 126 t-inv F
 -0.250000  0.500000  0.083333    0.00057870 127 t-inv F
 -0.166667  0.500000  0.083333    0.00057870 128 t-inv F
 -0.083333  0.500000  0.083333    0.00057870 129 t-inv F
  0.333333  0.000000  0.166667    0.00057870 130 t-inv F
  0.416667  0.000000  0.166667    0.00057870 131 t-inv F
  0.500000  0.000000  0.166667    0.00057870 132 t-inv F
 -0.416667  0.000000  0.166667    0.00057870 133 t-inv F
 -0.333333 -0.000000  0.166667    0.00057870 134 t-inv F
 -0.250000  0.000000  0.166667    0.00057870 135 t-inv F
 -0.166667 -0.000000  0.166667    0.00057870 136 t-inv F
  0.333333  0.083333  0.166667    0.00057870 137 t-inv F
  0.416667  0.083333  0.166667    0.00057870 138 t-inv F
  0.500000  0.083333  0.166667    0.00057870 139 t-inv F
 -0.416667  0.083333  0.166667    0.00057870 140 t-inv F
  0.416667  0.250000  0.166667    0.00057870 141 t-inv F
  0.500000  0.250000  0.166667    0.00057870 142 t-inv F
 -0.416667  0.250000  0.166667    0.00057870 143 t-inv F
 -0.333333  0.250000  0.166667    0.00057870 144 t-inv F
 -0.250000  0.250000  0.166667    0.00057870 145 t-inv F
 -0.166667  0.250000  0.166667    0.00057870 146 t-inv F
  0.416667  0.333333  0.166667    0.00057870 147 t-inv F
  0.500000  0.333333  0.166667    0.00057870 148 t-inv F
 -0.416667  0.333333  0.166667    0.00057870 149 t-inv F
 -0.333333  0.333333  0.166667    0.00057870 150 t-inv F
 -0.250000  0.333333  0.166667    0.00057870 151 t-inv F
 -0.166667  0.333333  0.166667    0.00057870 152 t-inv F
  0.416667  0.416667  0.166667    0.00057870 153 t-inv F
  0.500000  0.416667  0.166667    0.00057870 154 t-inv F
 -0.416667  0.416667  0.166667    0.00057870 155 t-inv F
 -0.333333  0.416667  0.166667    0.00057870 156 t-inv F
 -0.250000  0.416667  0.166667    0.00057870 157 t-inv F
 -0.166667  0.416667  0.166667    0.00057870 158 t-inv F
  0.416667  0.500000  0.166667    0.00057870 159 t-inv F
  0.500000  0.500000  0.166667    0.00057870 160 t-inv F
 -0.416667  0.500000  0.166667    0.00057870 161 t-inv F
 -0.333333  0.500000  0.166667    0.00057870 162 t-inv F
 -0.250000  0.500000  0.166667    0.00057870 163 t-inv F
 -0.166667  0.500000  0.166667    0.00057870 164 t-inv F
  0.416667 -0.416667  0.166667    0.00057870 165 t-inv F
  0.500000 -0.416667  0.166667    0.00057870 166 t-inv F
 -0.416667 -0.416667  0.166667    0.00057870 167 t-inv F
  0.500000  0.000000  0.250000    0.00057870 168 t-inv F
 -0.416667  0.000000  0.250000    0.00057870 169 t-inv F
 -0.333333  0.000000  0.250000    0.00057870 170 t-inv F
 -0.250000 -0.000000  0.250000    0.00057870 171 t-inv F
  0.500000  0.083333  0.250000    0.00057870 172 t-inv F
 -0.416667  0.083333  0.250000    0.00057870 173 t-inv F
 -0.333333  0.083333  0.250000    0.00057870 174 t-inv F
 -0.250000  0.083333  0.250000    0.00057870 175 t-inv F
 -0.416667  0.333333  0.250000    0.00057870 176 t-inv F
 -0.333333  0.333333  0.250000    0.00057870 177 t-inv F
 -0.250000  0.333333  0.250000    0.00057870 178 t-inv F
 -0.416667  0.416667  0.250000    0.00057870 179 t-inv F
 -0.333333  0.416667  0.250000    0.00057870 180 t-inv F
 -0.250000  0.416667  0.250000    0.00057870 181 t-inv F
 -0.416667  0.500000  0.250000    0.00057870 182 t-inv F
 -0.333333  0.500000  0.250000    0.00057870 183 t-inv F
 -0.250000  0.500000  0.250000    0.00057870 184 t-inv F
 -0.416667 -0.416667  0.250000    0.00057870 185 t-inv F
 -0.333333 -0.416667  0.250000    0.00057870 186 t-inv F
 -0.333333 -0.000000  0.333333    0.00057870 187 t-inv F
 -0.333333  0.083333  0.333333    0.00057870 188 t-inv F
 -0.333333  0.166667  0.333333    0.00057870 189 t-inv F
 -0.083333 -0.083333 -0.083333    0.00057870   2 t-inv F
 -0.000000 -0.000000  0.083333    0.00057870   2 t-inv F
 -0.166667 -0.166667 -0.166667    0.00057870   3 t-inv F
 -0.000000  0.000000  0.166667    0.00057870   3 t-inv F
 -0.250000 -0.250000 -0.250000    0.00057870   4 t-inv F
 -0.000000 -0.000000  0.250000    0.00057870   4 t-inv F
 -0.333333 -0.333333 -0.333333    0.00057870   5 t-inv F
 -0.000000 -0.000000  0.333333    0.00057870   5 t-inv F
 -0.416667 -0.416667 -0.416667    0.00057870   6 t-inv F
  0.000000 -0.000000  0.416667    0.00057870   6 t-inv F
 -0.500000 -0.500000 -0.500000    0.00057870   7 t-inv F
 -0.000000 -0.000000  0.500000    0.00057870   7 t-inv F
 -0.083333  0.000000 -0.083333    0.00057870   9 t-inv F
 -0.000000  0.083333  0.083333    0.00057870   9 t-inv F
 -0.166667 -0.083333 -0.166667    0.00057870  10 t-inv F
 -0.000000  0.083333  0.166667    0.00057870  10 t-inv F
 -0.250000 -0.166667 -0.250000    0.00057870  11 t-inv F
 -0.000000  0.083333  0.250000    0.00057870  11 t-inv F
 -0.333333 -0.250000 -0.333333    0.00057870  12 t-inv F
 -0.000000  0.083333  0.333333    0.00057870  12 t-inv F
 -0.416667 -0.333333 -0.416667    0.00057870  13 t-inv F
 -0.000000  0.083333  0.416667    0.00057870  13 t-inv F
 -0.500000 -0.416667 -0.500000    0.00057870  14 t-inv F
  0.000000  0.083333  0.500000    0.00057870  14 t-inv F
  0.416667  0.500000  0.416667    0.00057870  15 t-inv F
  0.000000  0.083333 -0.416667    0.00057870  15 t-inv F
  0.333333  0.416667  0.333333    0.00057870  16 t-inv F
 -0.000000  0.083333 -0.333333    0.00057870  16 t-inv F
  0.250000  0.333333  0.250000    0.00057870  17 t-inv F
  0.000000  0.083333 -0.250000    0.00057870  17 t-inv F
  0.166667  0.250000  0.166667    0.00057870  18 t-inv F
  0.000000  0.083333 -0.166667    0.00057870  18 t-inv F
  0.083333  0.166667  0.083333    0.00057870  19 t-inv F
 -0.000000  0.083333 -0.083333    0.00057870  19 t-inv F
 -0.083333  0.083333 -0.083333    0.00057870  21 t-inv F
 -0.000000  0.166667  0.083333    0.00057870  21 t-inv F
 -0.166667  0.000000 -0.166667    0.00057870  22 t-inv F
 -0.000000  0.166667  0.166667    0.00057870  22 t-inv F
 -0.250000 -0.083333 -0.250000    0.00057870  23 t-inv F
 -0.000000  0.166667  0.250000    0.00057870  23 t-inv F
 -0.333333 -0.166667 -0.333333    0.00057870  24 t-inv F
 -0.000000  0.166667  0.333333    0.00057870  24 t-inv F
 -0.416667 -0.250000 -0.416667    0.00057870  25 t-inv F
 -0.000000  0.166667  0.416667    0.00057870  25 t-inv F
 -0.500000 -0.333333 -0.500000    0.00057870  26 t-inv F
  0.000000  0.166667  0.500000    0.00057870  26 t-inv F
  0.416667  0.583333  0.416667    0.00057870  27 t-inv F
 -0.000000  0.166667 -0.416667    0.00057870  27 t-inv F
  0.333333  0.500000  0.333333    0.00057870  28 t-inv F
  0.000000  0.166667 -0.333333    0.00057870  28 t-inv F
  0.250000  0.416667  0.250000    0.00057870  29 t-inv F
 -0.000000  0.166667 -0.250000    0.00057870  29 t-inv F
  0.166667  0.333333  0.166667    0.00057870  30 t-inv F
  0.000000  0.166667 -0.166667    0.00057870  30 t-inv F
  0.083333  0.250000  0.083333    0.00057870  31 t-inv F
 -0.000000  0.166667 -0.083333    0.00057870  31 t-inv F
 -0.083333  0.166667 -0.083333    0.00057870  33 t-inv F
 -0.000000  0.250000  0.083333    0.00057870  33 t-inv F
 -0.166667  0.083333 -0.166667    0.00057870  34 t-inv F
 -0.000000  0.250000  0.166667    0.00057870  34 t-inv F
 -0.250000  0.000000 -0.250000    0.00057870  35 t-inv F
 -0.000000  0.250000  0.250000    0.00057870  35 t-inv F
 -0.333333 -0.083333 -0.333333    0.00057870  36 t-inv F
 -0.000000  0.250000  0.333333    0.00057870  36 t-inv F
 -0.416667 -0.166667 -0.416667    0.00057870  37 t-inv F
 -0.000000  0.250000  0.416667    0.00057870  37 t-inv F
 -0.500000 -0.250000 -0.500000    0.00057870  38 t-inv F
 -0.000000  0.250000  0.500000    0.00057870  38 t-inv F
  0.416667  0.666667  0.416667    0.00057870  39 t-inv F
 -0.000000  0.250000 -0.416667    0.00057870  39 t-inv F
  0.333333  0.583333  0.333333    0.00057870  40 t-inv F
 -0.000000  0.250000 -0.333333    0.00057870  40 t-inv F
  0.250000  0.500000  0.250000    0.00057870  41 t-inv F
 -0.000000  0.250000 -0.250000    0.00057870  41 t-inv F
  0.166667  0.416667  0.166667    0.00057870  42 t-inv F
 -0.000000  0.250000 -0.166667    0.00057870  42 t-inv F
  0.083333  0.333333  0.083333    0.00057870  43 t-inv F
 -0.000000  0.250000 -0.083333    0.00057870  43 t-inv F
 -0.083333  0.250000 -0.083333    0.00057870  45 t-inv F
 -0.000000  0.333333  0.083333    0.00057870  45 t-inv F
 -0.166667  0.166667 -0.166667    0.00057870  46 t-inv F
 -0.000000  0.333333  0.166667    0.00057870  46 t-inv F
 -0.250000  0.083333 -0.250000    0.00057870  47 t-inv F
 -0.000000  0.333333  0.250000    0.00057870  47 t-inv F
 -0.333333  0.000000 -0.333333    0.00057870  48 t-inv F
 -0.000000  0.333333  0.333333    0.00057870  48 t-inv F
 -0.416667 -0.083333 -0.416667    0.00057870  49 t-inv F
 -0.000000  0.333333  0.416667    0.00057870  49 t-inv F
 -0.500000 -0.166667 -0.500000    0.00057870  50 t-inv F
 -0.000000  0.333333  0.500000    0.00057870  50 t-inv F
  0.416667  0.750000  0.416667    0.00057870  51 t-inv F
  0.000000  0.333333 -0.416667    0.00057870  51 t-inv F
  0.333333  0.666667  0.333333    0.00057870  52 t-inv F
  0.000000  0.333333 -0.333333    0.00057870  52 t-inv F
  0.250000  0.583333  0.250000    0.00057870  53 t-inv F
  0.000000  0.333333 -0.250000    0.00057870  53 t-inv F
  0.166667  0.500000  0.166667    0.00057870  54 t-inv F
 -0.000000  0.333333 -0.166667    0.00057870  54 t-inv F
  0.083333  0.416667  0.083333    0.00057870  55 t-inv F
 -0.000000  0.333333 -0.083333    0.00057870  55 t-inv F
 -0.083333  0.333333 -0.083333    0.00057870  57 t-inv F
  0.000000  0.416667  0.083333    0.00057870  57 t-inv F
 -0.166667  0.250000 -0.166667    0.00057870  58 t-inv F
 -0.000000  0.416667  0.166667    0.00057870  58 t-inv F
 -0.250000  0.166667 -0.250000    0.00057870  59 t-inv F
 -0.000000  0.416667  0.250000    0.00057870  59 t-inv F
 -0.333333  0.083333 -0.333333    0.00057870  60 t-inv F
 -0.000000  0.416667  0.333333    0.00057870  60 t-inv F
 -0.416667  0.000000 -0.416667    0.00057870  61 t-inv F
 -0.000000  0.416667  0.416667    0.00057870  61 t-inv F
 -0.500000 -0.083333 -0.500000    0.00057870  62 t-inv F
 -0.000000  0.416667  0.500000    0.00057870  62 t-inv F
  0.416667  0.833333  0.416667    0.00057870  63 t-inv F
 -0.000000  0.416667 -0.416667    0.00057870  63 t-inv F
  0.333333  0.750000  0.333333    0.00057870  64 t-inv F
 -0.000000  0.416667 -0.333333    0.00057870  64 t-inv F
  0.250000  0.666667  0.250000    0.00057870  65 t-inv F
 -0.000000  0.416667 -0.250000    0.00057870  65 t-inv F
  0.166667  0.583333  0.166667    0.00057870  66 t-inv F
 -0.000000  0.416667 -0.166667    0.00057870  66 t-inv F
  0.083333  0.500000  0.083333    0.00057870  67 t-inv F
 -0.000000  0.416667 -0.083333    0.00057870  67 t-inv F
 -0.083333  0.416667 -0.083333    0.00057870  69 t-inv F
 -0.000000  0.500000  0.083333    0.00057870  69 t-inv F
 -0.166667  0.333333 -0.166667    0.00057870  70 t-inv F
 -0.000000  0.500000  0.166667    0.00057870  70 t-inv F
 -0.250000  0.250000 -0.250000    0.00057870  71 t-inv F
 -0.000000  0.500000  0.250000    0.00057870  71 t-inv F
 -0.333333  0.166667 -0.333333    0.00057870  72 t-inv F
 -0.000000  0.500000  0.333333    0.00057870  72 t-inv F
 -0.416667  0.083333 -0.416667    0.00057870  73 t-inv F
 -0.000000  0.500000  0.416667    0.00057870  73 t-inv F
 -0.500000  0.000000 -0.500000    0.00057870  74 t-inv F
 -0.000000  0.500000  0.500000    0.00057870  74 t-inv F
 -0.166667 -0.166667 -0.083333    0.00057870  75 t-inv F
 -0.083333 -0.166667 -0.166667    0.00057870  75 t-inv F
 -0.083333 -0.083333  0.083333    0.00057870  75 t-inv F
  0.083333 -0.083333 -0.083333    0.00057870  75 t-inv F
  0.083333  0.000000  0.166667    0.00057870  75 t-inv F
 -0.250000 -0.250000 -0.166667    0.00057870  76 t-inv F
 -0.166667 -0.250000 -0.250000    0.00057870  76 t-inv F
 -0.083333 -0.083333  0.166667    0.00057870  76 t-inv F
  0.166667 -0.083333 -0.083333    0.00057870  76 t-inv F
  0.083333 -0.000000  0.250000    0.00057870  76 t-inv F
 -0.333333 -0.333333 -0.250000    0.00057870  77 t-inv F
 -0.250000 -0.333333 -0.333333    0.00057870  77 t-inv F
 -0.083333 -0.083333  0.250000    0.00057870  77 t-inv F
  0.250000 -0.083333 -0.083333    0.00057870  77 t-inv F
  0.083333 -0.000000  0.333333    0.00057870  77 t-inv F
 -0.416667 -0.416667 -0.333333    0.00057870  78 t-inv F
 -0.333333 -0.416667 -0.416667    0.00057870  78 t-inv F
 -0.083333 -0.083333  0.333333    0.00057870  78 t-inv F
  0.333333 -0.083333 -0.083333    0.00057870  78 t-inv F
  0.083333  0.000000  0.416667    0.00057870  78 t-inv F
 -0.500000 -0.500000 -0.416667    0.00057870  79 t-inv F
 -0.416667 -0.500000 -0.500000    0.00057870  79 t-inv F
 -0.083333 -0.083333  0.416667    0.00057870  79 t-inv F
  0.416667 -0.083333 -0.083333    0.00057870  79 t-inv F
  0.083333  0.000000  0.500000    0.00057870  79 t-inv F
  0.416667  0.416667  0.500000    0.00057870  80 t-inv F
  0.500000  0.416667  0.416667    0.00057870  80 t-inv F
 -0.083333 -0.083333 -0.500000    0.00057870  80 t-inv F
 -0.500000 -0.083333 -0.083333    0.00057870  80 t-inv F
  0.083333  0.000000 -0.416667    0.00057870  80 t-inv F
  0.333333  0.333333  0.416667    0.00057870  81 t-inv F
  0.416667  0.333333  0.333333    0.00057870  81 t-inv F
 -0.083333 -0.083333 -0.416667    0.00057870  81 t-inv F
 -0.416667 -0.083333 -0.083333    0.00057870  81 t-inv F
  0.083333  0.000000 -0.333333    0.00057870  81 t-inv F
  0.250000  0.250000  0.333333    0.00057870  82 t-inv F
  0.333333  0.250000  0.250000    0.00057870  82 t-inv F
 -0.083333 -0.083333 -0.333333    0.00057870  82 t-inv F
 -0.333333 -0.083333 -0.083333    0.00057870  82 t-inv F
  0.083333 -0.000000 -0.250000    0.00057870  82 t-inv F
  0.166667  0.166667  0.250000    0.00057870  83 t-inv F
  0.250000  0.166667  0.166667    0.00057870  83 t-inv F
 -0.083333 -0.083333 -0.250000    0.00057870  83 t-inv F
 -0.250000 -0.083333 -0.083333    0.00057870  83 t-inv F
  0.083333 -0.000000 -0.166667    0.00057870  83 t-inv F
  0.083333  0.083333  0.166667    0.00057870  84 t-inv F
  0.166667  0.083333  0.083333    0.00057870  84 t-inv F
 -0.083333 -0.083333 -0.166667    0.00057870  84 t-inv F
 -0.166667 -0.083333 -0.083333    0.00057870  84 t-inv F
  0.083333  0.000000 -0.083333    0.00057870  84 t-inv F
 -0.250000 -0.083333 -0.166667    0.00057870  85 t-inv F
 -0.166667 -0.083333 -0.250000    0.00057870  85 t-inv F
 -0.083333  0.083333  0.166667    0.00057870  85 t-inv F
  0.166667  0.083333 -0.083333    0.00057870  85 t-inv F
  0.083333  0.166667  0.250000    0.00057870  85 t-inv F
 -0.333333 -0.166667 -0.250000    0.00057870  86 t-inv F
 -0.250000 -0.166667 -0.333333    0.00057870  86 t-inv F
 -0.083333  0.083333  0.250000    0.00057870  86 t-inv F
  0.250000  0.083333 -0.083333    0.00057870  86 t-inv F
  0.083333  0.166667  0.333333    0.00057870  86 t-inv F
 -0.416667 -0.250000 -0.333333    0.00057870  87 t-inv F
 -0.333333 -0.250000 -0.416667    0.00057870  87 t-inv F
 -0.083333  0.083333  0.333333    0.00057870  87 t-inv F
  0.333333  0.083333 -0.083333    0.00057870  87 t-inv F
  0.083333  0.166667  0.416667    0.00057870  87 t-inv F
 -0.500000 -0.333333 -0.416667    0.00057870  88 t-inv F
 -0.416667 -0.333333 -0.500000    0.00057870  88 t-inv F
 -0.083333  0.083333  0.416667    0.00057870  88 t-inv F
  0.416667  0.083333 -0.083333    0.00057870  88 t-inv F
  0.083333  0.166667  0.500000    0.00057870  88 t-inv F
  0.416667  0.583333  0.500000    0.00057870  89 t-inv F
  0.500000  0.583333  0.416667    0.00057870  89 t-inv F
 -0.083333  0.083333 -0.500000    0.00057870  89 t-inv F
 -0.500000  0.083333 -0.083333    0.00057870  89 t-inv F
  0.083333  0.166667 -0.416667    0.00057870  89 t-inv F
  0.333333  0.500000  0.416667    0.00057870  90 t-inv F
  0.416667  0.500000  0.333333    0.00057870  90 t-inv F
 -0.083333  0.083333 -0.416667    0.00057870  90 t-inv F
 -0.416667  0.083333 -0.083333    0.00057870  90 t-inv F
  0.083333  0.166667 -0.333333    0.00057870  90 t-inv F
  0.250000  0.416667  0.333333    0.00057870  91 t-inv F
  0.333333  0.416667  0.250000    0.00057870  91 t-inv F
 -0.083333  0.083333 -0.333333    0.00057870  91 t-inv F
 -0.333333  0.083333 -0.083333    0.00057870  91 t-inv F
  0.083333  0.166667 -0.250000    0.00057870  91 t-inv F
  0.166667  0.333333  0.250000    0.00057870  92 t-inv F
  0.250000  0.333333  0.166667    0.00057870  92 t-inv F
 -0.083333  0.083333 -0.250000    0.00057870  92 t-inv F
 -0.250000  0.083333 -0.083333    0.00057870  92 t-inv F
  0.083333  0.166667 -0.166667    0.00057870  92 t-inv F
  0.083333  0.250000  0.166667    0.00057870  93 t-inv F
  0.166667  0.250000  0.083333    0.00057870  93 t-inv F
 -0.083333  0.083333 -0.166667    0.00057870  93 t-inv F
 -0.166667  0.083333 -0.083333    0.00057870  93 t-inv F
  0.083333  0.166667 -0.083333    0.00057870  93 t-inv F
 -0.250000  0.000000 -0.166667    0.00057870  94 t-inv F
 -0.166667  0.000000 -0.250000    0.00057870  94 t-inv F
 -0.083333  0.166667  0.166667    0.00057870  94 t-inv F
  0.166667  0.166667 -0.083333    0.00057870  94 t-inv F
  0.083333  0.250000  0.250000    0.00057870  94 t-inv F
 -0.333333 -0.083333 -0.250000    0.00057870  95 t-inv F
 -0.250000 -0.083333 -0.333333    0.00057870  95 t-inv F
 -0.083333  0.166667  0.250000    0.00057870  95 t-inv F
  0.250000  0.166667 -0.083333    0.00057870  95 t-inv F
  0.083333  0.250000  0.333333    0.00057870  95 t-inv F
 -0.416667 -0.166667 -0.333333    0.00057870  96 t-inv F
 -0.333333 -0.166667 -0.416667    0.00057870  96 t-inv F
 -0.083333  0.166667  0.333333    0.00057870  96 t-inv F
  0.333333  0.166667 -0.083333    0.00057870  96 t-inv F
  0.083333  0.250000  0.416667    0.00057870  96 t-inv F
 -0.500000 -0.250000 -0.416667    0.00057870  97 t-inv F
 -0.416667 -0.250000 -0.500000    0.00057870  97 t-inv F
 -0.083333  0.166667  0.416667    0.00057870  97 t-inv F
  0.416667  0.166667 -0.083333    0.00057870  97 t-inv F
  0.083333  0.250000  0.500000    0.00057870  97 t-inv F
  0.416667  0.666667  0.500000    0.00057870  98 t-inv F
  0.500000  0.666667  0.416667    0.00057870  98 t-inv F
 -0.083333  0.166667 -0.500000    0.00057870  98 t-inv F
 -0.500000  0.166667 -0.083333    0.00057870  98 t-inv F
  0.083333  0.250000 -0.416667    0.00057870  98 t-inv F
  0.333333  0.583333  0.416667    0.00057870  99 t-inv F
  0.416667  0.583333  0.333333    0.00057870  99 t-inv F
 -0.083333  0.166667 -0.416667    0.00057870  99 t-inv F
 -0.416667  0.166667 -0.083333    0.00057870  99 t-inv F
  0.083333  0.250000 -0.333333    0.00057870  99 t-inv F
  0.250000  0.500000  0.333333    0.00057870 100 t-inv F
  0.333333  0.500000  0.250000    0.00057870 100 t-inv F
 -0.083333  0.166667 -0.333333    0.00057870 100 t-inv F
 -0.333333  0.166667 -0.083333    0.00057870 100 t-inv F
  0.083333  0.250000 -0.250000    0.00057870 100 t-inv F
  0.166667  0.416667  0.250000    0.00057870 101 t-inv F
  0.250000  0.416667  0.166667    0.00057870 101 t-inv F
 -0.083333  0.166667 -0.250000    0.00057870 101 t-inv F
 -0.250000  0.166667 -0.083333    0.00057870 101 t-inv F
  0.083333  0.250000 -0.166667    0.00057870 101 t-inv F
  0.083333  0.333333  0.166667    0.00057870 102 t-inv F
  0.166667  0.333333  0.083333    0.00057870 102 t-inv F
 -0.083333  0.166667 -0.166667    0.00057870 102 t-inv F
 -0.166667  0.166667 -0.083333    0.00057870 102 t-inv F
  0.083333  0.250000 -0.083333    0.00057870 102 t-inv F
 -0.250000  0.083333 -0.166667    0.00057870 103 t-inv F
 -0.166667  0.083333 -0.250000    0.00057870 103 t-inv F
 -0.083333  0.250000  0.166667    0.00057870 103 t-inv F
  0.166667  0.250000 -0.083333    0.00057870 103 t-inv F
  0.083333  0.333333  0.250000    0.00057870 103 t-inv F
 -0.333333  0.000000 -0.250000    0.00057870 104 t-inv F
 -0.250000  0.000000 -0.333333    0.00057870 104 t-inv F
 -0.083333  0.250000  0.250000    0.00057870 104 t-inv F
  0.250000  0.250000 -0.083333    0.00057870 104 t-inv F
  0.083333  0.333333  0.333333    0.00057870 104 t-inv F
 -0.416667 -0.083333 -0.333333    0.00057870 105 t-inv F
 -0.333333 -0.083333 -0.416667    0.00057870 105 t-inv F
 -0.083333  0.250000  0.333333    0.00057870 105 t-inv F
  0.333333  0.250000 -0.083333    0.00057870 105 t-inv F
  0.083333  0.333333  0.416667    0.00057870 105 t-inv F
 -0.500000 -0.166667 -0.416667    0.00057870 106 t-inv F
 -0.416667 -0.166667 -0.500000    0.00057870 106 t-inv F
 -0.083333  0.250000  0.416667    0.00057870 106 t-inv F
  0.416667  0.250000 -0.083333    0.00057870 106 t-inv F
  0.083333  0.333333  0.500000    0.00057870 106 t-inv F
  0.416667  0.750000  0.500000    0.00057870 107 t-inv F
  0.500000  0.750000  0.416667    0.00057870 107 t-inv F
 -0.083333  0.250000 -0.500000    0.00057870 107 t-inv F
 -0.500000  0.250000 -0.083333    0.00057870 107 t-inv F
  0.083333  0.333333 -0.416667    0.00057870 107 t-inv F
  0.333333  0.666667  0.416667    0.00057870 108 t-inv F
  0.416667  0.666667  0.333333    0.00057870 108 t-inv F
 -0.083333  0.250000 -0.416667    0.00057870 108 t-inv F
 -0.416667  0.250000 -0.083333    0.00057870 108 t-inv F
  0.083333  0.333333 -0.333333    0.00057870 108 t-inv F
  0.250000  0.583333  0.333333    0.00057870 109 t-inv F
  0.333333  0.583333  0.250000    0.00057870 109 t-inv F
 -0.083333  0.250000 -0.333333    0.00057870 109 t-inv F
 -0.333333  0.250000 -0.083333    0.00057870 109 t-inv F
  0.083333  0.333333 -0.250000    0.00057870 109 t-inv F
  0.166667  0.500000  0.250000    0.00057870 110 t-inv F
  0.250000  0.500000  0.166667    0.00057870 110 t-inv F
 -0.083333  0.250000 -0.250000    0.00057870 110 t-inv F
 -0.250000  0.250000 -0.083333    0.00057870 110 t-inv F
  0.083333  0.333333 -0.166667    0.00057870 110 t-inv F
  0.083333  0.416667  0.166667    0.00057870 111 t-inv F
  0.166667  0.416667  0.083333    0.00057870 111 t-inv F
 -0.083333  0.250000 -0.166667    0.00057870 111 t-inv F
 -0.166667  0.250000 -0.083333    0.00057870 111 t-inv F
  0.083333  0.333333 -0.083333    0.00057870 111 t-inv F
 -0.250000  0.166667 -0.166667    0.00057870 112 t-inv F
 -0.166667  0.166667 -0.250000    0.00057870 112 t-inv F
 -0.083333  0.333333  0.166667    0.00057870 112 t-inv F
  0.166667  0.333333 -0.083333    0.00057870 112 t-inv F
  0.083333  0.416667  0.250000    0.00057870 112 t-inv F
 -0.333333  0.083333 -0.250000    0.00057870 113 t-inv F
 -0.250000  0.083333 -0.333333    0.00057870 113 t-inv F
 -0.083333  0.333333  0.250000    0.00057870 113 t-inv F
  0.250000  0.333333 -0.083333    0.00057870 113 t-inv F
  0.083333  0.416667  0.333333    0.00057870 113 t-inv F
 -0.416667 -0.000000 -0.333333    0.00057870 114 t-inv F
 -0.333333 -0.000000 -0.416667    0.00057870 114 t-inv F
 -0.083333  0.333333  0.333333    0.00057870 114 t-inv F
  0.333333  0.333333 -0.083333    0.00057870 114 t-inv F
  0.083333  0.416667  0.416667    0.00057870 114 t-inv F
 -0.500000 -0.083333 -0.416667    0.00057870 115 t-inv F
 -0.416667 -0.083333 -0.500000    0.00057870 115 t-inv F
 -0.083333  0.333333  0.416667    0.00057870 115 t-inv F
  0.416667  0.333333 -0.083333    0.00057870 115 t-inv F
  0.083333  0.416667  0.500000    0.00057870 115 t-inv F
  0.416667  0.833333  0.500000    0.00057870 116 t-inv F
  0.500000  0.833333  0.416667    0.00057870 116 t-inv F
 -0.083333  0.333333 -0.500000    0.00057870 116 t-inv F
 -0.500000  0.333333 -0.083333    0.00057870 116 t-inv F
  0.083333  0.416667 -0.416667    0.00057870 116 t-inv F
  0.333333  0.750000  0.416667    0.00057870 117 t-inv F
  0.416667  0.750000  0.333333    0.00057870 117 t-inv F
 -0.083333  0.333333 -0.416667    0.00057870 117 t-inv F
 -0.416667  0.333333 -0.083333    0.00057870 117 t-inv F
  0.083333  0.416667 -0.333333    0.00057870 117 t-inv F
  0.250000  0.666667  0.333333    0.00057870 118 t-inv F
  0.333333  0.666667  0.250000    0.00057870 118 t-inv F
 -0.083333  0.333333 -0.333333    0.00057870 118 t-inv F
 -0.333333  0.333333 -0.083333    0.00057870 118 t-inv F
  0.083333  0.416667 -0.250000    0.00057870 118 t-inv F
  0.166667  0.583333  0.250000    0.00057870 119 t-inv F
  0.250000  0.583333  0.166667    0.00057870 119 t-inv F
 -0.083333  0.333333 -0.250000    0.00057870 119 t-inv F
 -0.250000  0.333333 -0.083333    0.00057870 119 t-inv F
  0.083333  0.416667 -0.166667    0.00057870 119 t-inv F
  0.083333  0.500000  0.166667    0.00057870 120 t-inv F
  0.166667  0.500000  0.083333    0.00057870 120 t-inv F
 -0.083333  0.333333 -0.166667    0.00057870 120 t-inv F
 -0.166667  0.333333 -0.083333    0.00057870 120 t-inv F
  0.083333  0.416667 -0.083333    0.00057870 120 t-inv F
 -0.250000  0.250000 -0.166667    0.00057870 121 t-inv F
 -0.166667  0.250000 -0.250000    0.00057870 121 t-inv F
 -0.083333  0.416667  0.166667    0.00057870 121 t-inv F
  0.166667  0.416667 -0.083333    0.00057870 121 t-inv F
  0.083333  0.500000  0.250000    0.00057870 121 t-inv F
 -0.333333  0.166667 -0.250000    0.00057870 122 t-inv F
 -0.250000  0.166667 -0.333333    0.00057870 122 t-inv F
 -0.083333  0.416667  0.250000    0.00057870 122 t-inv F
  0.250000  0.416667 -0.083333    0.00057870 122 t-inv F
  0.083333  0.500000  0.333333    0.00057870 122 t-inv F
 -0.416667  0.083333 -0.333333    0.00057870 123 t-inv F
 -0.333333  0.083333 -0.416667    0.00057870 123 t-inv F
 -0.083333  0.416667  0.333333    0.00057870 123 t-inv F
  0.333333  0.416667 -0.083333    0.00057870 123 t-inv F
  0.083333  0.500000  0.416667    0.00057870 123 t-inv F
 -0.500000  0.000000 -0.416667    0.00057870 124 t-inv F
 -0.416667  0.000000 -0.500000    0.00057870 124 t-inv F
 -0.083333  0.416667  0.416667    0.00057870 124 t-inv F
  0.416667  0.416667 -0.083333    0.00057870 124 t-inv F
  0.083333  0.500000  0.500000    0.00057870 124 t-inv F
  0.416667  0.916667  0.500000    0.00057870 125 t-inv F
  0.500000  0.916667  0.416667    0.00057870 125 t-inv F
 -0.083333  0.416667 -0.500000    0.00057870 125 t-inv F
 -0.500000  0.416667 -0.083333    0.00057870 125 t-inv F
  0.083333  0.500000 -0.416667    0.00057870 125 t-inv F
  0.333333  0.833333  0.416667    0.00057870 126 t-inv F
  0.416667  0.833333  0.333333    0.00057870 126 t-inv F
 -0.083333  0.416667 -0.416667    0.00057870 126 t-inv F
 -0.416667  0.416667 -0.083333    0.00057870 126 t-inv F
  0.083333  0.500000 -0.333333    0.00057870 126 t-inv F
  0.250000  0.750000  0.333333    0.00057870 127 t-inv F
  0.333333  0.750000  0.250000    0.00057870 127 t-inv F
 -0.083333  0.416667 -0.333333    0.00057870 127 t-inv F
 -0.333333  0.416667 -0.083333    0.00057870 127 t-inv F
  0.083333  0.500000 -0.250000    0.00057870 127 t-inv F
  0.166667  0.666667  0.250000    0.00057870 128 t-inv F
  0.250000  0.666667  0.166667    0.00057870 128 t-inv F
 -0.083333  0.416667 -0.250000    0.00057870 128 t-inv F
 -0.250000  0.416667 -0.083333    0.00057870 128 t-inv F
  0.083333  0.500000 -0.166667    0.00057870 128 t-inv F
  0.083333  0.583333  0.166667    0.00057870 129 t-inv F
  0.166667  0.583333  0.083333    0.00057870 129 t-inv F
 -0.083333  0.416667 -0.166667    0.00057870 129 t-inv F
 -0.166667  0.416667 -0.083333    0.00057870 129 t-inv F
  0.083333  0.500000 -0.083333    0.00057870 129 t-inv F
 -0.333333 -0.333333 -0.166667    0.00057870 130 t-inv F
 -0.166667 -0.333333 -0.333333    0.00057870 130 t-inv F
 -0.166667 -0.166667  0.166667    0.00057870 130 t-inv F
  0.166667 -0.166667 -0.166667    0.00057870 130 t-inv F
  0.166667  0.000000  0.333333    0.00057870 130 t-inv F
 -0.416667 -0.416667 -0.250000    0.00057870 131 t-inv F
 -0.250000 -0.416667 -0.416667    0.00057870 131 t-inv F
 -0.166667 -0.166667  0.250000    0.00057870 131 t-inv F
  0.250000 -0.166667 -0.166667    0.00057870 131 t-inv F
  0.166667  0.000000  0.416667    0.00057870 131 t-inv F
 -0.500000 -0.500000 -0.333333    0.00057870 132 t-inv F
 -0.333333 -0.500000 -0.500000    0.00057870 132 t-inv F
 -0.166667 -0.166667  0.333333    0.00057870 132 t-inv F
  0.333333 -0.166667 -0.166667    0.00057870 132 t-inv F
  0.166667  0.000000  0.500000    0.00057870 132 t-inv F
  0.416667  0.416667  0.583333    0.00057870 133 t-inv F
  0.583333  0.416667  0.416667    0.00057870 133 t-inv F
 -0.166667 -0.166667 -0.583333    0.00057870 133 t-inv F
 -0.583333 -0.166667 -0.166667    0.00057870 133 t-inv F
  0.166667  0.000000 -0.416667    0.00057870 133 t-inv F
  0.333333  0.333333  0.500000    0.00057870 134 t-inv F
  0.500000  0.333333  0.333333    0.00057870 134 t-inv F
 -0.166667 -0.166667 -0.500000    0.00057870 134 t-inv F
 -0.500000 -0.166667 -0.166667    0.00057870 134 t-inv F
  0.166667 -0.000000 -0.333333    0.00057870 134 t-inv F
  0.250000  0.250000  0.416667    0.00057870 135 t-inv F
  0.416667  0.250000  0.250000    0.00057870 135 t-inv F
 -0.166667 -0.166667 -0.416667    0.00057870 135 t-inv F
 -0.416667 -0.166667 -0.166667    0.00057870 135 t-inv F
  0.166667  0.000000 -0.250000    0.00057870 135 t-inv F
  0.166667  0.166667  0.333333    0.00057870 136 t-inv F
  0.333333  0.166667  0.166667    0.00057870 136 t-inv F
 -0.166667 -0.166667 -0.333333    0.00057870 136 t-inv F
 -0.333333 -0.166667 -0.166667    0.00057870 136 t-inv F
  0.166667 -0.000000 -0.166667    0.00057870 136 t-inv F
 -0.333333 -0.250000 -0.166667    0.00057870 137 t-inv F
 -0.166667 -0.250000 -0.333333    0.00057870 137 t-inv F
 -0.166667 -0.083333  0.166667    0.00057870 137 t-inv F
  0.166667 -0.083333 -0.166667    0.00057870 137 t-inv F
  0.166667  0.083333  0.333333    0.00057870 137 t-inv F
 -0.416667 -0.333333 -0.250000    0.00057870 138 t-inv F
 -0.250000 -0.333333 -0.416667    0.00057870 138 t-inv F
 -0.166667 -0.083333  0.250000    0.00057870 138 t-inv F
  0.250000 -0.083333 -0.166667    0.00057870 138 t-inv F
  0.166667  0.083333  0.416667    0.00057870 138 t-inv F
 -0.500000 -0.416667 -0.333333    0.00057870 139 t-inv F
 -0.333333 -0.416667 -0.500000    0.00057870 139 t-inv F
 -0.166667 -0.083333  0.333333    0.00057870 139 t-inv F
  0.333333 -0.083333 -0.166667    0.00057870 139 t-inv F
  0.166667  0.083333  0.500000    0.00057870 139 t-inv F
  0.416667  0.500000  0.583333    0.00057870 140 t-inv F
  0.583333  0.500000  0.416667    0.00057870 140 t-inv F
 -0.166667 -0.083333 -0.583333    0.00057870 140 t-inv F
 -0.583333 -0.083333 -0.166667    0.00057870 140 t-inv F
  0.166667  0.083333 -0.416667    0.00057870 140 t-inv F
 -0.416667 -0.166667 -0.250000    0.00057870 141 t-inv F
 -0.250000 -0.166667 -0.416667    0.00057870 141 t-inv F
 -0.166667  0.083333  0.250000    0.00057870 141 t-inv F
  0.250000  0.083333 -0.166667    0.00057870 141 t-inv F
  0.166667  0.250000  0.416667    0.00057870 141 t-inv F
 -0.500000 -0.250000 -0.333333    0.00057870 142 t-inv F
 -0.333333 -0.250000 -0.500000    0.00057870 142 t-inv F
 -0.166667  0.083333  0.333333    0.00057870 142 t-inv F
  0.333333  0.083333 -0.166667    0.00057870 142 t-inv F
  0.166667  0.250000  0.500000    0.00057870 142 t-inv F
  0.416667  0.666667  0.583333    0.00057870 143 t-inv F
  0.583333  0.666667  0.416667    0.00057870 143 t-inv F
 -0.166667  0.083333 -0.583333    0.00057870 143 t-inv F
 -0.583333  0.083333 -0.166667    0.00057870 143 t-inv F
  0.166667  0.250000 -0.416667    0.00057870 143 t-inv F
  0.333333  0.583333  0.500000    0.00057870 144 t-inv F
  0.500000  0.583333  0.333333    0.00057870 144 t-inv F
 -0.166667  0.083333 -0.500000    0.00057870 144 t-inv F
 -0.500000  0.083333 -0.166667    0.00057870 144 t-inv F
  0.166667  0.250000 -0.333333    0.00057870 144 t-inv F
  0.250000  0.500000  0.416667    0.00057870 145 t-inv F
  0.416667  0.500000  0.250000    0.00057870 145 t-inv F
 -0.166667  0.083333 -0.416667    0.00057870 145 t-inv F
 -0.416667  0.083333 -0.166667    0.00057870 145 t-inv F
  0.166667  0.250000 -0.250000    0.00057870 145 t-inv F
  0.166667  0.416667  0.333333    0.00057870 146 t-inv F
  0.333333  0.416667  0.166667    0.00057870 146 t-inv F
 -0.166667  0.083333 -0.333333    0.00057870 146 t-inv F
 -0.333333  0.083333 -0.166667    0.00057870 146 t-inv F
  0.166667  0.250000 -0.166667    0.00057870 146 t-inv F
 -0.416667 -0.083333 -0.250000    0.00057870 147 t-inv F
 -0.250000 -0.083333 -0.416667    0.00057870 147 t-inv F
 -0.166667  0.166667  0.250000    0.00057870 147 t-inv F
  0.250000  0.166667 -0.166667    0.00057870 147 t-inv F
  0.166667  0.333333  0.416667    0.00057870 147 t-inv F
 -0.500000 -0.166667 -0.333333    0.00057870 148 t-inv F
 -0.333333 -0.166667 -0.500000    0.00057870 148 t-inv F
 -0.166667  0.166667  0.333333    0.00057870 148 t-inv F
  0.333333  0.166667 -0.166667    0.00057870 148 t-inv F
  0.166667  0.333333  0.500000    0.00057870 148 t-inv F
  0.416667  0.750000  0.583333    0.00057870 149 t-inv F
  0.583333  0.750000  0.416667    0.00057870 149 t-inv F
 -0.166667  0.166667 -0.583333    0.00057870 149 t-inv F
 -0.583333  0.166667 -0.166667    0.00057870 149 t-inv F
  0.166667  0.333333 -0.416667    0.00057870 149 t-inv F
  0.333333  0.666667  0.500000    0.00057870 150 t-inv F
  0.500000  0.666667  0.333333    0.00057870 150 t-inv F
 -0.166667  0.166667 -0.500000    0.00057870 150 t-inv F
 -0.500000  0.166667 -0.166667    0.00057870 150 t-inv F
  0.166667  0.333333 -0.333333    0.00057870 150 t-inv F
  0.250000  0.583333  0.416667    0.00057870 151 t-inv F
  0.416667  0.583333  0.250000    0.00057870 151 t-inv F
 -0.166667  0.166667 -0.416667    0.00057870 151 t-inv F
 -0.416667  0.166667 -0.166667    0.00057870 151 t-inv F
  0.166667  0.333333 -0.250000    0.00057870 151 t-inv F
  0.166667  0.500000  0.333333    0.00057870 152 t-inv F
  0.333333  0.500000  0.166667    0.00057870 152 t-inv F
 -0.166667  0.166667 -0.333333    0.00057870 152 t-inv F
 -0.333333  0.166667 -0.166667    0.00057870 152 t-inv F
  0.166667  0.333333 -0.166667    0.00057870 152 t-inv F
 -0.416667  0.000000 -0.250000    0.00057870 153 t-inv F
 -0.250000  0.000000 -0.416667    0.00057870 153 t-inv F
 -0.166667  0.250000  0.250000    0.00057870 153 t-inv F
  0.250000  0.250000 -0.166667    0.00057870 153 t-inv F
  0.166667  0.416667  0.416667    0.00057870 153 t-inv F
 -0.500000 -0.083333 -0.333333    0.00057870 154 t-inv F
 -0.333333 -0.083333 -0.500000    0.00057870 154 t-inv F
 -0.166667  0.250000  0.333333    0.00057870 154 t-inv F
  0.333333  0.250000 -0.166667    0.00057870 154 t-inv F
  0.166667  0.416667  0.500000    0.00057870 154 t-inv F
  0.416667  0.833333  0.583333    0.00057870 155 t-inv F
  0.583333  0.833333  0.416667    0.00057870 155 t-inv F
 -0.166667  0.250000 -0.583333    0.00057870 155 t-inv F
 -0.583333  0.250000 -0.166667    0.00057870 155 t-inv F
  0.166667  0.416667 -0.416667    0.00057870 155 t-inv F
  0.333333  0.750000  0.500000    0.00057870 156 t-inv F
  0.500000  0.750000  0.333333    0.00057870 156 t-inv F
 -0.166667  0.250000 -0.500000    0.00057870 156 t-inv F
 -0.500000  0.250000 -0.166667    0.00057870 156 t-inv F
  0.166667  0.416667 -0.333333    0.00057870 156 t-inv F
  0.250000  0.666667  0.416667    0.00057870 157 t-inv F
  0.416667  0.666667  0.250000    0.00057870 157 t-inv F
 -0.166667  0.250000 -0.416667    0.00057870 157 t-inv F
 -0.416667  0.250000 -0.166667    0.00057870 157 t-inv F
  0.166667  0.416667 -0.250000    0.00057870 157 t-inv F
  0.166667  0.583333  0.333333    0.00057870 158 t-inv F
  0.333333  0.583333  0.166667    0.00057870 158 t-inv F
 -0.166667  0.250000 -0.333333    0.00057870 158 t-inv F
 -0.333333  0.250000 -0.166667    0.00057870 158 t-inv F
  0.166667  0.416667 -0.166667    0.00057870 158 t-inv F
 -0.416667  0.083333 -0.250000    0.00057870 159 t-inv F
 -0.250000  0.083333 -0.416667    0.00057870 159 t-inv F
 -0.166667  0.333333  0.250000    0.00057870 159 t-inv F
  0.250000  0.333333 -0.166667    0.00057870 159 t-inv F
  0.166667  0.500000  0.416667    0.00057870 159 t-inv F
 -0.500000  0.000000 -0.333333    0.00057870 160 t-inv F
 -0.333333  0.000000 -0.500000    0.00057870 160 t-inv F
 -0.166667  0.333333  0.333333    0.00057870 160 t-inv F
  0.333333  0.333333 -0.166667    0.00057870 160 t-inv F
  0.166667  0.500000  0.500000    0.00057870 160 t-inv F
  0.416667  0.916667  0.583333    0.00057870 161 t-inv F
  0.583333  0.916667  0.416667    0.00057870 161 t-inv F
 -0.166667  0.333333 -0.583333    0.00057870 161 t-inv F
 -0.583333  0.333333 -0.166667    0.00057870 161 t-inv F
  0.166667  0.500000 -0.416667    0.00057870 161 t-inv F
  0.333333  0.833333  0.500000    0.00057870 162 t-inv F
  0.500000  0.833333  0.333333    0.00057870 162 t-inv F
 -0.166667  0.333333 -0.500000    0.00057870 162 t-inv F
 -0.500000  0.333333 -0.166667    0.00057870 162 t-inv F
  0.166667  0.500000 -0.333333    0.00057870 162 t-inv F
  0.250000  0.750000  0.416667    0.00057870 163 t-inv F
  0.416667  0.750000  0.250000    0.00057870 163 t-inv F
 -0.166667  0.333333 -0.416667    0.00057870 163 t-inv F
 -0.416667  0.333333 -0.166667    0.00057870 163 t-inv F
  0.166667  0.500000 -0.250000    0.00057870 163 t-inv F
  0.166667  0.666667  0.333333    0.00057870 164 t-inv F
  0.333333  0.666667  0.166667    0.00057870 164 t-inv F
 -0.166667  0.333333 -0.333333    0.00057870 164 t-inv F
 -0.333333  0.333333 -0.166667    0.00057870 164 t-inv F
  0.166667  0.500000 -0.166667    0.00057870 164 t-inv F
 -0.416667 -0.833333 -0.250000    0.00057870 165 t-inv F
 -0.250000 -0.833333 -0.416667    0.00057870 165 t-inv F
 -0.166667 -0.583333  0.250000    0.00057870 165 t-inv F
  0.250000 -0.583333 -0.166667    0.00057870 165 t-inv F
  0.166667 -0.416667  0.416667    0.00057870 165 t-inv F
 -0.500000 -0.916667 -0.333333    0.00057870 166 t-inv F
 -0.333333 -0.916667 -0.500000    0.00057870 166 t-inv F
 -0.166667 -0.583333  0.333333    0.00057870 166 t-inv F
  0.333333 -0.583333 -0.166667    0.00057870 166 t-inv F
  0.166667 -0.416667  0.500000    0.00057870 166 t-inv F
  0.416667  0.000000  0.583333    0.00057870 167 t-inv F
  0.583333  0.000000  0.416667    0.00057870 167 t-inv F
 -0.166667 -0.583333 -0.583333    0.00057870 167 t-inv F
 -0.583333 -0.583333 -0.166667    0.00057870 167 t-inv F
  0.166667 -0.416667 -0.416667    0.00057870 167 t-inv F
 -0.500000 -0.500000 -0.250000    0.00057870 168 t-inv F
 -0.250000 -0.500000 -0.500000    0.00057870 168 t-inv F
 -0.250000 -0.250000  0.250000    0.00057870 168 t-inv F
  0.250000 -0.250000 -0.250000    0.00057870 168 t-inv F
  0.250000  0.000000  0.500000    0.00057870 168 t-inv F
  0.416667  0.416667  0.666667    0.00057870 169 t-inv F
  0.666667  0.416667  0.416667    0.00057870 169 t-inv F
 -0.250000 -0.250000 -0.666667    0.00057870 169 t-inv F
 -0.666667 -0.250000 -0.250000    0.00057870 169 t-inv F
  0.250000  0.000000 -0.416667    0.00057870 169 t-inv F
  0.333333  0.333333  0.583333    0.00057870 170 t-inv F
  0.583333  0.333333  0.333333    0.00057870 170 t-inv F
 -0.250000 -0.250000 -0.583333    0.00057870 170 t-inv F
 -0.583333 -0.250000 -0.250000    0.00057870 170 t-inv F
  0.250000  0.000000 -0.333333    0.00057870 170 t-inv F
  0.250000  0.250000  0.500000    0.00057870 171 t-inv F
  0.500000  0.250000  0.250000    0.00057870 171 t-inv F
 -0.250000 -0.250000 -0.500000    0.00057870 171 t-inv F
 -0.500000 -0.250000 -0.250000    0.00057870 171 t-inv F
  0.250000 -0.000000 -0.250000    0.00057870 171 t-inv F
 -0.500000 -0.416667 -0.250000    0.00057870 172 t-inv F
 -0.250000 -0.416667 -0.500000    0.00057870 172 t-inv F
 -0.250000 -0.166667  0.250000    0.00057870 172 t-inv F
  0.250000 -0.166667 -0.250000    0.00057870 172 t-inv F
  0.250000  0.083333  0.500000    0.00057870 172 t-inv F
  0.416667  0.500000  0.666667    0.00057870 173 t-inv F
  0.666667  0.500000  0.416667    0.00057870 173 t-inv F
 -0.250000 -0.166667 -0.666667    0.00057870 173 t-inv F
 -0.666667 -0.166667 -0.250000    0.00057870 173 t-inv F
  0.250000  0.083333 -0.416667    0.00057870 173 t-inv F
  0.333333  0.416667  0.583333    0.00057870 174 t-inv F
  0.583333  0.416667  0.333333    0.00057870 174 t-inv F
 -0.250000 -0.166667 -0.583333    0.00057870 174 t-inv F
 -0.583333 -0.166667 -0.250000    0.00057870 174 t-inv F
  0.250000  0.083333 -0.333333    0.00057870 174 t-inv F
  0.250000  0.333333  0.500000    0.00057870 175 t-inv F
  0.500000  0.333333  0.250000    0.00057870 175 t-inv F
 -0.250000 -0.166667 -0.500000    0.00057870 175 t-inv F
 -0.500000 -0.166667 -0.250000    0.00057870 175 t-inv F
  0.250000  0.083333 -0.250000    0.00057870 175 t-inv F
  0.416667  0.750000  0.666667    0.00057870 176 t-inv F
  0.666667  0.750000  0.416667    0.00057870 176 t-inv F
 -0.250000  0.083333 -0.666667    0.00057870 176 t-inv F
 -0.666667  0.083333 -0.250000    0.00057870 176 t-inv F
  0.250000  0.333333 -0.416667    0.00057870 176 t-inv F
  0.333333  0.666667  0.583333    0.00057870 177 t-inv F
  0.583333  0.666667  0.333333    0.00057870 177 t-inv F
 -0.250000  0.083333 -0.583333    0.00057870 177 t-inv F
 -0.583333  0.083333 -0.250000    0.00057870 177 t-inv F
  0.250000  0.333333 -0.333333    0.00057870 177 t-inv F
  0.250000  0.583333  0.500000    0.00057870 178 t-inv F
  0.500000  0.583333  0.250000    0.00057870 178 t-inv F
 -0.250000  0.083333 -0.500000    0.00057870 178 t-inv F
 -0.500000  0.083333 -0.250000    0.00057870 178 t-inv F
  0.250000  0.333333 -0.250000    0.00057870 178 t-inv F
  0.416667  0.833333  0.666667    0.00057870 179 t-inv F
  0.666667  0.833333  0.416667    0.00057870 179 t-inv F
 -0.250000  0.166667 -0.666667    0.00057870 179 t-inv F
 -0.666667  0.166667 -0.250000    0.00057870 179 t-inv F
  0.250000  0.416667 -0.416667    0.00057870 179 t-inv F
  0.333333  0.750000  0.583333    0.00057870 180 t-inv F
  0.583333  0.750000  0.333333    0.00057870 180 t-inv F
 -0.250000  0.166667 -0.583333    0.00057870 180 t-inv F
 -0.583333  0.166667 -0.250000    0.00057870 180 t-inv F
  0.250000  0.416667 -0.333333    0.00057870 180 t-inv F
  0.250000  0.666667  0.500000    0.00057870 181 t-inv F
  0.500000  0.666667  0.250000    0.00057870 181 t-inv F
 -0.250000  0.166667 -0.500000    0.00057870 181 t-inv F
 -0.500000  0.166667 -0.250000    0.00057870 181 t-inv F
  0.250000  0.416667 -0.250000    0.00057870 181 t-inv F
  0.416667  0.916667  0.666667    0.00057870 182 t-inv F
  0.666667  0.916667  0.416667    0.00057870 182 t-inv F
 -0.250000  0.250000 -0.666667    0.00057870 182 t-inv F
 -0.666667  0.250000 -0.250000    0.00057870 182 t-inv F
  0.250000  0.500000 -0.416667    0.00057870 182 t-inv F
  0.333333  0.833333  0.583333    0.00057870 183 t-inv F
  0.583333  0.833333  0.333333    0.00057870 183 t-inv F
 -0.250000  0.250000 -0.583333    0.00057870 183 t-inv F
 -0.583333  0.250000 -0.250000    0.00057870 183 t-inv F
  0.250000  0.500000 -0.333333    0.00057870 183 t-inv F
[...]
      8      -0.1632      0.00000

 k-point 455 :       0.5000    0.4167    0.4167
  band No.  band energies     occupation 
      1      -0.3570      0.00000
      2       1.3724      0.00000
      3      -1.3059      0.00000
      4       0.3098      0.00000
      5      -0.4144      0.00000
      6       0.0867      0.00000
      7      -1.7412      0.00000
      8       0.1194      0.00000

 k-point 456 :       0.5833    0.4167    0.4167
  band No.  band energies     occupation 
      1      -0.3258      0.00000
      2       1.3823      0.00000
      3      -1.2485      0.00000
      4       0.2013      0.00000
      5       0.0111      0.00000
      6      -0.5784      0.00000
      7      -1.5953      0.00000
      8       0.6493      0.00000

 k-point 457 :       0.4167    0.5000    0.4167
  band No.  band energies     occupation 
      1      -0.4073      0.00000
      2       1.4915      0.00000
      3       0.9839      0.00000
      4      -2.2937      0.00000
      5      -0.5102      0.00000
      6      -2.3212      0.00000
      7       1.3842      0.00000
      8      -0.4401      0.00000

 k-point 458 :       0.5000    0.5000    0.4167
  band No.  band energies     occupation 
      1      -0.4037      0.00000
      2       1.4588      0.00000
      3      -1.3949      0.00000
      4       0.3094      0.00000
      5      -0.4013      0.00000
      6       0.1420      0.00000
      7      -1.7459      0.00000
      8      -0.1556      0.00000

 k-point 459 :       0.5833    0.5000    0.4167
  band No.  band energies     occupation 
      1      -0.3563      0.00000
      2       1.4510      0.00000
      3      -2.1593      0.00000
      4       1.1593      0.00000
      5      -0.6711      0.00000
      6       1.0168      0.00000
      7      -2.7997      0.00000
      8       0.3441      0.00000

 k-point 460 :       0.4167    0.5833    0.4167
  band No.  band energies     occupation 
      1      -0.4265      0.00000
      2       1.5142      0.00000
      3       0.7681      0.00000
      4      -2.0762      0.00000
      5      -1.7121      0.00000
      6      -0.4489      0.00000
      7       1.2418      0.00000
      8       0.4257      0.00000

 k-point 461 :       0.5000    0.5833    0.4167
  band No.  band energies     occupation 
      1      -0.3984      0.00000
      2       1.4374      0.00000
      3       0.2105      0.00000
      4      -1.3910      0.00000
      5      -0.4166      0.00000
      6      -1.4381      0.00000
      7       0.4063      0.00000
      8       0.4421      0.00000

 k-point 462 :       0.4167    0.6667    0.4167
  band No.  band energies     occupation 
      1      -0.3848      0.00000
      2       1.3371      0.00000
      3       0.7763      0.00000
      4      -1.8452      0.00000
      5      -1.9153      0.00000
      6       1.0906      0.00000
      7       1.1192      0.00000
      8       0.1601      0.00000

 k-point 463 :       0.5000    0.6667    0.4167
  band No.  band energies     occupation 
      1      -0.3363      0.00000
      2       1.2463      0.00000
      3       0.6267      0.00000
      4      -1.6408      0.00000
      5      -1.8254      0.00000
      6       0.3170      0.00000
      7       1.0628      0.00000
      8       0.6851      0.00000

 k-point 464 :       0.4167    0.7500    0.4167
  band No.  band energies     occupation 
      1      -0.2812      0.00000
      2       0.7668      0.00000
      3       1.1618      0.00000
      4      -1.6724      0.00000
      5      -1.7991      0.00000
      6       1.7957      0.00000
      7       1.1508      0.00000
      8      -0.5385      0.00000

 k-point 465 :       0.5000    0.7500    0.4167
  band No.  band energies     occupation 
      1      -0.2293      0.00000
      2       0.7434      0.00000
      3       1.0587      0.00000
      4      -1.6059      0.00000
      5      -1.7566      0.00000
      6       1.7382      0.00000
      7       0.1019      0.00000
      8       0.3432      0.00000

 k-point 466 :       0.4167    0.8333    0.4167
  band No.  band energies     occupation 
      1      -0.1447      0.00000
      2       0.2629      0.00000
      3       1.4685      0.00000
      4      -1.5647      0.00000
      5      -1.5626      0.00000
      6       1.5157      0.00000
      7       1.2275      0.00000
      8      -0.5391      0.00000

 k-point 467 :       0.5000    0.8333    0.4167
  band No.  band energies     occupation 
      1      -0.1033      0.00000
      2       0.2144      0.00000
      3       1.4225      0.00000
      4      -1.5283      0.00000
      5      -1.3474      0.00000
      6       1.3256      0.00000
      7       0.1089      0.00000
      8       0.2585      0.00000

 k-point 468 :       0.4167   -0.0833    0.4167
  band No.  band energies     occupation 
      1      -0.0363      0.00000
      2       0.0547      0.00000
      3       1.5154      0.00000
      4      -1.5153      0.00000
      5      -0.7916      0.00000
      6       0.7650      0.00000
      7       0.5367      0.00000
      8      -0.1584      0.00000

 k-point 469 :       0.5000    0.9167    0.4167
  band No.  band energies     occupation 
      1      -0.0002      0.00000
      2      -0.0001      0.00000
      3      -0.0002      0.00000
      4      -0.0001      0.00000
      5      -0.0000      0.00000
      6      -0.0001      0.00000
      7      -0.0001      0.00000
      8      -0.0001      0.00000

 k-point 470 :      -0.5000    0.0000   -0.5000
  band No.  band energies     occupation 
      1      -0.0002      0.00000
      2      -0.0001      0.00000
      3      -1.4887      0.00000
      4       1.4884      0.00000
      5      -0.0000      0.00000
      6      -0.0001      0.00000
      7      -0.4938      0.00000
      8       0.4936      0.00000

 k-point 471 :       0.5000    0.0833    0.5000
  band No.  band energies     occupation 
      1      -0.0363      0.00000
      2       0.0547      0.00000
      3       1.5154      0.00000
      4      -1.5153      0.00000
      5      -0.7916      0.00000
      6       0.7650      0.00000
      7       0.5367      0.00000
      8      -0.1584      0.00000

 k-point 472 :       0.5000    0.1667    0.5000
  band No.  band energies     occupation 
      1      -0.1240      0.00000
      2       0.2875      0.00000
      3       1.4590      0.00000
      4      -1.5985      0.00000
      5      -1.5909      0.00000
      6       1.5436      0.00000
      7      -0.2247      0.00000
      8       0.6125      0.00000

 k-point 473 :       0.5000    0.2500    0.5000
  band No.  band energies     occupation 
      1      -0.2298      0.00000
      2       0.8120      0.00000
      3       1.1489      0.00000
      4      -1.7465      0.00000
      5      -1.8465      0.00000
      6       1.7712      0.00000
      7      -0.3392      0.00000
      8       0.7714      0.00000

 k-point 474 :       0.5000    0.3333    0.5000
  band No.  band energies     occupation 
      1      -0.3285      0.00000
      2       1.2123      0.00000
      3       0.9957      0.00000
      4      -1.9625      0.00000
      5      -1.7401      0.00000
      6      -0.3010      0.00000
      7       1.0025      0.00000
      8       1.2341      0.00000

 k-point 475 :       0.5000    0.4167    0.5000
  band No.  band energies     occupation 
      1      -0.3997      0.00000
      2       1.3914      0.00000
      3       1.1086      0.00000
      4      -2.2037      0.00000
      5      -0.5584      0.00000
      6      -2.2674      0.00000
      7       1.2549      0.00000
      8       0.1330      0.00000

 k-point 476 :      -0.5000   -0.5000   -0.5000
  band No.  band energies     occupation 
      1      -0.4258      0.00000
      2       1.4434      0.00000
      3      -2.3234      0.00000
      4       1.2608      0.00000
      5      -0.4322      0.00000
      6      -2.8584      0.00000
      7       1.3787      0.00000
      8      -0.2932      0.00000


------------------------ aborting loop because EDIFF is reached ----------------------------------------


    FORLOC:  cpu time    0.0019: real time    0.0019
    FORNL :  cpu time    0.0966: real time    0.0966
    STRESS:  cpu time    1.7940: real time    1.8021
    FORCOR:  cpu time    0.0138: real time    0.0138
    OFIELD:  cpu time    0.0001: real time    0.0001
    FORLOC:  cpu time    0.0013: real time    0.0013
    FORNL :  cpu time    0.1170: real time    0.1170
    STRESS:  cpu time    1.7828: real time    1.7899
    FORCOR:  cpu time    0.0172: real time    0.0172
    OFIELD:  cpu time    0.0001: real time    0.0001
    FORLOC:  cpu time    0.0017: real time    0.0017
    FORNL :  cpu time    0.0914: real time    0.0914
    STRESS:  cpu time    1.7124: real time    1.7215
    FORCOR:  cpu time    0.0163: real time    0.0163
    OFIELD:  cpu time    0.0001: real time    0.0001
    FORLOC:  cpu time    0.0024: real time    0.0024
    FORNL :  cpu time    0.0906: real time    0.0906
    STRESS:  cpu time    1.7524: real time    1.7574
    FORCOR:  cpu time    0.0132: real time    0.0132
    OFIELD:  cpu time    0.0001: real time    0.0001

 INTERNAL STRAIN TENSOR  FOR ION    2  DIRECTION 1   (eV/Angst):
 -----------------------------------------------------------------------------
    -0.00102  0.12951  0.12951
    -0.10154 -0.00034 -8.19534
    -0.10154 -8.19534 -0.00034


 POSITION                   FORCE-CONSTANT FOR ION    2 DIRECTION 1 (eV/Angst/Angst)
 -----------------------------------------------------------------------------------
      0.00000      0.00000      0.00000        10.053924      0.000045      0.000045
     -4.10473      4.10473      4.10473       -10.053924     -0.000045     -0.000045
 -----------------------------------------------------------------------------------
    total drift:                                0.000000      0.000000      0.000000


 BORN EFFECTIVE CHARGE FOR ION    2 DIRECTION 1 :  -2.237   0.000   0.000
                   rigid augmentation           :   0.519   0.000  -0.000
                   ionic contribution           :   5.000   0.000  -0.000
                   Berry contribution           :  -7.756   0.000   0.000


--------------------------------------------------------------------------------------------------------


  LATTYP: Found a face centered cubic cell.
 ALAT       =     5.4729670056
  
  Lattice vectors:
  
 A1 = (  -2.7364835028,   0.0000000000,   2.7364835028)
 A2 = (   0.0000000000,   2.7364835028,   2.7364835028)
 A3 = (  -2.7364835028,   2.7364835028,   0.0000000000)


Analysis of symmetry for initial positions (statically):
=====================================================================
 Subroutine PRICEL returns:
 Original cell was already a primitive cell.
 

 Routine SETGRP: Setting up the symmetry group for a 
 face centered cubic supercell.


 Subroutine GETGRP returns: Found  6 space group operations
 (whereof  6 operations were pure point group operations)
 out of a pool of 48 trial point group operations.


The static configuration has the point symmetry C_3v.


Analysis of symmetry for dynamics (positions and initial velocities):
=====================================================================
 Subroutine PRICEL returns:
 Original cell was already a primitive cell.
 

 Routine SETGRP: Setting up the symmetry group for a 
 face centered cubic supercell.


 Subroutine GETGRP returns: Found  6 space group operations
 (whereof  6 operations were pure point group operations)
 out of a pool of 48 trial point group operations.


The dynamic configuration has the point symmetry C_3v.


 Subroutine INISYM returns: Found  6 space group operations
 (whereof  6 operations are pure point group operations),
 and found     1 'primitive' translations



--------------------------------------------------------------------------------------------------------




 MACROSCOPIC STATIC DIELECTRIC TENSOR (including local field effects in DFT)
 ------------------------------------------------------
           8.100206    -0.001869    -0.001869
          -0.001869     8.100206    -0.001869
          -0.001869    -0.001869     8.100206
 ------------------------------------------------------


 PIEZOELECTRIC TENSOR  for field in x, y, z        (e  Angst)
          XX          YY          ZZ          XY          YZ          ZX
  --------------------------------------------------------------------------------
  x    -0.00022     0.00019     0.00019     0.00017    -1.75421     0.00017
  y    -0.00029     0.00040    -0.00029     0.00320     0.00320    -1.75489
  z    -0.00005    -0.00005    -0.00045    -1.74704    -0.00008    -0.00008

 PIEZOELECTRIC TENSOR  for field in x, y, z        (C/m^2)
          XX          YY          ZZ          XY          YZ          ZX
  --------------------------------------------------------------------------------
  x    -0.00004    -0.00002    -0.00002     0.00043    -0.68493     0.00043
  y    -0.00002    -0.00004    -0.00002     0.00043     0.00043    -0.68493
  z    -0.00002    -0.00002    -0.00004    -0.68493     0.00043     0.00043
 
 BORN EFFECTIVE CHARGES (in e, cummulative output)
 -------------------------------------------------
 ion    1
    1     2.23715     0.00000     0.00000
    2    -0.00015     2.23721    -0.00015
    3     0.00008     0.00008     2.23727
 ion    2
    1    -2.23715    -0.00000    -0.00000
    2     0.00015    -2.23721     0.00015
    3    -0.00008    -0.00008    -2.23727

 INTERNAL STRAIN TENSOR FOR ION    1 for displacements in x,y,z  (eV/Angst):
          X           Y           Z          XY          YZ          ZX
  --------------------------------------------------------------------------------
  x     0.00476    -0.00238    -0.00238     0.04849     8.11334    -0.09353
  y    -0.00238     0.00476    -0.00238    -0.09353     0.04849     8.11334
  z    -0.00238    -0.00238     0.00476     8.11334    -0.09353     0.04849

 INTERNAL STRAIN TENSOR FOR ION    2 for displacements in x,y,z  (eV/Angst):
          X           Y           Z          XY          YZ          ZX
  --------------------------------------------------------------------------------
  x    -0.00102    -0.00034    -0.00034    -0.10154    -8.19534     0.12951
  y    -0.00034    -0.00102    -0.00034     0.12951    -0.10154    -8.19534
  z    -0.00034    -0.00034    -0.00102    -8.19534     0.12951    -0.10154


--------------------------------------------------------------------------------------------------------


 
 SECOND DERIVATIVES (NOT SYMMETRIZED)
 ------------------------------------
               1X          1Y          1Z          2X          2Y          2Z 
  1X   -10.054990   -0.000013   -0.000013   10.054990    0.000013    0.000013
  1Y    -0.000013  -10.054990   -0.000013    0.000013   10.054990    0.000013
  1Z    -0.000013   -0.000013  -10.054990    0.000013    0.000013   10.054990
  2X    10.053924    0.000045    0.000045  -10.053924   -0.000045   -0.000045
  2Y     0.000045   10.053924    0.000045   -0.000045  -10.053924   -0.000045
  2Z     0.000045    0.000045   10.053924   -0.000045   -0.000045  -10.053924
 
 
 Eigenvectors and eigenvalues of the dynamical matrix
 ----------------------------------------------------
 
 
   1 f  =   13.054186 THz    82.021872 2PiTHz  435.440773 cm-1    53.987795 meV
             X         Y         Z           dx          dy          dz
      0.000000  0.000000  0.000000    -0.422088   -0.422088   -0.422088  
     -4.104725  4.104725  4.104725     0.393923    0.393923    0.393923  
 
   2 f  =   13.054132 THz    82.021531 2PiTHz  435.438963 cm-1    53.987570 meV
             X         Y         Z           dx          dy          dz
      0.000000  0.000000  0.000000    -0.371940   -0.218361    0.590301  
     -4.104725  4.104725  4.104725     0.347120    0.203789   -0.550909  
 
   3 f  =   13.054132 THz    82.021531 2PiTHz  435.438963 cm-1    53.987570 meV
             X         Y         Z           dx          dy          dz
      0.000000  0.000000  0.000000    -0.466881    0.555550   -0.088669  
     -4.104725  4.104725  4.104725     0.435726   -0.518478    0.082752  
 
   4 f/i=    0.000325 THz     0.002039 2PiTHz    0.010826 cm-1     0.001342 meV
             X         Y         Z           dx          dy          dz
      0.000000  0.000000  0.000000     0.393923    0.393924    0.393923  
     -4.104725  4.104725  4.104725     0.422088    0.422088    0.422087  
 
   5 f/i=    0.000356 THz     0.002236 2PiTHz    0.011868 cm-1     0.001471 meV
             X         Y         Z           dx          dy          dz
      0.000000  0.000000  0.000000    -0.454363    0.506336   -0.051974  
     -4.104725  4.104725  4.104725    -0.486851    0.542541   -0.055690  
 
   6 f/i=    0.000356 THz     0.002236 2PiTHz    0.011868 cm-1     0.001471 meV
             X         Y         Z           dx          dy          dz
      0.000000  0.000000  0.000000    -0.322340   -0.232319    0.554660  
     -4.104725  4.104725  4.104725    -0.345389   -0.248931    0.594320  
 


--------------------------------------------------------------------------------------------------------




 MACROSCOPIC STATIC DIELECTRIC TENSOR IONIC CONTRIBUTION
 ------------------------------------------------------
           2.197799    -0.000145     0.000075
          -0.000145     2.197913    -0.000073
           0.000075    -0.000073     2.198040
 ------------------------------------------------------


 ELASTIC MODULI IONIC CONTR (kBar)
 Direction    XX          YY          ZZ          XY          YZ          ZX
 --------------------------------------------------------------------------------
 XX          -0.0000      0.0000      0.0000      0.0310     -0.0918      0.0338
 YY           0.0000     -0.0000      0.0000      0.0338      0.0310     -0.0918
 ZZ           0.0000      0.0000     -0.0000     -0.0918      0.0338      0.0310
 XY           0.0310      0.0338     -0.0918   -258.6064      1.1907      1.1907
 YZ          -0.0918      0.0310      0.0338      1.1907   -258.6064      1.1907
 ZX           0.0338     -0.0918      0.0310      1.1907      1.1907   -258.6064
 --------------------------------------------------------------------------------


 PIEZOELECTRIC TENSOR IONIC CONTR  for field in x, y, z        (C/m^2)
          XX          YY          ZZ          XY          YZ          ZX
  --------------------------------------------------------------------------------
  x     0.00025    -0.00009    -0.00009     0.00652     0.70930    -0.00970
  y    -0.00009     0.00025    -0.00009    -0.00975     0.00648     0.70931
  z    -0.00009    -0.00009     0.00025     0.70933    -0.00968     0.00655


--------------------------------------------------------------------------------------------------------


     LOOP+:  cpu time  275.1198: real time  276.6271
    4ORBIT:  cpu time    0.0000: real time    0.0000

 total amount of memory used by VASP MPI-rank0    64630. kBytes
=======================================================================

   base      :      30000. kBytes
   nonl-proj :      27324. kBytes
   fftplans  :       1096. kBytes
   grid      :       2745. kBytes
   one-center:          6. kBytes
   wavefun   :       3459. kBytes
 
  
  
 General timing and accounting informations for this job:
 ========================================================
  
                  Total CPU time used (sec):      277.459
                            User time (sec):      272.224
                          System time (sec):        5.235
                         Elapsed time (sec):      279.023
  
                   Maximum memory used (kb):      346196.
                   Average memory used (kb):           0.
  
                          Minor page faults:       407144
                          Major page faults:           14
                 Voluntary context switches:         2933
