<?xml version="1.0" encoding="ISO-8859-1"?>
<modeling>
 <generator>
  <i name="program" type="string">vasp </i>
  <i name="version" type="string">5.4.4.18Apr17-6-g9f103f2a35  </i>
  <i name="subversion" type="string">(build Aug 24 2017 11:22:49) complex            parallel </i>
  <i name="platform" type="string">LinuxIFC </i>
  <i name="date" type="string">2023 12 25 </i>
  <i name="time" type="string">13:07:24 </i>
 </generator>
 <incar>
  <i type="string" name="PREC">accurate</i>
  <i type="string" name="ALGO"> Normal</i>
  <i type="int" name="NELM">   100</i>
  <i type="int" name="IBRION">     8</i>
  <i name="EDIFF">      0.00000001</i>
  <i name="SYMPREC">      0.00000001</i>
  <i name="ENCUT">    520.00000000</i>
  <i type="logical" name="LREAL"> F  </i>
  <i type="int" name="ISMEAR">     0</i>
  <i name="SIGMA">      0.01000000</i>
  <i type="logical" name="LWAVE"> F  </i>
  <v type="int" name="KPOINT_BSE">    -1     0     0     0</v>
  <i type="int" name="NELM">   100</i>
  <i type="logical" name="LPEAD"> T  </i>
  <i type="logical" name="LEPSILON"> T  </i>
 </incar>
 <structure name="primitive_cell" >
  <crystal>
   <varray name="basis" >
    <v>      -2.73648350       0.00000000       2.73648350 </v>
    <v>       0.00000000       2.73648350       2.73648350 </v>
    <v>      -2.73648350       2.73648350       0.00000000 </v>
   </varray>
   <i name="volume">     40.98344848 </i>
   <varray name="rec_basis" >
    <v>      -0.18271625      -0.18271625       0.18271625 </v>
    <v>       0.18271625       0.18271625       0.18271625 </v>
    <v>      -0.18271625       0.18271625      -0.18271625 </v>
   </varray>
  </crystal>
  <varray name="positions" >
   <v>       0.00000000       0.00000000       0.00000000 </v>
   <v>      -0.25000002      -0.24999994      -0.25000002 </v>
  </varray>
 </structure>
 <varray name="primitive_index" >
  <v type="int" >        1 </v>
  <v type="int" >        2 </v>
 </varray>
 <kpoints>
  <generation param="Gamma">
   <v type="int" name="divisions">      12       12       12 </v>
   <v name="usershift">      0.00000000       0.00000000       0.00000000 </v>
   <v name="genvec1">      0.08333333       0.00000000       0.00000000 </v>
   <v name="genvec2">      0.00000000       0.08333333      -0.00000000 </v>
   <v name="genvec3">     -0.00000000      -0.00000000       0.08333333 </v>
   <v name="shift">      0.00000000       0.00000000       0.00000000 </v>
  </generation>
  <varray name="kpointlist" >
   <v>       0.00000000       0.00000000       0.00000000 </v>
   <v>       0.08333333      -0.00000000       0.00000000 </v>
   <v>       0.16666667       0.00000000       0.00000000 </v>
   <v>       0.25000000      -0.00000000       0.00000000 </v>
   <v>       0.33333333       0.00000000       0.00000000 </v>
   <v>       0.41666667      -0.00000000      -0.00000000 </v>
   <v>       0.50000000      -0.00000000       0.00000000 </v>
   <v>      -0.00000000       0.08333333       0.00000000 </v>
   <v>       0.08333333       0.08333333       0.00000000 </v>
   <v>       0.16666667       0.08333333       0.00000000 </v>
   <v>       0.25000000       0.08333333       0.00000000 </v>
   <v>       0.33333333       0.08333333       0.00000000 </v>
   <v>       0.41666667       0.08333333       0.00000000 </v>
   <v>       0.50000000       0.08333333      -0.00000000 </v>
   <v>      -0.41666667       0.08333333      -0.00000000 </v>
   <v>      -0.33333333       0.08333333       0.00000000 </v>
   <v>      -0.25000000       0.08333333      -0.00000000 </v>
   <v>      -0.16666667       0.08333333      -0.00000000 </v>
   <v>      -0.08333333       0.08333333       0.00000000 </v>
   <v>       0.00000000       0.16666667       0.00000000 </v>
   <v>       0.08333333       0.16666667       0.00000000 </v>
   <v>       0.16666667       0.16666667       0.00000000 </v>
   <v>       0.25000000       0.16666667       0.00000000 </v>
   <v>       0.33333333       0.16666667       0.00000000 </v>
   <v>       0.41666667       0.16666667       0.00000000 </v>
   <v>       0.50000000       0.16666667      -0.00000000 </v>
   <v>      -0.41666667       0.16666667       0.00000000 </v>
   <v>      -0.33333333       0.16666667      -0.00000000 </v>
   <v>      -0.25000000       0.16666667       0.00000000 </v>
   <v>      -0.16666667       0.16666667      -0.00000000 </v>
   <v>      -0.08333333       0.16666667       0.00000000 </v>
   <v>      -0.00000000       0.25000000       0.00000000 </v>
   <v>       0.08333333       0.25000000       0.00000000 </v>
   <v>       0.16666667       0.25000000       0.00000000 </v>
   <v>       0.25000000       0.25000000       0.00000000 </v>
   <v>       0.33333333       0.25000000       0.00000000 </v>
   <v>       0.41666667       0.25000000       0.00000000 </v>
   <v>       0.50000000       0.25000000       0.00000000 </v>
   <v>      -0.41666667       0.25000000       0.00000000 </v>
   <v>      -0.33333333       0.25000000       0.00000000 </v>
   <v>      -0.25000000       0.25000000       0.00000000 </v>
   <v>      -0.16666667       0.25000000       0.00000000 </v>
   <v>      -0.08333333       0.25000000       0.00000000 </v>
   <v>       0.00000000       0.33333333      -0.00000000 </v>
   <v>       0.08333333       0.33333333       0.00000000 </v>
   <v>       0.16666667       0.33333333       0.00000000 </v>
   <v>       0.25000000       0.33333333       0.00000000 </v>
   <v>       0.33333333       0.33333333       0.00000000 </v>
   <v>       0.41666667       0.33333333       0.00000000 </v>
   <v>       0.50000000       0.33333333       0.00000000 </v>
   <v>      -0.41666667       0.33333333      -0.00000000 </v>
   <v>      -0.33333333       0.33333333      -0.00000000 </v>
   <v>      -0.25000000       0.33333333      -0.00000000 </v>
   <v>      -0.16666667       0.33333333       0.00000000 </v>
   <v>      -0.08333333       0.33333333       0.00000000 </v>
   <v>       0.00000000       0.41666667       0.00000000 </v>
   <v>       0.08333333       0.41666667      -0.00000000 </v>
   <v>       0.16666667       0.41666667       0.00000000 </v>
   <v>       0.25000000       0.41666667       0.00000000 </v>
   <v>       0.33333333       0.41666667       0.00000000 </v>
   <v>       0.41666667       0.41666667       0.00000000 </v>
   <v>       0.50000000       0.41666667       0.00000000 </v>
   <v>      -0.41666667       0.41666667       0.00000000 </v>
   <v>      -0.33333333       0.41666667       0.00000000 </v>
   <v>      -0.25000000       0.41666667       0.00000000 </v>
   <v>      -0.16666667       0.41666667       0.00000000 </v>
   <v>      -0.08333333       0.41666667       0.00000000 </v>
   <v>      -0.00000000       0.50000000       0.00000000 </v>
   <v>       0.08333333       0.50000000       0.00000000 </v>
   <v>       0.16666667       0.50000000       0.00000000 </v>
   <v>       0.25000000       0.50000000       0.00000000 </v>
   <v>       0.33333333       0.50000000       0.00000000 </v>
   <v>       0.41666667       0.50000000       0.00000000 </v>
   <v>       0.50000000       0.50000000       0.00000000 </v>
   <v>       0.16666667       0.00000000       0.08333333 </v>
   <v>       0.25000000      -0.00000000       0.08333333 </v>
   <v>       0.33333333      -0.00000000       0.08333333 </v>
   <v>       0.41666667       0.00000000       0.08333333 </v>
   <v>       0.50000000       0.00000000       0.08333333 </v>
   <v>      -0.41666667       0.00000000       0.08333333 </v>
   <v>      -0.33333333       0.00000000       0.08333333 </v>
   <v>      -0.25000000      -0.00000000       0.08333333 </v>
   <v>      -0.16666667      -0.00000000       0.08333333 </v>
   <v>      -0.08333333       0.00000000       0.08333333 </v>
   <v>       0.25000000       0.16666667       0.08333333 </v>
   <v>       0.33333333       0.16666667       0.08333333 </v>
   <v>       0.41666667       0.16666667       0.08333333 </v>
   <v>       0.50000000       0.16666667       0.08333333 </v>
   <v>      -0.41666667       0.16666667       0.08333333 </v>
   <v>      -0.33333333       0.16666667       0.08333333 </v>
   <v>      -0.25000000       0.16666667       0.08333333 </v>
   <v>      -0.16666667       0.16666667       0.08333333 </v>
   <v>      -0.08333333       0.16666667       0.08333333 </v>
   <v>       0.25000000       0.25000000       0.08333333 </v>
   <v>       0.33333333       0.25000000       0.08333333 </v>
   <v>       0.41666667       0.25000000       0.08333333 </v>
   <v>       0.50000000       0.25000000       0.08333333 </v>
   <v>      -0.41666667       0.25000000       0.08333333 </v>
   <v>      -0.33333333       0.25000000       0.08333333 </v>
   <v>      -0.25000000       0.25000000       0.08333333 </v>
   <v>      -0.16666667       0.25000000       0.08333333 </v>
   <v>      -0.08333333       0.25000000       0.08333333 </v>
   <v>       0.25000000       0.33333333       0.08333333 </v>
   <v>       0.33333333       0.33333333       0.08333333 </v>
   <v>       0.41666667       0.33333333       0.08333333 </v>
   <v>       0.50000000       0.33333333       0.08333333 </v>
   <v>      -0.41666667       0.33333333       0.08333333 </v>
   <v>      -0.33333333       0.33333333       0.08333333 </v>
   <v>      -0.25000000       0.33333333       0.08333333 </v>
   <v>      -0.16666667       0.33333333       0.08333333 </v>
   <v>      -0.08333333       0.33333333       0.08333333 </v>
   <v>       0.25000000       0.41666667       0.08333333 </v>
   <v>       0.33333333       0.41666667       0.08333333 </v>
   <v>       0.41666667       0.41666667       0.08333333 </v>
   <v>       0.50000000       0.41666667       0.08333333 </v>
   <v>      -0.41666667       0.41666667       0.08333333 </v>
   <v>      -0.33333333       0.41666667       0.08333333 </v>
   <v>      -0.25000000       0.41666667       0.08333333 </v>
   <v>      -0.16666667       0.41666667       0.08333333 </v>
   <v>      -0.08333333       0.41666667       0.08333333 </v>
   <v>       0.25000000       0.50000000       0.08333333 </v>
   <v>       0.33333333       0.50000000       0.08333333 </v>
   <v>       0.41666667       0.50000000       0.08333333 </v>
   <v>       0.50000000       0.50000000       0.08333333 </v>
   <v>      -0.41666667       0.50000000       0.08333333 </v>
   <v>      -0.33333333       0.50000000       0.08333333 </v>
   <v>      -0.25000000       0.50000000       0.08333333 </v>
   <v>      -0.16666667       0.50000000       0.08333333 </v>
   <v>      -0.08333333       0.50000000       0.08333333 </v>
   <v>       0.33333333       0.00000000       0.16666667 </v>
   <v>       0.41666667       0.00000000       0.16666667 </v>
   <v>       0.50000000       0.00000000       0.16666667 </v>
   <v>      -0.41666667       0.00000000       0.16666667 </v>
   <v>      -0.33333333      -0.00000000       0.16666667 </v>
   <v>      -0.25000000       0.00000000       0.16666667 </v>
   <v>      -0.16666667      -0.00000000       0.16666667 </v>
   <v>       0.33333333       0.08333333       0.16666667 </v>
   <v>       0.41666667       0.08333333       0.16666667 </v>
   <v>       0.50000000       0.08333333       0.16666667 </v>
   <v>      -0.41666667       0.08333333       0.16666667 </v>
   <v>       0.41666667       0.25000000       0.16666667 </v>
   <v>       0.50000000       0.25000000       0.16666667 </v>
   <v>      -0.41666667       0.25000000       0.16666667 </v>
   <v>      -0.33333333       0.25000000       0.16666667 </v>
   <v>      -0.25000000       0.25000000       0.16666667 </v>
   <v>      -0.16666667       0.25000000       0.16666667 </v>
   <v>       0.41666667       0.33333333       0.16666667 </v>
   <v>       0.50000000       0.33333333       0.16666667 </v>
   <v>      -0.41666667       0.33333333       0.16666667 </v>
   <v>      -0.33333333       0.33333333       0.16666667 </v>
   <v>      -0.25000000       0.33333333       0.16666667 </v>
   <v>      -0.16666667       0.33333333       0.16666667 </v>
   <v>       0.41666667       0.41666667       0.16666667 </v>
   <v>       0.50000000       0.41666667       0.16666667 </v>
   <v>      -0.41666667       0.41666667       0.16666667 </v>
   <v>      -0.33333333       0.41666667       0.16666667 </v>
   <v>      -0.25000000       0.41666667       0.16666667 </v>
   <v>      -0.16666667       0.41666667       0.16666667 </v>
   <v>       0.41666667       0.50000000       0.16666667 </v>
   <v>       0.50000000       0.50000000       0.16666667 </v>
   <v>      -0.41666667       0.50000000       0.16666667 </v>
   <v>      -0.33333333       0.50000000       0.16666667 </v>
   <v>      -0.25000000       0.50000000       0.16666667 </v>
   <v>      -0.16666667       0.50000000       0.16666667 </v>
   <v>       0.41666667      -0.41666667       0.16666667 </v>
   <v>       0.50000000      -0.41666667       0.16666667 </v>
   <v>      -0.41666667      -0.41666667       0.16666667 </v>
   <v>       0.50000000       0.00000000       0.25000000 </v>
   <v>      -0.41666667       0.00000000       0.25000000 </v>
   <v>      -0.33333333       0.00000000       0.25000000 </v>
   <v>      -0.25000000      -0.00000000       0.25000000 </v>
   <v>       0.50000000       0.08333333       0.25000000 </v>
   <v>      -0.41666667       0.08333333       0.25000000 </v>
   <v>      -0.33333333       0.08333333       0.25000000 </v>
   <v>      -0.25000000       0.08333333       0.25000000 </v>
   <v>      -0.41666667       0.33333333       0.25000000 </v>
   <v>      -0.33333333       0.33333333       0.25000000 </v>
   <v>      -0.25000000       0.33333333       0.25000000 </v>
   <v>      -0.41666667       0.41666667       0.25000000 </v>
   <v>      -0.33333333       0.41666667       0.25000000 </v>
   <v>      -0.25000000       0.41666667       0.25000000 </v>
   <v>      -0.41666667       0.50000000       0.25000000 </v>
   <v>      -0.33333333       0.50000000       0.25000000 </v>
   <v>      -0.25000000       0.50000000       0.25000000 </v>
   <v>      -0.41666667      -0.41666667       0.25000000 </v>
   <v>      -0.33333333      -0.41666667       0.25000000 </v>
   <v>      -0.33333333      -0.00000000       0.33333333 </v>
   <v>      -0.33333333       0.08333333       0.33333333 </v>
   <v>      -0.33333333       0.16666667       0.33333333 </v>
  </varray>
  <varray name="weights" >
   <v>       0.00057870 </v>
   <v>       0.00347222 </v>
   <v>       0.00347222 </v>
   <v>       0.00347222 </v>
   <v>       0.00347222 </v>
   <v>       0.00347222 </v>
   <v>       0.00173611 </v>
   <v>       0.00115741 </v>
   <v>       0.00347222 </v>
   <v>       0.00347222 </v>
   <v>       0.00347222 </v>
   <v>       0.00347222 </v>
   <v>       0.00347222 </v>
   <v>       0.00347222 </v>
   <v>       0.00347222 </v>
   <v>       0.00347222 </v>
   <v>       0.00347222 </v>
   <v>       0.00347222 </v>
   <v>       0.00347222 </v>
   <v>       0.00115741 </v>
   <v>       0.00347222 </v>
   <v>       0.00347222 </v>
   <v>       0.00347222 </v>
   <v>       0.00347222 </v>
   <v>       0.00347222 </v>
   <v>       0.00347222 </v>
   <v>       0.00347222 </v>
   <v>       0.00347222 </v>
   <v>       0.00347222 </v>
   <v>       0.00347222 </v>
   <v>       0.00347222 </v>
   <v>       0.00115741 </v>
   <v>       0.00347222 </v>
   <v>       0.00347222 </v>
   <v>       0.00347222 </v>
   <v>       0.00347222 </v>
   <v>       0.00347222 </v>
   <v>       0.00347222 </v>
   <v>       0.00347222 </v>
   <v>       0.00347222 </v>
   <v>       0.00347222 </v>
   <v>       0.00347222 </v>
   <v>       0.00347222 </v>
   <v>       0.00115741 </v>
   <v>       0.00347222 </v>
   <v>       0.00347222 </v>
   <v>       0.00347222 </v>
   <v>       0.00347222 </v>
   <v>       0.00347222 </v>
   <v>       0.00347222 </v>
   <v>       0.00347222 </v>
   <v>       0.00347222 </v>
   <v>       0.00347222 </v>
   <v>       0.00347222 </v>
   <v>       0.00347222 </v>
   <v>       0.00115741 </v>
   <v>       0.00347222 </v>
   <v>       0.00347222 </v>
   <v>       0.00347222 </v>
   <v>       0.00347222 </v>
   <v>       0.00347222 </v>
   <v>       0.00347222 </v>
   <v>       0.00347222 </v>
   <v>       0.00347222 </v>
   <v>       0.00347222 </v>
   <v>       0.00347222 </v>
   <v>       0.00347222 </v>
   <v>       0.00057870 </v>
   <v>       0.00347222 </v>
   <v>       0.00347222 </v>
   <v>       0.00347222 </v>
   <v>       0.00347222 </v>
   <v>       0.00347222 </v>
   <v>       0.00173611 </v>
   <v>       0.00694444 </v>
   <v>       0.00694444 </v>
   <v>       0.00694444 </v>
   <v>       0.00694444 </v>
   <v>       0.00694444 </v>
   <v>       0.00694444 </v>
   <v>       0.00694444 </v>
   <v>       0.00694444 </v>
   <v>       0.00694444 </v>
   <v>       0.00347222 </v>
   <v>       0.00694444 </v>
   <v>       0.00694444 </v>
   <v>       0.00694444 </v>
   <v>       0.00694444 </v>
   <v>       0.00694444 </v>
   <v>       0.00694444 </v>
   <v>       0.00694444 </v>
   <v>       0.00694444 </v>
   <v>       0.00694444 </v>
   <v>       0.00694444 </v>
   <v>       0.00694444 </v>
   <v>       0.00694444 </v>
   <v>       0.00694444 </v>
   <v>       0.00694444 </v>
   <v>       0.00694444 </v>
   <v>       0.00694444 </v>
   <v>       0.00694444 </v>
   <v>       0.00694444 </v>
   <v>       0.00694444 </v>
   <v>       0.00694444 </v>
   <v>       0.00694444 </v>
   <v>       0.00694444 </v>
   <v>       0.00694444 </v>
   <v>       0.00694444 </v>
   <v>       0.00694444 </v>
   <v>       0.00694444 </v>
   <v>       0.00694444 </v>
   <v>       0.00694444 </v>
   <v>       0.00694444 </v>
   <v>       0.00694444 </v>
   <v>       0.00694444 </v>
   <v>       0.00694444 </v>
   <v>       0.00694444 </v>
   <v>       0.00694444 </v>
   <v>       0.00694444 </v>
   <v>       0.00694444 </v>
   <v>       0.00694444 </v>
   <v>       0.00694444 </v>
   <v>       0.00694444 </v>
   <v>       0.00694444 </v>
   <v>       0.00694444 </v>
   <v>       0.00694444 </v>
   <v>       0.00694444 </v>
   <v>       0.00694444 </v>
   <v>       0.00347222 </v>
   <v>       0.00694444 </v>
   <v>       0.00694444 </v>
   <v>       0.00694444 </v>
   <v>       0.00694444 </v>
   <v>       0.00694444 </v>
   <v>       0.00694444 </v>
   <v>       0.00347222 </v>
   <v>       0.00694444 </v>
   <v>       0.00694444 </v>
   <v>       0.00694444 </v>
   <v>       0.00347222 </v>
   <v>       0.00694444 </v>
   <v>       0.00694444 </v>
   <v>       0.00694444 </v>
   <v>       0.00694444 </v>
   <v>       0.00694444 </v>
   <v>       0.00694444 </v>
   <v>       0.00694444 </v>
   <v>       0.00694444 </v>
   <v>       0.00694444 </v>
   <v>       0.00694444 </v>
   <v>       0.00694444 </v>
   <v>       0.00694444 </v>
   <v>       0.00694444 </v>
   <v>       0.00694444 </v>
   <v>       0.00694444 </v>
   <v>       0.00694444 </v>
   <v>       0.00694444 </v>
   <v>       0.00694444 </v>
   <v>       0.00694444 </v>
   <v>       0.00694444 </v>
   <v>       0.00694444 </v>
   <v>       0.00694444 </v>
   <v>       0.00694444 </v>
   <v>       0.00347222 </v>
   <v>       0.00694444 </v>
   <v>       0.00694444 </v>
   <v>       0.00347222 </v>
   <v>       0.00694444 </v>
   <v>       0.00694444 </v>
   <v>       0.00694444 </v>
   <v>       0.00347222 </v>
   <v>       0.00694444 </v>
   <v>       0.00694444 </v>
   <v>       0.00694444 </v>
   <v>       0.00694444 </v>
   <v>       0.00694444 </v>
   <v>       0.00694444 </v>
   <v>       0.00694444 </v>
   <v>       0.00694444 </v>
   <v>       0.00694444 </v>
   <v>       0.00694444 </v>
   <v>       0.00694444 </v>
   <v>       0.00694444 </v>
   <v>       0.00347222 </v>
   <v>       0.00694444 </v>
   <v>       0.00694444 </v>
   <v>       0.00347222 </v>
   <v>       0.00694444 </v>
   <v>       0.00347222 </v>
  </varray>
 </kpoints>
 <parameters>
  <separator name="general" >
   <i type="string" name="SYSTEM">unknown system</i>
   <i type="logical" name="LCOMPAT"> F  </i>
  </separator>
  <separator name="electronic" >
   <i type="string" name="PREC">accura</i>
   <i name="ENMAX">    520.00000000</i>
   <i name="ENAUG">    342.92400000</i>
   <i name="EDIFF">      0.00000001</i>
   <i type="int" name="IALGO">    38</i>
   <i type="int" name="IWAVPR">    11</i>
   <i type="int" name="NBANDS">     8</i>
   <i name="NELECT">      8.00000000</i>
   <i type="int" name="TURBO">     0</i>
   <i type="int" name="IRESTART">     0</i>
   <i type="int" name="NREBOOT">     0</i>
   <i type="int" name="NMIN">     0</i>
   <i name="EREF">      0.00000000</i>
   <separator name="electronic smearing" >
    <i type="int" name="ISMEAR">     0</i>
    <i name="SIGMA">      0.01000000</i>
    <i name="KSPACING">      0.50000000</i>
    <i type="logical" name="KGAMMA"> T  </i>
   </separator>
   <separator name="electronic projectors" >
    <i type="logical" name="LREAL"> F  </i>
    <v name="ROPT">      0.00000000      0.00000000</v>
    <i type="int" name="LMAXPAW">  -100</i>
    <i type="int" name="LMAXMIX">     2</i>
    <i type="logical" name="NLSPLINE"> F  </i>
   </separator>
   <separator name="electronic startup" >
    <i type="int" name="ISTART">     0</i>
    <i type="int" name="ICHARG">     2</i>
    <i type="int" name="INIWAV">     1</i>
   </separator>
   <separator name="electronic spin" >
    <i type="int" name="ISPIN">     1</i>
    <i type="logical" name="LNONCOLLINEAR"> F  </i>
    <v name="MAGMOM">      1.00000000      1.00000000</v>
    <i name="NUPDOWN">     -1.00000000</i>
    <i type="logical" name="LSORBIT"> F  </i>
    <v name="SAXIS">      0.00000000      0.00000000      1.00000000</v>
    <i type="logical" name="LSPIRAL"> F  </i>
    <v name="QSPIRAL">      0.00000000      0.00000000      0.00000000</v>
    <i type="logical" name="LZEROZ"> F  </i>
   </separator>
   <separator name="electronic exchange-correlation" >
    <i type="logical" name="LASPH"> F  </i>
    <i type="logical" name="LMETAGGA"> F  </i>
   </separator>
   <separator name="electronic convergence" >
    <i type="int" name="NELM">   100</i>
    <i type="int" name="NELMDL">    -5</i>
    <i type="int" name="NELMIN">     2</i>
    <i name="ENINI">    520.00000000</i>
    <separator name="electronic convergence detail" >
     <i type="logical" name="LDIAG"> T  </i>
     <i type="logical" name="LSUBROT"> F  </i>
     <i name="WEIMIN">      0.00100000</i>
     <i name="EBREAK">      0.00000000</i>
     <i name="DEPER">      0.30000000</i>
     <i type="int" name="NRMM">     4</i>
     <i name="TIME">      0.40000000</i>
    </separator>
   </separator>
   <separator name="electronic mixer" >
    <i name="AMIX">      0.40000000</i>
    <i name="BMIX">      1.00000000</i>
    <i name="AMIN">      0.10000000</i>
    <i name="AMIX_MAG">      1.60000000</i>
    <i name="BMIX_MAG">      1.00000000</i>
    <separator name="electronic mixer details" >
     <i type="int" name="IMIX">     4</i>
     <i type="logical" name="MIXFIRST"> F  </i>
     <i type="int" name="MAXMIX">   -45</i>
     <i name="WC">    100.00000000</i>
     <i type="int" name="INIMIX">     1</i>
     <i type="int" name="MIXPRE">     1</i>
     <i type="int" name="MREMOVE">     5</i>
    </separator>
   </separator>
   <separator name="electronic dipolcorrection" >
    <i type="logical" name="LDIPOL"> F  </i>
    <i type="logical" name="LMONO"> F  </i>
    <i type="int" name="IDIPOL">     0</i>
    <i name="EPSILON">      1.00000000</i>
    <v name="DIPOL">   -100.00000000   -100.00000000   -100.00000000</v>
    <i name="EFIELD">      0.00000000</i>
   </separator>
  </separator>
  <separator name="grids" >
   <i type="int" name="NGX">    30</i>
   <i type="int" name="NGY">    30</i>
   <i type="int" name="NGZ">    30</i>
   <i type="int" name="NGXF">    60</i>
   <i type="int" name="NGYF">    60</i>
   <i type="int" name="NGZF">    60</i>
   <i type="logical" name="ADDGRID"> F  </i>
  </separator>
  <separator name="ionic" >
   <i type="int" name="NSW">     1</i>
   <i type="int" name="IBRION">     8</i>
   <i type="int" name="MDALGO">     0</i>
   <i type="int" name="ISIF">     2</i>
   <i name="PSTRESS">      0.00000000</i>
   <i name="EDIFFG">      0.00000010</i>
   <i type="int" name="NFREE">     0</i>
   <i name="POTIM">      0.50000000</i>
   <i name="SMASS">     -3.00000000</i>
   <i name="SCALEE">      1.00000000</i>
  </separator>
  <separator name="ionic md" >
   <i name="TEBEG">      0.00010000</i>
   <i name="TEEND">      0.00010000</i>
   <i type="int" name="NBLOCK">     1</i>
   <i type="int" name="KBLOCK">     1</i>
   <i type="int" name="NPACO">   256</i>
   <i name="APACO">     16.00000000</i>
  </separator>
  <separator name="symmetry" >
   <i type="int" name="ISYM">     2</i>
   <i name="SYMPREC">      0.00000001</i>
  </separator>
  <separator name="dos" >
   <i type="int" name="LORBIT">     0</i>
   <v name="RWIGS">     -1.00000000     -1.00000000</v>
   <i type="int" name="NEDOS">   301</i>
   <i name="EMIN">     10.00000000</i>
   <i name="EMAX">    -10.00000000</i>
   <i name="EFERMI">      0.00000000</i>
  </separator>
  <separator name="writing" >
   <i type="int" name="NWRITE">     2</i>
   <i type="logical" name="LWAVE"> F  </i>
   <i type="logical" name="LDOWNSAMPLE"> F  </i>
   <i type="logical" name="LCHARG"> T  </i>
   <i type="logical" name="LPARD"> F  </i>
   <i type="logical" name="LVTOT"> F  </i>
   <i type="logical" name="LVHAR"> F  </i>
   <i type="logical" name="LELF"> F  </i>
   <i type="logical" name="LOPTICS"> F  </i>
   <v name="STM">      0.00000000      0.00000000      0.00000000      0.00000000      0.00000000      0.00000000      0.00000000</v>
  </separator>
  <separator name="performance" >
   <i type="int" name="NPAR">     8</i>
   <i type="int" name="NSIM">     4</i>
   <i type="int" name="NBLK">    -1</i>
   <i type="logical" name="LPLANE"> T  </i>
   <i type="logical" name="LSCALAPACK"> T  </i>
   <i type="logical" name="LSCAAWARE"> F  </i>
   <i type="logical" name="LSCALU"> F  </i>
   <i type="logical" name="LASYNC"> F  </i>
   <i type="logical" name="LORBITALREAL"> F  </i>
  </separator>
  <separator name="miscellaneous" >
   <i type="int" name="IDIOT">     3</i>
   <i type="int" name="ISPECIAL">     0</i>
   <i type="logical" name="LMUSIC"> F  </i>
   <v name="POMASS">     26.98100000     30.97400000</v>
   <v name="DARWINR">      0.00000000      0.00000000</v>
   <v name="DARWINV">      1.00000000      1.00000000</v>
   <i type="logical" name="LCORR"> T  </i>
  </separator>
  <i type="logical" name="GGA_COMPAT"> T  </i>
  <i type="logical" name="LBERRY"> F  </i>
  <i type="int" name="ICORELEVEL">     0</i>
  <i type="logical" name="LDAU"> F  </i>
  <i type="int" name="I_CONSTRAINED_M">     0</i>
  <separator name="electronic exchange-correlation" >
   <i type="string" name="GGA">--</i>
   <i type="int" name="VOSKOWN">     0</i>
   <i type="logical" name="LHFCALC"> F  </i>
   <i type="string" name="PRECFOCK"></i>
   <i type="logical" name="LSYMGRAD"> F  </i>
   <i type="logical" name="LHFONE"> F  </i>
   <i type="logical" name="LRHFCALC"> F  </i>
   <i type="logical" name="LTHOMAS"> F  </i>
   <i type="logical" name="LMODELHF"> F  </i>
   <i name="ENCUT4O">     -1.00000000</i>
   <i type="int" name="EXXOEP">     0</i>
   <i type="int" name="FOURORBIT">     0</i>
   <i name="AEXX">      0.00000000</i>
   <i name="HFALPHA">      0.00000000</i>
   <i name="MCALPHA">      0.00000000</i>
   <i name="ALDAX">      1.00000000</i>
   <i name="AGGAX">      1.00000000</i>
   <i name="ALDAC">      1.00000000</i>
   <i name="AGGAC">      1.00000000</i>
   <i type="int" name="NKREDX">     1</i>
   <i type="int" name="NKREDY">     1</i>
   <i type="int" name="NKREDZ">     1</i>
   <i type="logical" name="SHIFTRED"> F  </i>
   <i type="logical" name="ODDONLY"> F  </i>
   <i type="logical" name="EVENONLY"> F  </i>
   <i type="int" name="LMAXFOCK">     0</i>
   <i type="int" name="NMAXFOCKAE">     0</i>
   <i type="logical" name="LFOCKAEDFT"> F  </i>
   <i name="HFSCREEN">      0.00000000</i>
   <i name="HFSCREENC">      0.00000000</i>
   <i type="int" name="NBANDSGWLOW">     0</i>
  </separator>
  <separator name="vdW DFT" >
   <i type="logical" name="LUSE_VDW"> F  </i>
   <i name="Zab_VDW">     -0.84910000</i>
   <i name="PARAM1">      0.12340000</i>
   <i name="PARAM2">      1.00000000</i>
   <i name="PARAM3">      0.00000000</i>
  </separator>
  <separator name="model GW" >
   <i type="int" name="MODEL_GW">     0</i>
   <i name="MODEL_EPS0">     12.29503454</i>
   <i name="MODEL_ALPHA">      1.00000000</i>
  </separator>
  <separator name="linear response parameters" >
   <i type="logical" name="LEPSILON"> T  </i>
   <i type="logical" name="LRPA"> F  </i>
   <i type="logical" name="LNABLA"> F  </i>
   <i type="logical" name="LVEL"> F  </i>
   <i type="int" name="KINTER">     0</i>
   <i name="CSHIFT">      0.10000000</i>
   <i name="OMEGAMAX">     -1.00000000</i>
   <i name="DEG_THRESHOLD">      0.00200000</i>
   <i name="RTIME">     -0.10000000</i>
   <i name="WPLASMAI">      0.00000000</i>
   <v name="DFIELD">      0.00000000      0.00000000      0.00000000</v>
   <v name="WPLASMA">      0.00000000      0.00000000      0.00000000      0.00000000      0.00000000      0.00000000      0.00000000      0.00000000      0.00000000</v>
  </separator>
  <separator name="orbital magnetization" >
   <i type="logical" name="NUCIND"> F  </i>
   <v name="MAGPOS">      0.00000000      0.00000000      0.00000000</v>
   <i type="logical" name="LNICSALL"> T  </i>
   <i type="logical" name="ORBITALMAG"> F  </i>
   <i type="logical" name="LMAGBLOCH"> F  </i>
   <i type="logical" name="LCHIMAG"> F  </i>
   <i type="logical" name="LGAUGE"> T  </i>
   <i type="int" name="MAGATOM">     0</i>
   <v name="MAGDIPOL">      0.00000000      0.00000000      0.00000000</v>
   <v name="AVECCONST">      0.00000000      0.00000000      0.00000000</v>
  </separator>
  <separator name="response functions" >
   <i type="logical" name="LADDER"> F  </i>
   <i type="logical" name="LRPAFORCE"> F  </i>
   <i type="logical" name="LFXC"> F  </i>
   <i type="logical" name="LHARTREE"> T  </i>
   <i type="int" name="IBSE">     0</i>
   <v type="int" name="KPOINT">    -1     0     0     0</v>
   <i type="logical" name="LTCTE"> F  </i>
   <i type="logical" name="LTETE"> F  </i>
   <i type="logical" name="LTRIPLET"> F  </i>
   <i type="logical" name="LFXCEPS"> F  </i>
   <i type="logical" name="LFXHEG"> F  </i>
   <i type="int" name="NATURALO">     2</i>
   <i type="logical" name="L2ORDER"> F  </i>
   <i type="logical" name="LMP2LT"> F  </i>
   <i type="logical" name="LUSEW"> F  </i>
   <i name="ENCUTGW">     -2.00000000</i>
   <i name="ENCUTGWSOFT">     -2.00000000</i>
   <i name="ENCUTLF">     -1.00000000</i>
   <i type="int" name="LMAXMP2">    -1</i>
   <i name="SCISSOR">      0.00000000</i>
   <i type="int" name="NOMEGA">     0</i>
   <i type="int" name="NOMEGAR">     0</i>
   <i type="int" name="NBANDSGW">    -1</i>
   <i type="int" name="NBANDSO">    -1</i>
   <i type="int" name="NBANDSV">    -1</i>
   <i type="int" name="NELM">   100</i>
   <i type="int" name="NELMHF">     1</i>
   <i type="int" name="DIM">     3</i>
   <i type="int" name="ANTIRES">     0</i>
   <i name="OMEGAMAX">    -30.00000000</i>
   <i name="OMEGAMIN">    -30.00000000</i>
   <i name="OMEGATL">   -200.00000000</i>
   <i type="int" name="OMEGAGRID">   140</i>
   <i name="CSHIFT">     -0.10000000</i>
   <i type="logical" name="SELFENERGY"> F  </i>
   <i type="logical" name="LSPECTRAL"> F  </i>
   <i type="logical" name="LSPECTRALGW"> F  </i>
   <i type="logical" name="LSINGLES"> F  </i>
   <i type="logical" name="LFERMIGW"> F  </i>
   <i type="logical" name="ODDONLYGW"> F  </i>
   <i type="logical" name="EVENONLYGW"> F  </i>
   <i type="int" name="NKREDLFX">     1</i>
   <i type="int" name="NKREDLFY">     1</i>
   <i type="int" name="NKREDLFZ">     1</i>
   <i type="int" name="MAXMEM">  2800</i>
   <i type="int" name="TELESCOPE">     0</i>
   <i type="int" name="TAUPAR">     1</i>
   <i type="int" name="OMEGAPAR">    -1</i>
   <i name="LAMBDA">      1.00000000</i>
  </separator>
  <separator name="External order field" >
   <i name="OFIELD_KAPPA">      0.00000000</i>
   <v name="OFIELD_K">      0.00000000      0.00000000      0.00000000</v>
   <i name="OFIELD_Q6_NEAR">      0.00000000</i>
   <i name="OFIELD_Q6_FAR">      0.00000000</i>
   <i name="OFIELD_A">      0.00000000</i>
  </separator>
 </parameters>
 <atominfo>
  <atoms>       2 </atoms>
  <types>       2 </types>
  <array name="atoms" >
   <dimension dim="1">ion</dimension>
   <field type="string">element</field>
   <field type="int">atomtype</field>
   <set>
    <rc><c>Al</c><c>   1</c></rc>
    <rc><c>P </c><c>   2</c></rc>
   </set>
  </array>
  <array name="atomtypes" >
   <dimension dim="1">type</dimension>
   <field type="int">atomspertype</field>
   <field type="string">element</field>
   <field>mass</field>
   <field>valence</field>
   <field type="string">pseudopotential</field>
   <set>
    <rc><c>   1</c><c>Al</c><c>     26.98100000</c><c>      3.00000000</c><c>  PAW_PBE Al 04Jan2001                  </c></rc>
    <rc><c>   1</c><c>P </c><c>     30.97400000</c><c>      5.00000000</c><c>  PAW_PBE P 06Sep2000                   </c></rc>
   </set>
  </array>
 </atominfo>
 <structure name="initialpos" >
  <crystal>
   <varray name="basis" >
    <v>      -2.73648350       0.00000000       2.73648350 </v>
    <v>       0.00000000       2.73648350       2.73648350 </v>
    <v>      -2.73648350       2.73648350       0.00000000 </v>
   </varray>
   <i name="volume">     40.98344848 </i>
   <varray name="rec_basis" >
    <v>      -0.18271625      -0.18271625       0.18271625 </v>
    <v>       0.18271625       0.18271625       0.18271625 </v>
    <v>      -0.18271625       0.18271625      -0.18271625 </v>
   </varray>
  </crystal>
  <varray name="positions" >
   <v>       0.00000000       0.00000000       0.00000000 </v>
   <v>       0.74999998       0.75000006       0.74999998 </v>
  </varray>
 </structure>
 <calculation>
  <scstep>
   <time name="dav">    0.60    0.60</time>
   <time name="total">    0.62    0.63</time>
   <energy>
    <i name="alphaZ">      3.69562063 </i>
    <i name="ewald">   -236.72228772 </i>
    <i name="hartreedc">    -19.50558009 </i>
    <i name="XCdc">    -23.18452135 </i>
    <i name="pawpsdc">    205.96018703 </i>
    <i name="pawaedc">   -165.84420087 </i>
    <i name="eentropy">     -0.00002089 </i>
    <i name="bandstr">     18.41803952 </i>
    <i name="atom">    229.58040348 </i>
    <i name="e_fr_energy">     12.39763975 </i>
    <i name="e_wo_entrp">     12.39766063 </i>
    <i name="e_0_energy">     12.39765019 </i>
   </energy>
  </scstep>
  <scstep>
   <time name="dav">    0.86    0.86</time>
   <time name="total">    0.86    0.86</time>
   <energy>
    <i name="e_fr_energy">    -10.16849355 </i>
    <i name="e_wo_entrp">    -10.16849355 </i>
    <i name="e_0_energy">    -10.16849355 </i>
   </energy>
  </scstep>
  <scstep>
   <time name="dav">    0.75    0.75</time>
   <time name="total">    0.75    0.75</time>
   <energy>
    <i name="e_fr_energy">    -10.71908053 </i>
    <i name="e_wo_entrp">    -10.71908053 </i>
    <i name="e_0_energy">    -10.71908053 </i>
   </energy>
  </scstep>
  <scstep>
   <time name="dav">    0.98    0.98</time>
   <time name="total">    0.98    0.98</time>
   <energy>
    <i name="e_fr_energy">    -10.72171031 </i>
    <i name="e_wo_entrp">    -10.72171031 </i>
    <i name="e_0_energy">    -10.72171031 </i>
   </energy>
  </scstep>
  <scstep>
   <time name="dav">    0.86    0.86</time>
   <time name="total">    0.94    0.94</time>
   <energy>
    <i name="e_fr_energy">    -10.72171477 </i>
    <i name="e_wo_entrp">    -10.72171477 </i>
    <i name="e_0_energy">    -10.72171477 </i>
   </energy>
  </scstep>
  <scstep>
   <time name="dav">    0.75    0.75</time>
   <time name="total">    0.84    0.84</time>
   <energy>
    <i name="e_fr_energy">    -10.41640218 </i>
    <i name="e_wo_entrp">    -10.41640218 </i>
    <i name="e_0_energy">    -10.41640218 </i>
   </energy>
  </scstep>
  <scstep>
   <time name="dav">    0.79    0.79</time>
   <time name="total">    0.89    0.89</time>
   <energy>
    <i name="e_fr_energy">    -10.37374017 </i>
    <i name="e_wo_entrp">    -10.37374017 </i>
    <i name="e_0_energy">    -10.37374017 </i>
   </energy>
  </scstep>
  <scstep>
   <time name="dav">    0.75    0.76</time>
   <time name="total">    0.85    0.86</time>
   <energy>
    <i name="e_fr_energy">    -10.37403759 </i>
    <i name="e_wo_entrp">    -10.37403759 </i>
    <i name="e_0_energy">    -10.37403759 </i>
   </energy>
  </scstep>
  <scstep>
   <time name="dav">    0.94    0.94</time>
   <time name="total">    1.03    1.04</time>
   <energy>
    <i name="e_fr_energy">    -10.37404219 </i>
    <i name="e_wo_entrp">    -10.37404219 </i>
    <i name="e_0_energy">    -10.37404219 </i>
   </energy>
  </scstep>
  <scstep>
   <time name="dav">    0.61    0.61</time>
   <time name="total">    0.70    0.70</time>
   <energy>
    <i name="e_fr_energy">    -10.37421560 </i>
    <i name="e_wo_entrp">    -10.37421560 </i>
    <i name="e_0_energy">    -10.37421560 </i>
   </energy>
  </scstep>
  <scstep>
   <time name="dav">    0.87    0.87</time>
   <time name="total">    0.97    0.98</time>
   <energy>
    <i name="e_fr_energy">    -10.37421711 </i>
    <i name="e_wo_entrp">    -10.37421711 </i>
    <i name="e_0_energy">    -10.37421711 </i>
   </energy>
  </scstep>
  <scstep>
   <time name="dav">    0.67    0.67</time>
   <time name="total">    0.76    0.76</time>
   <energy>
    <i name="e_fr_energy">    -10.37421819 </i>
    <i name="e_wo_entrp">    -10.37421819 </i>
    <i name="e_0_energy">    -10.37421819 </i>
   </energy>
  </scstep>
  <scstep>
   <time name="dav">    0.91    0.92</time>
   <time name="total">    1.03    1.03</time>
   <energy>
    <i name="e_fr_energy">    -10.37421841 </i>
    <i name="e_wo_entrp">    -10.37421841 </i>
    <i name="e_0_energy">    -10.37421841 </i>
   </energy>
  </scstep>
  <scstep>
   <time name="dav">    0.67    0.67</time>
   <time name="total">    0.77    0.78</time>
   <energy>
    <i name="e_fr_energy">    -10.37421834 </i>
    <i name="e_wo_entrp">    -10.37421834 </i>
    <i name="e_0_energy">    -10.37421834 </i>
   </energy>
  </scstep>
  <scstep>
   <time name="dav">    0.53    0.53</time>
   <time name="total">    0.54    0.54</time>
   <energy>
    <i name="alphaZ">      3.69562063 </i>
    <i name="ewald">   -236.72228772 </i>
    <i name="hartreedc">    -25.10793863 </i>
    <i name="XCdc">    -22.41896096 </i>
    <i name="pawpsdc">    762.59035111 </i>
    <i name="pawaedc">   -722.69735257 </i>
    <i name="eentropy">     -0.00000000 </i>
    <i name="bandstr">      0.70594631 </i>
    <i name="atom">    229.58040348 </i>
    <i name="e_fr_energy">    -10.37421835 </i>
    <i name="e_wo_entrp">    -10.37421835 </i>
    <i name="e_0_energy">    -10.37421835 </i>
   </energy>
  </scstep>
  <structure>
   <crystal>
    <varray name="basis" >
     <v>      -2.73648350       0.00000000       2.73648350 </v>
     <v>       0.00000000       2.73648350       2.73648350 </v>
     <v>      -2.73648350       2.73648350       0.00000000 </v>
    </varray>
    <i name="volume">     40.98344848 </i>
    <varray name="rec_basis" >
     <v>      -0.18271625      -0.18271625       0.18271625 </v>
     <v>       0.18271625       0.18271625       0.18271625 </v>
     <v>      -0.18271625       0.18271625      -0.18271625 </v>
    </varray>
   </crystal>
   <varray name="positions" >
    <v>       0.00000000       0.00000000       0.00000000 </v>
    <v>       0.74999998       0.75000006       0.74999998 </v>
   </varray>
  </structure>
  <varray name="forces" >
   <v>       0.00000122       0.00000122       0.00000122 </v>
   <v>      -0.00000122      -0.00000122      -0.00000122 </v>
  </varray>
  <varray name="stress" >
   <v>      15.32257679      -0.00003449      -0.00003449 </v>
   <v>      -0.00003449      15.32257679      -0.00003449 </v>
   <v>      -0.00003449      -0.00003449      15.32257679 </v>
  </varray>
  <energy>
   <i name="e_fr_energy">    -10.37421835 </i>
   <i name="e_wo_entrp">    -10.37421835 </i>
   <i name="e_0_energy">     -0.00000000 </i>
  </energy>
  <scstep>
   <time name="total">    0.80    0.80</time>
   <energy>
    <i name="e_fr_energy">     -0.94586423 </i>
    <i name="e_wo_entrp">     -0.94586423 </i>
    <i name="e_0_energy">     -0.94586423 </i>
   </energy>
  </scstep>
  <scstep>
   <time name="total">    0.78    0.78</time>
   <energy>
    <i name="e_fr_energy">     -0.97682213 </i>
    <i name="e_wo_entrp">     -0.97682213 </i>
    <i name="e_0_energy">     -0.97682213 </i>
   </energy>
  </scstep>
  <scstep>
   <time name="total">    0.76    0.76</time>
   <energy>
    <i name="e_fr_energy">     -0.97693882 </i>
    <i name="e_wo_entrp">     -0.97693882 </i>
    <i name="e_0_energy">     -0.97693882 </i>
   </energy>
  </scstep>
  <scstep>
   <time name="total">    0.76    0.76</time>
   <energy>
    <i name="e_fr_energy">     -0.97693983 </i>
    <i name="e_wo_entrp">     -0.97693983 </i>
    <i name="e_0_energy">     -0.97693983 </i>
   </energy>
  </scstep>
  <scstep>
   <time name="total">    0.76    0.76</time>
   <energy>
    <i name="e_fr_energy">     -0.97693985 </i>
    <i name="e_wo_entrp">     -0.97693985 </i>
    <i name="e_0_energy">     -0.97693985 </i>
   </energy>
  </scstep>
  <scstep>
   <time name="total">    0.76    0.76</time>
   <energy>
    <i name="e_fr_energy">     -0.97693985 </i>
    <i name="e_wo_entrp">     -0.97693985 </i>
    <i name="e_0_energy">     -0.97693985 </i>
   </energy>
  </scstep>
  <scstep>
   <time name="total">    0.79    0.79</time>
   <energy>
    <i name="e_fr_energy">     -0.99483392 </i>
    <i name="e_wo_entrp">     -0.99483392 </i>
    <i name="e_0_energy">     -0.99483392 </i>
   </energy>
  </scstep>
  <scstep>
   <time name="total">    0.80    0.80</time>
   <energy>
    <i name="e_fr_energy">     -1.03159723 </i>
    <i name="e_wo_entrp">     -1.03159723 </i>
    <i name="e_0_energy">     -1.03159723 </i>
   </energy>
  </scstep>
  <scstep>
   <time name="total">    0.81    0.82</time>
   <energy>
    <i name="e_fr_energy">     -1.03171479 </i>
    <i name="e_wo_entrp">     -1.03171479 </i>
    <i name="e_0_energy">     -1.03171479 </i>
   </energy>
  </scstep>
  <scstep>
   <time name="total">    0.82    0.83</time>
   <energy>
    <i name="e_fr_energy">     -1.03171584 </i>
    <i name="e_wo_entrp">     -1.03171584 </i>
    <i name="e_0_energy">     -1.03171584 </i>
   </energy>
  </scstep>
  <scstep>
   <time name="total">    0.83    0.83</time>
   <energy>
    <i name="e_fr_energy">     -1.03171586 </i>
    <i name="e_wo_entrp">     -1.03171586 </i>
    <i name="e_0_energy">     -1.03171586 </i>
   </energy>
  </scstep>
  <scstep>
   <time name="total">    0.75    0.76</time>
   <energy>
    <i name="e_fr_energy">     -1.03171586 </i>
    <i name="e_wo_entrp">     -1.03171586 </i>
    <i name="e_0_energy">     -1.03171586 </i>
   </energy>
  </scstep>
  <scstep>
   <time name="total">    0.82    0.82</time>
   <energy>
    <i name="e_fr_energy">     -0.60520254 </i>
    <i name="e_wo_entrp">     -0.60520254 </i>
    <i name="e_0_energy">     -0.60520254 </i>
   </energy>
  </scstep>
  <scstep>
   <time name="total">    0.80    0.81</time>
   <energy>
    <i name="e_fr_energy">     -0.62312162 </i>
    <i name="e_wo_entrp">     -0.62312162 </i>
    <i name="e_0_energy">     -0.62312162 </i>
   </energy>
  </scstep>
  <scstep>
   <time name="total">    0.80    0.80</time>
   <energy>
    <i name="e_fr_energy">     -0.62320029 </i>
    <i name="e_wo_entrp">     -0.62320029 </i>
    <i name="e_0_energy">     -0.62320029 </i>
   </energy>
  </scstep>
  <scstep>
   <time name="total">    0.80    0.81</time>
   <energy>
    <i name="e_fr_energy">     -0.62320101 </i>
    <i name="e_wo_entrp">     -0.62320101 </i>
    <i name="e_0_energy">     -0.62320101 </i>
   </energy>
  </scstep>
  <scstep>
   <time name="total">    0.81    0.82</time>
   <energy>
    <i name="e_fr_energy">     -0.62320103 </i>
    <i name="e_wo_entrp">     -0.62320103 </i>
    <i name="e_0_energy">     -0.62320103 </i>
   </energy>
  </scstep>
  <scstep>
   <time name="total">    0.75    0.76</time>
   <energy>
    <i name="e_fr_energy">     -0.62320103 </i>
    <i name="e_wo_entrp">     -0.62320103 </i>
    <i name="e_0_energy">     -0.62320103 </i>
   </energy>
  </scstep>
  <varray name="epsilon_rpa" >
   <v>       8.74690894      -0.00168067      -0.00168067 </v>
   <v>      -0.00168067       8.74690894      -0.00168067 </v>
   <v>      -0.00168067      -0.00168067       8.74690894 </v>
  </varray>
  <kpoints>
   <generation param="Gamma">
    <v type="int" name="divisions">      12       12       12 </v>
    <v name="usershift">      0.00000000       0.00000000       0.00000000 </v>
    <v name="genvec1">      0.08333333       0.00000000       0.00000000 </v>
    <v name="genvec2">      0.00000000       0.08333333      -0.00000000 </v>
    <v name="genvec3">     -0.00000000      -0.00000000       0.08333333 </v>
    <v name="shift">      0.00000000       0.00000000       0.00000000 </v>
   </generation>
   <varray name="kpointlist" >
    <v>       0.00000000       0.00000000       0.00000000 </v>
    <v>       0.08333333      -0.00000000       0.00000000 </v>
    <v>       0.16666667       0.00000000       0.00000000 </v>
    <v>       0.25000000      -0.00000000       0.00000000 </v>
    <v>       0.33333333       0.00000000       0.00000000 </v>
    <v>       0.41666667      -0.00000000      -0.00000000 </v>
    <v>       0.50000000      -0.00000000       0.00000000 </v>
    <v>      -0.00000000       0.08333333       0.00000000 </v>
    <v>       0.08333333       0.08333333       0.00000000 </v>
    <v>       0.16666667       0.08333333       0.00000000 </v>
    <v>       0.25000000       0.08333333       0.00000000 </v>
    <v>       0.33333333       0.08333333       0.00000000 </v>
    <v>       0.41666667       0.08333333       0.00000000 </v>
    <v>       0.50000000       0.08333333      -0.00000000 </v>
    <v>      -0.41666667       0.08333333      -0.00000000 </v>
    <v>      -0.33333333       0.08333333       0.00000000 </v>
    <v>      -0.25000000       0.08333333      -0.00000000 </v>
    <v>      -0.16666667       0.08333333      -0.00000000 </v>
    <v>      -0.08333333       0.08333333       0.00000000 </v>
    <v>       0.00000000       0.16666667       0.00000000 </v>
    <v>       0.08333333       0.16666667       0.00000000 </v>
    <v>       0.16666667       0.16666667       0.00000000 </v>
    <v>       0.25000000       0.16666667       0.00000000 </v>
    <v>       0.33333333       0.16666667       0.00000000 </v>
    <v>       0.41666667       0.16666667       0.00000000 </v>
    <v>       0.50000000       0.16666667      -0.00000000 </v>
    <v>      -0.41666667       0.16666667       0.00000000 </v>
    <v>      -0.33333333       0.16666667      -0.00000000 </v>
    <v>      -0.25000000       0.16666667       0.00000000 </v>
    <v>      -0.16666667       0.16666667      -0.00000000 </v>
    <v>      -0.08333333       0.16666667       0.00000000 </v>
    <v>      -0.00000000       0.25000000       0.00000000 </v>
    <v>       0.08333333       0.25000000       0.00000000 </v>
    <v>       0.16666667       0.25000000       0.00000000 </v>
    <v>       0.25000000       0.25000000       0.00000000 </v>
    <v>       0.33333333       0.25000000       0.00000000 </v>
    <v>       0.41666667       0.25000000       0.00000000 </v>
    <v>       0.50000000       0.25000000       0.00000000 </v>
    <v>      -0.41666667       0.25000000       0.00000000 </v>
    <v>      -0.33333333       0.25000000       0.00000000 </v>
    <v>      -0.25000000       0.25000000       0.00000000 </v>
    <v>      -0.16666667       0.25000000       0.00000000 </v>
    <v>      -0.08333333       0.25000000       0.00000000 </v>
    <v>       0.00000000       0.33333333      -0.00000000 </v>
    <v>       0.08333333       0.33333333       0.00000000 </v>
    <v>       0.16666667       0.33333333       0.00000000 </v>
    <v>       0.25000000       0.33333333       0.00000000 </v>
    <v>       0.33333333       0.33333333       0.00000000 </v>
    <v>       0.41666667       0.33333333       0.00000000 </v>
    <v>       0.50000000       0.33333333       0.00000000 </v>
    <v>      -0.41666667       0.33333333      -0.00000000 </v>
    <v>      -0.33333333       0.33333333      -0.00000000 </v>
    <v>      -0.25000000       0.33333333      -0.00000000 </v>
    <v>      -0.16666667       0.33333333       0.00000000 </v>
    <v>      -0.08333333       0.33333333       0.00000000 </v>
    <v>       0.00000000       0.41666667       0.00000000 </v>
    <v>       0.08333333       0.41666667      -0.00000000 </v>
    <v>       0.16666667       0.41666667       0.00000000 </v>
    <v>       0.25000000       0.41666667       0.00000000 </v>
    <v>       0.33333333       0.41666667       0.00000000 </v>
    <v>       0.41666667       0.41666667       0.00000000 </v>
    <v>       0.50000000       0.41666667       0.00000000 </v>
    <v>      -0.41666667       0.41666667       0.00000000 </v>
    <v>      -0.33333333       0.41666667       0.00000000 </v>
    <v>      -0.25000000       0.41666667       0.00000000 </v>
    <v>      -0.16666667       0.41666667       0.00000000 </v>
    <v>      -0.08333333       0.41666667       0.00000000 </v>
    <v>      -0.00000000       0.50000000       0.00000000 </v>
    <v>       0.08333333       0.50000000       0.00000000 </v>
    <v>       0.16666667       0.50000000       0.00000000 </v>
    <v>       0.25000000       0.50000000       0.00000000 </v>
    <v>       0.33333333       0.50000000       0.00000000 </v>
    <v>       0.41666667       0.50000000       0.00000000 </v>
    <v>       0.50000000       0.50000000       0.00000000 </v>
    <v>       0.08333333       0.00000000       0.08333333 </v>
    <v>       0.16666667       0.00000000       0.08333333 </v>
    <v>       0.25000000      -0.00000000       0.08333333 </v>
    <v>       0.33333333      -0.00000000       0.08333333 </v>
    <v>       0.41666667       0.00000000       0.08333333 </v>
    <v>       0.50000000       0.00000000       0.08333333 </v>
    <v>      -0.41666667       0.00000000       0.08333333 </v>
    <v>      -0.33333333       0.00000000       0.08333333 </v>
    <v>      -0.25000000      -0.00000000       0.08333333 </v>
    <v>      -0.16666667      -0.00000000       0.08333333 </v>
    <v>      -0.08333333       0.00000000       0.08333333 </v>
    <v>       0.08333333       0.08333333       0.08333333 </v>
    <v>       0.16666667       0.08333333       0.08333333 </v>
    <v>       0.25000000       0.08333333       0.08333333 </v>
    <v>       0.33333333       0.08333333       0.08333333 </v>
    <v>       0.41666667       0.08333333       0.08333333 </v>
    <v>       0.50000000       0.08333333       0.08333333 </v>
    <v>      -0.41666667       0.08333333       0.08333333 </v>
    <v>      -0.33333333       0.08333333       0.08333333 </v>
    <v>      -0.25000000       0.08333333       0.08333333 </v>
    <v>      -0.16666667       0.08333333       0.08333333 </v>
    <v>      -0.08333333       0.08333333       0.08333333 </v>
    <v>       0.08333333       0.16666667       0.08333333 </v>
    <v>       0.16666667       0.16666667       0.08333333 </v>
    <v>       0.25000000       0.16666667       0.08333333 </v>
    <v>       0.33333333       0.16666667       0.08333333 </v>
    <v>       0.41666667       0.16666667       0.08333333 </v>
    <v>       0.50000000       0.16666667       0.08333333 </v>
    <v>      -0.41666667       0.16666667       0.08333333 </v>
    <v>      -0.33333333       0.16666667       0.08333333 </v>
    <v>      -0.25000000       0.16666667       0.08333333 </v>
    <v>      -0.16666667       0.16666667       0.08333333 </v>
    <v>      -0.08333333       0.16666667       0.08333333 </v>
    <v>       0.08333333       0.25000000       0.08333333 </v>
    <v>       0.16666667       0.25000000       0.08333333 </v>
    <v>       0.25000000       0.25000000       0.08333333 </v>
    <v>       0.33333333       0.25000000       0.08333333 </v>
    <v>       0.41666667       0.25000000       0.08333333 </v>
    <v>       0.50000000       0.25000000       0.08333333 </v>
    <v>      -0.41666667       0.25000000       0.08333333 </v>
    <v>      -0.33333333       0.25000000       0.08333333 </v>
    <v>      -0.25000000       0.25000000       0.08333333 </v>
    <v>      -0.16666667       0.25000000       0.08333333 </v>
    <v>      -0.08333333       0.25000000       0.08333333 </v>
    <v>       0.08333333       0.33333333       0.08333333 </v>
    <v>       0.16666667       0.33333333       0.08333333 </v>
    <v>       0.25000000       0.33333333       0.08333333 </v>
    <v>       0.33333333       0.33333333       0.08333333 </v>
    <v>       0.41666667       0.33333333       0.08333333 </v>
    <v>       0.50000000       0.33333333       0.08333333 </v>
    <v>      -0.41666667       0.33333333       0.08333333 </v>
    <v>      -0.33333333       0.33333333       0.08333333 </v>
    <v>      -0.25000000       0.33333333       0.08333333 </v>
    <v>      -0.16666667       0.33333333       0.08333333 </v>
    <v>      -0.08333333       0.33333333       0.08333333 </v>
    <v>       0.08333333       0.41666667       0.08333333 </v>
    <v>       0.16666667       0.41666667       0.08333333 </v>
    <v>       0.25000000       0.41666667       0.08333333 </v>
    <v>       0.33333333       0.41666667       0.08333333 </v>
    <v>       0.41666667       0.41666667       0.08333333 </v>
    <v>       0.50000000       0.41666667       0.08333333 </v>
    <v>      -0.41666667       0.41666667       0.08333333 </v>
    <v>      -0.33333333       0.41666667       0.08333333 </v>
    <v>      -0.25000000       0.41666667       0.08333333 </v>
    <v>      -0.16666667       0.41666667       0.08333333 </v>
    <v>      -0.08333333       0.41666667       0.08333333 </v>
    <v>       0.08333333       0.50000000       0.08333333 </v>
    <v>       0.16666667       0.50000000       0.08333333 </v>
    <v>       0.25000000       0.50000000       0.08333333 </v>
    <v>       0.33333333       0.50000000       0.08333333 </v>
    <v>       0.41666667       0.50000000       0.08333333 </v>
    <v>       0.50000000       0.50000000       0.08333333 </v>
    <v>      -0.41666667       0.50000000       0.08333333 </v>
    <v>      -0.33333333       0.50000000       0.08333333 </v>
    <v>      -0.25000000       0.50000000       0.08333333 </v>
    <v>      -0.16666667       0.50000000       0.08333333 </v>
    <v>      -0.08333333       0.50000000       0.08333333 </v>
    <v>       0.08333333      -0.41666667       0.08333333 </v>
    <v>       0.16666667      -0.41666667       0.08333333 </v>
    <v>       0.25000000      -0.41666667       0.08333333 </v>
    <v>       0.33333333      -0.41666667       0.08333333 </v>
    <v>       0.41666667      -0.41666667       0.08333333 </v>
    <v>       0.50000000      -0.41666667       0.08333333 </v>
    <v>      -0.41666667      -0.41666667       0.08333333 </v>
    <v>      -0.33333333      -0.41666667       0.08333333 </v>
    <v>      -0.25000000      -0.41666667       0.08333333 </v>
    <v>      -0.16666667      -0.41666667       0.08333333 </v>
    <v>       0.08333333      -0.33333333       0.08333333 </v>
    <v>       0.16666667      -0.33333333       0.08333333 </v>
    <v>       0.25000000      -0.33333333       0.08333333 </v>
    <v>       0.33333333      -0.33333333       0.08333333 </v>
    <v>       0.41666667      -0.33333333       0.08333333 </v>
    <v>       0.50000000      -0.33333333       0.08333333 </v>
    <v>      -0.41666667      -0.33333333       0.08333333 </v>
    <v>      -0.33333333      -0.33333333       0.08333333 </v>
    <v>      -0.25000000      -0.33333333       0.08333333 </v>
    <v>      -0.16666667      -0.33333333       0.08333333 </v>
    <v>       0.08333333      -0.25000000       0.08333333 </v>
    <v>       0.16666667      -0.25000000       0.08333333 </v>
    <v>       0.25000000      -0.25000000       0.08333333 </v>
    <v>       0.33333333      -0.25000000       0.08333333 </v>
    <v>       0.41666667      -0.25000000       0.08333333 </v>
    <v>       0.50000000      -0.25000000       0.08333333 </v>
    <v>      -0.41666667      -0.25000000       0.08333333 </v>
    <v>      -0.33333333      -0.25000000       0.08333333 </v>
    <v>      -0.25000000      -0.25000000       0.08333333 </v>
    <v>      -0.16666667      -0.25000000       0.08333333 </v>
    <v>       0.08333333      -0.16666667       0.08333333 </v>
    <v>       0.16666667      -0.16666667       0.08333333 </v>
    <v>       0.25000000      -0.16666667       0.08333333 </v>
    <v>       0.33333333      -0.16666667       0.08333333 </v>
    <v>       0.41666667      -0.16666667       0.08333333 </v>
    <v>       0.50000000      -0.16666667       0.08333333 </v>
    <v>      -0.41666667      -0.16666667       0.08333333 </v>
    <v>      -0.33333333      -0.16666667       0.08333333 </v>
    <v>      -0.25000000      -0.16666667       0.08333333 </v>
    <v>      -0.16666667      -0.16666667       0.08333333 </v>
    <v>       0.08333333      -0.08333333       0.08333333 </v>
    <v>       0.16666667      -0.08333333       0.08333333 </v>
    <v>       0.25000000      -0.08333333       0.08333333 </v>
    <v>       0.33333333      -0.08333333       0.08333333 </v>
    <v>       0.41666667      -0.08333333       0.08333333 </v>
    <v>       0.50000000      -0.08333333       0.08333333 </v>
    <v>      -0.41666667      -0.08333333       0.08333333 </v>
    <v>      -0.33333333      -0.08333333       0.08333333 </v>
    <v>      -0.25000000      -0.08333333       0.08333333 </v>
    <v>      -0.16666667      -0.08333333       0.08333333 </v>
    <v>       0.16666667       0.00000000       0.16666667 </v>
    <v>       0.25000000       0.00000000       0.16666667 </v>
    <v>       0.33333333       0.00000000       0.16666667 </v>
    <v>       0.41666667       0.00000000       0.16666667 </v>
    <v>       0.50000000       0.00000000       0.16666667 </v>
    <v>      -0.41666667       0.00000000       0.16666667 </v>
    <v>      -0.33333333      -0.00000000       0.16666667 </v>
    <v>      -0.25000000       0.00000000       0.16666667 </v>
    <v>      -0.16666667      -0.00000000       0.16666667 </v>
    <v>       0.16666667       0.08333333       0.16666667 </v>
    <v>       0.25000000       0.08333333       0.16666667 </v>
    <v>       0.33333333       0.08333333       0.16666667 </v>
    <v>       0.41666667       0.08333333       0.16666667 </v>
    <v>       0.50000000       0.08333333       0.16666667 </v>
    <v>      -0.41666667       0.08333333       0.16666667 </v>
    <v>      -0.33333333       0.08333333       0.16666667 </v>
    <v>      -0.25000000       0.08333333       0.16666667 </v>
    <v>      -0.16666667       0.08333333       0.16666667 </v>
    <v>       0.16666667       0.16666667       0.16666667 </v>
    <v>       0.25000000       0.16666667       0.16666667 </v>
    <v>       0.33333333       0.16666667       0.16666667 </v>
    <v>       0.41666667       0.16666667       0.16666667 </v>
    <v>       0.50000000       0.16666667       0.16666667 </v>
    <v>      -0.41666667       0.16666667       0.16666667 </v>
    <v>      -0.33333333       0.16666667       0.16666667 </v>
    <v>      -0.25000000       0.16666667       0.16666667 </v>
    <v>      -0.16666667       0.16666667       0.16666667 </v>
    <v>       0.16666667       0.25000000       0.16666667 </v>
    <v>       0.25000000       0.25000000       0.16666667 </v>
    <v>       0.33333333       0.25000000       0.16666667 </v>
    <v>       0.41666667       0.25000000       0.16666667 </v>
    <v>       0.50000000       0.25000000       0.16666667 </v>
    <v>      -0.41666667       0.25000000       0.16666667 </v>
    <v>      -0.33333333       0.25000000       0.16666667 </v>
    <v>      -0.25000000       0.25000000       0.16666667 </v>
    <v>      -0.16666667       0.25000000       0.16666667 </v>
    <v>       0.16666667       0.33333333       0.16666667 </v>
    <v>       0.25000000       0.33333333       0.16666667 </v>
    <v>       0.33333333       0.33333333       0.16666667 </v>
    <v>       0.41666667       0.33333333       0.16666667 </v>
    <v>       0.50000000       0.33333333       0.16666667 </v>
    <v>      -0.41666667       0.33333333       0.16666667 </v>
    <v>      -0.33333333       0.33333333       0.16666667 </v>
    <v>      -0.25000000       0.33333333       0.16666667 </v>
    <v>      -0.16666667       0.33333333       0.16666667 </v>
    <v>       0.16666667       0.41666667       0.16666667 </v>
    <v>       0.25000000       0.41666667       0.16666667 </v>
    <v>       0.33333333       0.41666667       0.16666667 </v>
    <v>       0.41666667       0.41666667       0.16666667 </v>
    <v>       0.50000000       0.41666667       0.16666667 </v>
    <v>      -0.41666667       0.41666667       0.16666667 </v>
    <v>      -0.33333333       0.41666667       0.16666667 </v>
    <v>      -0.25000000       0.41666667       0.16666667 </v>
    <v>      -0.16666667       0.41666667       0.16666667 </v>
    <v>       0.16666667       0.50000000       0.16666667 </v>
    <v>       0.25000000       0.50000000       0.16666667 </v>
    <v>       0.33333333       0.50000000       0.16666667 </v>
    <v>       0.41666667       0.50000000       0.16666667 </v>
    <v>       0.50000000       0.50000000       0.16666667 </v>
    <v>      -0.41666667       0.50000000       0.16666667 </v>
    <v>      -0.33333333       0.50000000       0.16666667 </v>
    <v>      -0.25000000       0.50000000       0.16666667 </v>
    <v>      -0.16666667       0.50000000       0.16666667 </v>
    <v>       0.16666667      -0.41666667       0.16666667 </v>
    <v>       0.25000000      -0.41666667       0.16666667 </v>
    <v>       0.33333333      -0.41666667       0.16666667 </v>
    <v>       0.41666667      -0.41666667       0.16666667 </v>
    <v>       0.50000000      -0.41666667       0.16666667 </v>
    <v>      -0.41666667      -0.41666667       0.16666667 </v>
    <v>      -0.33333333      -0.41666667       0.16666667 </v>
    <v>      -0.25000000      -0.41666667       0.16666667 </v>
    <v>       0.16666667      -0.33333333       0.16666667 </v>
    <v>       0.25000000      -0.33333333       0.16666667 </v>
    <v>       0.33333333      -0.33333333       0.16666667 </v>
    <v>       0.41666667      -0.33333333       0.16666667 </v>
    <v>       0.50000000      -0.33333333       0.16666667 </v>
    <v>      -0.41666667      -0.33333333       0.16666667 </v>
    <v>      -0.33333333      -0.33333333       0.16666667 </v>
    <v>      -0.25000000      -0.33333333       0.16666667 </v>
    <v>       0.16666667      -0.25000000       0.16666667 </v>
    <v>       0.25000000      -0.25000000       0.16666667 </v>
    <v>       0.33333333      -0.25000000       0.16666667 </v>
    <v>       0.41666667      -0.25000000       0.16666667 </v>
    <v>       0.50000000      -0.25000000       0.16666667 </v>
    <v>      -0.41666667      -0.25000000       0.16666667 </v>
    <v>      -0.33333333      -0.25000000       0.16666667 </v>
    <v>      -0.25000000      -0.25000000       0.16666667 </v>
    <v>       0.16666667      -0.16666667       0.16666667 </v>
    <v>       0.25000000      -0.16666667       0.16666667 </v>
    <v>       0.33333333      -0.16666667       0.16666667 </v>
    <v>       0.41666667      -0.16666667       0.16666667 </v>
    <v>       0.50000000      -0.16666667       0.16666667 </v>
    <v>      -0.41666667      -0.16666667       0.16666667 </v>
    <v>      -0.33333333      -0.16666667       0.16666667 </v>
    <v>      -0.25000000      -0.16666667       0.16666667 </v>
    <v>       0.16666667      -0.08333333       0.16666667 </v>
    <v>       0.25000000      -0.08333333       0.16666667 </v>
    <v>       0.33333333      -0.08333333       0.16666667 </v>
    <v>       0.41666667      -0.08333333       0.16666667 </v>
    <v>       0.50000000      -0.08333333       0.16666667 </v>
    <v>      -0.41666667      -0.08333333       0.16666667 </v>
    <v>      -0.33333333      -0.08333333       0.16666667 </v>
    <v>      -0.25000000      -0.08333333       0.16666667 </v>
    <v>       0.25000000       0.00000000       0.25000000 </v>
    <v>       0.33333333       0.00000000       0.25000000 </v>
    <v>       0.41666667       0.00000000       0.25000000 </v>
    <v>       0.50000000       0.00000000       0.25000000 </v>
    <v>      -0.41666667       0.00000000       0.25000000 </v>
    <v>      -0.33333333       0.00000000       0.25000000 </v>
    <v>      -0.25000000      -0.00000000       0.25000000 </v>
    <v>       0.25000000       0.08333333       0.25000000 </v>
    <v>       0.33333333       0.08333333       0.25000000 </v>
    <v>       0.41666667       0.08333333       0.25000000 </v>
    <v>       0.50000000       0.08333333       0.25000000 </v>
    <v>      -0.41666667       0.08333333       0.25000000 </v>
    <v>      -0.33333333       0.08333333       0.25000000 </v>
    <v>      -0.25000000       0.08333333       0.25000000 </v>
    <v>       0.25000000       0.16666667       0.25000000 </v>
    <v>       0.33333333       0.16666667       0.25000000 </v>
    <v>       0.41666667       0.16666667       0.25000000 </v>
    <v>       0.50000000       0.16666667       0.25000000 </v>
    <v>      -0.41666667       0.16666667       0.25000000 </v>
    <v>      -0.33333333       0.16666667       0.25000000 </v>
    <v>      -0.25000000       0.16666667       0.25000000 </v>
    <v>       0.25000000       0.25000000       0.25000000 </v>
    <v>       0.33333333       0.25000000       0.25000000 </v>
    <v>       0.41666667       0.25000000       0.25000000 </v>
    <v>       0.50000000       0.25000000       0.25000000 </v>
    <v>      -0.41666667       0.25000000       0.25000000 </v>
    <v>      -0.33333333       0.25000000       0.25000000 </v>
    <v>      -0.25000000       0.25000000       0.25000000 </v>
    <v>       0.25000000       0.33333333       0.25000000 </v>
    <v>       0.33333333       0.33333333       0.25000000 </v>
    <v>       0.41666667       0.33333333       0.25000000 </v>
    <v>       0.50000000       0.33333333       0.25000000 </v>
    <v>      -0.41666667       0.33333333       0.25000000 </v>
    <v>      -0.33333333       0.33333333       0.25000000 </v>
    <v>      -0.25000000       0.33333333       0.25000000 </v>
    <v>       0.25000000       0.41666667       0.25000000 </v>
    <v>       0.33333333       0.41666667       0.25000000 </v>
    <v>       0.41666667       0.41666667       0.25000000 </v>
    <v>       0.50000000       0.41666667       0.25000000 </v>
    <v>      -0.41666667       0.41666667       0.25000000 </v>
    <v>      -0.33333333       0.41666667       0.25000000 </v>
    <v>      -0.25000000       0.41666667       0.25000000 </v>
    <v>       0.25000000       0.50000000       0.25000000 </v>
    <v>       0.33333333       0.50000000       0.25000000 </v>
    <v>       0.41666667       0.50000000       0.25000000 </v>
    <v>       0.50000000       0.50000000       0.25000000 </v>
    <v>      -0.41666667       0.50000000       0.25000000 </v>
    <v>      -0.33333333       0.50000000       0.25000000 </v>
    <v>      -0.25000000       0.50000000       0.25000000 </v>
    <v>       0.25000000      -0.41666667       0.25000000 </v>
    <v>       0.33333333      -0.41666667       0.25000000 </v>
    <v>       0.41666667      -0.41666667       0.25000000 </v>
    <v>       0.50000000      -0.41666667       0.25000000 </v>
    <v>      -0.41666667      -0.41666667       0.25000000 </v>
    <v>      -0.33333333      -0.41666667       0.25000000 </v>
    <v>       0.25000000      -0.33333333       0.25000000 </v>
    <v>       0.33333333      -0.33333333       0.25000000 </v>
    <v>       0.41666667      -0.33333333       0.25000000 </v>
    <v>       0.50000000      -0.33333333       0.25000000 </v>
    <v>      -0.41666667      -0.33333333       0.25000000 </v>
    <v>      -0.33333333      -0.33333333       0.25000000 </v>
    <v>       0.25000000      -0.25000000       0.25000000 </v>
    <v>       0.33333333      -0.25000000       0.25000000 </v>
    <v>       0.41666667      -0.25000000       0.25000000 </v>
    <v>       0.50000000      -0.25000000       0.25000000 </v>
    <v>      -0.41666667      -0.25000000       0.25000000 </v>
    <v>      -0.33333333      -0.25000000       0.25000000 </v>
    <v>       0.25000000      -0.16666667       0.25000000 </v>
    <v>       0.33333333      -0.16666667       0.25000000 </v>
    <v>       0.41666667      -0.16666667       0.25000000 </v>
    <v>       0.50000000      -0.16666667       0.25000000 </v>
    <v>      -0.41666667      -0.16666667       0.25000000 </v>
    <v>      -0.33333333      -0.16666667       0.25000000 </v>
    <v>       0.25000000      -0.08333333       0.25000000 </v>
    <v>       0.33333333      -0.08333333       0.25000000 </v>
    <v>       0.41666667      -0.08333333       0.25000000 </v>
    <v>       0.50000000      -0.08333333       0.25000000 </v>
    <v>      -0.41666667      -0.08333333       0.25000000 </v>
    <v>      -0.33333333      -0.08333333       0.25000000 </v>
    <v>       0.33333333       0.00000000       0.33333333 </v>
    <v>       0.41666667       0.00000000       0.33333333 </v>
    <v>       0.50000000       0.00000000       0.33333333 </v>
    <v>      -0.41666667       0.00000000       0.33333333 </v>
    <v>      -0.33333333      -0.00000000       0.33333333 </v>
    <v>       0.33333333       0.08333333       0.33333333 </v>
    <v>       0.41666667       0.08333333       0.33333333 </v>
    <v>       0.50000000       0.08333333       0.33333333 </v>
    <v>      -0.41666667       0.08333333       0.33333333 </v>
    <v>      -0.33333333       0.08333333       0.33333333 </v>
    <v>       0.33333333       0.16666667       0.33333333 </v>
    <v>       0.41666667       0.16666667       0.33333333 </v>
    <v>       0.50000000       0.16666667       0.33333333 </v>
    <v>      -0.41666667       0.16666667       0.33333333 </v>
    <v>      -0.33333333       0.16666667       0.33333333 </v>
    <v>       0.33333333       0.25000000       0.33333333 </v>
    <v>       0.41666667       0.25000000       0.33333333 </v>
    <v>       0.50000000       0.25000000       0.33333333 </v>
    <v>      -0.41666667       0.25000000       0.33333333 </v>
    <v>      -0.33333333       0.25000000       0.33333333 </v>
    <v>       0.33333333       0.33333333       0.33333333 </v>
    <v>       0.41666667       0.33333333       0.33333333 </v>
    <v>       0.50000000       0.33333333       0.33333333 </v>
    <v>      -0.41666667       0.33333333       0.33333333 </v>
    <v>      -0.33333333       0.33333333       0.33333333 </v>
    <v>       0.33333333       0.41666667       0.33333333 </v>
    <v>       0.41666667       0.41666667       0.33333333 </v>
    <v>       0.50000000       0.41666667       0.33333333 </v>
    <v>      -0.41666667       0.41666667       0.33333333 </v>
    <v>      -0.33333333       0.41666667       0.33333333 </v>
    <v>       0.33333333       0.50000000       0.33333333 </v>
    <v>       0.41666667       0.50000000       0.33333333 </v>
    <v>       0.50000000       0.50000000       0.33333333 </v>
    <v>      -0.41666667       0.50000000       0.33333333 </v>
    <v>      -0.33333333       0.50000000       0.33333333 </v>
    <v>       0.33333333      -0.41666667       0.33333333 </v>
    <v>       0.41666667      -0.41666667       0.33333333 </v>
    <v>       0.50000000      -0.41666667       0.33333333 </v>
    <v>      -0.41666667      -0.41666667       0.33333333 </v>
    <v>       0.33333333      -0.33333333       0.33333333 </v>
    <v>       0.41666667      -0.33333333       0.33333333 </v>
    <v>       0.50000000      -0.33333333       0.33333333 </v>
    <v>      -0.41666667      -0.33333333       0.33333333 </v>
    <v>       0.33333333      -0.25000000       0.33333333 </v>
    <v>       0.41666667      -0.25000000       0.33333333 </v>
    <v>       0.50000000      -0.25000000       0.33333333 </v>
    <v>      -0.41666667      -0.25000000       0.33333333 </v>
    <v>       0.33333333      -0.16666667       0.33333333 </v>
    <v>       0.41666667      -0.16666667       0.33333333 </v>
    <v>       0.50000000      -0.16666667       0.33333333 </v>
    <v>      -0.41666667      -0.16666667       0.33333333 </v>
    <v>       0.33333333      -0.08333333       0.33333333 </v>
    <v>       0.41666667      -0.08333333       0.33333333 </v>
    <v>       0.50000000      -0.08333333       0.33333333 </v>
    <v>      -0.41666667      -0.08333333       0.33333333 </v>
    <v>       0.41666667       0.00000000       0.41666667 </v>
    <v>       0.50000000       0.00000000       0.41666667 </v>
    <v>      -0.41666667       0.00000000       0.41666667 </v>
    <v>       0.41666667       0.08333333       0.41666667 </v>
    <v>       0.50000000       0.08333333       0.41666667 </v>
    <v>      -0.41666667       0.08333333       0.41666667 </v>
    <v>       0.41666667       0.16666667       0.41666667 </v>
    <v>       0.50000000       0.16666667       0.41666667 </v>
    <v>      -0.41666667       0.16666667       0.41666667 </v>
    <v>       0.41666667       0.25000000       0.41666667 </v>
    <v>       0.50000000       0.25000000       0.41666667 </v>
    <v>      -0.41666667       0.25000000       0.41666667 </v>
    <v>       0.41666667       0.33333333       0.41666667 </v>
    <v>       0.50000000       0.33333333       0.41666667 </v>
    <v>      -0.41666667       0.33333333       0.41666667 </v>
    <v>       0.41666667       0.41666667       0.41666667 </v>
    <v>       0.50000000       0.41666667       0.41666667 </v>
    <v>      -0.41666667       0.41666667       0.41666667 </v>
    <v>       0.41666667       0.50000000       0.41666667 </v>
    <v>       0.50000000       0.50000000       0.41666667 </v>
    <v>      -0.41666667       0.50000000       0.41666667 </v>
    <v>       0.41666667      -0.41666667       0.41666667 </v>
    <v>       0.50000000      -0.41666667       0.41666667 </v>
    <v>       0.41666667      -0.33333333       0.41666667 </v>
    <v>       0.50000000      -0.33333333       0.41666667 </v>
    <v>       0.41666667      -0.25000000       0.41666667 </v>
    <v>       0.50000000      -0.25000000       0.41666667 </v>
    <v>       0.41666667      -0.16666667       0.41666667 </v>
    <v>       0.50000000      -0.16666667       0.41666667 </v>
    <v>       0.41666667      -0.08333333       0.41666667 </v>
    <v>       0.50000000      -0.08333333       0.41666667 </v>
    <v>       0.50000000       0.00000000       0.50000000 </v>
    <v>       0.50000000       0.08333333       0.50000000 </v>
    <v>       0.50000000       0.16666667       0.50000000 </v>
    <v>       0.50000000       0.25000000       0.50000000 </v>
    <v>       0.50000000       0.33333333       0.50000000 </v>
    <v>       0.50000000       0.41666667       0.50000000 </v>
    <v>       0.50000000       0.50000000       0.50000000 </v>
   </varray>
   <varray name="weights" >
    <v>       0.00057870 </v>
    <v>       0.00231481 </v>
    <v>       0.00231481 </v>
    <v>       0.00231481 </v>
    <v>       0.00231481 </v>
    <v>       0.00231481 </v>
    <v>       0.00115741 </v>
    <v>       0.00115741 </v>
    <v>       0.00231481 </v>
    <v>       0.00231481 </v>
    <v>       0.00231481 </v>
    <v>       0.00231481 </v>
    <v>       0.00231481 </v>
    <v>       0.00231481 </v>
    <v>       0.00231481 </v>
    <v>       0.00231481 </v>
    <v>       0.00231481 </v>
    <v>       0.00231481 </v>
    <v>       0.00231481 </v>
    <v>       0.00115741 </v>
    <v>       0.00231481 </v>
    <v>       0.00231481 </v>
    <v>       0.00231481 </v>
    <v>       0.00231481 </v>
    <v>       0.00231481 </v>
    <v>       0.00231481 </v>
    <v>       0.00231481 </v>
    <v>       0.00231481 </v>
    <v>       0.00231481 </v>
    <v>       0.00231481 </v>
    <v>       0.00231481 </v>
    <v>       0.00115741 </v>
    <v>       0.00231481 </v>
    <v>       0.00231481 </v>
    <v>       0.00231481 </v>
    <v>       0.00231481 </v>
    <v>       0.00231481 </v>
    <v>       0.00231481 </v>
    <v>       0.00231481 </v>
    <v>       0.00231481 </v>
    <v>       0.00231481 </v>
    <v>       0.00231481 </v>
    <v>       0.00231481 </v>
    <v>       0.00115741 </v>
    <v>       0.00231481 </v>
    <v>       0.00231481 </v>
    <v>       0.00231481 </v>
    <v>       0.00231481 </v>
    <v>       0.00231481 </v>
    <v>       0.00231481 </v>
    <v>       0.00231481 </v>
    <v>       0.00231481 </v>
    <v>       0.00231481 </v>
    <v>       0.00231481 </v>
    <v>       0.00231481 </v>
    <v>       0.00115741 </v>
    <v>       0.00231481 </v>
    <v>       0.00231481 </v>
    <v>       0.00231481 </v>
    <v>       0.00231481 </v>
    <v>       0.00231481 </v>
    <v>       0.00231481 </v>
    <v>       0.00231481 </v>
    <v>       0.00231481 </v>
    <v>       0.00231481 </v>
    <v>       0.00231481 </v>
    <v>       0.00231481 </v>
    <v>       0.00057870 </v>
    <v>       0.00231481 </v>
    <v>       0.00231481 </v>
    <v>       0.00231481 </v>
    <v>       0.00231481 </v>
    <v>       0.00231481 </v>
    <v>       0.00115741 </v>
    <v>       0.00115741 </v>
    <v>       0.00231481 </v>
    <v>       0.00231481 </v>
    <v>       0.00231481 </v>
    <v>       0.00231481 </v>
    <v>       0.00231481 </v>
    <v>       0.00231481 </v>
    <v>       0.00231481 </v>
    <v>       0.00231481 </v>
    <v>       0.00231481 </v>
    <v>       0.00115741 </v>
    <v>       0.00115741 </v>
    <v>       0.00231481 </v>
    <v>       0.00231481 </v>
    <v>       0.00231481 </v>
    <v>       0.00231481 </v>
    <v>       0.00231481 </v>
    <v>       0.00231481 </v>
    <v>       0.00231481 </v>
    <v>       0.00231481 </v>
    <v>       0.00231481 </v>
    <v>       0.00231481 </v>
    <v>       0.00115741 </v>
    <v>       0.00231481 </v>
    <v>       0.00231481 </v>
    <v>       0.00231481 </v>
    <v>       0.00231481 </v>
    <v>       0.00231481 </v>
    <v>       0.00231481 </v>
    <v>       0.00231481 </v>
    <v>       0.00231481 </v>
    <v>       0.00231481 </v>
    <v>       0.00231481 </v>
    <v>       0.00115741 </v>
    <v>       0.00231481 </v>
    <v>       0.00231481 </v>
    <v>       0.00231481 </v>
    <v>       0.00231481 </v>
    <v>       0.00231481 </v>
    <v>       0.00231481 </v>
    <v>       0.00231481 </v>
    <v>       0.00231481 </v>
    <v>       0.00231481 </v>
    <v>       0.00231481 </v>
    <v>       0.00115741 </v>
    <v>       0.00231481 </v>
    <v>       0.00231481 </v>
    <v>       0.00231481 </v>
    <v>       0.00231481 </v>
    <v>       0.00231481 </v>
    <v>       0.00231481 </v>
    <v>       0.00231481 </v>
    <v>       0.00231481 </v>
    <v>       0.00231481 </v>
    <v>       0.00231481 </v>
    <v>       0.00115741 </v>
    <v>       0.00231481 </v>
    <v>       0.00231481 </v>
    <v>       0.00231481 </v>
    <v>       0.00231481 </v>
[...]
       <r>   -0.4199    1.0000 </r>
       <r>    1.4784    1.0000 </r>
       <r>    2.6529    1.0000 </r>
       <r>    7.5362    0.0000 </r>
       <r>    9.7372    0.0000 </r>
       <r>   11.1650    0.0000 </r>
       <r>   12.9396    0.0000 </r>
      </set>
      <set comment="kpoint 179">
       <r>   -4.9300    1.0000 </r>
       <r>   -0.2802    1.0000 </r>
       <r>    1.5138    1.0000 </r>
       <r>    2.6598    1.0000 </r>
       <r>    8.5365    0.0000 </r>
       <r>    9.5735    0.0000 </r>
       <r>   10.3835    0.0000 </r>
       <r>   12.8631    0.0000 </r>
      </set>
      <set comment="kpoint 180">
       <r>   -4.7054    1.0000 </r>
       <r>   -0.3457    1.0000 </r>
       <r>    1.1963    1.0000 </r>
       <r>    2.2807    1.0000 </r>
       <r>    8.5946    0.0000 </r>
       <r>   10.1262    0.0000 </r>
       <r>   10.6152    0.0000 </r>
       <r>   11.9090    0.0000 </r>
      </set>
      <set comment="kpoint 181">
       <r>   -4.6482    1.0000 </r>
       <r>   -0.4025    1.0000 </r>
       <r>    1.3080    1.0000 </r>
       <r>    2.0874    1.0000 </r>
       <r>    8.3438    0.0000 </r>
       <r>    9.8453    0.0000 </r>
       <r>   10.8591    0.0000 </r>
       <r>   12.0976    0.0000 </r>
      </set>
      <set comment="kpoint 182">
       <r>   -4.8151    1.0000 </r>
       <r>   -0.4199    1.0000 </r>
       <r>    1.4784    1.0000 </r>
       <r>    2.6529    1.0000 </r>
       <r>    7.5362    0.0000 </r>
       <r>    9.7372    0.0000 </r>
       <r>   11.1650    0.0000 </r>
       <r>   12.9396    0.0000 </r>
      </set>
      <set comment="kpoint 183">
       <r>   -4.6482    1.0000 </r>
       <r>   -0.4025    1.0000 </r>
       <r>    1.3080    1.0000 </r>
       <r>    2.0874    1.0000 </r>
       <r>    8.3438    0.0000 </r>
       <r>    9.8453    0.0000 </r>
       <r>   10.8591    0.0000 </r>
       <r>   12.0976    0.0000 </r>
      </set>
      <set comment="kpoint 184">
       <r>   -4.5844    1.0000 </r>
       <r>   -0.3852    1.0000 </r>
       <r>    1.3709    1.0000 </r>
       <r>    1.7258    1.0000 </r>
       <r>    8.8394    0.0000 </r>
       <r>   10.4214    0.0000 </r>
       <r>   10.6582    0.0000 </r>
       <r>   10.8747    0.0000 </r>
      </set>
      <set comment="kpoint 185">
       <r>   -4.7089    1.0000 </r>
       <r>   -0.4808    1.0000 </r>
       <r>    1.2206    1.0000 </r>
       <r>    2.8155    1.0000 </r>
       <r>    6.9977    0.0000 </r>
       <r>    9.6430    0.0000 </r>
       <r>   12.6696    0.0000 </r>
       <r>   12.7271    0.0000 </r>
      </set>
      <set comment="kpoint 186">
       <r>   -4.6471    1.0000 </r>
       <r>   -0.4649    1.0000 </r>
       <r>    1.1671    1.0000 </r>
       <r>    2.5228    1.0000 </r>
       <r>    7.3847    0.0000 </r>
       <r>    9.6649    0.0000 </r>
       <r>   12.1907    0.0000 </r>
       <r>   12.6070    0.0000 </r>
      </set>
      <set comment="kpoint 187">
       <r>   -4.7964    1.0000 </r>
       <r>   -0.3599    1.0000 </r>
       <r>    1.0180    1.0000 </r>
       <r>    3.0574    1.0000 </r>
       <r>    7.3485    0.0000 </r>
       <r>   10.8955    0.0000 </r>
       <r>   12.0752    0.0000 </r>
       <r>   12.2880    0.0000 </r>
      </set>
      <set comment="kpoint 188">
       <r>   -4.7960    1.0000 </r>
       <r>   -0.4086    1.0000 </r>
       <r>    1.1942    1.0000 </r>
       <r>    2.8219    1.0000 </r>
       <r>    7.7975    0.0000 </r>
       <r>   10.4193    0.0000 </r>
       <r>   11.4844    0.0000 </r>
       <r>   12.2447    0.0000 </r>
      </set>
      <set comment="kpoint 189">
       <r>   -4.7955    1.0000 </r>
       <r>   -0.4517    1.0000 </r>
       <r>    1.4116    1.0000 </r>
       <r>    2.5504    1.0000 </r>
       <r>    8.5645    0.0000 </r>
       <r>    9.4738    0.0000 </r>
       <r>   11.3768    0.0000 </r>
       <r>   12.1558    0.0000 </r>
      </set>
     </set>
    </set>
   </array>
  </eigenvalues>
  <separator name="orbital magnetization" >
   <v name="MAGDIPOLOUT">      0.00000000      0.00000000      0.00000000</v>
  </separator>
  <dos>
   <i name="efermi">      4.55607816 </i>
   <total>
    <array>
     <dimension dim="1">gridpoints</dimension>
     <dimension dim="2">spin</dimension>
     <field>energy</field>
     <field>total</field>
     <field>integrated</field>
     <set>
      <set comment="spin 1">
       <r>    -8.0736     0.0000     0.0000 </r>
       <r>    -7.9912     0.0000     0.0000 </r>
       <r>    -7.9088     0.0000     0.0000 </r>
       <r>    -7.8264     0.0000     0.0000 </r>
       <r>    -7.7440     0.0000     0.0000 </r>
       <r>    -7.6616     0.0000     0.0000 </r>
       <r>    -7.5792     0.0000     0.0000 </r>
       <r>    -7.4968     0.0000     0.0000 </r>
       <r>    -7.4143     0.0000     0.0000 </r>
       <r>    -7.3319     0.0000     0.0000 </r>
       <r>    -7.2495     0.0000     0.0000 </r>
       <r>    -7.1671     0.0000     0.0000 </r>
       <r>    -7.0847     0.0000     0.0000 </r>
       <r>    -7.0023     0.0000     0.0000 </r>
       <r>    -6.9199     0.0140     0.0012 </r>
       <r>    -6.8375     0.1905     0.0169 </r>
       <r>    -6.7550     0.0239     0.0193 </r>
       <r>    -6.6726     0.3121     0.0451 </r>
       <r>    -6.5902     0.1123     0.0683 </r>
       <r>    -6.5078     0.0843     0.0752 </r>
       <r>    -6.4254     0.6741     0.1308 </r>
       <r>    -6.3430     0.3361     0.1585 </r>
       <r>    -6.2606     0.4493     0.1956 </r>
       <r>    -6.1782     0.0995     0.2038 </r>
       <r>    -6.0957     0.8861     0.2825 </r>
       <r>    -6.0133     0.0845     0.2998 </r>
       <r>    -5.9309     0.6764     0.3555 </r>
       <r>    -5.8485     0.4463     0.3923 </r>
       <r>    -5.7661     0.3665     0.4226 </r>
       <r>    -5.6837     1.2843     0.5285 </r>
       <r>    -5.6013     0.9305     0.6081 </r>
       <r>    -5.5189     0.3215     0.6411 </r>
       <r>    -5.4364     0.5355     0.6865 </r>
       <r>    -5.3540     1.6657     0.8238 </r>
       <r>    -5.2716     1.0786     0.9280 </r>
       <r>    -5.1892     1.3375     1.0383 </r>
       <r>    -5.1068     1.3229     1.1473 </r>
       <r>    -5.0244     1.9704     1.3117 </r>
       <r>    -4.9420     0.9746     1.4018 </r>
       <r>    -4.8596     1.4471     1.5211 </r>
       <r>    -4.7771     2.4578     1.7249 </r>
       <r>    -4.6947     0.8672     1.7972 </r>
       <r>    -4.6123     2.0397     1.9772 </r>
       <r>    -4.5299     0.2505     2.0000 </r>
       <r>    -4.4475     0.0000     2.0000 </r>
       <r>    -4.3651     0.0000     2.0000 </r>
       <r>    -4.2827     0.0000     2.0000 </r>
       <r>    -4.2003     0.0000     2.0000 </r>
       <r>    -4.1178     0.0000     2.0000 </r>
       <r>    -4.0354     0.0000     2.0000 </r>
       <r>    -3.9530     0.0000     2.0000 </r>
       <r>    -3.8706     0.0000     2.0000 </r>
       <r>    -3.7882     0.0000     2.0000 </r>
       <r>    -3.7058     0.0000     2.0000 </r>
       <r>    -3.6234     0.0000     2.0000 </r>
       <r>    -3.5410     0.0000     2.0000 </r>
       <r>    -3.4585     0.0000     2.0000 </r>
       <r>    -3.3761     0.0000     2.0000 </r>
       <r>    -3.2937     0.0000     2.0000 </r>
       <r>    -3.2113     0.0000     2.0000 </r>
       <r>    -3.1289     0.0000     2.0000 </r>
       <r>    -3.0465     0.0000     2.0000 </r>
       <r>    -2.9641     0.0000     2.0000 </r>
       <r>    -2.8817     0.0000     2.0000 </r>
       <r>    -2.7992     0.0000     2.0000 </r>
       <r>    -2.7168     0.0000     2.0000 </r>
       <r>    -2.6344     0.0000     2.0000 </r>
       <r>    -2.5520     0.0000     2.0000 </r>
       <r>    -2.4696     0.0000     2.0000 </r>
       <r>    -2.3872     0.0000     2.0000 </r>
       <r>    -2.3048     0.0000     2.0000 </r>
       <r>    -2.2224     0.0000     2.0000 </r>
       <r>    -2.1399     0.0000     2.0000 </r>
       <r>    -2.0575     0.0000     2.0000 </r>
       <r>    -1.9751     0.0000     2.0000 </r>
       <r>    -1.8927     0.0000     2.0000 </r>
       <r>    -1.8103     0.0000     2.0000 </r>
       <r>    -1.7279     0.0000     2.0000 </r>
       <r>    -1.6455     0.0000     2.0000 </r>
       <r>    -1.5631     0.0000     2.0000 </r>
       <r>    -1.4806     0.0000     2.0000 </r>
       <r>    -1.3982     0.0000     2.0000 </r>
       <r>    -1.3158     0.0000     2.0000 </r>
       <r>    -1.2334     0.0000     2.0000 </r>
       <r>    -1.1510     0.0000     2.0000 </r>
       <r>    -1.0686     0.0000     2.0000 </r>
       <r>    -0.9862     0.0121     2.0010 </r>
       <r>    -0.9038     0.0453     2.0047 </r>
       <r>    -0.8213     0.3544     2.0339 </r>
       <r>    -0.7389     0.6986     2.0915 </r>
       <r>    -0.6565     0.5289     2.1351 </r>
       <r>    -0.5741     1.6023     2.2672 </r>
       <r>    -0.4917     2.0572     2.4369 </r>
       <r>    -0.4093     2.5110     2.6462 </r>
       <r>    -0.3269     2.8470     2.9143 </r>
       <r>    -0.2445     1.0813     3.0093 </r>
       <r>    -0.1620     1.2667     3.1136 </r>
       <r>    -0.0796     0.9444     3.1924 </r>
       <r>     0.0028     0.6140     3.2485 </r>
       <r>     0.0852     0.6742     3.3090 </r>
       <r>     0.1676     0.3371     3.3368 </r>
       <r>     0.2500     0.6179     3.3877 </r>
       <r>     0.3324     0.6741     3.4433 </r>
       <r>     0.4148     0.3368     3.4710 </r>
       <r>     0.4973     0.0023     3.4713 </r>
       <r>     0.5797     0.9131     3.5465 </r>
       <r>     0.6621     0.3312     3.5891 </r>
       <r>     0.7445     0.3344     3.6167 </r>
       <r>     0.8269     0.0000     3.6169 </r>
       <r>     0.9093     0.0049     3.6173 </r>
       <r>     0.9917     1.0063     3.7002 </r>
       <r>     1.0741     0.1685     3.7141 </r>
       <r>     1.1566     0.0228     3.7160 </r>
       <r>     1.2390     1.6609     3.8529 </r>
       <r>     1.3214     1.9300     4.0121 </r>
       <r>     1.4038     0.2424     4.0397 </r>
       <r>     1.4862     1.3598     4.1517 </r>
       <r>     1.5686     1.0712     4.2492 </r>
       <r>     1.6510     0.9022     4.3235 </r>
       <r>     1.7334     0.7029     4.3821 </r>
       <r>     1.8159     0.8836     4.4559 </r>
       <r>     1.8983     1.3349     4.5659 </r>
       <r>     1.9807     2.2137     4.7484 </r>
       <r>     2.0631     0.0002     4.7581 </r>
       <r>     2.1455     0.9239     4.8343 </r>
       <r>     2.2279     1.9333     5.0023 </r>
       <r>     2.3103     1.1234     5.1007 </r>
       <r>     2.3927     1.6337     5.2539 </r>
       <r>     2.4752     0.9214     5.3341 </r>
       <r>     2.5576     2.3080     5.5247 </r>
       <r>     2.6400     0.3712     5.5595 </r>
       <r>     2.7224     3.6068     5.8568 </r>
       <r>     2.8048     0.1635     5.8711 </r>
       <r>     2.8872     2.5950     6.0882 </r>
       <r>     2.9696     1.2209     6.2015 </r>
       <r>     3.0520     1.5265     6.3273 </r>
       <r>     3.1345     2.0465     6.5130 </r>
       <r>     3.2169     1.0279     6.6021 </r>
       <r>     3.2993     1.9919     6.7662 </r>
       <r>     3.3817     1.2959     6.8742 </r>
       <r>     3.4641     1.7499     7.0227 </r>
       <r>     3.5465     2.2911     7.2118 </r>
       <r>     3.6289     0.5092     7.2538 </r>
       <r>     3.7113     1.8523     7.4200 </r>
       <r>     3.7938     1.3921     7.5358 </r>
       <r>     3.8762     0.3510     7.5741 </r>
       <r>     3.9586     1.4732     7.6955 </r>
       <r>     4.0410     0.7454     7.7569 </r>
       <r>     4.1234     0.9873     7.8424 </r>
       <r>     4.2058     0.6336     7.8947 </r>
       <r>     4.2882     0.4460     7.9314 </r>
       <r>     4.3706     0.3371     7.9641 </r>
       <r>     4.4531     0.2152     7.9819 </r>
       <r>     4.5355     0.1919     8.0000 </r>
       <r>     4.6179     0.0000     8.0000 </r>
       <r>     4.7003     0.0000     8.0000 </r>
       <r>     4.7827     0.0000     8.0000 </r>
       <r>     4.8651     0.0000     8.0000 </r>
       <r>     4.9475     0.0000     8.0000 </r>
       <r>     5.0300     0.0000     8.0000 </r>
       <r>     5.1124     0.0000     8.0000 </r>
       <r>     5.1948     0.0000     8.0000 </r>
       <r>     5.2772     0.0000     8.0000 </r>
       <r>     5.3596     0.0000     8.0000 </r>
       <r>     5.4420     0.0000     8.0000 </r>
       <r>     5.5244     0.0000     8.0000 </r>
       <r>     5.6068     0.0000     8.0000 </r>
       <r>     5.6893     0.0000     8.0000 </r>
       <r>     5.7717     0.0000     8.0000 </r>
       <r>     5.8541     0.0000     8.0000 </r>
       <r>     5.9365     0.0000     8.0000 </r>
       <r>     6.0189     0.0000     8.0000 </r>
       <r>     6.1013     0.0062     8.0005 </r>
       <r>     6.1837     0.0359     8.0035 </r>
       <r>     6.2661     0.0023     8.0037 </r>
       <r>     6.3486     0.0855     8.0107 </r>
       <r>     6.4310     0.3335     8.0382 </r>
       <r>     6.5134     0.0000     8.0382 </r>
       <r>     6.5958     0.0000     8.0382 </r>
       <r>     6.6782     0.3423     8.0664 </r>
       <r>     6.7606     0.4159     8.1007 </r>
       <r>     6.8430     0.6741     8.1562 </r>
       <r>     6.9254     0.0000     8.1562 </r>
       <r>     7.0079     0.3534     8.1854 </r>
       <r>     7.0903     0.5502     8.2328 </r>
       <r>     7.1727     0.0822     8.2498 </r>
       <r>     7.2551     0.3904     8.2822 </r>
       <r>     7.3375     1.1963     8.3809 </r>
       <r>     7.4199     1.3662     8.5069 </r>
       <r>     7.5023     0.3250     8.5337 </r>
       <r>     7.5847     0.9502     8.6134 </r>
       <r>     7.6672     0.2441     8.6335 </r>
       <r>     7.7496     0.9418     8.7261 </r>
       <r>     7.8320     1.8735     8.8860 </r>
       <r>     7.9144     1.0342     8.9977 </r>
       <r>     7.9968     2.6955     9.2279 </r>
       <r>     8.0792     0.6742     9.2836 </r>
       <r>     8.1616     0.8171     9.3509 </r>
       <r>     8.2440     1.8822     9.5197 </r>
       <r>     8.3265     1.0659     9.6191 </r>
       <r>     8.4089     2.7208     9.8433 </r>
       <r>     8.4913     1.0947     9.9496 </r>
       <r>     8.5737     1.3396    10.1069 </r>
       <r>     8.6561     1.4090    10.2257 </r>
       <r>     8.7385     0.6737    10.2813 </r>
       <r>     8.8209     0.2451    10.3014 </r>
       <r>     8.9033     1.2026    10.4053 </r>
       <r>     8.9858     1.0112    10.4896 </r>
       <r>     9.0682     1.0605    10.5770 </r>
       <r>     9.1506     0.2757    10.6012 </r>
       <r>     9.2330     1.8403    10.7529 </r>
       <r>     9.3154     1.6380    10.8989 </r>
       <r>     9.3978     1.9484    11.0595 </r>
       <r>     9.4802     2.2127    11.2527 </r>
       <r>     9.5626     2.5863    11.4776 </r>
       <r>     9.6451     2.3617    11.6796 </r>
       <r>     9.7275     1.9471    11.8658 </r>
       <r>     9.8099     1.1592    11.9613 </r>
       <r>     9.8923     1.4584    12.0972 </r>
       <r>     9.9747     0.1685    12.1111 </r>
       <r>    10.0571     1.2641    12.2153 </r>
       <r>    10.1395     1.0552    12.3092 </r>
       <r>    10.2219     0.6716    12.3704 </r>
       <r>    10.3044     2.9530    12.6137 </r>
       <r>    10.3868     0.9626    12.7275 </r>
       <r>    10.4692     1.7695    12.8912 </r>
       <r>    10.5516     2.3358    13.0837 </r>
       <r>    10.6340     1.1780    13.1827 </r>
       <r>    10.7164     1.7026    13.3232 </r>
       <r>    10.7988     0.3372    13.3565 </r>
       <r>    10.8812     1.1037    13.4475 </r>
       <r>    10.9637     0.8183    13.5162 </r>
       <r>    11.0461     1.0054    13.5991 </r>
       <r>    11.1285     0.8097    13.6663 </r>
       <r>    11.2109     0.9970    13.7523 </r>
       <r>    11.2933     0.5324    13.7962 </r>
       <r>    11.3757     2.1280    13.9750 </r>
       <r>    11.4581     1.9305    14.1662 </r>
       <r>    11.5405     0.6740    14.2338 </r>
       <r>    11.6230     0.3378    14.2616 </r>
       <r>    11.7054     1.3479    14.3866 </r>
       <r>    11.7878     0.6741    14.4421 </r>
       <r>    11.8702     0.3622    14.4720 </r>
       <r>    11.9526     1.6602    14.6088 </r>
       <r>    12.0350     1.3482    14.7199 </r>
       <r>    12.1174     1.4865    14.8424 </r>
       <r>    12.1998     0.8415    14.9143 </r>
       <r>    12.2823     1.5669    15.0461 </r>
       <r>    12.3647     0.4645    15.0944 </r>
       <r>    12.4471     0.1124    15.1042 </r>
       <r>    12.5295     0.1685    15.1181 </r>
       <r>    12.6119     0.2612    15.1396 </r>
       <r>    12.6943     1.0111    15.2297 </r>
       <r>    12.7767     0.8267    15.2979 </r>
       <r>    12.8591     0.8385    15.3678 </r>
       <r>    12.9416     2.4091    15.5687 </r>
       <r>    13.0240     0.2922    15.6181 </r>
       <r>    13.1064     0.6738    15.6736 </r>
       <r>    13.1888     0.6741    15.7292 </r>
       <r>    13.2712     0.3302    15.7564 </r>
       <r>    13.3536     0.0000    15.7569 </r>
       <r>    13.4360     0.0000    15.7569 </r>
       <r>    13.5184     0.0000    15.7569 </r>
       <r>    13.6009     0.0000    15.7569 </r>
       <r>    13.6833     0.3348    15.7845 </r>
       <r>    13.7657     0.0000    15.7847 </r>
       <r>    13.8481     0.0000    15.7847 </r>
       <r>    13.9305     0.0399    15.7880 </r>
       <r>    14.0129     0.8027    15.8542 </r>
       <r>    14.0953     0.0000    15.8542 </r>
       <r>    14.1777     0.1670    15.8679 </r>
       <r>    14.2602     0.1183    15.8778 </r>
       <r>    14.3426     0.0000    15.8819 </r>
       <r>    14.4250     0.5056    15.9236 </r>
       <r>    14.5074     0.0056    15.9241 </r>
       <r>    14.5898     0.8334    15.9927 </r>
       <r>    14.6722     0.0000    15.9931 </r>
       <r>    14.7546     0.0000    15.9931 </r>
       <r>    14.8370     0.0000    15.9931 </r>
       <r>    14.9195     0.0000    15.9931 </r>
       <r>    15.0019     0.0000    15.9931 </r>
       <r>    15.0843     0.0000    15.9931 </r>
       <r>    15.1667     0.0000    15.9931 </r>
       <r>    15.2491     0.0000    15.9931 </r>
       <r>    15.3315     0.0000    15.9931 </r>
       <r>    15.4139     0.0000    15.9931 </r>
       <r>    15.4963     0.0000    15.9931 </r>
       <r>    15.5788     0.0843    16.0000 </r>
       <r>    15.6612     0.0000    16.0000 </r>
       <r>    15.7436     0.0000    16.0000 </r>
       <r>    15.8260     0.0000    16.0000 </r>
       <r>    15.9084     0.0000    16.0000 </r>
       <r>    15.9908     0.0000    16.0000 </r>
       <r>    16.0732     0.0000    16.0000 </r>
       <r>    16.1556     0.0000    16.0000 </r>
       <r>    16.2381     0.0000    16.0000 </r>
       <r>    16.3205     0.0000    16.0000 </r>
       <r>    16.4029     0.0000    16.0000 </r>
       <r>    16.4853     0.0000    16.0000 </r>
       <r>    16.5677     0.0000    16.0000 </r>
       <r>    16.6501     0.0000    16.0000 </r>
      </set>
     </set>
    </array>
   </total>
  </dos>
 </calculation>
 <structure name="finalpos" >
  <crystal>
   <varray name="basis" >
    <v>      -2.73648350       0.00000000       2.73648350 </v>
    <v>       0.00000000       2.73648350       2.73648350 </v>
    <v>      -2.73648350       2.73648350       0.00000000 </v>
   </varray>
   <i name="volume">     40.98344848 </i>
   <varray name="rec_basis" >
    <v>      -0.18271625      -0.18271625       0.18271625 </v>
    <v>       0.18271625       0.18271625       0.18271625 </v>
    <v>      -0.18271625       0.18271625      -0.18271625 </v>
   </varray>
  </crystal>
  <varray name="positions" >
   <v>       0.00000000       0.00000000       0.00000000 </v>
   <v>       0.74999998       0.75000006       0.74999998 </v>
  </varray>
 </structure>
</modeling>
