<?xml version="1.0" encoding="ISO-8859-1"?>
<modeling>
 <generator>
  <i name="program" type="string">vasp </i>
  <i name="version" type="string">5.4.4.18Apr17-6-g9f103f2a35  </i>
  <i name="subversion" type="string">(build Aug 24 2017 11:22:49) complex            parallel </i>
  <i name="platform" type="string">LinuxIFC </i>
  <i name="date" type="string">2023 12 25 </i>
  <i name="time" type="string">13:07:41 </i>
 </generator>
 <incar>
  <i type="string" name="PREC">accurate</i>
  <i type="string" name="ALGO"> Normal</i>
  <i type="int" name="NELM">   100</i>
  <i type="int" name="IBRION">     8</i>
  <i name="EDIFF">      0.00000001</i>
  <i name="SYMPREC">      0.00000001</i>
  <i name="ENCUT">    520.00000000</i>
  <i type="logical" name="LREAL"> F  </i>
  <i type="int" name="ISMEAR">     0</i>
  <i name="SIGMA">      0.01000000</i>
  <i type="logical" name="LWAVE"> F  </i>
  <v type="int" name="KPOINT_BSE">    -1     0     0     0</v>
  <i type="int" name="NELM">   100</i>
  <i type="logical" name="LPEAD"> T  </i>
  <i type="logical" name="LEPSILON"> T  </i>
 </incar>
 <structure name="primitive_cell" >
  <crystal>
   <varray name="basis" >
    <v>       5.67984433       0.00000000       0.00000000 </v>
    <v>       0.00000000       5.67984433       0.00000000 </v>
    <v>       0.00000000       0.00000000       5.67984433 </v>
   </varray>
   <i name="volume">    183.23536591 </i>
   <varray name="rec_basis" >
    <v>       0.17606116       0.00000000       0.00000000 </v>
    <v>       0.00000000       0.17606116       0.00000000 </v>
    <v>       0.00000000       0.00000000       0.17606116 </v>
   </varray>
  </crystal>
  <varray name="positions" >
   <v>       0.00000000       0.00000000       0.00000000 </v>
   <v>       0.00000000      -0.49999996      -0.49999996 </v>
   <v>      -0.49999996       0.00000000      -0.49999996 </v>
   <v>      -0.49999996      -0.49999996       0.00000000 </v>
   <v>      -0.49999996      -0.49999996      -0.49999996 </v>
  </varray>
 </structure>
 <varray name="primitive_index" >
  <v type="int" >        1 </v>
  <v type="int" >        3 </v>
  <v type="int" >        4 </v>
  <v type="int" >        5 </v>
  <v type="int" >        2 </v>
 </varray>
 <kpoints>
  <generation param="Gamma">
   <v type="int" name="divisions">       8        8        8 </v>
   <v name="usershift">      0.00000000       0.00000000       0.00000000 </v>
   <v name="genvec1">      0.12500000       0.00000000       0.00000000 </v>
   <v name="genvec2">      0.00000000       0.12500000       0.00000000 </v>
   <v name="genvec3">      0.00000000       0.00000000       0.12500000 </v>
   <v name="shift">      0.00000000       0.00000000       0.00000000 </v>
  </generation>
  <varray name="kpointlist" >
   <v>       0.00000000       0.00000000       0.00000000 </v>
   <v>       0.12500000       0.00000000       0.00000000 </v>
   <v>       0.25000000       0.00000000       0.00000000 </v>
   <v>       0.37500000       0.00000000       0.00000000 </v>
   <v>       0.50000000       0.00000000       0.00000000 </v>
   <v>       0.12500000       0.12500000       0.00000000 </v>
   <v>       0.25000000       0.12500000       0.00000000 </v>
   <v>       0.37500000       0.12500000       0.00000000 </v>
   <v>       0.50000000       0.12500000       0.00000000 </v>
   <v>      -0.37500000       0.12500000       0.00000000 </v>
   <v>      -0.25000000       0.12500000       0.00000000 </v>
   <v>      -0.12500000       0.12500000       0.00000000 </v>
   <v>       0.25000000       0.25000000       0.00000000 </v>
   <v>       0.37500000       0.25000000       0.00000000 </v>
   <v>       0.50000000       0.25000000       0.00000000 </v>
   <v>      -0.37500000       0.25000000       0.00000000 </v>
   <v>      -0.25000000       0.25000000       0.00000000 </v>
   <v>       0.37500000       0.37500000       0.00000000 </v>
   <v>       0.50000000       0.37500000       0.00000000 </v>
   <v>      -0.37500000       0.37500000       0.00000000 </v>
   <v>       0.50000000       0.50000000       0.00000000 </v>
   <v>       0.12500000       0.12500000       0.12500000 </v>
   <v>       0.25000000       0.12500000       0.12500000 </v>
   <v>       0.37500000       0.12500000       0.12500000 </v>
   <v>       0.50000000       0.12500000       0.12500000 </v>
   <v>      -0.37500000       0.12500000       0.12500000 </v>
   <v>      -0.25000000       0.12500000       0.12500000 </v>
   <v>      -0.12500000       0.12500000       0.12500000 </v>
   <v>       0.25000000       0.25000000       0.12500000 </v>
   <v>       0.37500000       0.25000000       0.12500000 </v>
   <v>       0.50000000       0.25000000       0.12500000 </v>
   <v>      -0.37500000       0.25000000       0.12500000 </v>
   <v>      -0.25000000       0.25000000       0.12500000 </v>
   <v>      -0.12500000       0.25000000       0.12500000 </v>
   <v>       0.37500000       0.37500000       0.12500000 </v>
   <v>       0.50000000       0.37500000       0.12500000 </v>
   <v>      -0.37500000       0.37500000       0.12500000 </v>
   <v>      -0.25000000       0.37500000       0.12500000 </v>
   <v>      -0.12500000       0.37500000       0.12500000 </v>
   <v>       0.50000000       0.50000000       0.12500000 </v>
   <v>      -0.37500000       0.50000000       0.12500000 </v>
   <v>      -0.25000000       0.50000000       0.12500000 </v>
   <v>      -0.12500000       0.50000000       0.12500000 </v>
   <v>      -0.37500000      -0.37500000       0.12500000 </v>
   <v>      -0.25000000      -0.37500000       0.12500000 </v>
   <v>      -0.25000000      -0.25000000       0.12500000 </v>
   <v>       0.25000000       0.25000000       0.25000000 </v>
   <v>       0.37500000       0.25000000       0.25000000 </v>
   <v>       0.50000000       0.25000000       0.25000000 </v>
   <v>      -0.37500000       0.25000000       0.25000000 </v>
   <v>      -0.25000000       0.25000000       0.25000000 </v>
   <v>       0.37500000       0.37500000       0.25000000 </v>
   <v>       0.50000000       0.37500000       0.25000000 </v>
   <v>      -0.37500000       0.37500000       0.25000000 </v>
   <v>      -0.25000000       0.37500000       0.25000000 </v>
   <v>       0.50000000       0.50000000       0.25000000 </v>
   <v>      -0.37500000       0.50000000       0.25000000 </v>
   <v>      -0.25000000       0.50000000       0.25000000 </v>
   <v>      -0.37500000      -0.37500000       0.25000000 </v>
   <v>       0.37500000       0.37500000       0.37500000 </v>
   <v>       0.50000000       0.37500000       0.37500000 </v>
   <v>      -0.37500000       0.37500000       0.37500000 </v>
   <v>       0.50000000       0.50000000       0.37500000 </v>
   <v>      -0.37500000       0.50000000       0.37500000 </v>
   <v>       0.50000000       0.50000000       0.50000000 </v>
  </varray>
  <varray name="weights" >
   <v>       0.00195312 </v>
   <v>       0.01171875 </v>
   <v>       0.01171875 </v>
   <v>       0.01171875 </v>
   <v>       0.00585938 </v>
   <v>       0.01171875 </v>
   <v>       0.02343750 </v>
   <v>       0.02343750 </v>
   <v>       0.02343750 </v>
   <v>       0.02343750 </v>
   <v>       0.02343750 </v>
   <v>       0.01171875 </v>
   <v>       0.01171875 </v>
   <v>       0.02343750 </v>
   <v>       0.02343750 </v>
   <v>       0.02343750 </v>
   <v>       0.01171875 </v>
   <v>       0.01171875 </v>
   <v>       0.02343750 </v>
   <v>       0.01171875 </v>
   <v>       0.00585938 </v>
   <v>       0.00390625 </v>
   <v>       0.01171875 </v>
   <v>       0.01171875 </v>
   <v>       0.01171875 </v>
   <v>       0.01171875 </v>
   <v>       0.01171875 </v>
   <v>       0.01171875 </v>
   <v>       0.01171875 </v>
   <v>       0.02343750 </v>
   <v>       0.02343750 </v>
   <v>       0.02343750 </v>
   <v>       0.02343750 </v>
   <v>       0.02343750 </v>
   <v>       0.01171875 </v>
   <v>       0.02343750 </v>
   <v>       0.02343750 </v>
   <v>       0.02343750 </v>
   <v>       0.02343750 </v>
   <v>       0.01171875 </v>
   <v>       0.02343750 </v>
   <v>       0.02343750 </v>
   <v>       0.01171875 </v>
   <v>       0.01171875 </v>
   <v>       0.02343750 </v>
   <v>       0.01171875 </v>
   <v>       0.00390625 </v>
   <v>       0.01171875 </v>
   <v>       0.01171875 </v>
   <v>       0.01171875 </v>
   <v>       0.01171875 </v>
   <v>       0.01171875 </v>
   <v>       0.02343750 </v>
   <v>       0.02343750 </v>
   <v>       0.02343750 </v>
   <v>       0.01171875 </v>
   <v>       0.02343750 </v>
   <v>       0.01171875 </v>
   <v>       0.01171875 </v>
   <v>       0.00390625 </v>
   <v>       0.01171875 </v>
   <v>       0.01171875 </v>
   <v>       0.01171875 </v>
   <v>       0.01171875 </v>
   <v>       0.00195312 </v>
  </varray>
 </kpoints>
 <parameters>
  <separator name="general" >
   <i type="string" name="SYSTEM">unknown system</i>
   <i type="logical" name="LCOMPAT"> F  </i>
  </separator>
  <separator name="electronic" >
   <i type="string" name="PREC">accura</i>
   <i name="ENMAX">    520.00000000</i>
   <i name="ENAUG">    407.93300000</i>
   <i name="EDIFF">      0.00000001</i>
   <i type="int" name="IALGO">    38</i>
   <i type="int" name="IWAVPR">    11</i>
   <i type="int" name="NBANDS">    32</i>
   <i name="NELECT">     44.00000000</i>
   <i type="int" name="TURBO">     0</i>
   <i type="int" name="IRESTART">     0</i>
   <i type="int" name="NREBOOT">     0</i>
   <i type="int" name="NMIN">     0</i>
   <i name="EREF">      0.00000000</i>
   <separator name="electronic smearing" >
    <i type="int" name="ISMEAR">     0</i>
    <i name="SIGMA">      0.01000000</i>
    <i name="KSPACING">      0.50000000</i>
    <i type="logical" name="KGAMMA"> T  </i>
   </separator>
   <separator name="electronic projectors" >
    <i type="logical" name="LREAL"> F  </i>
    <v name="ROPT">      0.00000000      0.00000000      0.00000000</v>
    <i type="int" name="LMAXPAW">  -100</i>
    <i type="int" name="LMAXMIX">     2</i>
    <i type="logical" name="NLSPLINE"> F  </i>
   </separator>
   <separator name="electronic startup" >
    <i type="int" name="ISTART">     0</i>
    <i type="int" name="ICHARG">     2</i>
    <i type="int" name="INIWAV">     1</i>
   </separator>
   <separator name="electronic spin" >
    <i type="int" name="ISPIN">     1</i>
    <i type="logical" name="LNONCOLLINEAR"> F  </i>
    <v name="MAGMOM">      1.00000000      1.00000000      1.00000000      1.00000000      1.00000000</v>
    <i name="NUPDOWN">     -1.00000000</i>
    <i type="logical" name="LSORBIT"> F  </i>
    <v name="SAXIS">      0.00000000      0.00000000      1.00000000</v>
    <i type="logical" name="LSPIRAL"> F  </i>
    <v name="QSPIRAL">      0.00000000      0.00000000      0.00000000</v>
    <i type="logical" name="LZEROZ"> F  </i>
   </separator>
   <separator name="electronic exchange-correlation" >
    <i type="logical" name="LASPH"> F  </i>
    <i type="logical" name="LMETAGGA"> F  </i>
   </separator>
   <separator name="electronic convergence" >
    <i type="int" name="NELM">   100</i>
    <i type="int" name="NELMDL">    -5</i>
    <i type="int" name="NELMIN">     2</i>
    <i name="ENINI">    520.00000000</i>
    <separator name="electronic convergence detail" >
     <i type="logical" name="LDIAG"> T  </i>
     <i type="logical" name="LSUBROT"> F  </i>
     <i name="WEIMIN">      0.00100000</i>
     <i name="EBREAK">      0.00000000</i>
     <i name="DEPER">      0.30000000</i>
     <i type="int" name="NRMM">     4</i>
     <i name="TIME">      0.40000000</i>
    </separator>
   </separator>
   <separator name="electronic mixer" >
    <i name="AMIX">      0.40000000</i>
    <i name="BMIX">      1.00000000</i>
    <i name="AMIN">      0.10000000</i>
    <i name="AMIX_MAG">      1.60000000</i>
    <i name="BMIX_MAG">      1.00000000</i>
    <separator name="electronic mixer details" >
     <i type="int" name="IMIX">     4</i>
     <i type="logical" name="MIXFIRST"> F  </i>
     <i type="int" name="MAXMIX">   -45</i>
     <i name="WC">    100.00000000</i>
     <i type="int" name="INIMIX">     1</i>
     <i type="int" name="MIXPRE">     1</i>
     <i type="int" name="MREMOVE">     5</i>
    </separator>
   </separator>
   <separator name="electronic dipolcorrection" >
    <i type="logical" name="LDIPOL"> F  </i>
    <i type="logical" name="LMONO"> F  </i>
    <i type="int" name="IDIPOL">     0</i>
    <i name="EPSILON">      1.00000000</i>
    <v name="DIPOL">   -100.00000000   -100.00000000   -100.00000000</v>
    <i name="EFIELD">      0.00000000</i>
   </separator>
  </separator>
  <separator name="grids" >
   <i type="int" name="NGX">    42</i>
   <i type="int" name="NGY">    42</i>
   <i type="int" name="NGZ">    42</i>
   <i type="int" name="NGXF">    84</i>
   <i type="int" name="NGYF">    84</i>
   <i type="int" name="NGZF">    84</i>
   <i type="logical" name="ADDGRID"> F  </i>
  </separator>
  <separator name="ionic" >
   <i type="int" name="NSW">     1</i>
   <i type="int" name="IBRION">     8</i>
   <i type="int" name="MDALGO">     0</i>
   <i type="int" name="ISIF">     2</i>
   <i name="PSTRESS">      0.00000000</i>
   <i name="EDIFFG">      0.00000010</i>
   <i type="int" name="NFREE">     0</i>
   <i name="POTIM">      0.50000000</i>
   <i name="SMASS">     -3.00000000</i>
   <i name="SCALEE">      1.00000000</i>
  </separator>
  <separator name="ionic md" >
   <i name="TEBEG">      0.00010000</i>
   <i name="TEEND">      0.00010000</i>
   <i type="int" name="NBLOCK">     1</i>
   <i type="int" name="KBLOCK">     1</i>
   <i type="int" name="NPACO">   256</i>
   <i name="APACO">     16.00000000</i>
  </separator>
  <separator name="symmetry" >
   <i type="int" name="ISYM">     2</i>
   <i name="SYMPREC">      0.00000001</i>
  </separator>
  <separator name="dos" >
   <i type="int" name="LORBIT">     0</i>
   <v name="RWIGS">     -1.00000000     -1.00000000     -1.00000000</v>
   <i type="int" name="NEDOS">   301</i>
   <i name="EMIN">     10.00000000</i>
   <i name="EMAX">    -10.00000000</i>
   <i name="EFERMI">      0.00000000</i>
  </separator>
  <separator name="writing" >
   <i type="int" name="NWRITE">     2</i>
   <i type="logical" name="LWAVE"> F  </i>
   <i type="logical" name="LDOWNSAMPLE"> F  </i>
   <i type="logical" name="LCHARG"> T  </i>
   <i type="logical" name="LPARD"> F  </i>
   <i type="logical" name="LVTOT"> F  </i>
   <i type="logical" name="LVHAR"> F  </i>
   <i type="logical" name="LELF"> F  </i>
   <i type="logical" name="LOPTICS"> F  </i>
   <v name="STM">      0.00000000      0.00000000      0.00000000      0.00000000      0.00000000      0.00000000      0.00000000</v>
  </separator>
  <separator name="performance" >
   <i type="int" name="NPAR">     8</i>
   <i type="int" name="NSIM">     4</i>
   <i type="int" name="NBLK">    -1</i>
   <i type="logical" name="LPLANE"> T  </i>
   <i type="logical" name="LSCALAPACK"> T  </i>
   <i type="logical" name="LSCAAWARE"> F  </i>
   <i type="logical" name="LSCALU"> F  </i>
   <i type="logical" name="LASYNC"> F  </i>
   <i type="logical" name="LORBITALREAL"> F  </i>
  </separator>
  <separator name="miscellaneous" >
   <i type="int" name="IDIOT">     3</i>
   <i type="int" name="ISPECIAL">     0</i>
   <i type="logical" name="LMUSIC"> F  </i>
   <v name="POMASS">    132.90000000    207.20000000     35.45300000</v>
   <v name="DARWINR">      0.00000000      0.00000000      0.00000000</v>
   <v name="DARWINV">      1.00000000      1.00000000      1.00000000</v>
   <i type="logical" name="LCORR"> T  </i>
  </separator>
  <i type="logical" name="GGA_COMPAT"> T  </i>
  <i type="logical" name="LBERRY"> F  </i>
  <i type="int" name="ICORELEVEL">     0</i>
  <i type="logical" name="LDAU"> F  </i>
  <i type="int" name="I_CONSTRAINED_M">     0</i>
  <separator name="electronic exchange-correlation" >
   <i type="string" name="GGA">--</i>
   <i type="int" name="VOSKOWN">     0</i>
   <i type="logical" name="LHFCALC"> F  </i>
   <i type="string" name="PRECFOCK"></i>
   <i type="logical" name="LSYMGRAD"> F  </i>
   <i type="logical" name="LHFONE"> F  </i>
   <i type="logical" name="LRHFCALC"> F  </i>
   <i type="logical" name="LTHOMAS"> F  </i>
   <i type="logical" name="LMODELHF"> F  </i>
   <i name="ENCUT4O">     -1.00000000</i>
   <i type="int" name="EXXOEP">     0</i>
   <i type="int" name="FOURORBIT">     0</i>
   <i name="AEXX">      0.00000000</i>
   <i name="HFALPHA">      0.00000000</i>
   <i name="MCALPHA">      0.00000000</i>
   <i name="ALDAX">      1.00000000</i>
   <i name="AGGAX">      1.00000000</i>
   <i name="ALDAC">      1.00000000</i>
   <i name="AGGAC">      1.00000000</i>
   <i type="int" name="NKREDX">     1</i>
   <i type="int" name="NKREDY">     1</i>
   <i type="int" name="NKREDZ">     1</i>
   <i type="logical" name="SHIFTRED"> F  </i>
   <i type="logical" name="ODDONLY"> F  </i>
   <i type="logical" name="EVENONLY"> F  </i>
   <i type="int" name="LMAXFOCK">     0</i>
   <i type="int" name="NMAXFOCKAE">     0</i>
   <i type="logical" name="LFOCKAEDFT"> F  </i>
   <i name="HFSCREEN">      0.00000000</i>
   <i name="HFSCREENC">      0.00000000</i>
   <i type="int" name="NBANDSGWLOW">     0</i>
  </separator>
  <separator name="vdW DFT" >
   <i type="logical" name="LUSE_VDW"> F  </i>
   <i name="Zab_VDW">     -0.84910000</i>
   <i name="PARAM1">      0.12340000</i>
   <i name="PARAM2">      1.00000000</i>
   <i name="PARAM3">      0.00000000</i>
  </separator>
  <separator name="model GW" >
   <i type="int" name="MODEL_GW">     0</i>
   <i name="MODEL_EPS0">     21.98824391</i>
   <i name="MODEL_ALPHA">      1.00000000</i>
  </separator>
  <separator name="linear response parameters" >
   <i type="logical" name="LEPSILON"> T  </i>
   <i type="logical" name="LRPA"> F  </i>
   <i type="logical" name="LNABLA"> F  </i>
   <i type="logical" name="LVEL"> F  </i>
   <i type="int" name="KINTER">     0</i>
   <i name="CSHIFT">      0.10000000</i>
   <i name="OMEGAMAX">     -1.00000000</i>
   <i name="DEG_THRESHOLD">      0.00200000</i>
   <i name="RTIME">     -0.10000000</i>
   <i name="WPLASMAI">      0.00000000</i>
   <v name="DFIELD">      0.00000000      0.00000000      0.00000000</v>
   <v name="WPLASMA">      0.00000000      0.00000000      0.00000000      0.00000000      0.00000000      0.00000000      0.00000000      0.00000000      0.00000000</v>
  </separator>
  <separator name="orbital magnetization" >
   <i type="logical" name="NUCIND"> F  </i>
   <v name="MAGPOS">      0.00000000      0.00000000      0.00000000</v>
   <i type="logical" name="LNICSALL"> T  </i>
   <i type="logical" name="ORBITALMAG"> F  </i>
   <i type="logical" name="LMAGBLOCH"> F  </i>
   <i type="logical" name="LCHIMAG"> F  </i>
   <i type="logical" name="LGAUGE"> T  </i>
   <i type="int" name="MAGATOM">     0</i>
   <v name="MAGDIPOL">      0.00000000      0.00000000      0.00000000</v>
   <v name="AVECCONST">      0.00000000      0.00000000      0.00000000</v>
  </separator>
  <separator name="response functions" >
   <i type="logical" name="LADDER"> F  </i>
   <i type="logical" name="LRPAFORCE"> F  </i>
   <i type="logical" name="LFXC"> F  </i>
   <i type="logical" name="LHARTREE"> T  </i>
   <i type="int" name="IBSE">     0</i>
   <v type="int" name="KPOINT">    -1     0     0     0</v>
   <i type="logical" name="LTCTE"> F  </i>
   <i type="logical" name="LTETE"> F  </i>
   <i type="logical" name="LTRIPLET"> F  </i>
   <i type="logical" name="LFXCEPS"> F  </i>
   <i type="logical" name="LFXHEG"> F  </i>
   <i type="int" name="NATURALO">     2</i>
   <i type="logical" name="L2ORDER"> F  </i>
   <i type="logical" name="LMP2LT"> F  </i>
   <i type="logical" name="LUSEW"> F  </i>
   <i name="ENCUTGW">     -2.00000000</i>
   <i name="ENCUTGWSOFT">     -2.00000000</i>
   <i name="ENCUTLF">     -1.00000000</i>
   <i type="int" name="LMAXMP2">    -1</i>
   <i name="SCISSOR">      0.00000000</i>
   <i type="int" name="NOMEGA">     0</i>
   <i type="int" name="NOMEGAR">     0</i>
   <i type="int" name="NBANDSGW">    -1</i>
   <i type="int" name="NBANDSO">    -1</i>
   <i type="int" name="NBANDSV">    -1</i>
   <i type="int" name="NELM">   100</i>
   <i type="int" name="NELMHF">     1</i>
   <i type="int" name="DIM">     3</i>
   <i type="int" name="ANTIRES">     0</i>
   <i name="OMEGAMAX">    -30.00000000</i>
   <i name="OMEGAMIN">    -30.00000000</i>
   <i name="OMEGATL">   -200.00000000</i>
   <i type="int" name="OMEGAGRID">   140</i>
   <i name="CSHIFT">     -0.10000000</i>
   <i type="logical" name="SELFENERGY"> F  </i>
   <i type="logical" name="LSPECTRAL"> F  </i>
   <i type="logical" name="LSPECTRALGW"> F  </i>
   <i type="logical" name="LSINGLES"> F  </i>
   <i type="logical" name="LFERMIGW"> F  </i>
   <i type="logical" name="ODDONLYGW"> F  </i>
   <i type="logical" name="EVENONLYGW"> F  </i>
   <i type="int" name="NKREDLFX">     1</i>
   <i type="int" name="NKREDLFY">     1</i>
   <i type="int" name="NKREDLFZ">     1</i>
   <i type="int" name="MAXMEM">  2800</i>
   <i type="int" name="TELESCOPE">     0</i>
   <i type="int" name="TAUPAR">     1</i>
   <i type="int" name="OMEGAPAR">    -1</i>
   <i name="LAMBDA">      1.00000000</i>
  </separator>
  <separator name="External order field" >
   <i name="OFIELD_KAPPA">      0.00000000</i>
   <v name="OFIELD_K">      0.00000000      0.00000000      0.00000000</v>
   <i name="OFIELD_Q6_NEAR">      0.00000000</i>
   <i name="OFIELD_Q6_FAR">      0.00000000</i>
   <i name="OFIELD_A">      0.00000000</i>
  </separator>
 </parameters>
 <atominfo>
  <atoms>       5 </atoms>
  <types>       3 </types>
  <array name="atoms" >
   <dimension dim="1">ion</dimension>
   <field type="string">element</field>
   <field type="int">atomtype</field>
   <set>
    <rc><c>Cs</c><c>   1</c></rc>
    <rc><c>Pb</c><c>   2</c></rc>
    <rc><c>Cl</c><c>   3</c></rc>
    <rc><c>Cl</c><c>   3</c></rc>
    <rc><c>Cl</c><c>   3</c></rc>
   </set>
  </array>
  <array name="atomtypes" >
   <dimension dim="1">type</dimension>
   <field type="int">atomspertype</field>
   <field type="string">element</field>
   <field>mass</field>
   <field>valence</field>
   <field type="string">pseudopotential</field>
   <set>
    <rc><c>   1</c><c>Cs</c><c>    132.90000000</c><c>      9.00000000</c><c>  PAW_PBE Cs_sv 08Apr2002               </c></rc>
    <rc><c>   1</c><c>Pb</c><c>    207.20000000</c><c>     14.00000000</c><c>  PAW_PBE Pb_d 06Sep2000                </c></rc>
    <rc><c>   3</c><c>Cl</c><c>     35.45300000</c><c>      7.00000000</c><c>  PAW_PBE Cl 06Sep2000                  </c></rc>
   </set>
  </array>
 </atominfo>
 <structure name="initialpos" >
  <crystal>
   <varray name="basis" >
    <v>       5.67984433       0.00000000       0.00000000 </v>
    <v>       0.00000000       5.67984433       0.00000000 </v>
    <v>       0.00000000       0.00000000       5.67984433 </v>
   </varray>
   <i name="volume">    183.23536591 </i>
   <varray name="rec_basis" >
    <v>       0.17606116       0.00000000       0.00000000 </v>
    <v>       0.00000000       0.17606116       0.00000000 </v>
    <v>       0.00000000       0.00000000       0.17606116 </v>
   </varray>
  </crystal>
  <varray name="positions" >
   <v>       0.00000000       0.00000000       0.00000000 </v>
   <v>       0.50000004       0.50000004       0.50000004 </v>
   <v>       0.00000000       0.50000004       0.50000004 </v>
   <v>       0.50000004       0.00000000       0.50000004 </v>
   <v>       0.50000004       0.50000004       0.00000000 </v>
  </varray>
 </structure>
 <calculation>
  <scstep>
   <time name="dav">    2.62    2.63</time>
   <time name="total">    2.67    2.67</time>
   <energy>
    <i name="alphaZ">     97.83865006 </i>
    <i name="ewald">  -2348.85816643 </i>
    <i name="hartreedc">   -990.71832654 </i>
    <i name="XCdc">    107.88095193 </i>
    <i name="pawpsdc">   2835.93270181 </i>
    <i name="pawaedc">  -2812.62185570 </i>
    <i name="eentropy">     -0.00015778 </i>
    <i name="bandstr">     68.19677429 </i>
    <i name="atom">   3446.46736132 </i>
    <i name="e_fr_energy">    404.11793295 </i>
    <i name="e_wo_entrp">    404.11809074 </i>
    <i name="e_0_energy">    404.11801184 </i>
   </energy>
  </scstep>
  <scstep>
   <time name="dav">    2.93    2.94</time>
   <time name="total">    2.93    2.94</time>
   <energy>
    <i name="e_fr_energy">     32.69231387 </i>
    <i name="e_wo_entrp">     32.69235527 </i>
    <i name="e_0_energy">     32.69233457 </i>
   </energy>
  </scstep>
  <scstep>
   <time name="dav">    3.26    3.26</time>
   <time name="total">    3.26    3.26</time>
   <energy>
    <i name="e_fr_energy">    -16.72179679 </i>
    <i name="e_wo_entrp">    -16.72179679 </i>
    <i name="e_0_energy">    -16.72179679 </i>
   </energy>
  </scstep>
  <scstep>
   <time name="dav">    3.10    3.11</time>
   <time name="total">    3.10    3.11</time>
   <energy>
    <i name="e_fr_energy">    -18.41053754 </i>
    <i name="e_wo_entrp">    -18.41053754 </i>
    <i name="e_0_energy">    -18.41053754 </i>
   </energy>
  </scstep>
  <scstep>
   <time name="dav">    3.30    3.30</time>
   <time name="total">    3.50    3.50</time>
   <energy>
    <i name="e_fr_energy">    -18.47558392 </i>
    <i name="e_wo_entrp">    -18.47558392 </i>
    <i name="e_0_energy">    -18.47558392 </i>
   </energy>
  </scstep>
  <scstep>
   <time name="dav">    3.61    3.62</time>
   <time name="total">    3.86    3.86</time>
   <energy>
    <i name="e_fr_energy">    -17.58678689 </i>
    <i name="e_wo_entrp">    -17.58678689 </i>
    <i name="e_0_energy">    -17.58678689 </i>
   </energy>
  </scstep>
  <scstep>
   <time name="dav">    3.63    3.64</time>
   <time name="total">    3.87    3.88</time>
   <energy>
    <i name="e_fr_energy">    -17.54371143 </i>
    <i name="e_wo_entrp">    -17.54371143 </i>
    <i name="e_0_energy">    -17.54371143 </i>
   </energy>
  </scstep>
  <scstep>
   <time name="dav">    3.24    3.24</time>
   <time name="total">    3.48    3.48</time>
   <energy>
    <i name="e_fr_energy">    -17.55933535 </i>
    <i name="e_wo_entrp">    -17.55933535 </i>
    <i name="e_0_energy">    -17.55933535 </i>
   </energy>
  </scstep>
  <scstep>
   <time name="dav">    3.75    3.76</time>
   <time name="total">    3.99    3.99</time>
   <energy>
    <i name="e_fr_energy">    -17.55580794 </i>
    <i name="e_wo_entrp">    -17.55580794 </i>
    <i name="e_0_energy">    -17.55580794 </i>
   </energy>
  </scstep>
  <scstep>
   <time name="dav">    2.92    2.92</time>
   <time name="total">    3.15    3.16</time>
   <energy>
    <i name="e_fr_energy">    -17.55643172 </i>
    <i name="e_wo_entrp">    -17.55643172 </i>
    <i name="e_0_energy">    -17.55643172 </i>
   </energy>
  </scstep>
  <scstep>
   <time name="dav">    3.30    3.31</time>
   <time name="total">    3.53    3.55</time>
   <energy>
    <i name="e_fr_energy">    -17.55649631 </i>
    <i name="e_wo_entrp">    -17.55649631 </i>
    <i name="e_0_energy">    -17.55649631 </i>
   </energy>
  </scstep>
  <scstep>
   <time name="dav">    3.24    3.25</time>
   <time name="total">    3.48    3.48</time>
   <energy>
    <i name="e_fr_energy">    -17.55649703 </i>
    <i name="e_wo_entrp">    -17.55649703 </i>
    <i name="e_0_energy">    -17.55649703 </i>
   </energy>
  </scstep>
  <scstep>
   <time name="dav">    3.15    3.15</time>
   <time name="total">    3.38    3.39</time>
   <energy>
    <i name="e_fr_energy">    -17.55649731 </i>
    <i name="e_wo_entrp">    -17.55649731 </i>
    <i name="e_0_energy">    -17.55649731 </i>
   </energy>
  </scstep>
  <scstep>
   <time name="dav">    2.75    2.77</time>
   <time name="total">    2.99    3.00</time>
   <energy>
    <i name="e_fr_energy">    -17.55649726 </i>
    <i name="e_wo_entrp">    -17.55649726 </i>
    <i name="e_0_energy">    -17.55649726 </i>
   </energy>
  </scstep>
  <scstep>
   <time name="dav">    3.27    3.27</time>
   <time name="total">    3.51    3.51</time>
   <energy>
    <i name="e_fr_energy">    -17.55649739 </i>
    <i name="e_wo_entrp">    -17.55649739 </i>
    <i name="e_0_energy">    -17.55649739 </i>
   </energy>
  </scstep>
  <scstep>
   <time name="dav">    2.26    2.26</time>
   <time name="total">    2.49    2.50</time>
   <energy>
    <i name="e_fr_energy">    -17.55649740 </i>
    <i name="e_wo_entrp">    -17.55649740 </i>
    <i name="e_0_energy">    -17.55649740 </i>
   </energy>
  </scstep>
  <scstep>
   <time name="dav">    2.11    2.12</time>
   <time name="total">    2.35    2.35</time>
   <energy>
    <i name="e_fr_energy">    -17.55649743 </i>
    <i name="e_wo_entrp">    -17.55649743 </i>
    <i name="e_0_energy">    -17.55649743 </i>
   </energy>
  </scstep>
  <scstep>
   <time name="dav">    1.99    1.99</time>
   <time name="total">    2.03    2.03</time>
   <energy>
    <i name="alphaZ">     97.83865006 </i>
    <i name="ewald">  -2348.85816643 </i>
    <i name="hartreedc">  -1002.37428814 </i>
    <i name="XCdc">    109.49952199 </i>
    <i name="pawpsdc">   3228.73060924 </i>
    <i name="pawaedc">  -3204.44491956 </i>
    <i name="eentropy">     -0.00000000 </i>
    <i name="bandstr">   -344.41526593 </i>
    <i name="atom">   3446.46736132 </i>
    <i name="e_fr_energy">    -17.55649744 </i>
    <i name="e_wo_entrp">    -17.55649744 </i>
    <i name="e_0_energy">    -17.55649744 </i>
   </energy>
  </scstep>
  <structure>
   <crystal>
    <varray name="basis" >
     <v>       5.67984433       0.00000000       0.00000000 </v>
     <v>       0.00000000       5.67984433       0.00000000 </v>
     <v>       0.00000000       0.00000000       5.67984433 </v>
    </varray>
    <i name="volume">    183.23536591 </i>
    <varray name="rec_basis" >
     <v>       0.17606116       0.00000000       0.00000000 </v>
     <v>       0.00000000       0.17606116       0.00000000 </v>
     <v>       0.00000000       0.00000000       0.17606116 </v>
    </varray>
   </crystal>
   <varray name="positions" >
    <v>       0.00000000       0.00000000       0.00000000 </v>
    <v>       0.50000004       0.50000004       0.50000004 </v>
    <v>       0.00000000       0.50000004       0.50000004 </v>
    <v>       0.50000004       0.00000000       0.50000004 </v>
    <v>       0.50000004       0.50000004       0.00000000 </v>
   </varray>
  </structure>
  <varray name="forces" >
   <v>      -0.00000002      -0.00000002      -0.00000002 </v>
   <v>      -0.00000031      -0.00000031      -0.00000031 </v>
   <v>       0.00000050      -0.00000008      -0.00000008 </v>
   <v>      -0.00000008       0.00000050      -0.00000008 </v>
   <v>      -0.00000008      -0.00000008       0.00000050 </v>
  </varray>
  <varray name="stress" >
   <v>       6.31811265      -0.00000011      -0.00000011 </v>
   <v>      -0.00000011       6.31811265      -0.00000011 </v>
   <v>      -0.00000011      -0.00000011       6.31811265 </v>
  </varray>
  <energy>
   <i name="e_fr_energy">    -17.55649744 </i>
   <i name="e_wo_entrp">    -17.55649744 </i>
   <i name="e_0_energy">     -0.00000000 </i>
  </energy>
  <scstep>
   <time name="total">    3.51    3.51</time>
   <energy>
    <i name="e_fr_energy">     -1.95969072 </i>
    <i name="e_wo_entrp">     -1.95969072 </i>
    <i name="e_0_energy">     -1.95969072 </i>
   </energy>
  </scstep>
  <scstep>
   <time name="total">    3.05    3.05</time>
   <energy>
    <i name="e_fr_energy">     -2.04363224 </i>
    <i name="e_wo_entrp">     -2.04363224 </i>
    <i name="e_0_energy">     -2.04363224 </i>
   </energy>
  </scstep>
  <scstep>
   <time name="total">    3.18    3.18</time>
   <energy>
    <i name="e_fr_energy">     -2.04477515 </i>
    <i name="e_wo_entrp">     -2.04477515 </i>
    <i name="e_0_energy">     -2.04477515 </i>
   </energy>
  </scstep>
  <scstep>
   <time name="total">    3.05    3.05</time>
   <energy>
    <i name="e_fr_energy">     -2.04484860 </i>
    <i name="e_wo_entrp">     -2.04484860 </i>
    <i name="e_0_energy">     -2.04484860 </i>
   </energy>
  </scstep>
  <scstep>
   <time name="total">    3.15    3.15</time>
   <energy>
    <i name="e_fr_energy">     -2.04485270 </i>
    <i name="e_wo_entrp">     -2.04485270 </i>
    <i name="e_0_energy">     -2.04485270 </i>
   </energy>
  </scstep>
  <scstep>
   <time name="total">    3.00    3.00</time>
   <energy>
    <i name="e_fr_energy">     -2.04485306 </i>
    <i name="e_wo_entrp">     -2.04485306 </i>
    <i name="e_0_energy">     -2.04485306 </i>
   </energy>
  </scstep>
  <scstep>
   <time name="total">    2.99    2.99</time>
   <energy>
    <i name="e_fr_energy">     -2.04485307 </i>
    <i name="e_wo_entrp">     -2.04485307 </i>
    <i name="e_0_energy">     -2.04485307 </i>
   </energy>
  </scstep>
  <scstep>
   <time name="total">    2.66    2.66</time>
   <energy>
    <i name="e_fr_energy">     -2.04485308 </i>
    <i name="e_wo_entrp">     -2.04485308 </i>
    <i name="e_0_energy">     -2.04485308 </i>
   </energy>
  </scstep>
  <scstep>
   <time name="total">    2.54    2.54</time>
   <energy>
    <i name="e_fr_energy">     -2.04485307 </i>
    <i name="e_wo_entrp">     -2.04485307 </i>
    <i name="e_0_energy">     -2.04485307 </i>
   </energy>
  </scstep>
  <scstep>
   <time name="total">    3.50    3.50</time>
   <energy>
    <i name="e_fr_energy">     -1.71222461 </i>
    <i name="e_wo_entrp">     -1.71222461 </i>
    <i name="e_0_energy">     -1.71222461 </i>
   </energy>
  </scstep>
  <scstep>
   <time name="total">    3.03    3.03</time>
   <energy>
    <i name="e_fr_energy">     -1.78586658 </i>
    <i name="e_wo_entrp">     -1.78586658 </i>
    <i name="e_0_energy">     -1.78586658 </i>
   </energy>
  </scstep>
  <scstep>
   <time name="total">    3.22    3.22</time>
   <energy>
    <i name="e_fr_energy">     -1.78681305 </i>
    <i name="e_wo_entrp">     -1.78681305 </i>
    <i name="e_0_energy">     -1.78681305 </i>
   </energy>
  </scstep>
  <scstep>
   <time name="total">    3.03    3.03</time>
   <energy>
    <i name="e_fr_energy">     -1.78688409 </i>
    <i name="e_wo_entrp">     -1.78688409 </i>
    <i name="e_0_energy">     -1.78688409 </i>
   </energy>
  </scstep>
  <scstep>
   <time name="total">    3.16    3.16</time>
   <energy>
    <i name="e_fr_energy">     -1.78688771 </i>
    <i name="e_wo_entrp">     -1.78688771 </i>
    <i name="e_0_energy">     -1.78688771 </i>
   </energy>
  </scstep>
  <scstep>
   <time name="total">    2.96    2.96</time>
   <energy>
    <i name="e_fr_energy">     -1.78688806 </i>
    <i name="e_wo_entrp">     -1.78688806 </i>
    <i name="e_0_energy">     -1.78688806 </i>
   </energy>
  </scstep>
  <scstep>
   <time name="total">    2.88    2.88</time>
   <energy>
    <i name="e_fr_energy">     -1.78688805 </i>
    <i name="e_wo_entrp">     -1.78688805 </i>
    <i name="e_0_energy">     -1.78688805 </i>
   </energy>
  </scstep>
  <scstep>
   <time name="total">    2.63    2.63</time>
   <energy>
    <i name="e_fr_energy">     -1.78688806 </i>
    <i name="e_wo_entrp">     -1.78688806 </i>
    <i name="e_0_energy">     -1.78688806 </i>
   </energy>
  </scstep>
  <scstep>
   <time name="total">    2.56    2.56</time>
   <energy>
    <i name="e_fr_energy">     -1.78688806 </i>
    <i name="e_wo_entrp">     -1.78688806 </i>
    <i name="e_0_energy">     -1.78688806 </i>
   </energy>
  </scstep>
  <scstep>
   <time name="total">    3.51    3.51</time>
   <energy>
    <i name="e_fr_energy">     -0.85463231 </i>
    <i name="e_wo_entrp">     -0.85463231 </i>
    <i name="e_0_energy">     -0.85463231 </i>
   </energy>
  </scstep>
  <scstep>
   <time name="total">    3.04    3.04</time>
   <energy>
    <i name="e_fr_energy">     -0.88049840 </i>
    <i name="e_wo_entrp">     -0.88049840 </i>
    <i name="e_0_energy">     -0.88049840 </i>
   </energy>
  </scstep>
  <scstep>
   <time name="total">    3.11    3.11</time>
   <energy>
    <i name="e_fr_energy">     -0.88093406 </i>
    <i name="e_wo_entrp">     -0.88093406 </i>
    <i name="e_0_energy">     -0.88093406 </i>
   </energy>
  </scstep>
  <scstep>
   <time name="total">    3.02    3.02</time>
   <energy>
    <i name="e_fr_energy">     -0.88096198 </i>
    <i name="e_wo_entrp">     -0.88096198 </i>
    <i name="e_0_energy">     -0.88096198 </i>
   </energy>
  </scstep>
  <scstep>
   <time name="total">    3.05    3.05</time>
   <energy>
    <i name="e_fr_energy">     -0.88096381 </i>
    <i name="e_wo_entrp">     -0.88096381 </i>
    <i name="e_0_energy">     -0.88096381 </i>
   </energy>
  </scstep>
  <scstep>
   <time name="total">    3.06    3.06</time>
   <energy>
    <i name="e_fr_energy">     -0.88096395 </i>
    <i name="e_wo_entrp">     -0.88096395 </i>
    <i name="e_0_energy">     -0.88096395 </i>
   </energy>
  </scstep>
  <scstep>
   <time name="total">    2.81    2.81</time>
   <energy>
    <i name="e_fr_energy">     -0.88096399 </i>
    <i name="e_wo_entrp">     -0.88096399 </i>
    <i name="e_0_energy">     -0.88096399 </i>
   </energy>
  </scstep>
  <scstep>
   <time name="total">    2.61    2.61</time>
   <energy>
    <i name="e_fr_energy">     -0.88096400 </i>
    <i name="e_wo_entrp">     -0.88096400 </i>
    <i name="e_0_energy">     -0.88096400 </i>
   </energy>
  </scstep>
  <scstep>
   <time name="total">    2.48    2.48</time>
   <energy>
    <i name="e_fr_energy">     -0.88096400 </i>
    <i name="e_wo_entrp">     -0.88096400 </i>
    <i name="e_0_energy">     -0.88096400 </i>
   </energy>
  </scstep>
  <varray name="epsilon_rpa" >
   <v>       4.10267157       0.00000020       0.00000020 </v>
   <v>       0.00000020       4.10267157       0.00000020 </v>
   <v>       0.00000020       0.00000020       4.10267157 </v>
  </varray>
  <kpoints>
   <generation param="Gamma">
    <v type="int" name="divisions">       8        8        8 </v>
    <v name="usershift">      0.00000000       0.00000000       0.00000000 </v>
    <v name="genvec1">      0.12500000       0.00000000       0.00000000 </v>
    <v name="genvec2">      0.00000000       0.12500000       0.00000000 </v>
    <v name="genvec3">      0.00000000       0.00000000       0.12500000 </v>
    <v name="shift">      0.00000000       0.00000000       0.00000000 </v>
   </generation>
   <varray name="kpointlist" >
    <v>       0.00000000       0.00000000       0.00000000 </v>
    <v>       0.12500000       0.00000000       0.00000000 </v>
    <v>       0.25000000       0.00000000       0.00000000 </v>
    <v>       0.37500000       0.00000000       0.00000000 </v>
    <v>       0.50000000       0.00000000       0.00000000 </v>
    <v>       0.00000000       0.12500000       0.00000000 </v>
    <v>       0.12500000       0.12500000       0.00000000 </v>
    <v>       0.25000000       0.12500000       0.00000000 </v>
    <v>       0.37500000       0.12500000       0.00000000 </v>
    <v>       0.50000000       0.12500000       0.00000000 </v>
    <v>      -0.37500000       0.12500000       0.00000000 </v>
    <v>      -0.25000000       0.12500000       0.00000000 </v>
    <v>      -0.12500000       0.12500000       0.00000000 </v>
    <v>       0.00000000       0.25000000       0.00000000 </v>
    <v>       0.12500000       0.25000000       0.00000000 </v>
    <v>       0.25000000       0.25000000       0.00000000 </v>
    <v>       0.37500000       0.25000000       0.00000000 </v>
    <v>       0.50000000       0.25000000       0.00000000 </v>
    <v>      -0.37500000       0.25000000       0.00000000 </v>
    <v>      -0.25000000       0.25000000       0.00000000 </v>
    <v>      -0.12500000       0.25000000       0.00000000 </v>
    <v>       0.00000000       0.37500000       0.00000000 </v>
    <v>       0.12500000       0.37500000       0.00000000 </v>
    <v>       0.25000000       0.37500000       0.00000000 </v>
    <v>       0.37500000       0.37500000       0.00000000 </v>
    <v>       0.50000000       0.37500000       0.00000000 </v>
    <v>      -0.37500000       0.37500000       0.00000000 </v>
    <v>      -0.25000000       0.37500000       0.00000000 </v>
    <v>      -0.12500000       0.37500000       0.00000000 </v>
    <v>       0.00000000       0.50000000       0.00000000 </v>
    <v>       0.12500000       0.50000000       0.00000000 </v>
    <v>       0.25000000       0.50000000       0.00000000 </v>
    <v>       0.37500000       0.50000000       0.00000000 </v>
    <v>       0.50000000       0.50000000       0.00000000 </v>
    <v>       0.00000000       0.12500000       0.12500000 </v>
    <v>       0.12500000       0.12500000       0.12500000 </v>
    <v>       0.25000000       0.12500000       0.12500000 </v>
    <v>       0.37500000       0.12500000       0.12500000 </v>
    <v>       0.50000000       0.12500000       0.12500000 </v>
    <v>      -0.37500000       0.12500000       0.12500000 </v>
    <v>      -0.25000000       0.12500000       0.12500000 </v>
    <v>      -0.12500000       0.12500000       0.12500000 </v>
    <v>       0.00000000       0.25000000       0.12500000 </v>
    <v>       0.12500000       0.25000000       0.12500000 </v>
    <v>       0.25000000       0.25000000       0.12500000 </v>
    <v>       0.37500000       0.25000000       0.12500000 </v>
    <v>       0.50000000       0.25000000       0.12500000 </v>
    <v>      -0.37500000       0.25000000       0.12500000 </v>
    <v>      -0.25000000       0.25000000       0.12500000 </v>
    <v>      -0.12500000       0.25000000       0.12500000 </v>
    <v>       0.00000000       0.37500000       0.12500000 </v>
    <v>       0.12500000       0.37500000       0.12500000 </v>
    <v>       0.25000000       0.37500000       0.12500000 </v>
    <v>       0.37500000       0.37500000       0.12500000 </v>
    <v>       0.50000000       0.37500000       0.12500000 </v>
    <v>      -0.37500000       0.37500000       0.12500000 </v>
    <v>      -0.25000000       0.37500000       0.12500000 </v>
    <v>      -0.12500000       0.37500000       0.12500000 </v>
    <v>       0.00000000       0.50000000       0.12500000 </v>
    <v>       0.12500000       0.50000000       0.12500000 </v>
    <v>       0.25000000       0.50000000       0.12500000 </v>
    <v>       0.37500000       0.50000000       0.12500000 </v>
    <v>       0.50000000       0.50000000       0.12500000 </v>
    <v>      -0.37500000       0.50000000       0.12500000 </v>
    <v>      -0.25000000       0.50000000       0.12500000 </v>
    <v>      -0.12500000       0.50000000       0.12500000 </v>
    <v>       0.00000000      -0.37500000       0.12500000 </v>
    <v>       0.12500000      -0.37500000       0.12500000 </v>
    <v>       0.25000000      -0.37500000       0.12500000 </v>
    <v>       0.37500000      -0.37500000       0.12500000 </v>
    <v>       0.50000000      -0.37500000       0.12500000 </v>
    <v>      -0.37500000      -0.37500000       0.12500000 </v>
    <v>      -0.25000000      -0.37500000       0.12500000 </v>
    <v>      -0.12500000      -0.37500000       0.12500000 </v>
    <v>       0.00000000      -0.25000000       0.12500000 </v>
    <v>       0.12500000      -0.25000000       0.12500000 </v>
    <v>       0.25000000      -0.25000000       0.12500000 </v>
    <v>       0.37500000      -0.25000000       0.12500000 </v>
    <v>       0.50000000      -0.25000000       0.12500000 </v>
    <v>      -0.37500000      -0.25000000       0.12500000 </v>
    <v>      -0.25000000      -0.25000000       0.12500000 </v>
    <v>      -0.12500000      -0.25000000       0.12500000 </v>
    <v>       0.00000000      -0.12500000       0.12500000 </v>
    <v>       0.12500000      -0.12500000       0.12500000 </v>
    <v>       0.25000000      -0.12500000       0.12500000 </v>
    <v>       0.37500000      -0.12500000       0.12500000 </v>
    <v>       0.50000000      -0.12500000       0.12500000 </v>
    <v>       0.00000000       0.25000000       0.25000000 </v>
    <v>       0.12500000       0.25000000       0.25000000 </v>
    <v>       0.25000000       0.25000000       0.25000000 </v>
    <v>       0.37500000       0.25000000       0.25000000 </v>
    <v>       0.50000000       0.25000000       0.25000000 </v>
    <v>      -0.37500000       0.25000000       0.25000000 </v>
    <v>      -0.25000000       0.25000000       0.25000000 </v>
    <v>      -0.12500000       0.25000000       0.25000000 </v>
    <v>       0.00000000       0.37500000       0.25000000 </v>
    <v>       0.12500000       0.37500000       0.25000000 </v>
    <v>       0.25000000       0.37500000       0.25000000 </v>
    <v>       0.37500000       0.37500000       0.25000000 </v>
    <v>       0.50000000       0.37500000       0.25000000 </v>
    <v>      -0.37500000       0.37500000       0.25000000 </v>
    <v>      -0.25000000       0.37500000       0.25000000 </v>
    <v>      -0.12500000       0.37500000       0.25000000 </v>
    <v>       0.00000000       0.50000000       0.25000000 </v>
    <v>       0.12500000       0.50000000       0.25000000 </v>
    <v>       0.25000000       0.50000000       0.25000000 </v>
    <v>       0.37500000       0.50000000       0.25000000 </v>
    <v>       0.50000000       0.50000000       0.25000000 </v>
    <v>      -0.37500000       0.50000000       0.25000000 </v>
    <v>      -0.25000000       0.50000000       0.25000000 </v>
    <v>      -0.12500000       0.50000000       0.25000000 </v>
    <v>       0.00000000      -0.37500000       0.25000000 </v>
    <v>       0.12500000      -0.37500000       0.25000000 </v>
    <v>       0.25000000      -0.37500000       0.25000000 </v>
    <v>       0.37500000      -0.37500000       0.25000000 </v>
    <v>       0.50000000      -0.37500000       0.25000000 </v>
    <v>      -0.37500000      -0.37500000       0.25000000 </v>
    <v>      -0.25000000      -0.37500000       0.25000000 </v>
    <v>      -0.12500000      -0.37500000       0.25000000 </v>
    <v>       0.00000000      -0.25000000       0.25000000 </v>
    <v>       0.12500000      -0.25000000       0.25000000 </v>
    <v>       0.25000000      -0.25000000       0.25000000 </v>
    <v>       0.37500000      -0.25000000       0.25000000 </v>
    <v>       0.50000000      -0.25000000       0.25000000 </v>
    <v>       0.00000000       0.37500000       0.37500000 </v>
    <v>       0.12500000       0.37500000       0.37500000 </v>
    <v>       0.25000000       0.37500000       0.37500000 </v>
    <v>       0.37500000       0.37500000       0.37500000 </v>
    <v>       0.50000000       0.37500000       0.37500000 </v>
    <v>      -0.37500000       0.37500000       0.37500000 </v>
    <v>      -0.25000000       0.37500000       0.37500000 </v>
    <v>      -0.12500000       0.37500000       0.37500000 </v>
    <v>       0.00000000       0.50000000       0.37500000 </v>
    <v>       0.12500000       0.50000000       0.37500000 </v>
    <v>       0.25000000       0.50000000       0.37500000 </v>
    <v>       0.37500000       0.50000000       0.37500000 </v>
    <v>       0.50000000       0.50000000       0.37500000 </v>
    <v>      -0.37500000       0.50000000       0.37500000 </v>
    <v>      -0.25000000       0.50000000       0.37500000 </v>
    <v>      -0.12500000       0.50000000       0.37500000 </v>
    <v>       0.00000000      -0.37500000       0.37500000 </v>
    <v>       0.12500000      -0.37500000       0.37500000 </v>
    <v>       0.25000000      -0.37500000       0.37500000 </v>
    <v>       0.37500000      -0.37500000       0.37500000 </v>
    <v>       0.50000000      -0.37500000       0.37500000 </v>
    <v>       0.00000000       0.50000000       0.50000000 </v>
    <v>       0.12500000       0.50000000       0.50000000 </v>
    <v>       0.25000000       0.50000000       0.50000000 </v>
    <v>       0.37500000       0.50000000       0.50000000 </v>
    <v>       0.50000000       0.50000000       0.50000000 </v>
   </varray>
   <varray name="weights" >
    <v>       0.00195312 </v>
    <v>       0.00390625 </v>
    <v>       0.00390625 </v>
    <v>       0.00390625 </v>
    <v>       0.00195312 </v>
    <v>       0.00781250 </v>
    <v>       0.00781250 </v>
    <v>       0.00781250 </v>
    <v>       0.00781250 </v>
    <v>       0.00781250 </v>
    <v>       0.00781250 </v>
    <v>       0.00781250 </v>
    <v>       0.00781250 </v>
    <v>       0.00781250 </v>
    <v>       0.00781250 </v>
    <v>       0.00781250 </v>
    <v>       0.00781250 </v>
    <v>       0.00781250 </v>
    <v>       0.00781250 </v>
    <v>       0.00781250 </v>
    <v>       0.00781250 </v>
    <v>       0.00781250 </v>
    <v>       0.00781250 </v>
    <v>       0.00781250 </v>
    <v>       0.00781250 </v>
    <v>       0.00781250 </v>
    <v>       0.00781250 </v>
    <v>       0.00781250 </v>
    <v>       0.00781250 </v>
    <v>       0.00390625 </v>
    <v>       0.00781250 </v>
    <v>       0.00781250 </v>
    <v>       0.00781250 </v>
    <v>       0.00390625 </v>
    <v>       0.00390625 </v>
    <v>       0.00390625 </v>
    <v>       0.00390625 </v>
    <v>       0.00390625 </v>
    <v>       0.00390625 </v>
    <v>       0.00390625 </v>
    <v>       0.00390625 </v>
    <v>       0.00390625 </v>
    <v>       0.00781250 </v>
    <v>       0.00781250 </v>
    <v>       0.00781250 </v>
    <v>       0.00781250 </v>
    <v>       0.00781250 </v>
    <v>       0.00781250 </v>
    <v>       0.00781250 </v>
    <v>       0.00781250 </v>
    <v>       0.00781250 </v>
    <v>       0.00781250 </v>
    <v>       0.00781250 </v>
    <v>       0.00781250 </v>
    <v>       0.00781250 </v>
    <v>       0.00781250 </v>
    <v>       0.00781250 </v>
    <v>       0.00781250 </v>
    <v>       0.00781250 </v>
    <v>       0.00781250 </v>
    <v>       0.00781250 </v>
    <v>       0.00781250 </v>
    <v>       0.00781250 </v>
    <v>       0.00781250 </v>
    <v>       0.00781250 </v>
    <v>       0.00781250 </v>
    <v>       0.00781250 </v>
    <v>       0.00781250 </v>
    <v>       0.00781250 </v>
    <v>       0.00781250 </v>
    <v>       0.00781250 </v>
    <v>       0.00781250 </v>
    <v>       0.00781250 </v>
    <v>       0.00781250 </v>
    <v>       0.00781250 </v>
    <v>       0.00781250 </v>
    <v>       0.00781250 </v>
    <v>       0.00781250 </v>
    <v>       0.00781250 </v>
    <v>       0.00781250 </v>
    <v>       0.00781250 </v>
    <v>       0.00781250 </v>
    <v>       0.00390625 </v>
    <v>       0.00781250 </v>
    <v>       0.00781250 </v>
    <v>       0.00781250 </v>
    <v>       0.00390625 </v>
    <v>       0.00390625 </v>
    <v>       0.00390625 </v>
    <v>       0.00390625 </v>
    <v>       0.00390625 </v>
    <v>       0.00390625 </v>
    <v>       0.00390625 </v>
    <v>       0.00390625 </v>
    <v>       0.00390625 </v>
    <v>       0.00781250 </v>
    <v>       0.00781250 </v>
    <v>       0.00781250 </v>
    <v>       0.00781250 </v>
    <v>       0.00781250 </v>
    <v>       0.00781250 </v>
    <v>       0.00781250 </v>
    <v>       0.00781250 </v>
    <v>       0.00781250 </v>
    <v>       0.00781250 </v>
    <v>       0.00781250 </v>
    <v>       0.00781250 </v>
    <v>       0.00781250 </v>
    <v>       0.00781250 </v>
    <v>       0.00781250 </v>
    <v>       0.00781250 </v>
    <v>       0.00781250 </v>
    <v>       0.00781250 </v>
    <v>       0.00781250 </v>
    <v>       0.00781250 </v>
    <v>       0.00781250 </v>
    <v>       0.00781250 </v>
    <v>       0.00781250 </v>
    <v>       0.00781250 </v>
    <v>       0.00390625 </v>
    <v>       0.00781250 </v>
    <v>       0.00781250 </v>
    <v>       0.00781250 </v>
    <v>       0.00390625 </v>
    <v>       0.00390625 </v>
    <v>       0.00390625 </v>
    <v>       0.00390625 </v>
    <v>       0.00390625 </v>
    <v>       0.00390625 </v>
    <v>       0.00390625 </v>
    <v>       0.00390625 </v>
    <v>       0.00390625 </v>
    <v>       0.00781250 </v>
    <v>       0.00781250 </v>
    <v>       0.00781250 </v>
    <v>       0.00781250 </v>
    <v>       0.00781250 </v>
    <v>       0.00781250 </v>
    <v>       0.00781250 </v>
    <v>       0.00781250 </v>
    <v>       0.00390625 </v>
    <v>       0.00781250 </v>
    <v>       0.00781250 </v>
    <v>       0.00781250 </v>
    <v>       0.00390625 </v>
    <v>       0.00195312 </v>
    <v>       0.00390625 </v>
    <v>       0.00390625 </v>
    <v>       0.00390625 </v>
    <v>       0.00195312 </v>
   </varray>
  </kpoints>
  <scstep>
   <time name="total">    7.74    7.74</time>
   <energy>
    <i name="e_fr_energy">     -1.50884299 </i>
    <i name="e_wo_entrp">     -1.50884299 </i>
    <i name="e_0_energy">     -1.50884299 </i>
   </energy>
  </scstep>
  <scstep>
   <time name="total">    7.61    7.61</time>
   <energy>
    <i name="e_fr_energy">     -1.56999940 </i>
    <i name="e_wo_entrp">     -1.56999940 </i>
    <i name="e_0_energy">     -1.56999940 </i>
   </energy>
  </scstep>
  <scstep>
   <time name="total">    8.78    8.78</time>
   <energy>
    <i name="e_fr_energy">     -1.44532332 </i>
    <i name="e_wo_entrp">     -1.44532332 </i>
    <i name="e_0_energy">     -1.44532332 </i>
   </energy>
  </scstep>
  <scstep>
   <time name="total">   10.10   10.10</time>
   <energy>
    <i name="e_fr_energy">     -1.49378203 </i>
    <i name="e_wo_entrp">     -1.49378203 </i>
    <i name="e_0_energy">     -1.49378203 </i>
   </energy>
  </scstep>
  <scstep>
   <time name="total">    9.65    9.66</time>
   <energy>
    <i name="e_fr_energy">     -1.53694961 </i>
    <i name="e_wo_entrp">     -1.53694961 </i>
    <i name="e_0_energy">     -1.53694961 </i>
   </energy>
  </scstep>
  <scstep>
   <time name="total">   10.76   10.77</time>
   <energy>
    <i name="e_fr_energy">     -1.54116795 </i>
    <i name="e_wo_entrp">     -1.54116795 </i>
    <i name="e_0_energy">     -1.54116795 </i>
   </energy>
  </scstep>
  <scstep>
   <time name="total">   10.54   10.54</time>
   <energy>
    <i name="e_fr_energy">     -1.54406571 </i>
    <i name="e_wo_entrp">     -1.54406571 </i>
    <i name="e_0_energy">     -1.54406571 </i>
   </energy>
  </scstep>
  <scstep>
   <time name="total">   10.43   10.43</time>
   <energy>
    <i name="e_fr_energy">     -1.54373828 </i>
    <i name="e_wo_entrp">     -1.54373828 </i>
    <i name="e_0_energy">     -1.54373828 </i>
   </energy>
  </scstep>
  <scstep>
   <time name="total">   10.42   10.43</time>
   <energy>
    <i name="e_fr_energy">     -1.54388899 </i>
    <i name="e_wo_entrp">     -1.54388899 </i>
    <i name="e_0_energy">     -1.54388899 </i>
   </energy>
  </scstep>
  <scstep>
   <time name="total">   10.33   10.33</time>
   <energy>
    <i name="e_fr_energy">     -1.54394841 </i>
    <i name="e_wo_entrp">     -1.54394841 </i>
    <i name="e_0_energy">     -1.54394841 </i>
   </energy>
  </scstep>
  <scstep>
   <time name="total">   11.14   11.14</time>
   <energy>
    <i name="e_fr_energy">     -1.54397628 </i>
    <i name="e_wo_entrp">     -1.54397628 </i>
    <i name="e_0_energy">     -1.54397628 </i>
   </energy>
  </scstep>
  <scstep>
   <time name="total">   10.78   10.78</time>
   <energy>
    <i name="e_fr_energy">     -1.54397833 </i>
    <i name="e_wo_entrp">     -1.54397833 </i>
    <i name="e_0_energy">     -1.54397833 </i>
   </energy>
  </scstep>
  <scstep>
   <time name="total">   11.68   11.68</time>
   <energy>
    <i name="e_fr_energy">     -1.54397873 </i>
    <i name="e_wo_entrp">     -1.54397873 </i>
    <i name="e_0_energy">     -1.54397873 </i>
   </energy>
  </scstep>
  <scstep>
   <time name="total">   11.17   11.17</time>
   <energy>
    <i name="e_fr_energy">     -1.54397903 </i>
    <i name="e_wo_entrp">     -1.54397903 </i>
    <i name="e_0_energy">     -1.54397903 </i>
   </energy>
  </scstep>
  <scstep>
   <time name="total">   11.59   11.59</time>
   <energy>
    <i name="e_fr_energy">     -1.54397799 </i>
    <i name="e_wo_entrp">     -1.54397799 </i>
    <i name="e_0_energy">     -1.54397799 </i>
   </energy>
  </scstep>
  <scstep>
   <time name="total">   10.22   10.22</time>
   <energy>
    <i name="e_fr_energy">     -1.54397783 </i>
    <i name="e_wo_entrp">     -1.54397783 </i>
    <i name="e_0_energy">     -1.54397783 </i>
   </energy>
  </scstep>
  <kpoints>
   <generation param="Gamma">
    <v type="int" name="divisions">       8        8        8 </v>
    <v name="usershift">      0.00000000       0.00000000       0.00000000 </v>
    <v name="genvec1">      0.12500000       0.00000000       0.00000000 </v>
    <v name="genvec2">      0.00000000       0.12500000       0.00000000 </v>
    <v name="genvec3">      0.00000000       0.00000000       0.12500000 </v>
    <v name="shift">      0.00000000       0.00000000       0.00000000 </v>
   </generation>
   <varray name="kpointlist" >
    <v>       0.00000000       0.00000000       0.00000000 </v>
    <v>       0.12500000       0.00000000       0.00000000 </v>
    <v>       0.25000000       0.00000000       0.00000000 </v>
    <v>       0.37500000       0.00000000       0.00000000 </v>
    <v>       0.50000000       0.00000000       0.00000000 </v>
    <v>       0.00000000       0.12500000       0.00000000 </v>
    <v>       0.12500000       0.12500000       0.00000000 </v>
    <v>       0.25000000       0.12500000       0.00000000 </v>
    <v>       0.37500000       0.12500000       0.00000000 </v>
    <v>       0.50000000       0.12500000       0.00000000 </v>
    <v>      -0.37500000       0.12500000       0.00000000 </v>
    <v>      -0.25000000       0.12500000       0.00000000 </v>
    <v>      -0.12500000       0.12500000       0.00000000 </v>
    <v>       0.00000000       0.25000000       0.00000000 </v>
    <v>       0.12500000       0.25000000       0.00000000 </v>
    <v>       0.25000000       0.25000000       0.00000000 </v>
    <v>       0.37500000       0.25000000       0.00000000 </v>
    <v>       0.50000000       0.25000000       0.00000000 </v>
    <v>      -0.37500000       0.25000000       0.00000000 </v>
    <v>      -0.25000000       0.25000000       0.00000000 </v>
    <v>      -0.12500000       0.25000000       0.00000000 </v>
    <v>       0.00000000       0.37500000       0.00000000 </v>
    <v>       0.12500000       0.37500000       0.00000000 </v>
    <v>       0.25000000       0.37500000       0.00000000 </v>
    <v>       0.37500000       0.37500000       0.00000000 </v>
    <v>       0.50000000       0.37500000       0.00000000 </v>
    <v>      -0.37500000       0.37500000       0.00000000 </v>
    <v>      -0.25000000       0.37500000       0.00000000 </v>
    <v>      -0.12500000       0.37500000       0.00000000 </v>
    <v>       0.00000000       0.50000000       0.00000000 </v>
    <v>       0.12500000       0.50000000       0.00000000 </v>
    <v>       0.25000000       0.50000000       0.00000000 </v>
    <v>       0.37500000       0.50000000       0.00000000 </v>
    <v>       0.50000000       0.50000000       0.00000000 </v>
    <v>       0.12500000       0.00000000       0.12500000 </v>
    <v>       0.25000000       0.00000000       0.12500000 </v>
    <v>       0.37500000       0.00000000       0.12500000 </v>
    <v>       0.50000000       0.00000000       0.12500000 </v>
    <v>      -0.37500000       0.00000000       0.12500000 </v>
    <v>      -0.25000000       0.00000000       0.12500000 </v>
    <v>      -0.12500000       0.00000000       0.12500000 </v>
    <v>       0.12500000       0.12500000       0.12500000 </v>
    <v>       0.25000000       0.12500000       0.12500000 </v>
    <v>       0.37500000       0.12500000       0.12500000 </v>
    <v>       0.50000000       0.12500000       0.12500000 </v>
    <v>      -0.37500000       0.12500000       0.12500000 </v>
    <v>      -0.25000000       0.12500000       0.12500000 </v>
    <v>      -0.12500000       0.12500000       0.12500000 </v>
    <v>       0.12500000       0.25000000       0.12500000 </v>
    <v>       0.25000000       0.25000000       0.12500000 </v>
    <v>       0.37500000       0.25000000       0.12500000 </v>
    <v>       0.50000000       0.25000000       0.12500000 </v>
    <v>      -0.37500000       0.25000000       0.12500000 </v>
    <v>      -0.25000000       0.25000000       0.12500000 </v>
    <v>      -0.12500000       0.25000000       0.12500000 </v>
    <v>       0.12500000       0.37500000       0.12500000 </v>
    <v>       0.25000000       0.37500000       0.12500000 </v>
    <v>       0.37500000       0.37500000       0.12500000 </v>
    <v>       0.50000000       0.37500000       0.12500000 </v>
    <v>      -0.37500000       0.37500000       0.12500000 </v>
    <v>      -0.25000000       0.37500000       0.12500000 </v>
    <v>      -0.12500000       0.37500000       0.12500000 </v>
    <v>       0.12500000       0.50000000       0.12500000 </v>
    <v>       0.25000000       0.50000000       0.12500000 </v>
    <v>       0.37500000       0.50000000       0.12500000 </v>
    <v>       0.50000000       0.50000000       0.12500000 </v>
    <v>      -0.37500000       0.50000000       0.12500000 </v>
    <v>      -0.25000000       0.50000000       0.12500000 </v>
    <v>      -0.12500000       0.50000000       0.12500000 </v>
    <v>       0.12500000      -0.37500000       0.12500000 </v>
    <v>       0.25000000      -0.37500000       0.12500000 </v>
    <v>       0.37500000      -0.37500000       0.12500000 </v>
    <v>       0.50000000      -0.37500000       0.12500000 </v>
    <v>      -0.37500000      -0.37500000       0.12500000 </v>
    <v>      -0.25000000      -0.37500000       0.12500000 </v>
    <v>       0.12500000      -0.25000000       0.12500000 </v>
    <v>       0.25000000      -0.25000000       0.12500000 </v>
    <v>       0.37500000      -0.25000000       0.12500000 </v>
    <v>       0.50000000      -0.25000000       0.12500000 </v>
    <v>      -0.37500000      -0.25000000       0.12500000 </v>
    <v>      -0.25000000      -0.25000000       0.12500000 </v>
    <v>       0.12500000      -0.12500000       0.12500000 </v>
    <v>       0.25000000      -0.12500000       0.12500000 </v>
    <v>       0.37500000      -0.12500000       0.12500000 </v>
    <v>       0.50000000      -0.12500000       0.12500000 </v>
    <v>      -0.37500000      -0.12500000       0.12500000 </v>
    <v>      -0.25000000      -0.12500000       0.12500000 </v>
    <v>       0.25000000       0.00000000       0.25000000 </v>
    <v>       0.37500000       0.00000000       0.25000000 </v>
    <v>       0.50000000       0.00000000       0.25000000 </v>
    <v>      -0.37500000       0.00000000       0.25000000 </v>
    <v>      -0.25000000       0.00000000       0.25000000 </v>
    <v>       0.25000000       0.12500000       0.25000000 </v>
    <v>       0.37500000       0.12500000       0.25000000 </v>
    <v>       0.50000000       0.12500000       0.25000000 </v>
    <v>      -0.37500000       0.12500000       0.25000000 </v>
    <v>      -0.25000000       0.12500000       0.25000000 </v>
    <v>       0.25000000       0.25000000       0.25000000 </v>
    <v>       0.37500000       0.25000000       0.25000000 </v>
    <v>       0.50000000       0.25000000       0.25000000 </v>
    <v>      -0.37500000       0.25000000       0.25000000 </v>
    <v>      -0.25000000       0.25000000       0.25000000 </v>
    <v>       0.25000000       0.37500000       0.25000000 </v>
    <v>       0.37500000       0.37500000       0.25000000 </v>
    <v>       0.50000000       0.37500000       0.25000000 </v>
    <v>      -0.37500000       0.37500000       0.25000000 </v>
    <v>      -0.25000000       0.37500000       0.25000000 </v>
    <v>       0.25000000       0.50000000       0.25000000 </v>
    <v>       0.37500000       0.50000000       0.25000000 </v>
    <v>       0.50000000       0.50000000       0.25000000 </v>
    <v>      -0.37500000       0.50000000       0.25000000 </v>
    <v>      -0.25000000       0.50000000       0.25000000 </v>
    <v>       0.25000000      -0.37500000       0.25000000 </v>
    <v>       0.37500000      -0.37500000       0.25000000 </v>
    <v>       0.50000000      -0.37500000       0.25000000 </v>
    <v>      -0.37500000      -0.37500000       0.25000000 </v>
    <v>       0.25000000      -0.25000000       0.25000000 </v>
    <v>       0.37500000      -0.25000000       0.25000000 </v>
    <v>       0.50000000      -0.25000000       0.25000000 </v>
    <v>      -0.37500000      -0.25000000       0.25000000 </v>
    <v>       0.25000000      -0.12500000       0.25000000 </v>
    <v>       0.37500000      -0.12500000       0.25000000 </v>
    <v>       0.50000000      -0.12500000       0.25000000 </v>
    <v>      -0.37500000      -0.12500000       0.25000000 </v>
    <v>       0.37500000       0.00000000       0.37500000 </v>
    <v>       0.50000000       0.00000000       0.37500000 </v>
    <v>      -0.37500000       0.00000000       0.37500000 </v>
    <v>       0.37500000       0.12500000       0.37500000 </v>
    <v>       0.50000000       0.12500000       0.37500000 </v>
    <v>      -0.37500000       0.12500000       0.37500000 </v>
    <v>       0.37500000       0.25000000       0.37500000 </v>
    <v>       0.50000000       0.25000000       0.37500000 </v>
    <v>      -0.37500000       0.25000000       0.37500000 </v>
    <v>       0.37500000       0.37500000       0.37500000 </v>
    <v>       0.50000000       0.37500000       0.37500000 </v>
    <v>      -0.37500000       0.37500000       0.37500000 </v>
    <v>       0.37500000       0.50000000       0.37500000 </v>
    <v>       0.50000000       0.50000000       0.37500000 </v>
    <v>      -0.37500000       0.50000000       0.37500000 </v>
    <v>       0.37500000      -0.37500000       0.37500000 </v>
    <v>       0.50000000      -0.37500000       0.37500000 </v>
    <v>       0.37500000      -0.25000000       0.37500000 </v>
    <v>       0.50000000      -0.25000000       0.37500000 </v>
    <v>       0.37500000      -0.12500000       0.37500000 </v>
    <v>       0.50000000      -0.12500000       0.37500000 </v>
    <v>       0.50000000       0.00000000       0.50000000 </v>
    <v>       0.50000000       0.12500000       0.50000000 </v>
    <v>       0.50000000       0.25000000       0.50000000 </v>
    <v>       0.50000000       0.37500000       0.50000000 </v>
    <v>       0.50000000       0.50000000       0.50000000 </v>
   </varray>
   <varray name="weights" >
    <v>       0.00195312 </v>
    <v>       0.00781250 </v>
    <v>       0.00781250 </v>
    <v>       0.00781250 </v>
    <v>       0.00390625 </v>
    <v>       0.00390625 </v>
    <v>       0.00781250 </v>
    <v>       0.00781250 </v>
    <v>       0.00781250 </v>
    <v>       0.00781250 </v>
    <v>       0.00781250 </v>
    <v>       0.00781250 </v>
    <v>       0.00781250 </v>
    <v>       0.00390625 </v>
    <v>       0.00781250 </v>
    <v>       0.00781250 </v>
    <v>       0.00781250 </v>
    <v>       0.00781250 </v>
    <v>       0.00781250 </v>
    <v>       0.00781250 </v>
    <v>       0.00781250 </v>
    <v>       0.00390625 </v>
    <v>       0.00781250 </v>
    <v>       0.00781250 </v>
    <v>       0.00781250 </v>
    <v>       0.00781250 </v>
    <v>       0.00781250 </v>
    <v>       0.00781250 </v>
    <v>       0.00781250 </v>
    <v>       0.00195312 </v>
    <v>       0.00781250 </v>
    <v>       0.00781250 </v>
    <v>       0.00781250 </v>
    <v>       0.00390625 </v>
    <v>       0.00390625 </v>
    <v>       0.00781250 </v>
    <v>       0.00781250 </v>
    <v>       0.00781250 </v>
    <v>       0.00781250 </v>
    <v>       0.00781250 </v>
    <v>       0.00390625 </v>
    <v>       0.00390625 </v>
    <v>       0.00781250 </v>
    <v>       0.00781250 </v>
    <v>       0.00781250 </v>
    <v>       0.00781250 </v>
    <v>       0.00781250 </v>
    <v>       0.00781250 </v>
    <v>       0.00390625 </v>
    <v>       0.00781250 </v>
    <v>       0.00781250 </v>
    <v>       0.00781250 </v>
    <v>       0.00781250 </v>
    <v>       0.00781250 </v>
    <v>       0.00781250 </v>
    <v>       0.00390625 </v>
    <v>       0.00781250 </v>
    <v>       0.00781250 </v>
    <v>       0.00781250 </v>
    <v>       0.00781250 </v>
    <v>       0.00781250 </v>
    <v>       0.00781250 </v>
    <v>       0.00390625 </v>
    <v>       0.00781250 </v>
    <v>       0.00781250 </v>
    <v>       0.00781250 </v>
    <v>       0.00781250 </v>
    <v>       0.00781250 </v>
    <v>       0.00390625 </v>
    <v>       0.00390625 </v>
    <v>       0.00781250 </v>
    <v>       0.00781250 </v>
    <v>       0.00781250 </v>
    <v>       0.00781250 </v>
    <v>       0.00781250 </v>
    <v>       0.00390625 </v>
    <v>       0.00781250 </v>
    <v>       0.00781250 </v>
    <v>       0.00781250 </v>
    <v>       0.00781250 </v>
    <v>       0.00781250 </v>
    <v>       0.00390625 </v>
    <v>       0.00781250 </v>
    <v>       0.00781250 </v>
    <v>       0.00781250 </v>
    <v>       0.00781250 </v>
    <v>       0.00781250 </v>
    <v>       0.00390625 </v>
    <v>       0.00781250 </v>
    <v>       0.00781250 </v>
    <v>       0.00781250 </v>
    <v>       0.00390625 </v>
    <v>       0.00390625 </v>
    <v>       0.00781250 </v>
    <v>       0.00781250 </v>
    <v>       0.00781250 </v>
    <v>       0.00781250 </v>
    <v>       0.00390625 </v>
    <v>       0.00781250 </v>
    <v>       0.00781250 </v>
    <v>       0.00781250 </v>
    <v>       0.00781250 </v>
    <v>       0.00390625 </v>
    <v>       0.00781250 </v>
    <v>       0.00781250 </v>
    <v>       0.00781250 </v>
    <v>       0.00781250 </v>
    <v>       0.00390625 </v>
    <v>       0.00781250 </v>
    <v>       0.00781250 </v>
    <v>       0.00781250 </v>
    <v>       0.00390625 </v>
    <v>       0.00390625 </v>
    <v>       0.00781250 </v>
    <v>       0.00781250 </v>
    <v>       0.00781250 </v>
    <v>       0.00390625 </v>
    <v>       0.00781250 </v>
    <v>       0.00781250 </v>
    <v>       0.00781250 </v>
    <v>       0.00390625 </v>
    <v>       0.00781250 </v>
    <v>       0.00781250 </v>
    <v>       0.00781250 </v>
    <v>       0.00390625 </v>
    <v>       0.00781250 </v>
    <v>       0.00390625 </v>
    <v>       0.00390625 </v>
    <v>       0.00781250 </v>
    <v>       0.00781250 </v>
    <v>       0.00390625 </v>
    <v>       0.00781250 </v>
    <v>       0.00781250 </v>
    <v>       0.00390625 </v>
    <v>       0.00781250 </v>
    <v>       0.00781250 </v>
    <v>       0.00390625 </v>
    <v>       0.00781250 </v>
    <v>       0.00390625 </v>
    <v>       0.00390625 </v>
    <v>       0.00781250 </v>
    <v>       0.00390625 </v>
    <v>       0.00781250 </v>
    <v>       0.00390625 </v>
    <v>       0.00781250 </v>
    <v>       0.00195312 </v>
    <v>       0.00390625 </v>
    <v>       0.00390625 </v>
    <v>       0.00390625 </v>
    <v>       0.00195312 </v>
   </varray>
  </kpoints>
  <scstep>
   <time name="total">    8.09    8.09</time>
   <energy>
    <i name="e_fr_energy">     -1.50884599 </i>
    <i name="e_wo_entrp">     -1.50884599 </i>
    <i name="e_0_energy">     -1.50884599 </i>
   </energy>
  </scstep>
  <scstep>
   <time name="total">    7.90    7.90</time>
   <energy>
    <i name="e_fr_energy">     -1.56999877 </i>
    <i name="e_wo_entrp">     -1.56999877 </i>
    <i name="e_0_energy">     -1.56999877 </i>
   </energy>
  </scstep>
  <scstep>
   <time name="total">    9.10    9.10</time>
   <energy>
    <i name="e_fr_energy">     -1.44532959 </i>
    <i name="e_wo_entrp">     -1.44532959 </i>
    <i name="e_0_energy">     -1.44532959 </i>
   </energy>
  </scstep>
  <scstep>
   <time name="total">   10.27   10.27</time>
   <energy>
    <i name="e_fr_energy">     -1.49379153 </i>
    <i name="e_wo_entrp">     -1.49379153 </i>
    <i name="e_0_energy">     -1.49379153 </i>
   </energy>
  </scstep>
  <scstep>
   <time name="total">    9.59    9.59</time>
   <energy>
    <i name="e_fr_energy">     -1.53696230 </i>
    <i name="e_wo_entrp">     -1.53696230 </i>
    <i name="e_0_energy">     -1.53696230 </i>
   </energy>
  </scstep>
  <scstep>
   <time name="total">   10.90   10.91</time>
   <energy>
    <i name="e_fr_energy">     -1.54115676 </i>
    <i name="e_wo_entrp">     -1.54115676 </i>
    <i name="e_0_energy">     -1.54115676 </i>
   </energy>
  </scstep>
  <scstep>
   <time name="total">   10.63   10.63</time>
   <energy>
    <i name="e_fr_energy">     -1.54406384 </i>
    <i name="e_wo_entrp">     -1.54406384 </i>
    <i name="e_0_energy">     -1.54406384 </i>
   </energy>
  </scstep>
  <scstep>
   <time name="total">   10.28   10.28</time>
   <energy>
    <i name="e_fr_energy">     -1.54373728 </i>
    <i name="e_wo_entrp">     -1.54373728 </i>
    <i name="e_0_energy">     -1.54373728 </i>
   </energy>
  </scstep>
  <scstep>
   <time name="total">   10.52   10.53</time>
   <energy>
    <i name="e_fr_energy">     -1.54388912 </i>
    <i name="e_wo_entrp">     -1.54388912 </i>
    <i name="e_0_energy">     -1.54388912 </i>
   </energy>
  </scstep>
  <scstep>
   <time name="total">   10.39   10.39</time>
   <energy>
    <i name="e_fr_energy">     -1.54394834 </i>
    <i name="e_wo_entrp">     -1.54394834 </i>
    <i name="e_0_energy">     -1.54394834 </i>
   </energy>
  </scstep>
  <scstep>
   <time name="total">   11.13   11.13</time>
   <energy>
    <i name="e_fr_energy">     -1.54397599 </i>
    <i name="e_wo_entrp">     -1.54397599 </i>
    <i name="e_0_energy">     -1.54397599 </i>
   </energy>
  </scstep>
  <scstep>
   <time name="total">   10.86   10.87</time>
   <energy>
    <i name="e_fr_energy">     -1.54397839 </i>
    <i name="e_wo_entrp">     -1.54397839 </i>
    <i name="e_0_energy">     -1.54397839 </i>
   </energy>
  </scstep>
  <scstep>
   <time name="total">   11.64   11.64</time>
   <energy>
    <i name="e_fr_energy">     -1.54397872 </i>
    <i name="e_wo_entrp">     -1.54397872 </i>
    <i name="e_0_energy">     -1.54397872 </i>
   </energy>
  </scstep>
  <scstep>
   <time name="total">   11.28   11.28</time>
   <energy>
    <i name="e_fr_energy">     -1.54397907 </i>
    <i name="e_wo_entrp">     -1.54397907 </i>
    <i name="e_0_energy">     -1.54397907 </i>
   </energy>
  </scstep>
  <scstep>
   <time name="total">   11.59   11.59</time>
   <energy>
    <i name="e_fr_energy">     -1.54397801 </i>
    <i name="e_wo_entrp">     -1.54397801 </i>
    <i name="e_0_energy">     -1.54397801 </i>
   </energy>
  </scstep>
  <scstep>
   <time name="total">   10.35   10.36</time>
   <energy>
    <i name="e_fr_energy">     -1.54397783 </i>
    <i name="e_wo_entrp">     -1.54397783 </i>
    <i name="e_0_energy">     -1.54397783 </i>
   </energy>
  </scstep>
  <kpoints>
   <generation param="Gamma">
    <v type="int" name="divisions">       8        8        8 </v>
    <v name="usershift">      0.00000000       0.00000000       0.00000000 </v>
    <v name="genvec1">      0.12500000       0.00000000       0.00000000 </v>
    <v name="genvec2">      0.00000000       0.12500000       0.00000000 </v>
    <v name="genvec3">      0.00000000       0.00000000       0.12500000 </v>
    <v name="shift">      0.00000000       0.00000000       0.00000000 </v>
   </generation>
   <varray name="kpointlist" >
    <v>       0.00000000       0.00000000       0.00000000 </v>
    <v>       0.12500000       0.00000000       0.00000000 </v>
    <v>       0.25000000       0.00000000       0.00000000 </v>
    <v>       0.37500000       0.00000000       0.00000000 </v>
    <v>       0.50000000       0.00000000       0.00000000 </v>
    <v>       0.12500000       0.12500000       0.00000000 </v>
    <v>       0.25000000       0.12500000       0.00000000 </v>
    <v>       0.37500000       0.12500000       0.00000000 </v>
    <v>       0.50000000       0.12500000       0.00000000 </v>
    <v>      -0.37500000       0.12500000       0.00000000 </v>
    <v>      -0.25000000       0.12500000       0.00000000 </v>
    <v>      -0.12500000       0.12500000       0.00000000 </v>
    <v>       0.25000000       0.25000000       0.00000000 </v>
    <v>       0.37500000       0.25000000       0.00000000 </v>
    <v>       0.50000000       0.25000000       0.00000000 </v>
    <v>      -0.37500000       0.25000000       0.00000000 </v>
    <v>      -0.25000000       0.25000000       0.00000000 </v>
    <v>       0.37500000       0.37500000       0.00000000 </v>
    <v>       0.50000000       0.37500000       0.00000000 </v>
    <v>      -0.37500000       0.37500000       0.00000000 </v>
    <v>       0.50000000       0.50000000       0.00000000 </v>
    <v>       0.00000000       0.00000000       0.12500000 </v>
    <v>       0.12500000       0.00000000       0.12500000 </v>
    <v>       0.25000000       0.00000000       0.12500000 </v>
    <v>       0.37500000       0.00000000       0.12500000 </v>
    <v>       0.50000000       0.00000000       0.12500000 </v>
    <v>      -0.37500000       0.00000000       0.12500000 </v>
    <v>      -0.25000000       0.00000000       0.12500000 </v>
    <v>      -0.12500000       0.00000000       0.12500000 </v>
    <v>       0.12500000       0.12500000       0.12500000 </v>
    <v>       0.25000000       0.12500000       0.12500000 </v>
    <v>       0.37500000       0.12500000       0.12500000 </v>
    <v>       0.50000000       0.12500000       0.12500000 </v>
    <v>      -0.37500000       0.12500000       0.12500000 </v>
    <v>      -0.25000000       0.12500000       0.12500000 </v>
    <v>      -0.12500000       0.12500000       0.12500000 </v>
    <v>       0.25000000       0.25000000       0.12500000 </v>
    <v>       0.37500000       0.25000000       0.12500000 </v>
    <v>       0.50000000       0.25000000       0.12500000 </v>
    <v>      -0.37500000       0.25000000       0.12500000 </v>
    <v>      -0.25000000       0.25000000       0.12500000 </v>
    <v>      -0.12500000       0.25000000       0.12500000 </v>
    <v>       0.37500000       0.37500000       0.12500000 </v>
    <v>       0.50000000       0.37500000       0.12500000 </v>
    <v>      -0.37500000       0.37500000       0.12500000 </v>
    <v>      -0.25000000       0.37500000       0.12500000 </v>
    <v>      -0.12500000       0.37500000       0.12500000 </v>
    <v>       0.50000000       0.50000000       0.12500000 </v>
    <v>      -0.37500000       0.50000000       0.12500000 </v>
    <v>      -0.25000000       0.50000000       0.12500000 </v>
    <v>      -0.12500000       0.50000000       0.12500000 </v>
    <v>      -0.37500000      -0.37500000       0.12500000 </v>
    <v>      -0.25000000      -0.37500000       0.12500000 </v>
    <v>      -0.12500000      -0.37500000       0.12500000 </v>
    <v>      -0.25000000      -0.25000000       0.12500000 </v>
    <v>      -0.12500000      -0.25000000       0.12500000 </v>
    <v>      -0.12500000      -0.12500000       0.12500000 </v>
    <v>       0.00000000       0.00000000       0.25000000 </v>
    <v>       0.12500000       0.00000000       0.25000000 </v>
    <v>       0.25000000       0.00000000       0.25000000 </v>
    <v>       0.37500000       0.00000000       0.25000000 </v>
    <v>       0.50000000       0.00000000       0.25000000 </v>
    <v>      -0.37500000       0.00000000       0.25000000 </v>
    <v>      -0.25000000       0.00000000       0.25000000 </v>
    <v>      -0.12500000       0.00000000       0.25000000 </v>
    <v>       0.12500000       0.12500000       0.25000000 </v>
    <v>       0.25000000       0.12500000       0.25000000 </v>
    <v>       0.37500000       0.12500000       0.25000000 </v>
    <v>       0.50000000       0.12500000       0.25000000 </v>
    <v>      -0.37500000       0.12500000       0.25000000 </v>
    <v>      -0.25000000       0.12500000       0.25000000 </v>
    <v>      -0.12500000       0.12500000       0.25000000 </v>
    <v>       0.25000000       0.25000000       0.25000000 </v>
    <v>       0.37500000       0.25000000       0.25000000 </v>
[...]
       <r>    7.3410    0.0000 </r>
       <r>    8.0095    0.0000 </r>
       <r>    8.0095    0.0000 </r>
       <r>    9.1431    0.0000 </r>
      </set>
      <set comment="kpoint 63">
       <r>  -19.8117    1.0000 </r>
       <r>  -15.1474    1.0000 </r>
       <r>  -15.1321    1.0000 </r>
       <r>  -15.0824    1.0000 </r>
       <r>  -15.0822    1.0000 </r>
       <r>  -15.0822    1.0000 </r>
       <r>  -13.0596    1.0000 </r>
       <r>  -13.0596    1.0000 </r>
       <r>  -13.0432    1.0000 </r>
       <r>   -7.2613    1.0000 </r>
       <r>   -6.6472    1.0000 </r>
       <r>   -6.6472    1.0000 </r>
       <r>   -6.6407    1.0000 </r>
       <r>   -1.5592    1.0000 </r>
       <r>   -1.5089    1.0000 </r>
       <r>   -1.5089    1.0000 </r>
       <r>   -1.3622    1.0000 </r>
       <r>   -1.1386    1.0000 </r>
       <r>   -0.6434    1.0000 </r>
       <r>   -0.6434    1.0000 </r>
       <r>   -0.5866    1.0000 </r>
       <r>    1.0955    1.0000 </r>
       <r>    3.5394    0.0000 </r>
       <r>    3.5394    0.0000 </r>
       <r>    3.9848    0.0000 </r>
       <r>    6.7487    0.0000 </r>
       <r>    7.1640    0.0000 </r>
       <r>    7.1809    0.0000 </r>
       <r>    7.1809    0.0000 </r>
       <r>    8.0801    0.0000 </r>
       <r>    8.3277    0.0000 </r>
       <r>    9.4164    0.0000 </r>
      </set>
      <set comment="kpoint 64">
       <r>  -19.8119    1.0000 </r>
       <r>  -15.1548    1.0000 </r>
       <r>  -15.1399    1.0000 </r>
       <r>  -15.0823    1.0000 </r>
       <r>  -15.0822    1.0000 </r>
       <r>  -15.0821    1.0000 </r>
       <r>  -13.0838    1.0000 </r>
       <r>  -13.0601    1.0000 </r>
       <r>  -13.0035    1.0000 </r>
       <r>   -7.1856    1.0000 </r>
       <r>   -6.6431    1.0000 </r>
       <r>   -6.6423    1.0000 </r>
       <r>   -6.6324    1.0000 </r>
       <r>   -1.5680    1.0000 </r>
       <r>   -1.5048    1.0000 </r>
       <r>   -1.5024    1.0000 </r>
       <r>   -1.4586    1.0000 </r>
       <r>   -1.2489    1.0000 </r>
       <r>   -0.6743    1.0000 </r>
       <r>   -0.6676    1.0000 </r>
       <r>   -0.6192    1.0000 </r>
       <r>    0.8419    1.0000 </r>
       <r>    3.6146    0.0000 </r>
       <r>    3.9868    0.0000 </r>
       <r>    4.1150    0.0000 </r>
       <r>    6.7792    0.0000 </r>
       <r>    7.1694    0.0000 </r>
       <r>    7.2659    0.0000 </r>
       <r>    7.2744    0.0000 </r>
       <r>    7.9740    0.0000 </r>
       <r>    8.2369    0.0000 </r>
       <r>    9.2654    0.0000 </r>
      </set>
      <set comment="kpoint 65">
       <r>  -19.8116    1.0000 </r>
       <r>  -15.1321    1.0000 </r>
       <r>  -15.1321    1.0000 </r>
       <r>  -15.0824    1.0000 </r>
       <r>  -15.0824    1.0000 </r>
       <r>  -15.0824    1.0000 </r>
       <r>  -13.0589    1.0000 </r>
       <r>  -13.0589    1.0000 </r>
       <r>  -13.0589    1.0000 </r>
       <r>   -7.3371    1.0000 </r>
       <r>   -6.6514    1.0000 </r>
       <r>   -6.6514    1.0000 </r>
       <r>   -6.6514    1.0000 </r>
       <r>   -1.5302    1.0000 </r>
       <r>   -1.5302    1.0000 </r>
       <r>   -1.5302    1.0000 </r>
       <r>   -1.1379    1.0000 </r>
       <r>   -1.1379    1.0000 </r>
       <r>   -0.5852    1.0000 </r>
       <r>   -0.5852    1.0000 </r>
       <r>   -0.5852    1.0000 </r>
       <r>    1.3514    1.0000 </r>
       <r>    3.4617    0.0000 </r>
       <r>    3.4617    0.0000 </r>
       <r>    3.4617    0.0000 </r>
       <r>    6.6592    0.0000 </r>
       <r>    7.1197    0.0000 </r>
       <r>    7.1197    0.0000 </r>
       <r>    7.1197    0.0000 </r>
       <r>    8.2832    0.0000 </r>
       <r>    8.2832    0.0000 </r>
       <r>    9.5788    0.0000 </r>
      </set>
     </set>
    </set>
   </array>
  </eigenvalues>
  <separator name="orbital magnetization" >
   <v name="MAGDIPOLOUT">      0.00000000      0.00000000      0.00000000</v>
  </separator>
  <dos>
   <i name="efermi">      1.44466481 </i>
   <total>
    <array>
     <dimension dim="1">gridpoints</dimension>
     <dimension dim="2">spin</dimension>
     <field>energy</field>
     <field>total</field>
     <field>integrated</field>
     <set>
      <set comment="spin 1">
       <r>   -21.2997     0.0000     0.0000 </r>
       <r>   -21.1909     0.0000     0.0000 </r>
       <r>   -21.0821     0.0000     0.0000 </r>
       <r>   -20.9733     0.0000     0.0000 </r>
       <r>   -20.8645     0.0000     0.0000 </r>
       <r>   -20.7557     0.0000     0.0000 </r>
       <r>   -20.6469     0.0000     0.0000 </r>
       <r>   -20.5381     0.0000     0.0000 </r>
       <r>   -20.4292     0.0000     0.0000 </r>
       <r>   -20.3204     0.0000     0.0000 </r>
       <r>   -20.2116     0.0000     0.0000 </r>
       <r>   -20.1028     0.0000     0.0000 </r>
       <r>   -19.9940     0.0000     0.0000 </r>
       <r>   -19.8852     0.0000     0.0000 </r>
       <r>   -19.7764    18.3809     2.0000 </r>
       <r>   -19.6676     0.0000     2.0000 </r>
       <r>   -19.5588     0.0000     2.0000 </r>
       <r>   -19.4500     0.0000     2.0000 </r>
       <r>   -19.3412     0.0000     2.0000 </r>
       <r>   -19.2324     0.0000     2.0000 </r>
       <r>   -19.1235     0.0000     2.0000 </r>
       <r>   -19.0147     0.0000     2.0000 </r>
       <r>   -18.9059     0.0000     2.0000 </r>
       <r>   -18.7971     0.0000     2.0000 </r>
       <r>   -18.6883     0.0000     2.0000 </r>
       <r>   -18.5795     0.0000     2.0000 </r>
       <r>   -18.4707     0.0000     2.0000 </r>
       <r>   -18.3619     0.0000     2.0000 </r>
       <r>   -18.2531     0.0000     2.0000 </r>
       <r>   -18.1443     0.0000     2.0000 </r>
       <r>   -18.0355     0.0000     2.0000 </r>
       <r>   -17.9267     0.0000     2.0000 </r>
       <r>   -17.8178     0.0000     2.0000 </r>
       <r>   -17.7090     0.0000     2.0000 </r>
       <r>   -17.6002     0.0000     2.0000 </r>
       <r>   -17.4914     0.0000     2.0000 </r>
       <r>   -17.3826     0.0000     2.0000 </r>
       <r>   -17.2738     0.0000     2.0000 </r>
       <r>   -17.1650     0.0000     2.0000 </r>
       <r>   -17.0562     0.0000     2.0000 </r>
       <r>   -16.9474     0.0000     2.0000 </r>
       <r>   -16.8386     0.0000     2.0000 </r>
       <r>   -16.7298     0.0000     2.0000 </r>
       <r>   -16.6209     0.0000     2.0000 </r>
       <r>   -16.5121     0.0000     2.0000 </r>
       <r>   -16.4033     0.0000     2.0000 </r>
       <r>   -16.2945     0.0000     2.0000 </r>
       <r>   -16.1857     0.0000     2.0000 </r>
       <r>   -16.0769     0.0000     2.0000 </r>
       <r>   -15.9681     0.0000     2.0000 </r>
       <r>   -15.8593     0.0000     2.0000 </r>
       <r>   -15.7505     0.0000     2.0000 </r>
       <r>   -15.6417     0.0000     2.0000 </r>
       <r>   -15.5329     0.0000     2.0000 </r>
       <r>   -15.4241     0.0000     2.0000 </r>
       <r>   -15.3152     0.0000     2.0000 </r>
       <r>   -15.2064    18.3202     3.9934 </r>
       <r>   -15.0976     9.9483     6.0629 </r>
       <r>   -14.9888     0.0000    12.0000 </r>
       <r>   -14.8800     0.0000    12.0000 </r>
       <r>   -14.7712     0.0000    12.0000 </r>
       <r>   -14.6624     0.0000    12.0000 </r>
       <r>   -14.5536     0.0000    12.0000 </r>
       <r>   -14.4448     0.0000    12.0000 </r>
       <r>   -14.3360     0.0000    12.0000 </r>
       <r>   -14.2272     0.0000    12.0000 </r>
       <r>   -14.1184     0.0000    12.0000 </r>
       <r>   -14.0095     0.0000    12.0000 </r>
       <r>   -13.9007     0.0000    12.0000 </r>
       <r>   -13.7919     0.0000    12.0000 </r>
       <r>   -13.6831     0.0000    12.0000 </r>
       <r>   -13.5743     0.0000    12.0000 </r>
       <r>   -13.4655     0.0000    12.0000 </r>
       <r>   -13.3567     1.8051    12.2003 </r>
       <r>   -13.2479     3.6439    12.7129 </r>
       <r>   -13.1391     5.5297    13.5821 </r>
       <r>   -13.0303     8.3946    14.6868 </r>
       <r>   -12.9215     7.4156    15.8616 </r>
       <r>   -12.8127     7.6773    16.7924 </r>
       <r>   -12.7038     5.9861    17.8662 </r>
       <r>   -12.5950     0.0000    18.0000 </r>
       <r>   -12.4862     0.0000    18.0000 </r>
       <r>   -12.3774     0.0000    18.0000 </r>
       <r>   -12.2686     0.0000    18.0000 </r>
       <r>   -12.1598     0.0000    18.0000 </r>
       <r>   -12.0510     0.0000    18.0000 </r>
       <r>   -11.9422     0.0000    18.0000 </r>
       <r>   -11.8334     0.0000    18.0000 </r>
       <r>   -11.7246     0.0000    18.0000 </r>
       <r>   -11.6158     0.0000    18.0000 </r>
       <r>   -11.5069     0.0000    18.0000 </r>
       <r>   -11.3981     0.0000    18.0000 </r>
       <r>   -11.2893     0.0000    18.0000 </r>
       <r>   -11.1805     0.0000    18.0000 </r>
       <r>   -11.0717     0.0000    18.0000 </r>
       <r>   -10.9629     0.0000    18.0000 </r>
       <r>   -10.8541     0.0000    18.0000 </r>
       <r>   -10.7453     0.0000    18.0000 </r>
       <r>   -10.6365     0.0000    18.0000 </r>
       <r>   -10.5277     0.0000    18.0000 </r>
       <r>   -10.4189     0.0000    18.0000 </r>
       <r>   -10.3101     0.0000    18.0000 </r>
       <r>   -10.2012     0.0000    18.0000 </r>
       <r>   -10.0924     0.0000    18.0000 </r>
       <r>    -9.9836     0.0000    18.0000 </r>
       <r>    -9.8748     0.0000    18.0000 </r>
       <r>    -9.7660     0.0000    18.0000 </r>
       <r>    -9.6572     0.0000    18.0000 </r>
       <r>    -9.5484     0.0000    18.0000 </r>
       <r>    -9.4396     0.0000    18.0000 </r>
       <r>    -9.3308     0.0000    18.0000 </r>
       <r>    -9.2220     0.0000    18.0000 </r>
       <r>    -9.1132     0.0000    18.0000 </r>
       <r>    -9.0044     0.0000    18.0000 </r>
       <r>    -8.8955     0.0000    18.0000 </r>
       <r>    -8.7867     0.0000    18.0000 </r>
       <r>    -8.6779     0.0000    18.0000 </r>
       <r>    -8.5691     0.0000    18.0000 </r>
       <r>    -8.4603     0.0000    18.0000 </r>
       <r>    -8.3515     0.0000    18.0000 </r>
       <r>    -8.2427     0.0000    18.0000 </r>
       <r>    -8.1339     0.0000    18.0000 </r>
       <r>    -8.0251     0.0000    18.0000 </r>
       <r>    -7.9163     0.0000    18.0000 </r>
       <r>    -7.8075     0.0000    18.0000 </r>
       <r>    -7.6987     0.0000    18.0000 </r>
       <r>    -7.5898     0.0000    18.0000 </r>
       <r>    -7.4810     0.0000    18.0000 </r>
       <r>    -7.3722     0.0000    18.0000 </r>
       <r>    -7.2634     0.1183    18.0129 </r>
       <r>    -7.1546     0.4308    18.0742 </r>
       <r>    -7.0458     0.4976    18.1284 </r>
       <r>    -6.9370     0.8616    18.2227 </r>
       <r>    -6.8282     0.9145    18.3222 </r>
       <r>    -6.7194     1.3150    18.4829 </r>
       <r>    -6.6106    23.5182    21.1449 </r>
       <r>    -6.5018     2.2940    24.8707 </r>
       <r>    -6.3929     2.1539    25.1328 </r>
       <r>    -6.2841     0.9650    25.2378 </r>
       <r>    -6.1753     1.7224    25.4609 </r>
       <r>    -6.0665     0.9107    25.6069 </r>
       <r>    -5.9577     0.9216    25.7487 </r>
       <r>    -5.8489     0.0055    25.7779 </r>
       <r>    -5.7401     0.0000    25.8711 </r>
       <r>    -5.6313     0.5026    25.9258 </r>
       <r>    -5.5225     0.1882    25.9463 </r>
       <r>    -5.4137     0.0000    25.9727 </r>
       <r>    -5.3049     0.2154    25.9961 </r>
       <r>    -5.1961     0.0000    25.9961 </r>
       <r>    -5.0872     0.0359    26.0000 </r>
       <r>    -4.9784     0.0000    26.0000 </r>
       <r>    -4.8696     0.0000    26.0000 </r>
       <r>    -4.7608     0.0000    26.0000 </r>
       <r>    -4.6520     0.0000    26.0000 </r>
       <r>    -4.5432     0.0000    26.0000 </r>
       <r>    -4.4344     0.0000    26.0000 </r>
       <r>    -4.3256     0.0000    26.0000 </r>
       <r>    -4.2168     0.0000    26.0000 </r>
       <r>    -4.1080     0.0000    26.0000 </r>
       <r>    -3.9992     0.0000    26.0000 </r>
       <r>    -3.8904     0.0000    26.0000 </r>
       <r>    -3.7815     0.0000    26.0000 </r>
       <r>    -3.6727     0.0000    26.0000 </r>
       <r>    -3.5639     0.0000    26.0000 </r>
       <r>    -3.4551     0.0000    26.0000 </r>
       <r>    -3.3463     0.0000    26.0000 </r>
       <r>    -3.2375     0.0000    26.0000 </r>
       <r>    -3.1287     0.0000    26.0000 </r>
       <r>    -3.0199     0.0000    26.0000 </r>
       <r>    -2.9111     0.8267    26.0900 </r>
       <r>    -2.8023     3.3406    26.6096 </r>
       <r>    -2.6935     2.7535    26.9441 </r>
       <r>    -2.5847     5.0123    27.5923 </r>
       <r>    -2.4758     3.6152    28.2137 </r>
       <r>    -2.3670     0.2027    28.2408 </r>
       <r>    -2.2582     0.0000    28.2500 </r>
       <r>    -2.1494     1.4629    28.4560 </r>
       <r>    -2.0406     1.4248    28.7019 </r>
       <r>    -1.9318     3.6603    29.3201 </r>
       <r>    -1.8230     0.4146    29.5764 </r>
       <r>    -1.7142     1.1950    29.7550 </r>
       <r>    -1.6054     9.9560    30.9153 </r>
       <r>    -1.4966     4.4282    31.7045 </r>
       <r>    -1.3878     3.7612    32.3507 </r>
       <r>    -1.2789     6.9272    33.2030 </r>
       <r>    -1.1701     9.0445    34.5271 </r>
       <r>    -1.0613     8.9562    35.9120 </r>
       <r>    -0.9525    15.7761    37.9314 </r>
       <r>    -0.8437    12.3652    39.7908 </r>
       <r>    -0.7349    12.2798    41.4025 </r>
       <r>    -0.6261     7.6599    42.3061 </r>
       <r>    -0.5173     1.1488    42.4883 </r>
       <r>    -0.4085     1.1377    42.6121 </r>
       <r>    -0.2997     0.0000    42.6992 </r>
       <r>    -0.1909     2.6352    42.9860 </r>
       <r>    -0.0821     1.7216    43.1795 </r>
       <r>     0.0268     0.2420    43.2060 </r>
       <r>     0.1356     2.0670    43.4515 </r>
       <r>     0.2444     0.4641    43.5114 </r>
       <r>     0.3532     0.0558    43.6076 </r>
       <r>     0.4620     0.8616    43.7422 </r>
       <r>     0.5708     0.8960    43.8397 </r>
       <r>     0.6796     0.3231    43.9023 </r>
       <r>     0.7884     0.0670    43.9096 </r>
       <r>     0.8972     0.4308    43.9727 </r>
       <r>     1.0060     0.0000    43.9727 </r>
       <r>     1.1148     0.2147    43.9960 </r>
       <r>     1.2236     0.0000    43.9961 </r>
       <r>     1.3325     0.0001    43.9961 </r>
       <r>     1.4413     0.0000    44.0000 </r>
       <r>     1.5501     0.0000    44.0000 </r>
       <r>     1.6589     0.0000    44.0000 </r>
       <r>     1.7677     0.0000    44.0000 </r>
       <r>     1.8765     0.0000    44.0000 </r>
       <r>     1.9853     0.0000    44.0000 </r>
       <r>     2.0941     0.0000    44.0000 </r>
       <r>     2.2029     0.0000    44.0000 </r>
       <r>     2.3117     0.0000    44.0000 </r>
       <r>     2.4205     0.0000    44.0000 </r>
       <r>     2.5293     0.0000    44.0000 </r>
       <r>     2.6382     0.0000    44.0000 </r>
       <r>     2.7470     0.0000    44.0000 </r>
       <r>     2.8558     0.0000    44.0000 </r>
       <r>     2.9646     0.0000    44.0000 </r>
       <r>     3.0734     0.0000    44.0000 </r>
       <r>     3.1822     0.0000    44.0000 </r>
       <r>     3.2910     0.0000    44.0000 </r>
       <r>     3.3998     0.0000    44.0000 </r>
       <r>     3.5086     0.1077    44.0117 </r>
       <r>     3.6174     0.7133    44.0893 </r>
       <r>     3.7262     0.1624    44.1231 </r>
       <r>     3.8351     0.8616    44.2461 </r>
       <r>     3.9439     0.4305    44.2929 </r>
       <r>     4.0527     1.8776    44.5441 </r>
       <r>     4.1615     1.2568    44.7735 </r>
       <r>     4.2703     2.4412    45.0430 </r>
       <r>     4.3791     1.3250    45.1871 </r>
       <r>     4.4879     2.0140    45.5434 </r>
       <r>     4.5967     0.5323    45.7689 </r>
       <r>     4.7055     0.8610    46.0390 </r>
       <r>     4.8143     0.8700    46.1337 </r>
       <r>     4.9231     0.2513    46.2539 </r>
       <r>     5.0319     0.7606    46.3367 </r>
       <r>     5.1408     1.2803    46.5338 </r>
       <r>     5.2496     0.8624    46.6759 </r>
       <r>     5.3584     1.6199    46.9302 </r>
       <r>     5.4672     3.8870    47.3565 </r>
       <r>     5.5760     2.1540    47.8086 </r>
       <r>     5.6848     0.4308    47.8555 </r>
       <r>     5.7936     0.0000    47.8555 </r>
       <r>     5.9024     0.2190    47.8793 </r>
       <r>     6.0112     2.3163    48.2325 </r>
       <r>     6.1200     5.4354    48.9234 </r>
       <r>     6.2288     0.6779    49.1324 </r>
       <r>     6.3376     3.2161    49.5296 </r>
       <r>     6.4465     4.4911    50.0785 </r>
       <r>     6.5553     3.0274    50.6302 </r>
       <r>     6.6641     4.6963    51.2337 </r>
       <r>     6.7729     7.9814    52.3059 </r>
       <r>     6.8817     4.8891    53.1296 </r>
       <r>     6.9905     4.3180    53.7120 </r>
       <r>     7.0993     3.5978    54.2235 </r>
       <r>     7.2081     7.9538    55.3420 </r>
       <r>     7.3169     5.1139    56.1111 </r>
       <r>     7.4257     3.7126    56.5485 </r>
       <r>     7.5345     2.5062    57.1672 </r>
       <r>     7.6433     7.5122    58.0518 </r>
       <r>     7.7522     6.8849    59.0343 </r>
       <r>     7.8610     6.1830    59.9814 </r>
       <r>     7.9698     3.7075    60.6729 </r>
       <r>     8.0786     3.2377    61.2624 </r>
       <r>     8.1874     3.4463    61.6523 </r>
       <r>     8.2962     2.6434    61.9400 </r>
       <r>     8.4050     1.4284    62.1906 </r>
       <r>     8.5138     0.6619    62.2712 </r>
       <r>     8.6226     1.5181    62.5402 </r>
       <r>     8.7314     2.0981    63.0252 </r>
       <r>     8.8402     0.1829    63.1527 </r>
       <r>     8.9491     2.5847    63.5078 </r>
       <r>     9.0579     0.2227    63.5320 </r>
       <r>     9.1667     0.7485    63.7533 </r>
       <r>     9.2755     0.3975    63.8636 </r>
       <r>     9.3843     0.2872    63.8984 </r>
       <r>     9.4931     0.6445    63.9686 </r>
       <r>     9.6019     0.0359    63.9727 </r>
       <r>     9.7107     0.2154    63.9961 </r>
       <r>     9.8195     0.0000    63.9961 </r>
       <r>     9.9283     0.0359    64.0000 </r>
       <r>    10.0371     0.0000    64.0000 </r>
       <r>    10.1459     0.0000    64.0000 </r>
       <r>    10.2548     0.0000    64.0000 </r>
       <r>    10.3636     0.0000    64.0000 </r>
       <r>    10.4724     0.0000    64.0000 </r>
       <r>    10.5812     0.0000    64.0000 </r>
       <r>    10.6900     0.0000    64.0000 </r>
       <r>    10.7988     0.0000    64.0000 </r>
       <r>    10.9076     0.0000    64.0000 </r>
       <r>    11.0164     0.0000    64.0000 </r>
       <r>    11.1252     0.0000    64.0000 </r>
       <r>    11.2340     0.0000    64.0000 </r>
       <r>    11.3428     0.0000    64.0000 </r>
      </set>
     </set>
    </array>
   </total>
  </dos>
 </calculation>
 <structure name="finalpos" >
  <crystal>
   <varray name="basis" >
    <v>       5.67984433       0.00000000       0.00000000 </v>
    <v>       0.00000000       5.67984433       0.00000000 </v>
    <v>       0.00000000       0.00000000       5.67984433 </v>
   </varray>
   <i name="volume">    183.23536591 </i>
   <varray name="rec_basis" >
    <v>       0.17606116       0.00000000       0.00000000 </v>
    <v>       0.00000000       0.17606116       0.00000000 </v>
    <v>       0.00000000       0.00000000       0.17606116 </v>
   </varray>
  </crystal>
  <varray name="positions" >
   <v>       0.00000000       0.00000000       0.00000000 </v>
   <v>       0.50000004       0.50000004       0.50000004 </v>
   <v>       0.00000000       0.50000004       0.50000004 </v>
   <v>       0.50000004       0.00000000       0.50000004 </v>
   <v>       0.50000004       0.50000004       0.00000000 </v>
  </varray>
 </structure>
</modeling>
