
     Program PWSCF v.7.1 starts on  3Jan2024 at 14:30:33 

     This program is part of the open-source Quantum ESPRESSO suite
     for quantum simulation of materials; please cite
         "P. Giannozzi et al., J. Phys.:Condens. Matter 21 395502 (2009);
         "P. Giannozzi et al., J. Phys.:Condens. Matter 29 465901 (2017);
         "P. Giannozzi et al., J. Chem. Phys. 152 154105 (2020);
          URL http://www.quantum-espresso.org", 
     in publications or presentations arising from this work. More details at
     http://www.quantum-espresso.org/quote

     Parallel version (MPI), running on     8 processors

     MPI processes distributed on     1 nodes
     118623 MiB available memory on the printing compute node when the environment starts
 
     Reading input from pw_mp-2064_nscf_k3000_E130.in
Warning: card &IONS ignored
Warning: card / ignored
Warning: card &CELL ignored
Warning: card / ignored

     Current dimensions of program PWSCF are:
     Max number of different atomic species (ntypx) = 10
     Max number of k-points (npk) =  40000
     Max angular momentum in pseudopotentials (lmaxx) =  4

     Atomic positions and unit cell read from directory:
     out/mp-2064.save/
 
 
     R & G space division:  proc/nbgrp/npool/nimage =       8
     Subspace diagonalization in iterative solution of the eigenvalue problem:
     a serial algorithm will be used

 
     Parallelization info
     --------------------
     sticks:   dense  smooth     PW     G-vecs:    dense   smooth      PW
     Min         210     210     61                 6482     6482    1015
     Max         211     211     62                 6485     6485    1016
     Sum        1685    1685    489                51867    51867    8121
 
     Using Slab Decomposition
 


     bravais-lattice index     =            1
     lattice parameter (alat)  =       6.3692  a.u.
     unit-cell volume          =     258.3801 (a.u.)^3
     number of atoms/cell      =            2
     number of atomic types    =            2
     number of electrons       =        16.00
     number of Kohn-Sham states=           16
     kinetic-energy cutoff     =     130.0000  Ry
     charge density cutoff     =     520.0000  Ry
     Exchange-correlation= PBE
                           (   1   4   3   4   0   0   0)

     celldm(1)=   6.369222  celldm(2)=   0.000000  celldm(3)=   0.000000
     celldm(4)=   0.000000  celldm(5)=   0.000000  celldm(6)=   0.000000

     crystal axes: (cart. coord. in units of alat)
               a(1) = (   1.000000   0.000000   0.000000 )  
               a(2) = (   0.000000   1.000000   0.000000 )  
               a(3) = (   0.000000   0.000000   1.000000 )  

     reciprocal axes: (cart. coord. in units 2 pi/alat)
               b(1) = (  1.000000  0.000000  0.000000 )  
               b(2) = (  0.000000  1.000000  0.000000 )  
               b(3) = (  0.000000  0.000000  1.000000 )  


     PseudoPot. # 1 for F  read from file:
     /usr/scratch4/magr4985/MG/devEb/pseudo/SG15/F.upf
     MD5 check sum: 24dce47753c7134a0159dc9c6586d93a
     Pseudo is Norm-conserving, Zval =  7.0
     Generated using ONCVPSP code by D. R. Hamann
     Using radial grid of  602 points,  4 beta functions with: 
                l(1) =   0
                l(2) =   0
                l(3) =   1
                l(4) =   1

     PseudoPot. # 2 for Rb read from file:
     /usr/scratch4/magr4985/MG/devEb/pseudo/SG15/Rb.upf
     MD5 check sum: 083fcde99d2d8624b357fda38a9b1c57
     Pseudo is Norm-conserving, Zval =  9.0
     Generated using ONCVPSP code by D. R. Hamann
     Using radial grid of  602 points,  6 beta functions with: 
                l(1) =   0
                l(2) =   0
                l(3) =   1
                l(4) =   1
                l(5) =   2
                l(6) =   2

     atomic species   valence    mass     pseudopotential
        F              7.00    18.99840     F ( 1.00)
        Rb             9.00    85.46780     Rb( 1.00)

     48 Sym. Ops., with inversion, found



   Cartesian axes

     site n.     atom                  positions (alat units)
         1           Rb  tau(   1) = (   0.0000000   0.0000000   0.0000000  )
         2           F   tau(   2) = (   0.5000000   0.5000000   0.5000000  )

     number of k points=    84  Gaussian smearing, width (Ry)=  0.0005
                       cart. coord. in units 2pi/alat
        k(    1) = (   0.0000000   0.0000000   0.0000000), wk =   0.0011574
        k(    2) = (   0.0000000   0.0000000   0.0833333), wk =   0.0069444
        k(    3) = (   0.0000000   0.0000000   0.1666667), wk =   0.0069444
        k(    4) = (   0.0000000   0.0000000   0.2500000), wk =   0.0069444
        k(    5) = (   0.0000000   0.0000000   0.3333333), wk =   0.0069444
        k(    6) = (   0.0000000   0.0000000   0.4166667), wk =   0.0069444
        k(    7) = (   0.0000000   0.0000000  -0.5000000), wk =   0.0034722
        k(    8) = (   0.0000000   0.0833333   0.0833333), wk =   0.0138889
        k(    9) = (   0.0000000   0.0833333   0.1666667), wk =   0.0277778
        k(   10) = (   0.0000000   0.0833333   0.2500000), wk =   0.0277778
        k(   11) = (   0.0000000   0.0833333   0.3333333), wk =   0.0277778
        k(   12) = (   0.0000000   0.0833333   0.4166667), wk =   0.0277778
        k(   13) = (   0.0000000   0.0833333  -0.5000000), wk =   0.0138889
        k(   14) = (   0.0000000   0.1666667   0.1666667), wk =   0.0138889
        k(   15) = (   0.0000000   0.1666667   0.2500000), wk =   0.0277778
        k(   16) = (   0.0000000   0.1666667   0.3333333), wk =   0.0277778
        k(   17) = (   0.0000000   0.1666667   0.4166667), wk =   0.0277778
        k(   18) = (   0.0000000   0.1666667  -0.5000000), wk =   0.0138889
        k(   19) = (   0.0000000   0.2500000   0.2500000), wk =   0.0138889
        k(   20) = (   0.0000000   0.2500000   0.3333333), wk =   0.0277778
        k(   21) = (   0.0000000   0.2500000   0.4166667), wk =   0.0277778
        k(   22) = (   0.0000000   0.2500000  -0.5000000), wk =   0.0138889
        k(   23) = (   0.0000000   0.3333333   0.3333333), wk =   0.0138889
        k(   24) = (   0.0000000   0.3333333   0.4166667), wk =   0.0277778
        k(   25) = (   0.0000000   0.3333333  -0.5000000), wk =   0.0138889
        k(   26) = (   0.0000000   0.4166667   0.4166667), wk =   0.0138889
        k(   27) = (   0.0000000   0.4166667  -0.5000000), wk =   0.0138889
        k(   28) = (   0.0000000  -0.5000000  -0.5000000), wk =   0.0034722
        k(   29) = (   0.0833333   0.0833333   0.0833333), wk =   0.0092593
        k(   30) = (   0.0833333   0.0833333   0.1666667), wk =   0.0277778
        k(   31) = (   0.0833333   0.0833333   0.2500000), wk =   0.0277778
        k(   32) = (   0.0833333   0.0833333   0.3333333), wk =   0.0277778
        k(   33) = (   0.0833333   0.0833333   0.4166667), wk =   0.0277778
        k(   34) = (   0.0833333   0.0833333  -0.5000000), wk =   0.0138889
        k(   35) = (   0.0833333   0.1666667   0.1666667), wk =   0.0277778
        k(   36) = (   0.0833333   0.1666667   0.2500000), wk =   0.0555556
        k(   37) = (   0.0833333   0.1666667   0.3333333), wk =   0.0555556
        k(   38) = (   0.0833333   0.1666667   0.4166667), wk =   0.0555556
        k(   39) = (   0.0833333   0.1666667  -0.5000000), wk =   0.0277778
        k(   40) = (   0.0833333   0.2500000   0.2500000), wk =   0.0277778
        k(   41) = (   0.0833333   0.2500000   0.3333333), wk =   0.0555556
        k(   42) = (   0.0833333   0.2500000   0.4166667), wk =   0.0555556
        k(   43) = (   0.0833333   0.2500000  -0.5000000), wk =   0.0277778
        k(   44) = (   0.0833333   0.3333333   0.3333333), wk =   0.0277778
        k(   45) = (   0.0833333   0.3333333   0.4166667), wk =   0.0555556
        k(   46) = (   0.0833333   0.3333333  -0.5000000), wk =   0.0277778
        k(   47) = (   0.0833333   0.4166667   0.4166667), wk =   0.0277778
        k(   48) = (   0.0833333   0.4166667  -0.5000000), wk =   0.0277778
        k(   49) = (   0.0833333  -0.5000000  -0.5000000), wk =   0.0069444
        k(   50) = (   0.1666667   0.1666667   0.1666667), wk =   0.0092593
        k(   51) = (   0.1666667   0.1666667   0.2500000), wk =   0.0277778
        k(   52) = (   0.1666667   0.1666667   0.3333333), wk =   0.0277778
        k(   53) = (   0.1666667   0.1666667   0.4166667), wk =   0.0277778
        k(   54) = (   0.1666667   0.1666667  -0.5000000), wk =   0.0138889
        k(   55) = (   0.1666667   0.2500000   0.2500000), wk =   0.0277778
        k(   56) = (   0.1666667   0.2500000   0.3333333), wk =   0.0555556
        k(   57) = (   0.1666667   0.2500000   0.4166667), wk =   0.0555556
        k(   58) = (   0.1666667   0.2500000  -0.5000000), wk =   0.0277778
        k(   59) = (   0.1666667   0.3333333   0.3333333), wk =   0.0277778
        k(   60) = (   0.1666667   0.3333333   0.4166667), wk =   0.0555556
        k(   61) = (   0.1666667   0.3333333  -0.5000000), wk =   0.0277778
        k(   62) = (   0.1666667   0.4166667   0.4166667), wk =   0.0277778
        k(   63) = (   0.1666667   0.4166667  -0.5000000), wk =   0.0277778
        k(   64) = (   0.1666667  -0.5000000  -0.5000000), wk =   0.0069444
        k(   65) = (   0.2500000   0.2500000   0.2500000), wk =   0.0092593
        k(   66) = (   0.2500000   0.2500000   0.3333333), wk =   0.0277778
        k(   67) = (   0.2500000   0.2500000   0.4166667), wk =   0.0277778
        k(   68) = (   0.2500000   0.2500000  -0.5000000), wk =   0.0138889
        k(   69) = (   0.2500000   0.3333333   0.3333333), wk =   0.0277778
        k(   70) = (   0.2500000   0.3333333   0.4166667), wk =   0.0555556
        k(   71) = (   0.2500000   0.3333333  -0.5000000), wk =   0.0277778
        k(   72) = (   0.2500000   0.4166667   0.4166667), wk =   0.0277778
        k(   73) = (   0.2500000   0.4166667  -0.5000000), wk =   0.0277778
        k(   74) = (   0.2500000  -0.5000000  -0.5000000), wk =   0.0069444
        k(   75) = (   0.3333333   0.3333333   0.3333333), wk =   0.0092593
        k(   76) = (   0.3333333   0.3333333   0.4166667), wk =   0.0277778
        k(   77) = (   0.3333333   0.3333333  -0.5000000), wk =   0.0138889
        k(   78) = (   0.3333333   0.4166667   0.4166667), wk =   0.0277778
        k(   79) = (   0.3333333   0.4166667  -0.5000000), wk =   0.0277778
        k(   80) = (   0.3333333  -0.5000000  -0.5000000), wk =   0.0069444
        k(   81) = (   0.4166667   0.4166667   0.4166667), wk =   0.0092593
        k(   82) = (   0.4166667   0.4166667  -0.5000000), wk =   0.0138889
        k(   83) = (   0.4166667  -0.5000000  -0.5000000), wk =   0.0069444
        k(   84) = (  -0.5000000  -0.5000000  -0.5000000), wk =   0.0011574

     Dense  grid:    51867 G-vectors     FFT dimensions: (  48,  48,  48)

     Estimated max dynamical RAM per process >      23.65 MB

     Estimated total dynamical RAM >     189.17 MB

     The potential is recalculated from file :
     out/mp-2064.save/charge-density

     Starting wfcs are random

     Band Structure Calculation
     Davidson diagonalization with overlap

     ethr =  5.00E-06,  avg # of iterations = 17.0

     total cpu time spent up to now is        7.2 secs

     End of band structure calculation

          k = 0.0000 0.0000 0.0000 (  6451 PWs)   bands (ev):

   -20.2039 -15.1349  -3.5499  -3.5499  -3.5499   3.5883   3.5883   3.5883
     9.9986  11.2950  11.2950  18.4247  18.4247  18.4247  23.9977  23.9977

          k = 0.0000 0.0000 0.0833 (  6491 PWs)   bands (ev):

   -20.1902 -15.1397  -3.6412  -3.5360  -3.5360   3.5016   3.5743   3.5743
    10.2036  11.3529  11.5126  18.1967  18.1967  18.4589  23.5096  24.1046

          k = 0.0000 0.0000 0.1667 (  6487 PWs)   bands (ev):

   -20.1522 -15.1534  -3.8806  -3.4976  -3.4976   3.2805   3.5353   3.5353
    10.7241  11.5194  12.1610  17.6699  17.6699  18.5550  22.5005  22.6563

          k = 0.0000 0.0000 0.2500 (  6495 PWs)   bands (ev):

   -20.0993 -15.1733  -4.1865  -3.4441  -3.4441   3.0074   3.4801   3.4801
    11.3747  11.7709  13.1661  17.0943  17.0943  18.6928  21.0785  21.8593

          k = 0.0000 0.0000 0.3333 (  6499 PWs)   bands (ev):

   -20.0451 -15.1949  -4.4719  -3.3893  -3.3893   2.7594   3.4226   3.4226
    12.0131  12.0590  14.2785  16.6212  16.6212  18.8395  19.9411  21.3893

          k = 0.0000 0.0000 0.4167 (  6479 PWs)   bands (ev):

   -20.0045 -15.2117  -4.6696  -3.3483  -3.3483   2.5903   3.3789   3.3789
    12.3022  12.5095  15.1023  16.3194  16.3194  18.9532  19.1846  21.5072

          k = 0.0000 0.0000-0.5000 (  6480 PWs)   bands (ev):

   -19.9895 -15.2181  -4.7398  -3.3331  -3.3331   2.5306   3.3626   3.3627
    12.4003  12.7046  15.3783  16.2164  16.2164  18.9149  18.9963  21.8511

          k = 0.0000 0.0833 0.0833 (  6489 PWs)   bands (ev):

   -20.1766 -15.1438  -3.6507  -3.6073  -3.5224   3.4316   3.5581   3.5619
    10.3980  11.4916  11.6437  17.9390  18.1400  18.3030  23.5510  23.6284

          k = 0.0000 0.0833 0.1667 (  6489 PWs)   bands (ev):

   -20.1392 -15.1556  -3.8774  -3.5905  -3.4847   3.2441   3.5203   3.5273
    10.8871  11.6894  12.2490  17.3598  17.6484  18.3165  22.5982  22.9654

          k = 0.0000 0.0833 0.2500 (  6485 PWs)   bands (ev):

   -20.0870 -15.1730  -4.1866  -3.5462  -3.4323   3.0083   3.4676   3.4780
    11.4904  11.9495  13.2249  16.7605  17.0656  18.3984  21.3543  22.1403

          k = 0.0000 0.0833 0.3333 (  6476 PWs)   bands (ev):

   -20.0335 -15.1918  -4.4755  -3.5006  -3.3786   2.7931   3.4115   3.4265
    12.0490  12.2843  14.2202  16.3818  16.5856  18.4850  20.3226  21.6133

          k = 0.0000 0.0833 0.4167 (  6469 PWs)   bands (ev):

   -19.9936 -15.2066  -4.6755  -3.4668  -3.3386   2.6464   3.3681   3.3873
    12.3793  12.6861  14.6851  16.2795  16.4399  18.5498  19.6601  21.6050

          k = 0.0000 0.0833-0.5000 (  6462 PWs)   bands (ev):

   -19.9788 -15.2122  -4.7466  -3.4543  -3.3237   2.5947   3.3517   3.3727
    12.4871  12.8794  14.7176  16.1751  16.5777  18.5738  19.4358  21.8507

          k = 0.0000 0.1667 0.1667 (  6465 PWs)   bands (ev):

   -20.1031 -15.1622  -3.9139  -3.7883  -3.4492   3.1403   3.4849   3.5045
    11.2669  12.1111  12.6208  16.7115  17.4767  17.8997  22.5932  22.7033

          k = 0.0000 0.1667 0.2500 (  6479 PWs)   bands (ev):

   -20.0530 -15.1722  -4.1908  -3.8086  -3.3998   3.0009   3.4379   3.4718
    11.6995  12.4907  13.4450  16.1363  16.9717  17.7710  21.5924  22.7011

          k = 0.0000 0.1667 0.3333 (  6488 PWs)   bands (ev):

   -20.0018 -15.1834  -4.4860  -3.7888  -3.3494   2.8715   3.3854   3.4371
    12.1003  12.8620  14.1017  16.0995  16.4860  17.7366  20.8294  22.4494

          k = 0.0000 0.1667 0.4167 (  6471 PWs)   bands (ev):

   -19.9636 -15.1925  -4.6922  -3.7726  -3.3118   2.7845   3.3421   3.4103
    12.3935  13.2583  14.0217  16.1706  16.7101  17.7185  20.5564  22.0059

          k = 0.0000 0.1667-0.5000 (  6458 PWs)   bands (ev):

   -19.9494 -15.1960  -4.7656  -3.7666  -3.2979   2.7544   3.3250   3.4003
    12.5027  13.6194  13.7045  16.0626  17.0232  17.7121  20.6213  21.8361

          k = 0.0000 0.2500 0.2500 (  6458 PWs)   bands (ev):

   -20.0059 -15.1719  -4.2489  -4.0896  -3.3548   2.9782   3.4006   3.4621
    11.9274  12.9292  14.0644  15.7292  16.7437  17.2237  21.5948  21.9752

          k = 0.0000 0.2500 0.3333 (  6479 PWs)   bands (ev):

   -19.9578 -15.1723  -4.5045  -4.1494  -3.3089   2.9549   3.3569   3.4510
    12.1581  12.9776  14.6587  16.1098  16.3387  16.9864  21.1328  21.9720

          k = 0.0000 0.2500 0.4167 (  6475 PWs)   bands (ev):

   -19.9220 -15.1732  -4.7163  -4.1562  -3.2748   2.9453   3.3147   3.4420
    12.3596  12.8630  14.7929  16.0218  16.8869  17.0585  21.1302  22.0532

          k = 0.0000 0.2500-0.5000 (  6452 PWs)   bands (ev):

   -19.9087 -15.1736  -4.7926  -4.1576  -3.2622   2.9447   3.2959   3.4384
    12.4625  12.7762  14.8240  15.9098  16.8552  17.4762  21.7033  21.9799

          k = 0.0000 0.3333 0.3333 (  6460 PWs)   bands (ev):

   -19.9130 -15.1615  -4.5598  -4.4464  -3.2678   3.0257   3.3282   3.4644
    12.1854  12.6363  15.7734  16.1343  16.4478  16.4496  21.3823  21.4444

          k = 0.0000 0.3333 0.4167 (  6443 PWs)   bands (ev):

   -19.8798 -15.1539  -4.7422  -4.5083  -3.2374   3.0838   3.2953   3.4738
    12.1170  12.4398  15.8712  16.2083  16.2317  17.4127  21.2742  21.7562

          k = 0.0000 0.3333-0.5000 (  6454 PWs)   bands (ev):

   -19.8675 -15.1511  -4.8209  -4.5165  -3.2261   3.1122   3.2753   3.4772
    12.0511  12.4098  15.7581  16.1787  16.2948  17.9050  21.3195  22.3610

          k = 0.0000 0.4167 0.4167 (  6442 PWs)   bands (ev):

   -19.8484 -15.1397  -4.7744  -4.7380  -3.2096   3.1806   3.2803   3.4973
    11.7324  12.3801  15.7419  15.8386  17.4543  17.7701  21.0456  22.1534

          k = 0.0000 0.4167-0.5000 (  6444 PWs)   bands (ev):

   -19.8369 -15.1345  -4.8424  -4.7631  -3.1994   3.2243   3.2658   3.5059
    11.5911  12.3667  15.6476  15.7524  17.6926  18.2204  20.9575  22.7221

          k = 0.0000-0.5000-0.5000 (  6496 PWs)   bands (ev):

   -19.8256 -15.1284  -4.8504  -4.8504  -3.1895   3.2635   3.2635   3.5165
    11.4335  12.3500  15.6073  15.6073  18.3372  18.3372  20.8005  23.2935

          k = 0.0833 0.0833 0.0833 (  6490 PWs)   bands (ev):

   -20.1632 -15.1474  -3.6360  -3.6360  -3.5787   3.3806   3.5425   3.5425
    10.5878  11.6984  11.6984  17.8863  17.8863  18.0938  23.6488  23.6488

          k = 0.0833 0.0833 0.1667 (  6487 PWs)   bands (ev):

   -20.1263 -15.1574  -3.8714  -3.5955  -3.5646   3.2257   3.4991   3.5125
    11.0622  11.8559  12.3242  17.3073  17.3779  18.0347  22.9835  23.0063

          k = 0.0833 0.0833 0.2500 (  6490 PWs)   bands (ev):

   -20.0748 -15.1723  -4.1846  -3.5390  -3.5318   3.0194   3.4377   3.4805
    11.6487  12.0939  13.2816  16.6758  16.8007  18.0746  21.7769  22.2795

          k = 0.0833 0.0833 0.3333 (  6477 PWs)   bands (ev):

   -20.0221 -15.1886  -4.4770  -3.4985  -3.4810   2.8281   3.3736   3.4468
    12.2366  12.3673  14.1837  16.1455  16.5552  18.1243  20.7591  21.7604

          k = 0.0833 0.0833 0.4167 (  6475 PWs)   bands (ev):

   -19.9827 -15.2015  -4.6795  -3.4740  -3.4376   2.6972   3.3250   3.4200
    12.5998  12.7257  14.4805  15.7917  16.8731  18.1642  20.0855  21.6802

          k = 0.0833 0.0833-0.5000 (  6466 PWs)   bands (ev):

   -19.9681 -15.2064  -4.7514  -3.4651  -3.4216   2.6511   3.3069   3.4097
    12.6944  12.9376  14.4525  15.6655  17.1308  18.1777  19.8484  21.8520

          k = 0.0833 0.1667 0.1667 (  6475 PWs)   bands (ev):

   -20.0907 -15.1627  -3.8974  -3.7900  -3.5476   3.1534   3.4645   3.4713
    11.4677  12.2685  12.6669  16.6906  17.1992  17.5319  23.0271  23.1416

          k = 0.0833 0.1667 0.2500 (  6477 PWs)   bands (ev):

   -20.0412 -15.1708  -4.1826  -3.8013  -3.5051   3.0311   3.4009   3.4554
    11.9208  12.6001  13.4902  16.1013  16.6806  17.3994  22.1325  23.0269

          k = 0.0833 0.1667 0.3333 (  6472 PWs)   bands (ev):

   -19.9906 -15.1801  -4.4821  -3.7784  -3.4590   2.9072   3.3305   3.4495
    12.3428  12.9255  14.1034  15.8228  16.4891  17.3758  21.3500  22.4999

          k = 0.0833 0.1667 0.4167 (  6471 PWs)   bands (ev):

   -19.9529 -15.1876  -4.6908  -3.7617  -3.4231   2.8208   3.2757   3.4449
    12.6606  13.2769  13.9966  15.5727  17.1507  17.3832  20.9521  22.0301

          k = 0.0833 0.1667-0.5000 (  6462 PWs)   bands (ev):

   -19.9389 -15.1905  -4.7650  -3.7559  -3.4095   2.7905   3.2550   3.4428
    12.7819  13.6172  13.6776  15.4607  17.3625  17.5820  20.9140  21.8463

          k = 0.0833 0.2500 0.2500 (  6480 PWs)   bands (ev):

   -19.9945 -15.1693  -4.2301  -4.0893  -3.4622   3.0131   3.3727   3.4232
    12.1715  13.0432  14.0931  15.6872  16.4870  16.8302  22.2350  22.3686

          k = 0.0833 0.2500 0.3333 (  6473 PWs)   bands (ev):

   -19.9469 -15.1686  -4.4929  -4.1391  -3.4171   2.9795   3.3098   3.4339
    12.4085  13.0847  14.6608  15.7668  16.3816  16.6851  21.6349  22.4466

          k = 0.0833 0.2500 0.4167 (  6474 PWs)   bands (ev):

   -19.9115 -15.1685  -4.7076  -4.1414  -3.3828   2.9586   3.2456   3.4529
    12.6128  12.9578  14.7916  15.5387  16.5654  17.4171  21.4441  22.4989

          k = 0.0833 0.2500-0.5000 (  6466 PWs)   bands (ev):

   -19.8984 -15.1686  -4.7846  -4.1416  -3.3700   2.9538   3.2180   3.4605
    12.7509  12.8311  14.8269  15.4249  16.5569  17.9271  21.7778  22.2284

          k = 0.0833 0.3333 0.3333 (  6467 PWs)   bands (ev):

   -19.9025 -15.1574  -4.5391  -4.4385  -3.3739   3.0255   3.2921   3.4287
    12.3958  12.8075  15.5721  15.9094  16.1425  16.6698  21.7963  21.9150

          k = 0.0833 0.3333 0.4167 (  6451 PWs)   bands (ev):

   -19.8695 -15.1495  -4.7262  -4.4911  -3.3413   3.0659   3.2423   3.4492
    12.2385  12.7128  15.5016  15.8231  16.3746  17.6624  21.5246  22.1904

          k = 0.0833 0.3333-0.5000 (  6464 PWs)   bands (ev):

   -19.8573 -15.1466  -4.8057  -4.4969  -3.3292   3.0945   3.2050   3.4610
    12.1518  12.7076  15.3928  15.8263  16.4213  18.2494  21.5001  22.6167

          k = 0.0833 0.4167 0.4167 (  6456 PWs)   bands (ev):

   -19.8383 -15.1355  -4.7524  -4.7201  -3.3104   3.1394   3.2378   3.4473
    11.8560  12.6806  15.4551  15.5182  17.6247  17.9721  21.2475  22.4450

          k = 0.0833 0.4167-0.5000 (  6442 PWs)   bands (ev):

   -19.8268 -15.1303  -4.8219  -4.7414  -3.2990   3.1867   3.2117   3.4495
    11.7203  12.6720  15.3566  15.4739  17.8553  18.4995  21.0782  22.8722

          k = 0.0833-0.5000-0.5000 (  6440 PWs)   bands (ev):

   -19.8156 -15.1244  -4.8280  -4.8280  -3.2878   3.2186   3.2186   3.4418
    11.5727  12.6582  15.3406  15.3406  18.5954  18.5954  20.8192  23.3092

          k = 0.1667 0.1667 0.1667 (  6490 PWs)   bands (ev):

   -20.0563 -15.1642  -3.8516  -3.8516  -3.7479   3.1610   3.4076   3.4076
    11.9262  12.7994  12.7994  16.5825  16.5825  16.8666  23.5504  23.5505

          k = 0.1667 0.1667 0.2500 (  6471 PWs)   bands (ev):

   -20.0085 -15.1671  -4.1632  -3.7875  -3.7697   3.0944   3.3271   3.3974
    12.3959  13.0002  13.6457  15.9245  16.1771  16.6743  23.2283  23.2606

          k = 0.1667 0.1667 0.3333 (  6492 PWs)   bands (ev):

   -19.9597 -15.1708  -4.4726  -3.7708  -3.7216   2.9873   3.2431   3.4295
    12.8212  13.2349  14.1064  15.3729  16.4483  16.6675  22.5174  22.6324

          k = 0.1667 0.1667 0.4167 (  6473 PWs)   bands (ev):

   -19.9234 -15.1742  -4.6874  -3.7712  -3.6720   2.9057   3.1794   3.4581
    13.1970  13.4454  13.9127  14.9938  16.6242  17.5668  21.9672  22.1050

          k = 0.1667 0.1667-0.5000 (  6442 PWs)   bands (ev):

   -19.9099 -15.1755  -4.7637  -3.7714  -3.6536   2.8762   3.1556   3.4687
    13.4619  13.5376  13.6612  14.8510  16.6316  18.1790  21.7702  21.8578

          k = 0.1667 0.2500 0.2500 (  6482 PWs)   bands (ev):

   -19.9632 -15.1625  -4.1780  -4.0889  -3.7419   3.0998   3.2949   3.3219
    12.7459  13.4506  14.1709  15.5465  15.9290  16.1392  23.2604  23.6958

          k = 0.1667 0.2500 0.3333 (  6480 PWs)   bands (ev):

   -19.9170 -15.1584  -4.4629  -4.1094  -3.6986   3.0339   3.1995   3.3748
    12.9434  13.5280  14.6417  15.2080  15.9347  16.5031  22.7116  23.5922

          k = 0.1667 0.2500 0.4167 (  6464 PWs)   bands (ev):

   -19.8826 -15.1558  -4.6842  -4.1020  -3.6626   2.9837   3.1140   3.4284
    12.9718  13.5545  14.7256  14.8937  15.9249  17.8068  22.1418  23.2620

          k = 0.1667 0.2500-0.5000 (  6460 PWs)   bands (ev):

   -19.8699 -15.1550  -4.7631  -4.0996  -3.6486   2.9687   3.0788   3.4482
    12.9469  13.5832  14.6956  14.8328  15.9226  18.5578  21.8419  22.9722

          k = 0.1667 0.3333 0.3333 (  6482 PWs)   bands (ev):

   -19.8735 -15.1462  -4.4816  -4.4171  -3.6508   3.0107   3.1916   3.3422
    12.7656  13.5020  15.0958  15.2047  16.1969  16.7190  22.6258  23.2141

          k = 0.1667 0.3333 0.4167 (  6458 PWs)   bands (ev):

   -19.8412 -15.1374  -4.6828  -4.4428  -3.6134   3.0045   3.1187   3.3694
    12.5197  13.5432  14.8491  15.2266  16.4582  17.9997  22.0963  23.2884

          k = 0.1667 0.3333-0.5000 (  6438 PWs)   bands (ev):

   -19.8293 -15.1342  -4.7637  -4.4427  -3.5993   3.0397   3.0477   3.3853
    12.4214  13.5655  14.7334  15.2543  16.4969  18.8268  21.7158  23.4643

          k = 0.1667 0.4167 0.4167 (  6459 PWs)   bands (ev):

   -19.8105 -15.1239  -4.6913  -4.6706  -3.5751   3.0240   3.1198   3.3162
    12.1884  13.5479  14.8959  14.9039  17.8970  18.2814  21.7217  23.1791

          k = 0.1667 0.4167-0.5000 (  6440 PWs)   bands (ev):

   -19.7992 -15.1190  -4.7650  -4.6810  -3.5608   3.0659   3.0810   3.2998
    12.0718  13.5496  14.7829  14.9192  18.1190  19.0162  21.3198  23.2812

          k = 0.1667-0.5000-0.5000 (  6440 PWs)   bands (ev):

   -19.7881 -15.1133  -4.7657  -4.7657  -3.5464   3.0942   3.0942   3.2472
    11.9516  13.5433  14.8011  14.8011  19.0880  19.0880  20.8710  23.3351

          k = 0.2500 0.2500 0.2500 (  6469 PWs)   bands (ev):

   -19.9197 -15.1534  -4.1049  -4.1049  -4.0808   3.1850   3.1850   3.2113
    13.1399  14.2690  14.2690  15.3698  15.3698  15.7922  24.1137  24.1137

          k = 0.2500 0.2500 0.3333 (  6466 PWs)   bands (ev):

   -19.8755 -15.1446  -4.4263  -4.0897  -4.0292   3.0708   3.0756   3.2926
    13.1825  14.3240  14.6387  14.9852  15.4286  16.5156  23.5416  24.4416

          k = 0.2500 0.2500 0.4167 (  6443 PWs)   bands (ev):

   -19.8427 -15.1384  -4.6534  -4.0916  -3.9721   2.9843   2.9968   3.3506
    13.0389  14.2765  14.7618  14.8488  15.3668  18.0534  22.5725  24.2199

          k = 0.2500 0.2500-0.5000 (  6456 PWs)   bands (ev):

   -19.8306 -15.1362  -4.7341  -4.0924  -3.9508   2.9520   2.9693   3.3707
    12.9622  14.2324  14.8195  14.8354  15.3435  18.9963  21.8677  24.0876

          k = 0.2500 0.3333 0.3333 (  6454 PWs)   bands (ev):

   -19.8334 -15.1309  -4.4005  -4.3888  -4.0031   2.9641   3.0501   3.2454
    13.0704  14.3563  14.5854  14.9940  16.2852  16.7277  23.5066  24.5586

          k = 0.2500 0.3333 0.4167 (  6454 PWs)   bands (ev):

   -19.8022 -15.1209  -4.6239  -4.3748  -3.9600   2.8982   2.9838   3.2413
    12.8556  14.2370  14.6045  14.9405  16.5206  18.2269  22.6235  24.4574

          k = 0.2500 0.3333-0.5000 (  6448 PWs)   bands (ev):

   -19.7906 -15.1173  -4.7055  -4.3682  -3.9431   2.8779   2.9519   3.2427
    12.7656  14.1598  14.6549  14.9302  16.5512  19.2751  21.8197  24.4717

          k = 0.2500 0.4167 0.4167 (  6471 PWs)   bands (ev):

   -19.7721 -15.1080  -4.6049  -4.6014  -3.9149   2.8689   2.9545   3.1399
    12.6375  14.3083  14.3613  14.9089  18.1061  18.4966  22.1978  23.8310

          k = 0.2500 0.4167-0.5000 (  6452 PWs)   bands (ev):

   -19.7610 -15.1033  -4.6850  -4.5958  -3.8974   2.8764   2.9298   3.0973
    12.5527  14.2377  14.3792  14.9073  18.3167  19.4463  21.5183  23.6599

          k = 0.2500-0.5000-0.5000 (  6472 PWs)   bands (ev):

   -19.7501 -15.0982  -4.6775  -4.6775  -3.8795   2.9200   2.9200   3.0001
    12.4714  14.2787  14.2787  14.9061  19.5075  19.5075  20.9433  23.2947

          k = 0.3333 0.3333 0.3333 (  6437 PWs)   bands (ev):

   -19.7927 -15.1155  -4.3760  -4.3162  -4.3162   2.9037   2.9037   3.1589
    13.1852  14.1776  14.1776  16.3798  16.3798  16.8643  24.1212  24.1213

          k = 0.3333 0.3333 0.4167 (  6458 PWs)   bands (ev):

   -19.7626 -15.1043  -4.5658  -4.3338  -4.2523   2.7932   2.8632   3.0902
    13.0845  13.9237  14.2003  16.4522  16.6760  18.3800  22.8701  24.4201

          k = 0.3333 0.3333-0.5000 (  6460 PWs)   bands (ev):

   -19.7514 -15.1002  -4.6461  -4.3272  -4.2284   2.7520   2.8516   3.0617
    13.0192  13.8382  14.2424  16.4795  16.6967  19.5600  21.8387  24.5026

          k = 0.3333 0.4167 0.4167 (  6469 PWs)   bands (ev):

   -19.7332 -15.0921  -4.5306  -4.5149  -4.2332   2.7304   2.7840   2.9523
    13.0789  13.8942  13.9559  16.5899  18.2478  18.6336  22.5187  23.7037

          k = 0.3333 0.4167-0.5000 (  6470 PWs)   bands (ev):

   -19.7223 -15.0876  -4.6019  -4.5074  -4.2132   2.7065   2.7714   2.8856
    13.0379  13.8331  13.9729  16.6058  18.4468  19.7218  21.6336  23.5422

          k = 0.3333-0.5000-0.5000 (  6464 PWs)   bands (ev):

   -19.7116 -15.0830  -4.5855  -4.5855  -4.1927   2.7407   2.7407   2.7708
    13.0040  13.8825  13.8825  16.6180  19.7765  19.7765  21.0177  23.0073

          k = 0.4167 0.4167 0.4167 (  6473 PWs)   bands (ev):

   -19.7043 -15.0804  -4.4859  -4.4465  -4.4465   2.6558   2.6558   2.7908
    13.3420  13.7097  13.7097  18.3321  18.3321  18.8349  22.6846  22.6846

          k = 0.4167 0.4167-0.5000 (  6472 PWs)   bands (ev):

   -19.6937 -15.0761  -4.5390  -4.4526  -4.4209   2.6082   2.6510   2.7097
    13.3668  13.6278  13.7250  18.3604  18.6457  19.8699  21.6010  22.7346

          k = 0.4167-0.5000-0.5000 (  6468 PWs)   bands (ev):

   -19.6831 -15.0718  -4.5156  -4.5156  -4.4113   2.6061   2.6061   2.6123
    13.4094  13.6424  13.6424  18.5112  19.9169  19.9169  21.0734  22.1784

          k =-0.5000-0.5000-0.5000 (  6488 PWs)   bands (ev):

   -19.6726 -15.0677  -4.4893  -4.4893  -4.4893   2.5561   2.5561   2.5561
    13.5626  13.5626  13.5626  19.9597  19.9597  19.9597  21.0942  21.0942

     the Fermi energy is     7.7883 ev
     (compare with:     7.7886 eV, computed in scf)

     Writing all to output data dir out/mp-2064.save/
 
     init_run     :      0.09s CPU      0.10s WALL (       1 calls)
     electrons    :      6.64s CPU      6.90s WALL (       1 calls)

     Called by init_run:
     wfcinit      :      0.00s CPU      0.00s WALL (       1 calls)
     potinit      :      0.02s CPU      0.02s WALL (       1 calls)
     hinit0       :      0.01s CPU      0.02s WALL (       1 calls)

     Called by electrons:
     c_bands      :      6.64s CPU      6.90s WALL (       1 calls)
     v_of_rho     :      0.01s CPU      0.01s WALL (       1 calls)

     Called by c_bands:
     init_us_2    :      0.02s CPU      0.02s WALL (      84 calls)
     init_us_2:cp :      0.02s CPU      0.02s WALL (      84 calls)
     cegterg      :      6.03s CPU      6.23s WALL (      93 calls)

     Called by *egterg:
     cdiaghg      :      0.55s CPU      0.57s WALL (    1508 calls)
     h_psi        :      4.90s CPU      5.08s WALL (    1601 calls)
     g_psi        :      0.07s CPU      0.07s WALL (    1424 calls)

     Called by h_psi:
     h_psi:calbec :      0.19s CPU      0.20s WALL (    1601 calls)
     vloc_psi     :      4.53s CPU      4.70s WALL (    1601 calls)
     add_vuspsi   :      0.14s CPU      0.15s WALL (    1601 calls)

     General routines
     calbec       :      0.19s CPU      0.20s WALL (    1601 calls)
     fft          :      0.00s CPU      0.01s WALL (      10 calls)
     fftw         :      3.99s CPU      4.14s WALL (   33760 calls)
 
     Parallel routines
 
     PWSCF        :      7.10s CPU      7.67s WALL

 
   This run was terminated on:  14:30:41   3Jan2024            

=------------------------------------------------------------------------------=
   JOB DONE.
=------------------------------------------------------------------------------=
