 
             +---------------------------------------------------+
             |                                                   |
             |                   WANNIER90                       |
             |                                                   |
             +---------------------------------------------------+
             |                                                   |
             |        Welcome to the Maximally-Localized         |
             |        Generalized Wannier Functions code         |
             |            http://www.wannier.org                 |
             |                                                   |
             |                                                   |
             |  Wannier90 Developer Group:                       |
             |    Giovanni Pizzi    (EPFL)                       |
             |    Valerio Vitale    (Cambridge)                  |
             |    David Vanderbilt  (Rutgers University)         |
             |    Nicola Marzari    (EPFL)                       |
             |    Ivo Souza         (Universidad del Pais Vasco) |
             |    Arash A. Mostofi  (Imperial College London)    |
             |    Jonathan R. Yates (University of Oxford)       |
             |                                                   |
             |  For the full list of Wannier90 3.x authors,      |
             |  please check the code documentation and the      |
             |  README on the GitHub page of the code            |
             |                                                   |
             |                                                   |
             |  Please cite                                      |
             |                                                   |
             |  [ref] "Wannier90 as a community code:            |
             |        new features and applications",            |
             |        G. Pizzi et al., J. Phys. Cond. Matt. 32,  |
             |        165902 (2020).                             |
             |        http://doi.org/10.1088/1361-648X/ab51ff    |
             |                                                   |
             |  in any publications arising from the use of      |
             |  this code. For the method please cite            |
             |                                                   |
             |  [ref] "Maximally Localized Generalised Wannier   |
             |         Functions for Composite Energy Bands"     |
             |         N. Marzari and D. Vanderbilt              |
             |         Phys. Rev. B 56 12847 (1997)              |
             |                                                   |
             |  [ref] "Maximally Localized Wannier Functions     |
             |         for Entangled Energy Bands"               |
             |         I. Souza, N. Marzari and D. Vanderbilt    |
             |         Phys. Rev. B 65 035109 (2001)             |
             |                                                   |
             |                                                   |
             | Copyright (c) 1996-2020                           |
             |        The Wannier90 Developer Group and          |
             |        individual contributors                    |
             |                                                   |
             |      Release: 3.1.0        5th March    2020      |
             |                                                   |
             | This program is free software; you can            |
             | redistribute it and/or modify it under the terms  |
             | of the GNU General Public License as published by |
             | the Free Software Foundation; either version 2 of |
             | the License, or (at your option) any later version|
             |                                                   |
             | This program is distributed in the hope that it   |
             | will be useful, but WITHOUT ANY WARRANTY; without |
             | even the implied warranty of MERCHANTABILITY or   |
             | FITNESS FOR A PARTICULAR PURPOSE. See the GNU     |
             | General Public License for more details.          |
             |                                                   |
             | You should have received a copy of the GNU General|
             | Public License along with this program; if not,   |
             | write to the Free Software Foundation, Inc.,      |
             | 675 Mass Ave, Cambridge, MA 02139, USA.           |
             |                                                   |
             +---------------------------------------------------+
             |    Execution started on  3Jan2024 at 14:28:43     |
             +---------------------------------------------------+
 
 ******************************************************************************
 * -> Using CODATA 2006 constant values                                       *
 *    (http://physics.nist.gov/cuu/Constants/index.html)                      *
 * -> Using Bohr value from CODATA                                            *
 ******************************************************************************
 

 Running in parallel on   8 CPUs

 
                                    ------
                                    SYSTEM
                                    ------
 
                              Lattice Vectors (Ang)
                    a_1    -2.654413   0.000000   2.654413
                    a_2     0.000000   2.654413   2.654413
                    a_3    -2.654413   2.654413   0.000000
 
                   Unit Cell Volume:      37.40550  (Ang^3)
 
                        Reciprocal-Space Vectors (Ang^-1)
                    b_1    -1.183536  -1.183536   1.183536
                    b_2     1.183536   1.183536   1.183536
                    b_3    -1.183536   1.183536  -1.183536
  
 *----------------------------------------------------------------------------*
 |   Site       Fractional Coordinate          Cartesian Coordinate (Ang)     |
 +----------------------------------------------------------------------------+
 | K    1   0.00000   0.00000   0.00000   |    0.00000   0.00000   0.00000    |
 | F    1   0.50000   0.50000   0.50000   |   -2.65441   2.65441   2.65441    |
 *----------------------------------------------------------------------------*
                                ------------
                                K-POINT GRID
                                ------------
  
             Grid size = 12 x 12 x 12      Total points = 1728
  
  
 *---------------------------------- MAIN ------------------------------------*
 |  Number of Wannier Functions               :                 3             |
 |  Number of Objective Wannier Functions     :                 3             |
 |  Number of input Bloch states              :                 3             |
 |  Output verbosity (1=low, 5=high)          :                 1             |
 |  Timing Level (1=low, 5=high)              :                 1             |
 |  Optimisation (0=memory, 3=speed)          :                 3             |
 |  Length Unit                               :               Ang             |
 |  Post-processing setup (write *.nnkp)      :                 F             |
 |  Using Gamma-only branch of algorithms     :                 F             |
 *----------------------------------------------------------------------------*
 *------------------------------- WANNIERISE ---------------------------------*
 |  Total number of iterations                :               500             |
 |  Number of CG steps before reset           :                 5             |
 |  Trial step length for line search         :             2.000             |
 |  Convergence tolerence                     :         0.100E-09             |
 |  Convergence window                        :                -1             |
 |  Iterations between writing output         :                 1             |
 |  Iterations between backing up to disk     :               100             |
 |  Write r^2_nm to file                      :                 F             |
 |  Write xyz WF centres to file              :                 F             |
 |  Write on-site energies <0n|H|0n> to file  :                 F             |
 |  Use guiding centre to control phases      :                 F             |
 |  Use phases for initial projections        :                 F             |
 *----------------------------------------------------------------------------*
 Time to read parameters        0.109 (sec)

 *---------------------------------- K-MESH ----------------------------------*
 +----------------------------------------------------------------------------+
 |                    Distance to Nearest-Neighbour Shells                    |
 |                    ------------------------------------                    |
 |          Shell             Distance (Ang^-1)          Multiplicity         |
 |          -----             -----------------          ------------         |
 |             1                   0.170829                      8            |
 |             2                   0.197256                      6            |
 |             3                   0.278962                     12            |
 |             4                   0.327112                     24            |
 |             5                   0.341657                      8            |
 |             6                   0.394512                      6            |
 |             7                   0.429909                     24            |
 |             8                   0.441078                     24            |
 |             9                   0.483176                     24            |
 |            10                   0.512486                     32            |
 |            11                   0.557924                     12            |
 |            12                   0.583491                     48            |
 |            13                   0.591768                     30            |
 |            14                   0.623778                     24            |
 |            15                   0.646747                     24            |
 |            16                   0.654224                     24            |
 |            17                   0.683315                      8            |
 |            18                   0.704345                     48            |
 |            19                   0.711216                     24            |
 |            20                   0.738064                     48            |
 |            21                   0.757576                     72            |
 |            22                   0.789024                      6            |
 |            23                   0.807305                     24            |
 |            24                   0.813307                     48            |
 |            25                   0.836886                     36            |
 |            26                   0.854143                     56            |
 |            27                   0.859819                     24            |
 |            28                   0.882155                     24            |
 |            29                   0.898544                     72            |
 |            30                   0.903940                     48            |
 |            31                   0.925212                     24            |
 |            32                   0.940851                     48            |
 |            33                   0.966353                     24            |
 |            34                   0.981336                     72            |
 |            35                   0.986280                     30            |
 |            36                   1.005812                     72            |
 +----------------------------------------------------------------------------+
 | The b-vectors are chosen automatically                                     |
 | The following shells are used:   1                                         |
 +----------------------------------------------------------------------------+
 |                        Shell   # Nearest-Neighbours                        |
 |                        -----   --------------------                        |
 |                          1               8                                 |
 +----------------------------------------------------------------------------+
 | Completeness relation is fully satisfied [Eq. (B1), PRB 56, 12847 (1997)]  |
 +----------------------------------------------------------------------------+
 |                  b_k Vectors (Ang^-1) and Weights (Ang^2)                  |
 |                  ----------------------------------------                  |
 |            No.         b_k(x)      b_k(y)      b_k(z)        w_b           |
 |            ---        --------------------------------     --------        |
 |             1        -0.098628    0.098628   -0.098628    12.850197        |
 |             2         0.098628    0.098628    0.098628    12.850197        |
 |             3        -0.098628   -0.098628    0.098628    12.850197        |
 |             4        -0.098628    0.098628    0.098628    12.850197        |
 |             5         0.098628   -0.098628    0.098628    12.850197        |
 |             6        -0.098628   -0.098628   -0.098628    12.850197        |
 |             7         0.098628    0.098628   -0.098628    12.850197        |
 |             8         0.098628   -0.098628   -0.098628    12.850197        |
 +----------------------------------------------------------------------------+
 |                           b_k Directions (Ang^-1)                          |
 |                           -----------------------                          |
 |            No.           x           y           z                         |
 |            ---        --------------------------------                     |
 |             1        -0.098628    0.098628   -0.098628                     |
 |             2         0.098628    0.098628    0.098628                     |
 |             3        -0.098628   -0.098628    0.098628                     |
 |             4        -0.098628    0.098628    0.098628                     |
 +----------------------------------------------------------------------------+
  
 Time to get kmesh              1.042 (sec)
 *============================================================================*
 |                              MEMORY ESTIMATE                               |
 |         Maximum RAM allocated during each phase of the calculation         |
 *============================================================================*
 |                            Wannierise:            7.00 Mb                  |
 |                          plot_wannier:            7.00 Mb                  |
 *----------------------------------------------------------------------------*
  
 Starting a new Wannier90 calculation ...


 Reading overlaps from mp-463.mmn    :  Created on  3Jan2024 at 14:28:39

 Reading projections from mp-463.amn :  Created on  3Jan2024 at 14:28:38  with SCDM

 Time to read overlaps          0.140 (sec)

 Writing checkpoint file mp-463.chk... done

 
 *------------------------------- WANNIERISE ---------------------------------*
 +--------------------------------------------------------------------+<-- CONV
 | Iter  Delta Spread     RMS Gradient      Spread (Ang^2)      Time  |<-- CONV
 +--------------------------------------------------------------------+<-- CONV
 
 ------------------------------------------------------------------------------
 Initial State
  WF centre and spread    1  (  0.000039,  0.000039,  2.654502 )     0.77383763
  WF centre and spread    2  (  0.000039, -2.654503, -0.000039 )     0.77383746
  WF centre and spread    3  ( -2.654503,  0.000039, -0.000039 )     0.77383749
  Sum of centres and spreads ( -2.654424, -2.654425,  2.654425 )     2.32151259
 
      0     0.232E+01     0.0000000000        2.3215142794       0.00  <-- CONV
        O_D=      0.0031553 O_OD=      0.0052632 O_TOT=      2.3215143 <-- SPRD
 ------------------------------------------------------------------------------
 Cycle:      1
  WF centre and spread    1  (  0.000010,  0.000010,  2.654436 )     0.77171215
  WF centre and spread    2  (  0.000010, -2.654436, -0.000010 )     0.77171165
  WF centre and spread    3  ( -2.654436,  0.000010, -0.000010 )     0.77171198
  Sum of centres and spreads ( -2.654416, -2.654416,  2.654416 )     2.31513577
 
      1    -0.638E-02     0.0199146715        2.3151374658       0.01  <-- CONV
        O_D=      0.0002645 O_OD=      0.0017772 O_TOT=      2.3151375 <-- SPRD
 Delta: O_D= -0.2890802E-02 O_OD= -0.3486012E-02 O_TOT= -0.6376814E-02 <-- DLTA
 ------------------------------------------------------------------------------
 Cycle:      2
  WF centre and spread    1  (  0.000009,  0.000008,  2.654433 )     0.77164316
  WF centre and spread    2  (  0.000009, -2.654433, -0.000008 )     0.77164294
  WF centre and spread    3  ( -2.654433,  0.000008, -0.000008 )     0.77164303
  Sum of centres and spreads ( -2.654415, -2.654416,  2.654416 )     2.31492913
 
      2    -0.207E-03     0.0100270556        2.3149308218       0.01  <-- CONV
        O_D=      0.0001728 O_OD=      0.0016622 O_TOT=      2.3149308 <-- SPRD
 Delta: O_D= -0.9171938E-04 O_OD= -0.1149246E-03 O_TOT= -0.2066440E-03 <-- DLTA
 ------------------------------------------------------------------------------
 Cycle:      3
  WF centre and spread    1  (  0.000007,  0.000007,  2.654429 )     0.77160565
  WF centre and spread    2  (  0.000007, -2.654429, -0.000007 )     0.77160538
  WF centre and spread    3  ( -2.654429,  0.000007, -0.000007 )     0.77160543
  Sum of centres and spreads ( -2.654415, -2.654416,  2.654415 )     2.31481646
 
      3    -0.113E-03     0.0053015061        2.3148181463       0.02  <-- CONV
        O_D=      0.0001219 O_OD=      0.0016005 O_TOT=      2.3148181 <-- SPRD
 Delta: O_D= -0.5093931E-04 O_OD= -0.6173611E-04 O_TOT= -0.1126754E-03 <-- DLTA
 ------------------------------------------------------------------------------
 Cycle:      4
  WF centre and spread    1  (  0.000005,  0.000004,  2.654423 )     0.77156465
  WF centre and spread    2  (  0.000005, -2.654423, -0.000004 )     0.77156449
  WF centre and spread    3  ( -2.654423,  0.000004, -0.000004 )     0.77156441
  Sum of centres and spreads ( -2.654414, -2.654415,  2.654415 )     2.31469355
 
      4    -0.123E-03     0.0054691733        2.3146952403       0.03  <-- CONV
        O_D=      0.0000594 O_OD=      0.0015400 O_TOT=      2.3146952 <-- SPRD
 Delta: O_D= -0.6241693E-04 O_OD= -0.6048915E-04 O_TOT= -0.1229061E-03 <-- DLTA
 ------------------------------------------------------------------------------
 Cycle:      5
  WF centre and spread    1  (  0.000003,  0.000002,  2.654419 )     0.77154226
  WF centre and spread    2  (  0.000003, -2.654419, -0.000002 )     0.77154212
  WF centre and spread    3  ( -2.654419,  0.000002, -0.000002 )     0.77154210
  Sum of centres and spreads ( -2.654413, -2.654414,  2.654414 )     2.31462648
 
      5    -0.671E-04     0.0045392538        2.3146281696       0.03  <-- CONV
        O_D=      0.0000264 O_OD=      0.0015060 O_TOT=      2.3146282 <-- SPRD
 Delta: O_D= -0.3301192E-04 O_OD= -0.3405874E-04 O_TOT= -0.6707066E-04 <-- DLTA
 ------------------------------------------------------------------------------
 Cycle:      6
  WF centre and spread    1  (  0.000001,  0.000001,  2.654415 )     0.77152763
  WF centre and spread    2  (  0.000001, -2.654415, -0.000001 )     0.77152752
  WF centre and spread    3  ( -2.654416,  0.000001, -0.000001 )     0.77152749
  Sum of centres and spreads ( -2.654413, -2.654414,  2.654413 )     2.31458264
 
      6    -0.438E-04     0.0035491246        2.3145843321       0.04  <-- CONV
        O_D=      0.0000086 O_OD=      0.0014799 O_TOT=      2.3145843 <-- SPRD
 Delta: O_D= -0.1781344E-04 O_OD= -0.2602410E-04 O_TOT= -0.4383754E-04 <-- DLTA
 ------------------------------------------------------------------------------
 Cycle:      7
  WF centre and spread    1  (  0.000001,  0.000001,  2.654415 )     0.77152358
  WF centre and spread    2  (  0.000001, -2.654415, -0.000001 )     0.77152347
  WF centre and spread    3  ( -2.654416,  0.000001, -0.000001 )     0.77152346
  Sum of centres and spreads ( -2.654413, -2.654414,  2.654413 )     2.31457051
 
      7    -0.121E-04     0.0025575479        2.3145722016       0.05  <-- CONV
        O_D=      0.0000040 O_OD=      0.0014724 O_TOT=      2.3145722 <-- SPRD
 Delta: O_D= -0.4602790E-05 O_OD= -0.7527681E-05 O_TOT= -0.1213047E-04 <-- DLTA
 ------------------------------------------------------------------------------
 Cycle:      8
  WF centre and spread    1  (  0.000001,  0.000001,  2.654415 )     0.77152164
  WF centre and spread    2  (  0.000001, -2.654415, -0.000001 )     0.77152153
  WF centre and spread    3  ( -2.654415,  0.000001, -0.000001 )     0.77152153
  Sum of centres and spreads ( -2.654413, -2.654414,  2.654413 )     2.31456470
 
      8    -0.581E-05     0.0013861283        2.3145663959       0.05  <-- CONV
        O_D=      0.0000021 O_OD=      0.0014685 O_TOT=      2.3145664 <-- SPRD
 Delta: O_D= -0.1923166E-05 O_OD= -0.3882504E-05 O_TOT= -0.5805671E-05 <-- DLTA
 ------------------------------------------------------------------------------
 Cycle:      9
  WF centre and spread    1  (  0.000001,  0.000001,  2.654415 )     0.77152081
  WF centre and spread    2  (  0.000001, -2.654415, -0.000001 )     0.77152070
  WF centre and spread    3  ( -2.654415,  0.000001, -0.000001 )     0.77152071
  Sum of centres and spreads ( -2.654413, -2.654414,  2.654413 )     2.31456222
 
      9    -0.249E-05     0.0009294105        2.3145639096       0.06  <-- CONV
        O_D=      0.0000011 O_OD=      0.0014670 O_TOT=      2.3145639 <-- SPRD
 Delta: O_D= -0.9895736E-06 O_OD= -0.1496731E-05 O_TOT= -0.2486305E-05 <-- DLTA
 ------------------------------------------------------------------------------
 Cycle:     10
  WF centre and spread    1  (  0.000001,  0.000001,  2.654414 )     0.77152051
  WF centre and spread    2  (  0.000001, -2.654415, -0.000001 )     0.77152039
  WF centre and spread    3  ( -2.654415,  0.000001, -0.000001 )     0.77152040
  Sum of centres and spreads ( -2.654413, -2.654414,  2.654413 )     2.31456130
 
     10    -0.921E-06     0.0005703394        2.3145629891       0.07  <-- CONV
        O_D=      0.0000007 O_OD=      0.0014665 O_TOT=      2.3145630 <-- SPRD
 Delta: O_D= -0.4250594E-06 O_OD= -0.4954588E-06 O_TOT= -0.9205182E-06 <-- DLTA
 ------------------------------------------------------------------------------
 Cycle:     11
  WF centre and spread    1  (  0.000001,  0.000000,  2.654414 )     0.77152032
  WF centre and spread    2  (  0.000001, -2.654414, -0.000000 )     0.77152020
  WF centre and spread    3  ( -2.654415,  0.000000, -0.000000 )     0.77152021
  Sum of centres and spreads ( -2.654413, -2.654413,  2.654413 )     2.31456073
 
     11    -0.567E-06     0.0003839566        2.3145624217       0.07  <-- CONV
        O_D=      0.0000005 O_OD=      0.0014662 O_TOT=      2.3145624 <-- SPRD
 Delta: O_D= -0.2278544E-06 O_OD= -0.3395027E-06 O_TOT= -0.5673570E-06 <-- DLTA
 ------------------------------------------------------------------------------
 Cycle:     12
  WF centre and spread    1  (  0.000001,  0.000000,  2.654414 )     0.77152010
  WF centre and spread    2  (  0.000001, -2.654414, -0.000000 )     0.77151998
  WF centre and spread    3  ( -2.654414,  0.000000, -0.000000 )     0.77151999
  Sum of centres and spreads ( -2.654413, -2.654413,  2.654413 )     2.31456007
 
     12    -0.656E-06     0.0003789652        2.3145617654       0.08  <-- CONV
        O_D=      0.0000002 O_OD=      0.0014658 O_TOT=      2.3145618 <-- SPRD
 Delta: O_D= -0.2785071E-06 O_OD= -0.3778133E-06 O_TOT= -0.6563205E-06 <-- DLTA
 ------------------------------------------------------------------------------
 Cycle:     13
  WF centre and spread    1  (  0.000001,  0.000000,  2.654414 )     0.77152005
  WF centre and spread    2  (  0.000001, -2.654414, -0.000000 )     0.77151993
  WF centre and spread    3  ( -2.654414,  0.000000, -0.000000 )     0.77151994
  Sum of centres and spreads ( -2.654413, -2.654413,  2.654413 )     2.31455993
 
     13    -0.149E-06     0.0002849762        2.3145616163       0.09  <-- CONV
        O_D=      0.0000001 O_OD=      0.0014657 O_TOT=      2.3145616 <-- SPRD
 Delta: O_D= -0.6609810E-07 O_OD= -0.8300170E-07 O_TOT= -0.1490998E-06 <-- DLTA
 ------------------------------------------------------------------------------
 Cycle:     14
  WF centre and spread    1  (  0.000001,  0.000000,  2.654414 )     0.77152002
  WF centre and spread    2  (  0.000001, -2.654414, -0.000000 )     0.77151990
  WF centre and spread    3  ( -2.654414,  0.000000, -0.000000 )     0.77151992
  Sum of centres and spreads ( -2.654413, -2.654413,  2.654413 )     2.31455984
 
     14    -0.851E-07     0.0001639617        2.3145615312       0.09  <-- CONV
        O_D=      0.0000001 O_OD=      0.0014657 O_TOT=      2.3145615 <-- SPRD
 Delta: O_D= -0.3808196E-07 O_OD= -0.4701085E-07 O_TOT= -0.8509281E-07 <-- DLTA
 ------------------------------------------------------------------------------
 Cycle:     15
  WF centre and spread    1  (  0.000001,  0.000000,  2.654414 )     0.77152000
  WF centre and spread    2  (  0.000001, -2.654414, -0.000000 )     0.77151988
  WF centre and spread    3  ( -2.654414,  0.000000, -0.000000 )     0.77151989
  Sum of centres and spreads ( -2.654413, -2.654413,  2.654413 )     2.31455978
 
     15    -0.634E-07     0.0001280464        2.3145614678       0.10  <-- CONV
        O_D=      0.0000000 O_OD=      0.0014657 O_TOT=      2.3145615 <-- SPRD
 Delta: O_D= -0.2799851E-07 O_OD= -0.3541032E-07 O_TOT= -0.6340883E-07 <-- DLTA
 ------------------------------------------------------------------------------
 Cycle:     16
  WF centre and spread    1  (  0.000001,  0.000000,  2.654413 )     0.77151998
  WF centre and spread    2  (  0.000001, -2.654413, -0.000000 )     0.77151987
  WF centre and spread    3  ( -2.654414,  0.000000, -0.000000 )     0.77151988
  Sum of centres and spreads ( -2.654413, -2.654413,  2.654413 )     2.31455973
 
     16    -0.476E-07     0.0001194143        2.3145614202       0.11  <-- CONV
        O_D=      0.0000000 O_OD=      0.0014656 O_TOT=      2.3145614 <-- SPRD
 Delta: O_D= -0.2143653E-07 O_OD= -0.2620690E-07 O_TOT= -0.4764343E-07 <-- DLTA
 ------------------------------------------------------------------------------
 Cycle:     17
  WF centre and spread    1  (  0.000001,  0.000000,  2.654413 )     0.77151998
  WF centre and spread    2  (  0.000001, -2.654413, -0.000000 )     0.77151986
  WF centre and spread    3  ( -2.654414,  0.000000, -0.000000 )     0.77151987
  Sum of centres and spreads ( -2.654413, -2.654413,  2.654413 )     2.31455971
 
     17    -0.223E-07     0.0000908501        2.3145613978       0.11  <-- CONV
        O_D=      0.0000000 O_OD=      0.0014656 O_TOT=      2.3145614 <-- SPRD
 Delta: O_D= -0.9441449E-08 O_OD= -0.1289647E-07 O_TOT= -0.2233792E-07 <-- DLTA
 ------------------------------------------------------------------------------
 Cycle:     18
  WF centre and spread    1  (  0.000000,  0.000000,  2.654413 )     0.77151997
  WF centre and spread    2  (  0.000000, -2.654413, -0.000000 )     0.77151985
  WF centre and spread    3  ( -2.654414, -0.000000, -0.000000 )     0.77151987
  Sum of centres and spreads ( -2.654413, -2.654413,  2.654413 )     2.31455969
 
     18    -0.120E-07     0.0000583266        2.3145613859       0.12  <-- CONV
        O_D=      0.0000000 O_OD=      0.0014656 O_TOT=      2.3145614 <-- SPRD
 Delta: O_D= -0.5311859E-08 O_OD= -0.6678256E-08 O_TOT= -0.1199012E-07 <-- DLTA
 ------------------------------------------------------------------------------
 Cycle:     19
  WF centre and spread    1  (  0.000000,  0.000000,  2.654413 )     0.77151997
  WF centre and spread    2  (  0.000000, -2.654413, -0.000000 )     0.77151985
  WF centre and spread    3  ( -2.654414, -0.000000, -0.000000 )     0.77151987
  Sum of centres and spreads ( -2.654413, -2.654413,  2.654413 )     2.31455969
 
     19    -0.576E-08     0.0000515196        2.3145613801       0.13  <-- CONV
        O_D=      0.0000000 O_OD=      0.0014656 O_TOT=      2.3145614 <-- SPRD
 Delta: O_D= -0.2577164E-08 O_OD= -0.3179631E-08 O_TOT= -0.5756795E-08 <-- DLTA
 ------------------------------------------------------------------------------
 Cycle:     20
  WF centre and spread    1  (  0.000000,  0.000000,  2.654413 )     0.77151997
  WF centre and spread    2  (  0.000000, -2.654413, -0.000000 )     0.77151985
  WF centre and spread    3  ( -2.654414, -0.000000, -0.000000 )     0.77151986
  Sum of centres and spreads ( -2.654413, -2.654413,  2.654413 )     2.31455969
 
     20    -0.401E-08     0.0000319333        2.3145613761       0.13  <-- CONV
        O_D=      0.0000000 O_OD=      0.0014656 O_TOT=      2.3145614 <-- SPRD
 Delta: O_D= -0.1777582E-08 O_OD= -0.2230380E-08 O_TOT= -0.4007963E-08 <-- DLTA
 ------------------------------------------------------------------------------
 Cycle:     21
  WF centre and spread    1  (  0.000000, -0.000000,  2.654413 )     0.77151997
  WF centre and spread    2  (  0.000000, -2.654413, -0.000000 )     0.77151985
  WF centre and spread    3  ( -2.654414, -0.000000, -0.000000 )     0.77151986
  Sum of centres and spreads ( -2.654413, -2.654413,  2.654413 )     2.31455968
 
     21    -0.228E-08     0.0000302299        2.3145613738       0.14  <-- CONV
        O_D=      0.0000000 O_OD=      0.0014656 O_TOT=      2.3145614 <-- SPRD
 Delta: O_D= -0.1073676E-08 O_OD= -0.1208685E-08 O_TOT= -0.2282361E-08 <-- DLTA
 ------------------------------------------------------------------------------
 Cycle:     22
  WF centre and spread    1  (  0.000000, -0.000000,  2.654413 )     0.77151997
  WF centre and spread    2  (  0.000000, -2.654413, -0.000000 )     0.77151985
  WF centre and spread    3  ( -2.654414, -0.000000, -0.000000 )     0.77151986
  Sum of centres and spreads ( -2.654413, -2.654413,  2.654413 )     2.31455968
 
     22    -0.182E-11     0.0000183486        2.3145613738       0.15  <-- CONV
        O_D=      0.0000000 O_OD=      0.0014656 O_TOT=      2.3145614 <-- SPRD
 Delta: O_D= -0.8381958E-12 O_OD= -0.9845172E-12 O_TOT= -0.1822986E-11 <-- DLTA
 ------------------------------------------------------------------------------
 Cycle:     23
  WF centre and spread    1  (  0.000000, -0.000000,  2.654413 )     0.77151997
  WF centre and spread    2  (  0.000000, -2.654413, -0.000000 )     0.77151985
  WF centre and spread    3  ( -2.654414, -0.000000, -0.000000 )     0.77151986
  Sum of centres and spreads ( -2.654413, -2.654413,  2.654413 )     2.31455968
 
     23    -0.103E-08     0.0000183341        2.3145613728       0.15  <-- CONV
        O_D=      0.0000000 O_OD=      0.0014656 O_TOT=      2.3145614 <-- SPRD
 Delta: O_D= -0.4717968E-09 O_OD= -0.5592889E-09 O_TOT= -0.1031085E-08 <-- DLTA
 ------------------------------------------------------------------------------
 Cycle:     24
  WF centre and spread    1  (  0.000000, -0.000000,  2.654413 )     0.77151997
  WF centre and spread    2  (  0.000000, -2.654413, -0.000000 )     0.77151985
  WF centre and spread    3  ( -2.654414, -0.000000, -0.000000 )     0.77151986
  Sum of centres and spreads ( -2.654413, -2.654413,  2.654413 )     2.31455968
 
     24    -0.756E-12     0.0000106700        2.3145613728       0.16  <-- CONV
        O_D=      0.0000000 O_OD=      0.0014656 O_TOT=      2.3145614 <-- SPRD
 Delta: O_D= -0.3487342E-12 O_OD= -0.4069323E-12 O_TOT= -0.7558398E-12 <-- DLTA
 ------------------------------------------------------------------------------
 Cycle:     25
  WF centre and spread    1  (  0.000000, -0.000000,  2.654413 )     0.77151997
  WF centre and spread    2  (  0.000000, -2.654413, -0.000000 )     0.77151985
  WF centre and spread    3  ( -2.654414, -0.000000, -0.000000 )     0.77151986
  Sum of centres and spreads ( -2.654413, -2.654413,  2.654413 )     2.31455968
 
     25    -0.553E-12     0.0000106646        2.3145613728       0.16  <-- CONV
        O_D=      0.0000000 O_OD=      0.0014656 O_TOT=      2.3145614 <-- SPRD
 Delta: O_D= -0.2767658E-12 O_OD= -0.2761543E-12 O_TOT= -0.5528911E-12 <-- DLTA
 ------------------------------------------------------------------------------
 Cycle:     26
  WF centre and spread    1  (  0.000000, -0.000000,  2.654413 )     0.77151997
  WF centre and spread    2  (  0.000000, -2.654413, -0.000000 )     0.77151985
  WF centre and spread    3  ( -2.654414, -0.000000, -0.000000 )     0.77151986
  Sum of centres and spreads ( -2.654413, -2.654413,  2.654413 )     2.31455968
 
     26    -0.298E-09     0.0000106548        2.3145613725       0.17  <-- CONV
        O_D=      0.0000000 O_OD=      0.0014656 O_TOT=      2.3145614 <-- SPRD
 Delta: O_D= -0.1254390E-09 O_OD= -0.1725465E-09 O_TOT= -0.2979856E-09 <-- DLTA
 ------------------------------------------------------------------------------
 Cycle:     27
  WF centre and spread    1  (  0.000000, -0.000000,  2.654413 )     0.77151997
  WF centre and spread    2  (  0.000000, -2.654413, -0.000000 )     0.77151985
  WF centre and spread    3  ( -2.654414, -0.000000, -0.000000 )     0.77151986
  Sum of centres and spreads ( -2.654413, -2.654413,  2.654413 )     2.31455968
 
     27    -0.478E-12     0.0000090233        2.3145613725       0.17  <-- CONV
        O_D=      0.0000000 O_OD=      0.0014656 O_TOT=      2.3145614 <-- SPRD
 Delta: O_D= -0.1995268E-12 O_OD= -0.2783837E-12 O_TOT= -0.4778400E-12 <-- DLTA
 ------------------------------------------------------------------------------
 Cycle:     28
  WF centre and spread    1  (  0.000000, -0.000000,  2.654413 )     0.77151997
  WF centre and spread    2  (  0.000000, -2.654413, -0.000000 )     0.77151985
  WF centre and spread    3  ( -2.654414, -0.000000, -0.000000 )     0.77151986
  Sum of centres and spreads ( -2.654413, -2.654413,  2.654413 )     2.31455968
 
     28    -0.351E-09     0.0000090245        2.3145613721       0.18  <-- CONV
        O_D=      0.0000000 O_OD=      0.0014656 O_TOT=      2.3145614 <-- SPRD
 Delta: O_D= -0.1612257E-09 O_OD= -0.1895952E-09 O_TOT= -0.3508207E-09 <-- DLTA
 ------------------------------------------------------------------------------
 Cycle:     29
  WF centre and spread    1  (  0.000000, -0.000000,  2.654413 )     0.77151997
  WF centre and spread    2  (  0.000000, -2.654413, -0.000000 )     0.77151985
  WF centre and spread    3  ( -2.654414, -0.000000, -0.000000 )     0.77151986
  Sum of centres and spreads ( -2.654413, -2.654413,  2.654413 )     2.31455968
 
     29    -0.440E-12     0.0000066098        2.3145613721       0.18  <-- CONV
        O_D=      0.0000000 O_OD=      0.0014656 O_TOT=      2.3145614 <-- SPRD
 Delta: O_D= -0.1820804E-12 O_OD= -0.2580200E-12 O_TOT= -0.4400924E-12 <-- DLTA
 ------------------------------------------------------------------------------
 Cycle:     30
  WF centre and spread    1  (  0.000000, -0.000000,  2.654413 )     0.77151997
  WF centre and spread    2  (  0.000000, -2.654413, -0.000000 )     0.77151985
  WF centre and spread    3  ( -2.654414, -0.000000, -0.000000 )     0.77151986
  Sum of centres and spreads ( -2.654413, -2.654413,  2.654413 )     2.31455968
 
     30    -0.651E-12     0.0000066068        2.3145613721       0.18  <-- CONV
        O_D=      0.0000000 O_OD=      0.0014656 O_TOT=      2.3145614 <-- SPRD
 Delta: O_D= -0.2730307E-12 O_OD= -0.3785095E-12 O_TOT= -0.6514789E-12 <-- DLTA
 ------------------------------------------------------------------------------
 Cycle:     31
  WF centre and spread    1  (  0.000000, -0.000000,  2.654413 )     0.77151997
  WF centre and spread    2  (  0.000000, -2.654413, -0.000000 )     0.77151985
  WF centre and spread    3  ( -2.654414, -0.000000, -0.000000 )     0.77151986
  Sum of centres and spreads ( -2.654413, -2.654413,  2.654413 )     2.31455968
 
     31    -0.212E-12     0.0000066000        2.3145613721       0.19  <-- CONV
        O_D=      0.0000000 O_OD=      0.0014656 O_TOT=      2.3145614 <-- SPRD
 Delta: O_D= -0.9112531E-13 O_OD= -0.1206765E-12 O_TOT= -0.2118306E-12 <-- DLTA
 ------------------------------------------------------------------------------
 Cycle:     32
  WF centre and spread    1  (  0.000000, -0.000000,  2.654413 )     0.77151997
  WF centre and spread    2  (  0.000000, -2.654413, -0.000000 )     0.77151985
  WF centre and spread    3  ( -2.654414, -0.000000, -0.000000 )     0.77151986
  Sum of centres and spreads ( -2.654413, -2.654413,  2.654413 )     2.31455968
 
     32    -0.423E-12     0.0000065961        2.3145613721       0.19  <-- CONV
        O_D=      0.0000000 O_OD=      0.0014656 O_TOT=      2.3145614 <-- SPRD
 Delta: O_D= -0.1819302E-12 O_OD= -0.2409368E-12 O_TOT= -0.4232170E-12 <-- DLTA
 ------------------------------------------------------------------------------
 Cycle:     33
  WF centre and spread    1  (  0.000000, -0.000000,  2.654413 )     0.77151997
  WF centre and spread    2  (  0.000000, -2.654413, -0.000000 )     0.77151985
  WF centre and spread    3  ( -2.654414, -0.000000, -0.000000 )     0.77151986
  Sum of centres and spreads ( -2.654413, -2.654413,  2.654413 )     2.31455968
 
     33    -0.163E-09     0.0000065884        2.3145613720       0.20  <-- CONV
        O_D=      0.0000000 O_OD=      0.0014656 O_TOT=      2.3145614 <-- SPRD
 Delta: O_D= -0.6978638E-10 O_OD= -0.9308502E-10 O_TOT= -0.1628715E-09 <-- DLTA
 ------------------------------------------------------------------------------
 Cycle:     34
  WF centre and spread    1  (  0.000000, -0.000000,  2.654413 )     0.77151997
  WF centre and spread    2  (  0.000000, -2.654413, -0.000000 )     0.77151985
  WF centre and spread    3  ( -2.654414, -0.000000, -0.000000 )     0.77151986
  Sum of centres and spreads ( -2.654413, -2.654413,  2.654413 )     2.31455968
 
     34    -0.309E-12     0.0000057071        2.3145613720       0.20  <-- CONV
        O_D=      0.0000000 O_OD=      0.0014656 O_TOT=      2.3145614 <-- SPRD
 Delta: O_D= -0.1315014E-12 O_OD= -0.1778935E-12 O_TOT= -0.3090861E-12 <-- DLTA
 ------------------------------------------------------------------------------
 Cycle:     35
  WF centre and spread    1  (  0.000000, -0.000000,  2.654413 )     0.77151997
  WF centre and spread    2  (  0.000000, -2.654413, -0.000000 )     0.77151985
  WF centre and spread    3  ( -2.654414, -0.000000, -0.000000 )     0.77151986
  Sum of centres and spreads ( -2.654413, -2.654413,  2.654413 )     2.31455968
 
     35    -0.468E-12     0.0000057096        2.3145613720       0.20  <-- CONV
        O_D=      0.0000000 O_OD=      0.0014656 O_TOT=      2.3145614 <-- SPRD
 Delta: O_D= -0.1991649E-12 O_OD= -0.2687117E-12 O_TOT= -0.4676259E-12 <-- DLTA
 ------------------------------------------------------------------------------
 Cycle:     36
  WF centre and spread    1  (  0.000000, -0.000000,  2.654413 )     0.77151997
  WF centre and spread    2  (  0.000000, -2.654413, -0.000000 )     0.77151985
  WF centre and spread    3  ( -2.654414, -0.000000, -0.000000 )     0.77151986
  Sum of centres and spreads ( -2.654413, -2.654413,  2.654413 )     2.31455968
 
     36    -0.626E-12     0.0000057084        2.3145613720       0.21  <-- CONV
        O_D=      0.0000000 O_OD=      0.0014656 O_TOT=      2.3145614 <-- SPRD
 Delta: O_D= -0.2665637E-12 O_OD= -0.3591864E-12 O_TOT= -0.6261658E-12 <-- DLTA
 ------------------------------------------------------------------------------
 Cycle:     37
  WF centre and spread    1  (  0.000000, -0.000000,  2.654413 )     0.77151997
  WF centre and spread    2  (  0.000000, -2.654413, -0.000000 )     0.77151985
  WF centre and spread    3  ( -2.654414, -0.000000, -0.000000 )     0.77151986
  Sum of centres and spreads ( -2.654413, -2.654413,  2.654413 )     2.31455968
 
     37    -0.158E-12     0.0000057035        2.3145613720       0.21  <-- CONV
        O_D=      0.0000000 O_OD=      0.0014656 O_TOT=      2.3145614 <-- SPRD
 Delta: O_D= -0.6752628E-13 O_OD= -0.9063735E-13 O_TOT= -0.1580958E-12 <-- DLTA
 ------------------------------------------------------------------------------
 Cycle:     38
  WF centre and spread    1  (  0.000000, -0.000000,  2.654413 )     0.77151997
  WF centre and spread    2  (  0.000000, -2.654413, -0.000000 )     0.77151985
  WF centre and spread    3  ( -2.654414, -0.000000, -0.000000 )     0.77151986
  Sum of centres and spreads ( -2.654413, -2.654413,  2.654413 )     2.31455968
 
     38    -0.316E-12     0.0000056997        2.3145613720       0.22  <-- CONV
        O_D=      0.0000000 O_OD=      0.0014656 O_TOT=      2.3145614 <-- SPRD
 Delta: O_D= -0.1347820E-12 O_OD= -0.1809221E-12 O_TOT= -0.3157474E-12 <-- DLTA
 ------------------------------------------------------------------------------
 Cycle:     39
  WF centre and spread    1  (  0.000000, -0.000000,  2.654413 )     0.77151997
  WF centre and spread    2  (  0.000000, -2.654413,  0.000000 )     0.77151985
  WF centre and spread    3  ( -2.654413, -0.000000, -0.000000 )     0.77151986
  Sum of centres and spreads ( -2.654413, -2.654413,  2.654413 )     2.31455968
 
     39    -0.111E-09     0.0000056922        2.3145613718       0.22  <-- CONV
        O_D=      0.0000000 O_OD=      0.0014656 O_TOT=      2.3145614 <-- SPRD
 Delta: O_D= -0.4677329E-10 O_OD= -0.6439367E-10 O_TOT= -0.1111666E-09 <-- DLTA
 ------------------------------------------------------------------------------
 Cycle:     40
  WF centre and spread    1  (  0.000000, -0.000000,  2.654413 )     0.77151997
  WF centre and spread    2  (  0.000000, -2.654413,  0.000000 )     0.77151985
  WF centre and spread    3  ( -2.654413, -0.000000, -0.000000 )     0.77151986
  Sum of centres and spreads ( -2.654413, -2.654413,  2.654413 )     2.31455968
 
     40    -0.264E-12     0.0000054579        2.3145613718       0.23  <-- CONV
        O_D=      0.0000000 O_OD=      0.0014656 O_TOT=      2.3145614 <-- SPRD
 Delta: O_D= -0.1103851E-12 O_OD= -0.1530354E-12 O_TOT= -0.2637890E-12 <-- DLTA
 ------------------------------------------------------------------------------
 Cycle:     41
  WF centre and spread    1  (  0.000000, -0.000000,  2.654413 )     0.77151997
  WF centre and spread    2  (  0.000000, -2.654413,  0.000000 )     0.77151985
  WF centre and spread    3  ( -2.654413, -0.000000, -0.000000 )     0.77151986
  Sum of centres and spreads ( -2.654413, -2.654413,  2.654413 )     2.31455968
 
     41    -0.409E-12     0.0000054630        2.3145613718       0.23  <-- CONV
        O_D=      0.0000000 O_OD=      0.0014656 O_TOT=      2.3145614 <-- SPRD
 Delta: O_D= -0.1737643E-12 O_OD= -0.2349817E-12 O_TOT= -0.4085621E-12 <-- DLTA
 ------------------------------------------------------------------------------
 Cycle:     42
  WF centre and spread    1  (  0.000000, -0.000000,  2.654413 )     0.77151997
  WF centre and spread    2  (  0.000000, -2.654413,  0.000000 )     0.77151985
  WF centre and spread    3  ( -2.654413, -0.000000, -0.000000 )     0.77151986
  Sum of centres and spreads ( -2.654413, -2.654413,  2.654413 )     2.31455968
 
     42    -0.554E-12     0.0000054637        2.3145613718       0.23  <-- CONV
        O_D=      0.0000000 O_OD=      0.0014656 O_TOT=      2.3145614 <-- SPRD
 Delta: O_D= -0.2370034E-12 O_OD= -0.3167625E-12 O_TOT= -0.5537792E-12 <-- DLTA
 ------------------------------------------------------------------------------
 Cycle:     43
  WF centre and spread    1  (  0.000000, -0.000000,  2.654413 )     0.77151997
  WF centre and spread    2  (  0.000000, -2.654413,  0.000000 )     0.77151985
  WF centre and spread    3  ( -2.654413, -0.000000, -0.000000 )     0.77151986
  Sum of centres and spreads ( -2.654413, -2.654413,  2.654413 )     2.31455968
 
     43    -0.145E-12     0.0000054600        2.3145613718       0.24  <-- CONV
        O_D=      0.0000000 O_OD=      0.0014656 O_TOT=      2.3145614 <-- SPRD
 Delta: O_D= -0.6319533E-13 O_OD= -0.8174364E-13 O_TOT= -0.1447731E-12 <-- DLTA
 ------------------------------------------------------------------------------
 Cycle:     44
  WF centre and spread    1  (  0.000000, -0.000000,  2.654413 )     0.77151997
  WF centre and spread    2  (  0.000000, -2.654413,  0.000000 )     0.77151985
  WF centre and spread    3  ( -2.654413, -0.000000, -0.000000 )     0.77151986
  Sum of centres and spreads ( -2.654413, -2.654413,  2.654413 )     2.31455968
 
     44    -0.290E-12     0.0000054555        2.3145613718       0.24  <-- CONV
        O_D=      0.0000000 O_OD=      0.0014656 O_TOT=      2.3145614 <-- SPRD
 Delta: O_D= -0.1260706E-12 O_OD= -0.1630994E-12 O_TOT= -0.2895462E-12 <-- DLTA
 ------------------------------------------------------------------------------
 Cycle:     45
  WF centre and spread    1  (  0.000000, -0.000000,  2.654413 )     0.77151997
  WF centre and spread    2  (  0.000000, -2.654413,  0.000000 )     0.77151985
  WF centre and spread    3  ( -2.654413, -0.000000, -0.000000 )     0.77151986
  Sum of centres and spreads ( -2.654413, -2.654413,  2.654413 )     2.31455968
 
     45    -0.865E-10     0.0000054467        2.3145613718       0.25  <-- CONV
        O_D=      0.0000000 O_OD=      0.0014656 O_TOT=      2.3145614 <-- SPRD
 Delta: O_D= -0.3603613E-10 O_OD= -0.5043885E-10 O_TOT= -0.8647483E-10 <-- DLTA
 ------------------------------------------------------------------------------
 Cycle:     46
  WF centre and spread    1  (  0.000000, -0.000000,  2.654413 )     0.77151997
  WF centre and spread    2  (  0.000000, -2.654413,  0.000000 )     0.77151985
  WF centre and spread    3  ( -2.654413, -0.000000, -0.000000 )     0.77151986
  Sum of centres and spreads ( -2.654413, -2.654413,  2.654413 )     2.31455968
 
     46    -0.195E-12     0.0000051521        2.3145613718       0.25  <-- CONV
        O_D=      0.0000000 O_OD=      0.0014656 O_TOT=      2.3145614 <-- SPRD
 Delta: O_D= -0.7901955E-13 O_OD= -0.1163605E-12 O_TOT= -0.1953993E-12 <-- DLTA
 ------------------------------------------------------------------------------
 Cycle:     47
  WF centre and spread    1  (  0.000000, -0.000000,  2.654413 )     0.77151997
  WF centre and spread    2  (  0.000000, -2.654413,  0.000000 )     0.77151985
  WF centre and spread    3  ( -2.654413, -0.000000, -0.000000 )     0.77151986
  Sum of centres and spreads ( -2.654413, -2.654413,  2.654413 )     2.31455968
 
     47    -0.325E-12     0.0000051583        2.3145613718       0.25  <-- CONV
        O_D=      0.0000000 O_OD=      0.0014656 O_TOT=      2.3145614 <-- SPRD
 Delta: O_D= -0.1380603E-12 O_OD= -0.1869078E-12 O_TOT= -0.3250733E-12 <-- DLTA
 ------------------------------------------------------------------------------
 Cycle:     48
  WF centre and spread    1  (  0.000000, -0.000000,  2.654413 )     0.77151997
  WF centre and spread    2  (  0.000000, -2.654413,  0.000000 )     0.77151985
  WF centre and spread    3  ( -2.654413, -0.000000, -0.000000 )     0.77151986
  Sum of centres and spreads ( -2.654413, -2.654413,  2.654413 )     2.31455968
 
     48    -0.454E-12     0.0000051600        2.3145613718       0.26  <-- CONV
        O_D=      0.0000000 O_OD=      0.0014656 O_TOT=      2.3145614 <-- SPRD
 Delta: O_D= -0.1970602E-12 O_OD= -0.2573926E-12 O_TOT= -0.4543033E-12 <-- DLTA
 ------------------------------------------------------------------------------
 Cycle:     49
  WF centre and spread    1  (  0.000000, -0.000000,  2.654413 )     0.77151997
  WF centre and spread    2  (  0.000000, -2.654413,  0.000000 )     0.77151985
  WF centre and spread    3  ( -2.654413, -0.000000, -0.000000 )     0.77151986
  Sum of centres and spreads ( -2.654413, -2.654413,  2.654413 )     2.31455968
 
     49    -0.129E-12     0.0000051570        2.3145613718       0.26  <-- CONV
        O_D=      0.0000000 O_OD=      0.0014656 O_TOT=      2.3145614 <-- SPRD
 Delta: O_D= -0.5889747E-13 O_OD= -0.7039421E-13 O_TOT= -0.1292300E-12 <-- DLTA
 ------------------------------------------------------------------------------
 Cycle:     50
  WF centre and spread    1  (  0.000000, -0.000000,  2.654413 )     0.77151997
  WF centre and spread    2  (  0.000000, -2.654413,  0.000000 )     0.77151985
  WF centre and spread    3  ( -2.654413, -0.000000, -0.000000 )     0.77151986
  Sum of centres and spreads ( -2.654413, -2.654413,  2.654413 )     2.31455968
 
     50    -0.258E-12     0.0000051524        2.3145613718       0.27  <-- CONV
        O_D=      0.0000000 O_OD=      0.0014656 O_TOT=      2.3145614 <-- SPRD
 Delta: O_D= -0.1174514E-12 O_OD= -0.1404380E-12 O_TOT= -0.2580158E-12 <-- DLTA
 ------------------------------------------------------------------------------
 Cycle:     51
  WF centre and spread    1  (  0.000000, -0.000000,  2.654413 )     0.77151997
  WF centre and spread    2  (  0.000000, -2.654413,  0.000000 )     0.77151985
  WF centre and spread    3  ( -2.654413, -0.000000, -0.000000 )     0.77151986
  Sum of centres and spreads ( -2.654413, -2.654413,  2.654413 )     2.31455968
 
     51    -0.628E-10     0.0000051431        2.3145613717       0.27  <-- CONV
        O_D=      0.0000000 O_OD=      0.0014656 O_TOT=      2.3145614 <-- SPRD
 Delta: O_D= -0.2693400E-10 O_OD= -0.3587312E-10 O_TOT= -0.6280709E-10 <-- DLTA
 ------------------------------------------------------------------------------
 Cycle:     52
  WF centre and spread    1  (  0.000000, -0.000000,  2.654413 )     0.77151997
  WF centre and spread    2  (  0.000000, -2.654413,  0.000000 )     0.77151985
  WF centre and spread    3  ( -2.654413, -0.000000, -0.000000 )     0.77151986
  Sum of centres and spreads ( -2.654413, -2.654413,  2.654413 )     2.31455968
 
     52    -0.204E-10     0.0000039856        2.3145613717       0.28  <-- CONV
        O_D=      0.0000000 O_OD=      0.0014656 O_TOT=      2.3145614 <-- SPRD
 Delta: O_D= -0.7991017E-11 O_OD= -0.1238520E-10 O_TOT= -0.2037615E-10 <-- DLTA
 ------------------------------------------------------------------------------
 Cycle:     53
  WF centre and spread    1  (  0.000000, -0.000000,  2.654413 )     0.77151997
  WF centre and spread    2  (  0.000000, -2.654413,  0.000000 )     0.77151985
  WF centre and spread    3  ( -2.654413, -0.000000, -0.000000 )     0.77151986
  Sum of centres and spreads ( -2.654413, -2.654413,  2.654413 )     2.31455968
 
     53    -0.259E-12     0.0000045383        2.3145613717       0.28  <-- CONV
        O_D=      0.0000000 O_OD=      0.0014656 O_TOT=      2.3145614 <-- SPRD
 Delta: O_D= -0.1080163E-12 O_OD= -0.1512221E-12 O_TOT= -0.2593481E-12 <-- DLTA
 ------------------------------------------------------------------------------
 Cycle:     54
  WF centre and spread    1  (  0.000000, -0.000000,  2.654413 )     0.77151997
  WF centre and spread    2  (  0.000000, -2.654413,  0.000000 )     0.77151985
  WF centre and spread    3  ( -2.654413, -0.000000, -0.000000 )     0.77151986
  Sum of centres and spreads ( -2.654413, -2.654413,  2.654413 )     2.31455968
 
     54    -0.359E-12     0.0000045408        2.3145613717       0.29  <-- CONV
        O_D=      0.0000000 O_OD=      0.0014656 O_TOT=      2.3145614 <-- SPRD
 Delta: O_D= -0.1555351E-12 O_OD= -0.2040670E-12 O_TOT= -0.3592682E-12 <-- DLTA
 ------------------------------------------------------------------------------
 Cycle:     55
  WF centre and spread    1  (  0.000000, -0.000000,  2.654413 )     0.77151997
  WF centre and spread    2  (  0.000000, -2.654413,  0.000000 )     0.77151985
  WF centre and spread    3  ( -2.654413, -0.000000, -0.000000 )     0.77151986
  Sum of centres and spreads ( -2.654413, -2.654413,  2.654413 )     2.31455968
 
     55    -0.100E-12     0.0000045395        2.3145613717       0.29  <-- CONV
        O_D=      0.0000000 O_OD=      0.0014656 O_TOT=      2.3145614 <-- SPRD
 Delta: O_D= -0.4742172E-13 O_OD= -0.5276357E-13 O_TOT= -0.1003642E-12 <-- DLTA
 ------------------------------------------------------------------------------
 Cycle:     56
  WF centre and spread    1  (  0.000000, -0.000000,  2.654413 )     0.77151997
  WF centre and spread    2  (  0.000000, -2.654413,  0.000000 )     0.77151985
  WF centre and spread    3  ( -2.654413, -0.000000, -0.000000 )     0.77151986
  Sum of centres and spreads ( -2.654413, -2.654413,  2.654413 )     2.31455968
 
     56    -0.200E-12     0.0000045356        2.3145613717       0.29  <-- CONV
        O_D=      0.0000000 O_OD=      0.0014656 O_TOT=      2.3145614 <-- SPRD
 Delta: O_D= -0.9457181E-13 O_OD= -0.1052955E-12 O_TOT= -0.1998401E-12 <-- DLTA
 ------------------------------------------------------------------------------
 Cycle:     57
  WF centre and spread    1  (  0.000000, -0.000000,  2.654413 )     0.77151997
  WF centre and spread    2  (  0.000000, -2.654413,  0.000000 )     0.77151985
  WF centre and spread    3  ( -2.654413, -0.000000, -0.000000 )     0.77151986
  Sum of centres and spreads ( -2.654413, -2.654413,  2.654413 )     2.31455968
 
     57    -0.298E-12     0.0000045280        2.3145613717       0.30  <-- CONV
        O_D=      0.0000000 O_OD=      0.0014656 O_TOT=      2.3145614 <-- SPRD
 Delta: O_D= -0.1411032E-12 O_OD= -0.1572609E-12 O_TOT= -0.2984279E-12 <-- DLTA
 ------------------------------------------------------------------------------
 Cycle:     58
  WF centre and spread    1  (  0.000000, -0.000000,  2.654413 )     0.77151997
  WF centre and spread    2  (  0.000000, -2.654413,  0.000000 )     0.77151985
  WF centre and spread    3  ( -2.654413, -0.000000, -0.000000 )     0.77151986
  Sum of centres and spreads ( -2.654413, -2.654413,  2.654413 )     2.31455968
 
     58    -0.548E-10     0.0000045166        2.3145613716       0.30  <-- CONV
        O_D=      0.0000000 O_OD=      0.0014656 O_TOT=      2.3145614 <-- SPRD
 Delta: O_D= -0.2294470E-10 O_OD= -0.3181469E-10 O_TOT= -0.5475931E-10 <-- DLTA
 ------------------------------------------------------------------------------
 Cycle:     59
  WF centre and spread    1  (  0.000000, -0.000000,  2.654413 )     0.77151997
  WF centre and spread    2  (  0.000000, -2.654413,  0.000000 )     0.77151985
  WF centre and spread    3  ( -2.654413, -0.000000, -0.000000 )     0.77151986
  Sum of centres and spreads ( -2.654413, -2.654413,  2.654413 )     2.31455968
 
     59    -0.162E-12     0.0000040127        2.3145613716       0.31  <-- CONV
        O_D=      0.0000000 O_OD=      0.0014656 O_TOT=      2.3145614 <-- SPRD
 Delta: O_D= -0.5677100E-13 O_OD= -0.1046079E-12 O_TOT= -0.1616485E-12 <-- DLTA
 ------------------------------------------------------------------------------
 Cycle:     60
  WF centre and spread    1  (  0.000000, -0.000000,  2.654413 )     0.77151997
  WF centre and spread    2  (  0.000000, -2.654413,  0.000000 )     0.77151985
  WF centre and spread    3  ( -2.654413, -0.000000, -0.000000 )     0.77151986
  Sum of centres and spreads ( -2.654413, -2.654413,  2.654413 )     2.31455968
 
     60    -0.240E-12     0.0000040192        2.3145613716       0.31  <-- CONV
        O_D=      0.0000000 O_OD=      0.0014656 O_TOT=      2.3145614 <-- SPRD
 Delta: O_D= -0.9567767E-13 O_OD= -0.1443943E-12 O_TOT= -0.2398082E-12 <-- DLTA
 ------------------------------------------------------------------------------
 Cycle:     61
  WF centre and spread    1  (  0.000000, -0.000000,  2.654413 )     0.77151997
  WF centre and spread    2  (  0.000000, -2.654413,  0.000000 )     0.77151985
  WF centre and spread    3  ( -2.654413, -0.000000, -0.000000 )     0.77151986
  Sum of centres and spreads ( -2.654413, -2.654413,  2.654413 )     2.31455968
 
     61    -0.790E-13     0.0000040229        2.3145613716       0.32  <-- CONV
        O_D=      0.0000000 O_OD=      0.0014656 O_TOT=      2.3145614 <-- SPRD
 Delta: O_D= -0.3899463E-13 O_OD= -0.3969459E-13 O_TOT= -0.7904788E-13 <-- DLTA
 ------------------------------------------------------------------------------
 Cycle:     62
  WF centre and spread    1  (  0.000000, -0.000000,  2.654413 )     0.77151997
  WF centre and spread    2  (  0.000000, -2.654413,  0.000000 )     0.77151985
  WF centre and spread    3  ( -2.654413, -0.000000, -0.000000 )     0.77151986
  Sum of centres and spreads ( -2.654413, -2.654413,  2.654413 )     2.31455968
 
     62    -0.157E-12     0.0000040199        2.3145613716       0.32  <-- CONV
        O_D=      0.0000000 O_OD=      0.0014656 O_TOT=      2.3145614 <-- SPRD
 Delta: O_D= -0.7777749E-13 O_OD= -0.7923913E-13 O_TOT= -0.1567635E-12 <-- DLTA
 ------------------------------------------------------------------------------
 Cycle:     63
  WF centre and spread    1  (  0.000000, -0.000000,  2.654413 )     0.77151997
  WF centre and spread    2  (  0.000000, -2.654413,  0.000000 )     0.77151985
  WF centre and spread    3  ( -2.654413, -0.000000, -0.000000 )     0.77151986
  Sum of centres and spreads ( -2.654413, -2.654413,  2.654413 )     2.31455968
 
     63    -0.234E-12     0.0000040139        2.3145613716       0.32  <-- CONV
        O_D=      0.0000000 O_OD=      0.0014656 O_TOT=      2.3145614 <-- SPRD
 Delta: O_D= -0.1160822E-12 O_OD= -0.1184536E-12 O_TOT= -0.2344791E-12 <-- DLTA
 ------------------------------------------------------------------------------
 Cycle:     64
  WF centre and spread    1  (  0.000000, -0.000000,  2.654413 )     0.77151997
  WF centre and spread    2  (  0.000000, -2.654413,  0.000000 )     0.77151985
  WF centre and spread    3  ( -2.654413, -0.000000, -0.000000 )     0.77151986
  Sum of centres and spreads ( -2.654413, -2.654413,  2.654413 )     2.31455968
 
     64    -0.311E-12     0.0000040050        2.3145613716       0.33  <-- CONV
        O_D=      0.0000000 O_OD=      0.0014656 O_TOT=      2.3145614 <-- SPRD
 Delta: O_D= -0.1536511E-12 O_OD= -0.1571434E-12 O_TOT= -0.3108624E-12 <-- DLTA
 ------------------------------------------------------------------------------
 Cycle:     65
  WF centre and spread    1  (  0.000000, -0.000000,  2.654413 )     0.77151997
  WF centre and spread    2  (  0.000000, -2.654413,  0.000000 )     0.77151985
  WF centre and spread    3  ( -2.654413, -0.000000, -0.000000 )     0.77151986
  Sum of centres and spreads ( -2.654413, -2.654413,  2.654413 )     2.31455968
 
     65    -0.499E-10     0.0000039932        2.3145613716       0.33  <-- CONV
        O_D=      0.0000000 O_OD=      0.0014656 O_TOT=      2.3145614 <-- SPRD
 Delta: O_D= -0.1226937E-10 O_OD= -0.3765870E-10 O_TOT= -0.4992762E-10 <-- DLTA
 ------------------------------------------------------------------------------
 Cycle:     66
  WF centre and spread    1  (  0.000000, -0.000000,  2.654413 )     0.77151997
  WF centre and spread    2  (  0.000000, -2.654413,  0.000000 )     0.77151985
  WF centre and spread    3  ( -2.654413, -0.000000, -0.000000 )     0.77151986
  Sum of centres and spreads ( -2.654413, -2.654413,  2.654413 )     2.31455968
 
     66    -0.202E-12     0.0000064353        2.3145613716       0.34  <-- CONV
        O_D=      0.0000000 O_OD=      0.0014656 O_TOT=      2.3145614 <-- SPRD
 Delta: O_D= -0.1315033E-12 O_OD= -0.6974239E-13 O_TOT= -0.2020606E-12 <-- DLTA
 ------------------------------------------------------------------------------
 Cycle:     67
  WF centre and spread    1  (  0.000000, -0.000000,  2.654413 )     0.77151997
  WF centre and spread    2  (  0.000000, -2.654413,  0.000000 )     0.77151985
  WF centre and spread    3  ( -2.654413, -0.000000, -0.000000 )     0.77151986
  Sum of centres and spreads ( -2.654413, -2.654413,  2.654413 )     2.31455968
 
     67    -0.431E-10     0.0000064240        2.3145613715       0.34  <-- CONV
        O_D=      0.0000000 O_OD=      0.0014656 O_TOT=      2.3145614 <-- SPRD
 Delta: O_D= -0.2702700E-10 O_OD= -0.1606398E-10 O_TOT= -0.4309042E-10 <-- DLTA
 ------------------------------------------------------------------------------
 Cycle:     68
  WF centre and spread    1  (  0.000000, -0.000000,  2.654413 )     0.77151997
  WF centre and spread    2  (  0.000000, -2.654413,  0.000000 )     0.77151985
  WF centre and spread    3  ( -2.654413, -0.000000, -0.000000 )     0.77151986
  Sum of centres and spreads ( -2.654413, -2.654413,  2.654413 )     2.31455968
 
     68    -0.123E-12     0.0000035568        2.3145613715       0.35  <-- CONV
        O_D=      0.0000000 O_OD=      0.0014656 O_TOT=      2.3145614 <-- SPRD
 Delta: O_D= -0.6582075E-13 O_OD= -0.5653182E-13 O_TOT= -0.1225686E-12 <-- DLTA
 ------------------------------------------------------------------------------
 Cycle:     69
  WF centre and spread    1  (  0.000000, -0.000000,  2.654413 )     0.77151997
  WF centre and spread    2  (  0.000000, -2.654413,  0.000000 )     0.77151985
  WF centre and spread    3  ( -2.654413, -0.000000, -0.000000 )     0.77151986
  Sum of centres and spreads ( -2.654413, -2.654413,  2.654413 )     2.31455968
 
     69    -0.183E-12     0.0000035491        2.3145613715       0.35  <-- CONV
        O_D=      0.0000000 O_OD=      0.0014656 O_TOT=      2.3145614 <-- SPRD
 Delta: O_D= -0.9591011E-13 O_OD= -0.8667134E-13 O_TOT= -0.1825207E-12 <-- DLTA
 ------------------------------------------------------------------------------
 Cycle:     70
  WF centre and spread    1  (  0.000000, -0.000000,  2.654413 )     0.77151997
  WF centre and spread    2  (  0.000000, -2.654413,  0.000000 )     0.77151985
  WF centre and spread    3  ( -2.654413, -0.000000, -0.000000 )     0.77151986
  Sum of centres and spreads ( -2.654413, -2.654413,  2.654413 )     2.31455968
 
     70    -0.242E-12     0.0000035386        2.3145613715       0.35  <-- CONV
        O_D=      0.0000000 O_OD=      0.0014656 O_TOT=      2.3145614 <-- SPRD
 Delta: O_D= -0.1252324E-12 O_OD= -0.1163143E-12 O_TOT= -0.2415845E-12 <-- DLTA
 ------------------------------------------------------------------------------
 Cycle:     71
  WF centre and spread    1  (  0.000000, -0.000000,  2.654413 )     0.77151997
  WF centre and spread    2  (  0.000000, -2.654413,  0.000000 )     0.77151985
  WF centre and spread    3  ( -2.654413, -0.000000, -0.000000 )     0.77151986
  Sum of centres and spreads ( -2.654413, -2.654413,  2.654413 )     2.31455968
 
     71    -0.290E-10     0.0000035252        2.3145613715       0.36  <-- CONV
        O_D=      0.0000000 O_OD=      0.0014656 O_TOT=      2.3145614 <-- SPRD
 Delta: O_D= -0.1014599E-10 O_OD= -0.1881356E-10 O_TOT= -0.2895950E-10 <-- DLTA
 ------------------------------------------------------------------------------
 Cycle:     72
  WF centre and spread    1  (  0.000000, -0.000000,  2.654413 )     0.77151997
  WF centre and spread    2  (  0.000000, -2.654413,  0.000000 )     0.77151985
  WF centre and spread    3  ( -2.654413, -0.000000, -0.000000 )     0.77151986
  Sum of centres and spreads ( -2.654413, -2.654413,  2.654413 )     2.31455968
 
     72    -0.768E-13     0.0000039701        2.3145613715       0.36  <-- CONV
        O_D=      0.0000000 O_OD=      0.0014656 O_TOT=      2.3145614 <-- SPRD
 Delta: O_D= -0.4651682E-13 O_OD= -0.3009225E-13 O_TOT= -0.7682743E-13 <-- DLTA
 ------------------------------------------------------------------------------
 Cycle:     73
  WF centre and spread    1  (  0.000000, -0.000000,  2.654413 )     0.77151997
  WF centre and spread    2  (  0.000000, -2.654413,  0.000000 )     0.77151985
  WF centre and spread    3  ( -2.654413, -0.000000, -0.000000 )     0.77151986
  Sum of centres and spreads ( -2.654413, -2.654413,  2.654413 )     2.31455968
 
     73    -0.152E-12     0.0000039650        2.3145613715       0.37  <-- CONV
        O_D=      0.0000000 O_OD=      0.0014656 O_TOT=      2.3145614 <-- SPRD
 Delta: O_D= -0.9261726E-13 O_OD= -0.6002924E-13 O_TOT= -0.1523226E-12 <-- DLTA
 ------------------------------------------------------------------------------
 Cycle:     74
  WF centre and spread    1  (  0.000000, -0.000000,  2.654413 )     0.77151997
  WF centre and spread    2  (  0.000000, -2.654413,  0.000000 )     0.77151985
  WF centre and spread    3  ( -2.654413, -0.000000, -0.000000 )     0.77151986
  Sum of centres and spreads ( -2.654413, -2.654413,  2.654413 )     2.31455968
 
     74    -0.227E-12     0.0000039549        2.3145613715       0.37  <-- CONV
        O_D=      0.0000000 O_OD=      0.0014656 O_TOT=      2.3145614 <-- SPRD
 Delta: O_D= -0.1377753E-12 O_OD= -0.8954079E-13 O_TOT= -0.2273737E-12 <-- DLTA
 ------------------------------------------------------------------------------
 Cycle:     75
  WF centre and spread    1  (  0.000000, -0.000000,  2.654413 )     0.77151997
  WF centre and spread    2  (  0.000000, -2.654413,  0.000000 )     0.77151985
  WF centre and spread    3  ( -2.654413, -0.000000, -0.000000 )     0.77151986
  Sum of centres and spreads ( -2.654413, -2.654413,  2.654413 )     2.31455968
 
     75    -0.291E-10     0.0000039399        2.3145613715       0.38  <-- CONV
        O_D=      0.0000000 O_OD=      0.0014656 O_TOT=      2.3145614 <-- SPRD
 Delta: O_D= -0.1419932E-10 O_OD= -0.1486349E-10 O_TOT= -0.2906253E-10 <-- DLTA
 ------------------------------------------------------------------------------
 Cycle:     76
  WF centre and spread    1  (  0.000000, -0.000000,  2.654413 )     0.77151997
  WF centre and spread    2  (  0.000000, -2.654413,  0.000000 )     0.77151985
  WF centre and spread    3  ( -2.654413, -0.000000, -0.000000 )     0.77151986
  Sum of centres and spreads ( -2.654413, -2.654413,  2.654413 )     2.31455968
 
     76    -0.639E-13     0.0000028891        2.3145613715       0.38  <-- CONV
        O_D=      0.0000000 O_OD=      0.0014656 O_TOT=      2.3145614 <-- SPRD
 Delta: O_D= -0.1397344E-13 O_OD= -0.4949752E-13 O_TOT= -0.6394885E-13 <-- DLTA
 ------------------------------------------------------------------------------
 Cycle:     77
  WF centre and spread    1  (  0.000000, -0.000000,  2.654413 )     0.77151997
  WF centre and spread    2  (  0.000000, -2.654413,  0.000000 )     0.77151985
  WF centre and spread    3  ( -2.654413, -0.000000, -0.000000 )     0.77151986
  Sum of centres and spreads ( -2.654413, -2.654413,  2.654413 )     2.31455968
 
     77    -0.104E-12     0.0000028939        2.3145613715       0.39  <-- CONV
        O_D=      0.0000000 O_OD=      0.0014656 O_TOT=      2.3145614 <-- SPRD
 Delta: O_D= -0.3572756E-13 O_OD= -0.6847756E-13 O_TOT= -0.1039169E-12 <-- DLTA
 ------------------------------------------------------------------------------
 Cycle:     78
  WF centre and spread    1  (  0.000000, -0.000000,  2.654413 )     0.77151997
  WF centre and spread    2  (  0.000000, -2.654413,  0.000000 )     0.77151985
  WF centre and spread    3  ( -2.654413, -0.000000, -0.000000 )     0.77151986
  Sum of centres and spreads ( -2.654413, -2.654413,  2.654413 )     2.31455968
 
     78    -0.409E-13     0.0000028969        2.3145613715       0.39  <-- CONV
        O_D=      0.0000000 O_OD=      0.0014656 O_TOT=      2.3145614 <-- SPRD
 Delta: O_D= -0.2191985E-13 O_OD= -0.1888225E-13 O_TOT= -0.4085621E-13 <-- DLTA
 ------------------------------------------------------------------------------
 Cycle:     79
  WF centre and spread    1  (  0.000000, -0.000000,  2.654413 )     0.77151997
  WF centre and spread    2  (  0.000000, -2.654413,  0.000000 )     0.77151985
  WF centre and spread    3  ( -2.654413, -0.000000, -0.000000 )     0.77151986
  Sum of centres and spreads ( -2.654413, -2.654413,  2.654413 )     2.31455968
 
     79    -0.813E-13     0.0000028950        2.3145613715       0.39  <-- CONV
        O_D=      0.0000000 O_OD=      0.0014656 O_TOT=      2.3145614 <-- SPRD
 Delta: O_D= -0.4372152E-13 O_OD= -0.3772590E-13 O_TOT= -0.8126833E-13 <-- DLTA
 ------------------------------------------------------------------------------
 Cycle:     80
  WF centre and spread    1  (  0.000000, -0.000000,  2.654413 )     0.77151997
  WF centre and spread    2  (  0.000000, -2.654413,  0.000000 )     0.77151985
  WF centre and spread    3  ( -2.654413, -0.000000, -0.000000 )     0.77151986
  Sum of centres and spreads ( -2.654413, -2.654413,  2.654413 )     2.31455968
 
     80    -0.122E-12     0.0000028912        2.3145613715       0.40  <-- CONV
        O_D=      0.0000000 O_OD=      0.0014656 O_TOT=      2.3145614 <-- SPRD
 Delta: O_D= -0.6525995E-13 O_OD= -0.5646568E-13 O_TOT= -0.1221245E-12 <-- DLTA
 ------------------------------------------------------------------------------
 Cycle:     81
  WF centre and spread    1  (  0.000000, -0.000000,  2.654413 )     0.77151997
  WF centre and spread    2  (  0.000000, -2.654413,  0.000000 )     0.77151985
  WF centre and spread    3  ( -2.654413, -0.000000, -0.000000 )     0.77151986
  Sum of centres and spreads ( -2.654413, -2.654413,  2.654413 )     2.31455968
 
     81    -0.162E-12     0.0000028856        2.3145613715       0.40  <-- CONV
        O_D=      0.0000000 O_OD=      0.0014656 O_TOT=      2.3145614 <-- SPRD
 Delta: O_D= -0.8639486E-13 O_OD= -0.7501725E-13 O_TOT= -0.1616485E-12 <-- DLTA
 ------------------------------------------------------------------------------
 Cycle:     82
  WF centre and spread    1  (  0.000000, -0.000000,  2.654413 )     0.77151997
  WF centre and spread    2  (  0.000000, -2.654413,  0.000000 )     0.77151985
  WF centre and spread    3  ( -2.654413, -0.000000, -0.000000 )     0.77151986
  Sum of centres and spreads ( -2.654413, -2.654413,  2.654413 )     2.31455968
 
     82    -0.200E-12     0.0000028781        2.3145613715       0.40  <-- CONV
        O_D=      0.0000000 O_OD=      0.0014656 O_TOT=      2.3145614 <-- SPRD
 Delta: O_D= -0.1069935E-12 O_OD= -0.9334265E-13 O_TOT= -0.2002842E-12 <-- DLTA
 ------------------------------------------------------------------------------
 Cycle:     83
  WF centre and spread    1  (  0.000000, -0.000000,  2.654413 )     0.77151997
  WF centre and spread    2  (  0.000000, -2.654413,  0.000000 )     0.77151985
  WF centre and spread    3  ( -2.654413, -0.000000, -0.000000 )     0.77151986
  Sum of centres and spreads ( -2.654413, -2.654413,  2.654413 )     2.31455968
 
     83    -0.197E-10     0.0000028689        2.3145613714       0.41  <-- CONV
        O_D=      0.0000000 O_OD=      0.0014656 O_TOT=      2.3145614 <-- SPRD
 Delta: O_D= -0.9031340E-11 O_OD= -0.1062610E-10 O_TOT= -0.1965716E-10 <-- DLTA
 ------------------------------------------------------------------------------
 Cycle:     84
  WF centre and spread    1  (  0.000000, -0.000000,  2.654413 )     0.77151997
  WF centre and spread    2  (  0.000000, -2.654413,  0.000000 )     0.77151985
  WF centre and spread    3  ( -2.654413, -0.000000, -0.000000 )     0.77151986
  Sum of centres and spreads ( -2.654413, -2.654413,  2.654413 )     2.31455968
 
     84    -0.289E-13     0.0000024359        2.3145613714       0.41  <-- CONV
        O_D=      0.0000000 O_OD=      0.0014656 O_TOT=      2.3145614 <-- SPRD
 Delta: O_D= -0.1301899E-13 O_OD= -0.1583694E-13 O_TOT= -0.2886580E-13 <-- DLTA
 ------------------------------------------------------------------------------
 Cycle:     85
  WF centre and spread    1  (  0.000000, -0.000000,  2.654413 )     0.77151997
  WF centre and spread    2  (  0.000000, -2.654413,  0.000000 )     0.77151985
  WF centre and spread    3  ( -2.654413, -0.000000, -0.000000 )     0.77151986
  Sum of centres and spreads ( -2.654413, -2.654413,  2.654413 )     2.31455968
 
     85    -0.577E-13     0.0000024354        2.3145613714       0.42  <-- CONV
        O_D=      0.0000000 O_OD=      0.0014656 O_TOT=      2.3145614 <-- SPRD
 Delta: O_D= -0.2601418E-13 O_OD= -0.3166261E-13 O_TOT= -0.5773160E-13 <-- DLTA
 ------------------------------------------------------------------------------
 Cycle:     86
  WF centre and spread    1  (  0.000000, -0.000000,  2.654413 )     0.77151997
  WF centre and spread    2  (  0.000000, -2.654413,  0.000000 )     0.77151985
  WF centre and spread    3  ( -2.654413, -0.000000, -0.000000 )     0.77151986
  Sum of centres and spreads ( -2.654413, -2.654413,  2.654413 )     2.31455968
 
     86    -0.862E-13     0.0000024343        2.3145613714       0.42  <-- CONV
        O_D=      0.0000000 O_OD=      0.0014656 O_TOT=      2.3145614 <-- SPRD
 Delta: O_D= -0.3895658E-13 O_OD= -0.4745835E-13 O_TOT= -0.8615331E-13 <-- DLTA
 ------------------------------------------------------------------------------
 Cycle:     87
  WF centre and spread    1  (  0.000000, -0.000000,  2.654413 )     0.77151997
  WF centre and spread    2  (  0.000000, -2.654413,  0.000000 )     0.77151985
  WF centre and spread    3  ( -2.654413, -0.000000, -0.000000 )     0.77151986
  Sum of centres and spreads ( -2.654413, -2.654413,  2.654413 )     2.31455968
 
     87    -0.115E-12     0.0000024328        2.3145613714       0.43  <-- CONV
        O_D=      0.0000000 O_OD=      0.0014656 O_TOT=      2.3145614 <-- SPRD
 Delta: O_D= -0.5181779E-13 O_OD= -0.6320357E-13 O_TOT= -0.1154632E-12 <-- DLTA
 ------------------------------------------------------------------------------
 Cycle:     88
  WF centre and spread    1  (  0.000000, -0.000000,  2.654413 )     0.77151997
  WF centre and spread    2  (  0.000000, -2.654413,  0.000000 )     0.77151985
  WF centre and spread    3  ( -2.654413, -0.000000, -0.000000 )     0.77151986
  Sum of centres and spreads ( -2.654413, -2.654413,  2.654413 )     2.31455968
 
     88    -0.184E-10     0.0000024308        2.3145613714       0.43  <-- CONV
        O_D=      0.0000000 O_OD=      0.0014656 O_TOT=      2.3145614 <-- SPRD
 Delta: O_D= -0.7856252E-11 O_OD= -0.1056194E-10 O_TOT= -0.1841771E-10 <-- DLTA
 ------------------------------------------------------------------------------
 Cycle:     89
  WF centre and spread    1  (  0.000000, -0.000000,  2.654413 )     0.77151997
  WF centre and spread    2  (  0.000000, -2.654413,  0.000000 )     0.77151985
  WF centre and spread    3  ( -2.654413, -0.000000, -0.000000 )     0.77151986
  Sum of centres and spreads ( -2.654413, -2.654413,  2.654413 )     2.31455968
 
     89    -0.131E-12     0.0000022622        2.3145613714       0.44  <-- CONV
        O_D=      0.0000000 O_OD=      0.0014656 O_TOT=      2.3145614 <-- SPRD
 Delta: O_D= -0.5324656E-13 O_OD= -0.7813455E-13 O_TOT= -0.1314504E-12 <-- DLTA
 ------------------------------------------------------------------------------
 Cycle:     90
  WF centre and spread    1  (  0.000000, -0.000000,  2.654413 )     0.77151997
  WF centre and spread    2  (  0.000000, -2.654413,  0.000000 )     0.77151985
  WF centre and spread    3  ( -2.654413, -0.000000, -0.000000 )     0.77151986
  Sum of centres and spreads ( -2.654413, -2.654413,  2.654413 )     2.31455968
 
     90    -0.253E-13     0.0000022621        2.3145613714       0.44  <-- CONV
        O_D=      0.0000000 O_OD=      0.0014656 O_TOT=      2.3145614 <-- SPRD
 Delta: O_D= -0.1079544E-13 O_OD= -0.1409094E-13 O_TOT= -0.2531308E-13 <-- DLTA
 ------------------------------------------------------------------------------
 Cycle:     91
  WF centre and spread    1  (  0.000000, -0.000000,  2.654413 )     0.77151997
  WF centre and spread    2  (  0.000000, -2.654413,  0.000000 )     0.77151985
  WF centre and spread    3  ( -2.654413, -0.000000, -0.000000 )     0.77151986
  Sum of centres and spreads ( -2.654413, -2.654413,  2.654413 )     2.31455968
 
     91    -0.493E-13     0.0000022618        2.3145613714       0.44  <-- CONV
        O_D=      0.0000000 O_OD=      0.0014656 O_TOT=      2.3145614 <-- SPRD
 Delta: O_D= -0.2157939E-13 O_OD= -0.2817733E-13 O_TOT= -0.4929390E-13 <-- DLTA
 ------------------------------------------------------------------------------
 Cycle:     92
  WF centre and spread    1  (  0.000000, -0.000000,  2.654413 )     0.77151997
  WF centre and spread    2  (  0.000000, -2.654413,  0.000000 )     0.77151985
  WF centre and spread    3  ( -2.654413, -0.000000, -0.000000 )     0.77151986
  Sum of centres and spreads ( -2.654413, -2.654413,  2.654413 )     2.31455968
 
     92    -0.746E-13     0.0000022612        2.3145613714       0.45  <-- CONV
        O_D=      0.0000000 O_OD=      0.0014656 O_TOT=      2.3145614 <-- SPRD
 Delta: O_D= -0.3233759E-13 O_OD= -0.4224247E-13 O_TOT= -0.7460699E-13 <-- DLTA
 ------------------------------------------------------------------------------
 Cycle:     93
  WF centre and spread    1  (  0.000000, -0.000000,  2.654413 )     0.77151997
  WF centre and spread    2  (  0.000000, -2.654413,  0.000000 )     0.77151985
  WF centre and spread    3  ( -2.654413, -0.000000, -0.000000 )     0.77151986
  Sum of centres and spreads ( -2.654413, -2.654413,  2.654413 )     2.31455968
 
     93    -0.995E-13     0.0000022603        2.3145613714       0.45  <-- CONV
        O_D=      0.0000000 O_OD=      0.0014656 O_TOT=      2.3145614 <-- SPRD
 Delta: O_D= -0.4305600E-13 O_OD= -0.5627269E-13 O_TOT= -0.9947598E-13 <-- DLTA
 ------------------------------------------------------------------------------
 Cycle:     94
  WF centre and spread    1  (  0.000000, -0.000000,  2.654413 )     0.77151997
  WF centre and spread    2  (  0.000000, -2.654413,  0.000000 )     0.77151985
  WF centre and spread    3  ( -2.654413, -0.000000, -0.000000 )     0.77151986
  Sum of centres and spreads ( -2.654413, -2.654413,  2.654413 )     2.31455968
 
     94    -0.124E-12     0.0000022591        2.3145613714       0.46  <-- CONV
        O_D=      0.0000000 O_OD=      0.0014656 O_TOT=      2.3145614 <-- SPRD
 Delta: O_D= -0.5372089E-13 O_OD= -0.7025565E-13 O_TOT= -0.1239009E-12 <-- DLTA
 ------------------------------------------------------------------------------
 Cycle:     95
  WF centre and spread    1  (  0.000000, -0.000000,  2.654413 )     0.77151997
  WF centre and spread    2  (  0.000000, -2.654413,  0.000000 )     0.77151985
  WF centre and spread    3  ( -2.654413, -0.000000, -0.000000 )     0.77151986
  Sum of centres and spreads ( -2.654413, -2.654413,  2.654413 )     2.31455968
 
     95    -0.149E-12     0.0000022576        2.3145613714       0.46  <-- CONV
        O_D=      0.0000000 O_OD=      0.0014656 O_TOT=      2.3145614 <-- SPRD
 Delta: O_D= -0.6431900E-13 O_OD= -0.8419480E-13 O_TOT= -0.1487699E-12 <-- DLTA
 ------------------------------------------------------------------------------
 Cycle:     96
  WF centre and spread    1  (  0.000000, -0.000000,  2.654413 )     0.77151997
  WF centre and spread    2  (  0.000000, -2.654413,  0.000000 )     0.77151985
  WF centre and spread    3  ( -2.654413, -0.000000, -0.000000 )     0.77151986
  Sum of centres and spreads ( -2.654413, -2.654413,  2.654413 )     2.31455968
 
     96    -0.244E-13     0.0000022559        2.3145613714       0.46  <-- CONV
        O_D=      0.0000000 O_OD=      0.0014656 O_TOT=      2.3145614 <-- SPRD
 Delta: O_D= -0.1070665E-13 O_OD= -0.1404801E-13 O_TOT= -0.2442491E-13 <-- DLTA
 ------------------------------------------------------------------------------
 Cycle:     97
  WF centre and spread    1  (  0.000000, -0.000000,  2.654413 )     0.77151997
  WF centre and spread    2  (  0.000000, -2.654413,  0.000000 )     0.77151985
  WF centre and spread    3  ( -2.654413, -0.000000, -0.000000 )     0.77151986
  Sum of centres and spreads ( -2.654413, -2.654413,  2.654413 )     2.31455968
 
[...]
  Sum of centres and spreads ( -2.654413, -2.654413,  2.654413 )     2.31455968
 
    473    -0.631E-13     0.0000014716        2.3145613713       1.92  <-- CONV
        O_D=      0.0000000 O_OD=      0.0014656 O_TOT=      2.3145614 <-- SPRD
 Delta: O_D= -0.2643913E-13 O_OD= -0.3670870E-13 O_TOT= -0.6306067E-13 <-- DLTA
 ------------------------------------------------------------------------------
 Cycle:    474
  WF centre and spread    1  (  0.000000, -0.000000,  2.654413 )     0.77151997
  WF centre and spread    2  (  0.000000, -2.654413,  0.000000 )     0.77151985
  WF centre and spread    3  ( -2.654413, -0.000000, -0.000000 )     0.77151986
  Sum of centres and spreads ( -2.654413, -2.654413,  2.654413 )     2.31455968
 
    474    -0.107E-13     0.0000014709        2.3145613713       1.92  <-- CONV
        O_D=      0.0000000 O_OD=      0.0014656 O_TOT=      2.3145614 <-- SPRD
 Delta: O_D= -0.4406381E-14 O_OD= -0.6118803E-14 O_TOT= -0.1065814E-13 <-- DLTA
 ------------------------------------------------------------------------------
 Cycle:    475
  WF centre and spread    1  (  0.000000, -0.000000,  2.654413 )     0.77151997
  WF centre and spread    2  (  0.000000, -2.654413,  0.000000 )     0.77151985
  WF centre and spread    3  ( -2.654413, -0.000000, -0.000000 )     0.77151986
  Sum of centres and spreads ( -2.654413, -2.654413,  2.654413 )     2.31455968
 
    475    -0.209E-13     0.0000014708        2.3145613713       1.93  <-- CONV
        O_D=      0.0000000 O_OD=      0.0014656 O_TOT=      2.3145614 <-- SPRD
 Delta: O_D= -0.8810723E-14 O_OD= -0.1223219E-13 O_TOT= -0.2087219E-13 <-- DLTA
 ------------------------------------------------------------------------------
 Cycle:    476
  WF centre and spread    1  (  0.000000, -0.000000,  2.654413 )     0.77151997
  WF centre and spread    2  (  0.000000, -2.654413,  0.000000 )     0.77151985
  WF centre and spread    3  ( -2.654413, -0.000000, -0.000000 )     0.77151986
  Sum of centres and spreads ( -2.654413, -2.654413,  2.654413 )     2.31455968
 
    476    -0.315E-13     0.0000014706        2.3145613713       1.93  <-- CONV
        O_D=      0.0000000 O_OD=      0.0014656 O_TOT=      2.3145614 <-- SPRD
 Delta: O_D= -0.1321031E-13 O_OD= -0.1834015E-13 O_TOT= -0.3153033E-13 <-- DLTA
 ------------------------------------------------------------------------------
 Cycle:    477
  WF centre and spread    1  (  0.000000, -0.000000,  2.654413 )     0.77151997
  WF centre and spread    2  (  0.000000, -2.654413,  0.000000 )     0.77151985
  WF centre and spread    3  ( -2.654413, -0.000000, -0.000000 )     0.77151986
  Sum of centres and spreads ( -2.654413, -2.654413,  2.654413 )     2.31455968
 
    477    -0.422E-13     0.0000014703        2.3145613713       1.94  <-- CONV
        O_D=      0.0000000 O_OD=      0.0014656 O_TOT=      2.3145614 <-- SPRD
 Delta: O_D= -0.1760244E-13 O_OD= -0.2443705E-13 O_TOT= -0.4218847E-13 <-- DLTA
 ------------------------------------------------------------------------------
 Cycle:    478
  WF centre and spread    1  (  0.000000, -0.000000,  2.654413 )     0.77151997
  WF centre and spread    2  (  0.000000, -2.654413,  0.000000 )     0.77151985
  WF centre and spread    3  ( -2.654413, -0.000000, -0.000000 )     0.77151986
  Sum of centres and spreads ( -2.654413, -2.654413,  2.654413 )     2.31455968
 
    478    -0.524E-13     0.0000014698        2.3145613713       1.94  <-- CONV
        O_D=      0.0000000 O_OD=      0.0014656 O_TOT=      2.3145614 <-- SPRD
 Delta: O_D= -0.2198442E-13 O_OD= -0.3052550E-13 O_TOT= -0.5240253E-13 <-- DLTA
 ------------------------------------------------------------------------------
 Cycle:    479
  WF centre and spread    1  (  0.000000, -0.000000,  2.654413 )     0.77151997
  WF centre and spread    2  (  0.000000, -2.654413,  0.000000 )     0.77151985
  WF centre and spread    3  ( -2.654413, -0.000000, -0.000000 )     0.77151986
  Sum of centres and spreads ( -2.654413, -2.654413,  2.654413 )     2.31455968
 
    479    -0.631E-13     0.0000014692        2.3145613713       1.94  <-- CONV
        O_D=      0.0000000 O_OD=      0.0014656 O_TOT=      2.3145614 <-- SPRD
 Delta: O_D= -0.2635354E-13 O_OD= -0.3658857E-13 O_TOT= -0.6306067E-13 <-- DLTA
 ------------------------------------------------------------------------------
 Cycle:    480
  WF centre and spread    1  (  0.000000, -0.000000,  2.654413 )     0.77151997
  WF centre and spread    2  (  0.000000, -2.654413,  0.000000 )     0.77151985
  WF centre and spread    3  ( -2.654413, -0.000000, -0.000000 )     0.77151986
  Sum of centres and spreads ( -2.654413, -2.654413,  2.654413 )     2.31455968
 
    480    -0.102E-13     0.0000014686        2.3145613713       1.95  <-- CONV
        O_D=      0.0000000 O_OD=      0.0014656 O_TOT=      2.3145614 <-- SPRD
 Delta: O_D= -0.4392115E-14 O_OD= -0.6099938E-14 O_TOT= -0.1021405E-13 <-- DLTA
 ------------------------------------------------------------------------------
 Cycle:    481
  WF centre and spread    1  (  0.000000, -0.000000,  2.654413 )     0.77151997
  WF centre and spread    2  (  0.000000, -2.654413,  0.000000 )     0.77151985
  WF centre and spread    3  ( -2.654413, -0.000000, -0.000000 )     0.77151986
  Sum of centres and spreads ( -2.654413, -2.654413,  2.654413 )     2.31455968
 
    481    -0.213E-13     0.0000014685        2.3145613713       1.95  <-- CONV
        O_D=      0.0000000 O_OD=      0.0014656 O_TOT=      2.3145614 <-- SPRD
 Delta: O_D= -0.8782199E-14 O_OD= -0.1219142E-13 O_TOT= -0.2131628E-13 <-- DLTA
 ------------------------------------------------------------------------------
 Cycle:    482
  WF centre and spread    1  (  0.000000, -0.000000,  2.654413 )     0.77151997
  WF centre and spread    2  (  0.000000, -2.654413,  0.000000 )     0.77151985
  WF centre and spread    3  ( -2.654413, -0.000000, -0.000000 )     0.77151986
  Sum of centres and spreads ( -2.654413, -2.654413,  2.654413 )     2.31455968
 
    482    -0.311E-13     0.0000014682        2.3145613713       1.95  <-- CONV
        O_D=      0.0000000 O_OD=      0.0014656 O_TOT=      2.3145614 <-- SPRD
 Delta: O_D= -0.1316755E-13 O_OD= -0.1828355E-13 O_TOT= -0.3108624E-13 <-- DLTA
 ------------------------------------------------------------------------------
 Cycle:    483
  WF centre and spread    1  (  0.000000, -0.000000,  2.654413 )     0.77151997
  WF centre and spread    2  (  0.000000, -2.654413,  0.000000 )     0.77151985
  WF centre and spread    3  ( -2.654413, -0.000000, -0.000000 )     0.77151986
  Sum of centres and spreads ( -2.654413, -2.654413,  2.654413 )     2.31455968
 
    483    -0.422E-13     0.0000014679        2.3145613713       1.96  <-- CONV
        O_D=      0.0000000 O_OD=      0.0014656 O_TOT=      2.3145614 <-- SPRD
 Delta: O_D= -0.1754546E-13 O_OD= -0.2436267E-13 O_TOT= -0.4218847E-13 <-- DLTA
 ------------------------------------------------------------------------------
 Cycle:    484
  WF centre and spread    1  (  0.000000, -0.000000,  2.654413 )     0.77151997
  WF centre and spread    2  (  0.000000, -2.654413,  0.000000 )     0.77151985
  WF centre and spread    3  ( -2.654413, -0.000000, -0.000000 )     0.77151986
  Sum of centres and spreads ( -2.654413, -2.654413,  2.654413 )     2.31455968
 
    484    -0.520E-13     0.0000014674        2.3145613713       1.96  <-- CONV
        O_D=      0.0000000 O_OD=      0.0014656 O_TOT=      2.3145614 <-- SPRD
 Delta: O_D= -0.2191324E-13 O_OD= -0.3041989E-13 O_TOT= -0.5195844E-13 <-- DLTA
 ------------------------------------------------------------------------------
 Cycle:    485
  WF centre and spread    1  (  0.000000, -0.000000,  2.654413 )     0.77151997
  WF centre and spread    2  (  0.000000, -2.654413,  0.000000 )     0.77151985
  WF centre and spread    3  ( -2.654413, -0.000000, -0.000000 )     0.77151986
  Sum of centres and spreads ( -2.654413, -2.654413,  2.654413 )     2.31455968
 
    485    -0.626E-13     0.0000014669        2.3145613713       1.97  <-- CONV
        O_D=      0.0000000 O_OD=      0.0014656 O_TOT=      2.3145614 <-- SPRD
 Delta: O_D= -0.2626823E-13 O_OD= -0.3647234E-13 O_TOT= -0.6261658E-13 <-- DLTA
 ------------------------------------------------------------------------------
 Cycle:    486
  WF centre and spread    1  (  0.000000, -0.000000,  2.654413 )     0.77151997
  WF centre and spread    2  (  0.000000, -2.654413,  0.000000 )     0.77151985
  WF centre and spread    3  ( -2.654413, -0.000000, -0.000000 )     0.77151986
  Sum of centres and spreads ( -2.654413, -2.654413,  2.654413 )     2.31455968
 
    486    -0.107E-13     0.0000014662        2.3145613713       1.97  <-- CONV
        O_D=      0.0000000 O_OD=      0.0014656 O_TOT=      2.3145614 <-- SPRD
 Delta: O_D= -0.4377896E-14 O_OD= -0.6077821E-14 O_TOT= -0.1065814E-13 <-- DLTA
 ------------------------------------------------------------------------------
 Cycle:    487
  WF centre and spread    1  (  0.000000, -0.000000,  2.654413 )     0.77151997
  WF centre and spread    2  (  0.000000, -2.654413,  0.000000 )     0.77151985
  WF centre and spread    3  ( -2.654413, -0.000000, -0.000000 )     0.77151986
  Sum of centres and spreads ( -2.654413, -2.654413,  2.654413 )     2.31455968
 
    487    -0.213E-13     0.0000014661        2.3145613713       1.97  <-- CONV
        O_D=      0.0000000 O_OD=      0.0014656 O_TOT=      2.3145614 <-- SPRD
 Delta: O_D= -0.8753767E-14 O_OD= -0.1215521E-13 O_TOT= -0.2131628E-13 <-- DLTA
 ------------------------------------------------------------------------------
 Cycle:    488
  WF centre and spread    1  (  0.000000, -0.000000,  2.654413 )     0.77151997
  WF centre and spread    2  (  0.000000, -2.654413,  0.000000 )     0.77151985
  WF centre and spread    3  ( -2.654413, -0.000000, -0.000000 )     0.77151986
  Sum of centres and spreads ( -2.654413, -2.654413,  2.654413 )     2.31455968
 
    488    -0.315E-13     0.0000014659        2.3145613713       1.98  <-- CONV
        O_D=      0.0000000 O_OD=      0.0014656 O_TOT=      2.3145614 <-- SPRD
 Delta: O_D= -0.1312492E-13 O_OD= -0.1822392E-13 O_TOT= -0.3153033E-13 <-- DLTA
 ------------------------------------------------------------------------------
 Cycle:    489
  WF centre and spread    1  (  0.000000, -0.000000,  2.654413 )     0.77151997
  WF centre and spread    2  (  0.000000, -2.654413,  0.000000 )     0.77151985
  WF centre and spread    3  ( -2.654413, -0.000000, -0.000000 )     0.77151986
  Sum of centres and spreads ( -2.654413, -2.654413,  2.654413 )     2.31455968
 
    489    -0.413E-13     0.0000014655        2.3145613713       1.98  <-- CONV
        O_D=      0.0000000 O_OD=      0.0014656 O_TOT=      2.3145614 <-- SPRD
 Delta: O_D= -0.1748866E-13 O_OD= -0.2428201E-13 O_TOT= -0.4130030E-13 <-- DLTA
 ------------------------------------------------------------------------------
 Cycle:    490
  WF centre and spread    1  (  0.000000, -0.000000,  2.654413 )     0.77151997
  WF centre and spread    2  (  0.000000, -2.654413,  0.000000 )     0.77151985
  WF centre and spread    3  ( -2.654413, -0.000000, -0.000000 )     0.77151986
  Sum of centres and spreads ( -2.654413, -2.654413,  2.654413 )     2.31455968
 
    490    -0.524E-13     0.0000014651        2.3145613713       1.98  <-- CONV
        O_D=      0.0000000 O_OD=      0.0014656 O_TOT=      2.3145614 <-- SPRD
 Delta: O_D= -0.2184230E-13 O_OD= -0.3032600E-13 O_TOT= -0.5240253E-13 <-- DLTA
 ------------------------------------------------------------------------------
 Cycle:    491
  WF centre and spread    1  (  0.000000, -0.000000,  2.654413 )     0.77151997
  WF centre and spread    2  (  0.000000, -2.654413,  0.000000 )     0.77151985
  WF centre and spread    3  ( -2.654413, -0.000000, -0.000000 )     0.77151986
  Sum of centres and spreads ( -2.654413, -2.654413,  2.654413 )     2.31455968
 
    491    -0.622E-13     0.0000014645        2.3145613713       1.99  <-- CONV
        O_D=      0.0000000 O_OD=      0.0014656 O_TOT=      2.3145614 <-- SPRD
 Delta: O_D= -0.2618319E-13 O_OD= -0.3635547E-13 O_TOT= -0.6217249E-13 <-- DLTA
 ------------------------------------------------------------------------------
 Cycle:    492
  WF centre and spread    1  (  0.000000, -0.000000,  2.654413 )     0.77151997
  WF centre and spread    2  (  0.000000, -2.654413,  0.000000 )     0.77151985
  WF centre and spread    3  ( -2.654413, -0.000000, -0.000000 )     0.77151986
  Sum of centres and spreads ( -2.654413, -2.654413,  2.654413 )     2.31455968
 
    492    -0.107E-13     0.0000014638        2.3145613713       1.99  <-- CONV
        O_D=      0.0000000 O_OD=      0.0014656 O_TOT=      2.3145614 <-- SPRD
 Delta: O_D= -0.4363723E-14 O_OD= -0.6058739E-14 O_TOT= -0.1065814E-13 <-- DLTA
 ------------------------------------------------------------------------------
 Cycle:    493
  WF centre and spread    1  (  0.000000, -0.000000,  2.654413 )     0.77151997
  WF centre and spread    2  (  0.000000, -2.654413,  0.000000 )     0.77151985
  WF centre and spread    3  ( -2.654413, -0.000000, -0.000000 )     0.77151986
  Sum of centres and spreads ( -2.654413, -2.654413,  2.654413 )     2.31455968
 
    493    -0.209E-13     0.0000014637        2.3145613713       2.00  <-- CONV
        O_D=      0.0000000 O_OD=      0.0014656 O_TOT=      2.3145614 <-- SPRD
 Delta: O_D= -0.8725429E-14 O_OD= -0.1211531E-13 O_TOT= -0.2087219E-13 <-- DLTA
 ------------------------------------------------------------------------------
 Cycle:    494
  WF centre and spread    1  (  0.000000, -0.000000,  2.654413 )     0.77151997
  WF centre and spread    2  (  0.000000, -2.654413,  0.000000 )     0.77151985
  WF centre and spread    3  ( -2.654413, -0.000000, -0.000000 )     0.77151986
  Sum of centres and spreads ( -2.654413, -2.654413,  2.654413 )     2.31455968
 
    494    -0.311E-13     0.0000014635        2.3145613713       2.00  <-- CONV
        O_D=      0.0000000 O_OD=      0.0014656 O_TOT=      2.3145614 <-- SPRD
 Delta: O_D= -0.1308243E-13 O_OD= -0.1816407E-13 O_TOT= -0.3108624E-13 <-- DLTA
 ------------------------------------------------------------------------------
 Cycle:    495
  WF centre and spread    1  (  0.000000, -0.000000,  2.654413 )     0.77151997
  WF centre and spread    2  (  0.000000, -2.654413,  0.000000 )     0.77151985
  WF centre and spread    3  ( -2.654413, -0.000000, -0.000000 )     0.77151986
  Sum of centres and spreads ( -2.654413, -2.654413,  2.654413 )     2.31455968
 
    495    -0.417E-13     0.0000014632        2.3145613713       2.00  <-- CONV
        O_D=      0.0000000 O_OD=      0.0014656 O_TOT=      2.3145614 <-- SPRD
 Delta: O_D= -0.1743204E-13 O_OD= -0.2420308E-13 O_TOT= -0.4174439E-13 <-- DLTA
 ------------------------------------------------------------------------------
 Cycle:    496
  WF centre and spread    1  (  0.000000, -0.000000,  2.654413 )     0.77151997
  WF centre and spread    2  (  0.000000, -2.654413,  0.000000 )     0.77151985
  WF centre and spread    3  ( -2.654413, -0.000000, -0.000000 )     0.77151986
  Sum of centres and spreads ( -2.654413, -2.654413,  2.654413 )     2.31455968
 
    496    -0.520E-13     0.0000014627        2.3145613713       2.01  <-- CONV
        O_D=      0.0000000 O_OD=      0.0014656 O_TOT=      2.3145614 <-- SPRD
 Delta: O_D= -0.2177159E-13 O_OD= -0.3023341E-13 O_TOT= -0.5195844E-13 <-- DLTA
 ------------------------------------------------------------------------------
 Cycle:    497
  WF centre and spread    1  (  0.000000, -0.000000,  2.654413 )     0.77151997
  WF centre and spread    2  (  0.000000, -2.654413,  0.000000 )     0.77151985
  WF centre and spread    3  ( -2.654413, -0.000000, -0.000000 )     0.77151986
  Sum of centres and spreads ( -2.654413, -2.654413,  2.654413 )     2.31455968
 
    497    -0.622E-13     0.0000014621        2.3145613713       2.01  <-- CONV
        O_D=      0.0000000 O_OD=      0.0014656 O_TOT=      2.3145614 <-- SPRD
 Delta: O_D= -0.2609842E-13 O_OD= -0.3623772E-13 O_TOT= -0.6217249E-13 <-- DLTA
 ------------------------------------------------------------------------------
 Cycle:    498
  WF centre and spread    1  (  0.000000, -0.000000,  2.654413 )     0.77151997
  WF centre and spread    2  (  0.000000, -2.654413,  0.000000 )     0.77151985
  WF centre and spread    3  ( -2.654413, -0.000000, -0.000000 )     0.77151986
  Sum of centres and spreads ( -2.654413, -2.654413,  2.654413 )     2.31455968
 
    498    -0.107E-13     0.0000014615        2.3145613713       2.01  <-- CONV
        O_D=      0.0000000 O_OD=      0.0014656 O_TOT=      2.3145614 <-- SPRD
 Delta: O_D= -0.4349598E-14 O_OD= -0.6038356E-14 O_TOT= -0.1065814E-13 <-- DLTA
 ------------------------------------------------------------------------------
 Cycle:    499
  WF centre and spread    1  (  0.000000, -0.000000,  2.654413 )     0.77151997
  WF centre and spread    2  (  0.000000, -2.654413,  0.000000 )     0.77151985
  WF centre and spread    3  ( -2.654413, -0.000000, -0.000000 )     0.77151986
  Sum of centres and spreads ( -2.654413, -2.654413,  2.654413 )     2.31455968
 
    499    -0.204E-13     0.0000014614        2.3145613713       2.02  <-- CONV
        O_D=      0.0000000 O_OD=      0.0014656 O_TOT=      2.3145614 <-- SPRD
 Delta: O_D= -0.8697181E-14 O_OD= -0.1207606E-13 O_TOT= -0.2042810E-13 <-- DLTA
 ------------------------------------------------------------------------------
 Cycle:    500
  WF centre and spread    1  (  0.000000, -0.000000,  2.654413 )     0.77151997
  WF centre and spread    2  (  0.000000, -2.654413,  0.000000 )     0.77151985
  WF centre and spread    3  ( -2.654413, -0.000000, -0.000000 )     0.77151986
  Sum of centres and spreads ( -2.654413, -2.654413,  2.654413 )     2.31455968
 
    500    -0.315E-13     0.0000014611        2.3145613713       2.02  <-- CONV
        O_D=      0.0000000 O_OD=      0.0014656 O_TOT=      2.3145614 <-- SPRD
 Delta: O_D= -0.1304008E-13 O_OD= -0.1810357E-13 O_TOT= -0.3153033E-13 <-- DLTA
 ------------------------------------------------------------------------------

 Writing checkpoint file mp-463.chk... done

 Final State
  WF centre and spread    1  (  0.000000, -0.000000,  2.654413 )     0.77151997
  WF centre and spread    2  (  0.000000, -2.654413,  0.000000 )     0.77151985
  WF centre and spread    3  ( -2.654413, -0.000000, -0.000000 )     0.77151986
  Sum of centres and spreads ( -2.654413, -2.654413,  2.654413 )     2.31455968
 
         Spreads (Ang^2)       Omega I      =     2.313095768
        ================       Omega D      =     0.000000000
                               Omega OD     =     0.001465603
    Final Spread (Ang^2)       Omega Total  =     2.314561371
 ------------------------------------------------------------------------------
 Time for wannierise            2.020 (sec)

 Writing checkpoint file mp-463.chk... done

 Time for plotting              0.000 (sec)
 Total Execution Time           3.313 (sec)

 *===========================================================================*
 |                             TIMING INFORMATION                            |
 *===========================================================================*
 |    Tag                                                Ncalls      Time (s)|
 |---------------------------------------------------------------------------|
 |kmesh: get                                        :         1         1.042|
 |overlap: allocate                                 :         1         0.002|
 |overlap: read                                     :         1         0.137|
 |wann: main                                        :         1         2.020|
 |plot: main                                        :         1         0.000|
 *---------------------------------------------------------------------------*
 
 All done: wannier90 exiting
