 
             +---------------------------------------------------+
             |                                                   |
             |                   WANNIER90                       |
             |                                                   |
             +---------------------------------------------------+
             |                                                   |
             |        Welcome to the Maximally-Localized         |
             |        Generalized Wannier Functions code         |
             |            http://www.wannier.org                 |
             |                                                   |
             |                                                   |
             |  Wannier90 Developer Group:                       |
             |    Giovanni Pizzi    (EPFL)                       |
             |    Valerio Vitale    (Cambridge)                  |
             |    David Vanderbilt  (Rutgers University)         |
             |    Nicola Marzari    (EPFL)                       |
             |    Ivo Souza         (Universidad del Pais Vasco) |
             |    Arash A. Mostofi  (Imperial College London)    |
             |    Jonathan R. Yates (University of Oxford)       |
             |                                                   |
             |  For the full list of Wannier90 3.x authors,      |
             |  please check the code documentation and the      |
             |  README on the GitHub page of the code            |
             |                                                   |
             |                                                   |
             |  Please cite                                      |
             |                                                   |
             |  [ref] "Wannier90 as a community code:            |
             |        new features and applications",            |
             |        G. Pizzi et al., J. Phys. Cond. Matt. 32,  |
             |        165902 (2020).                             |
             |        http://doi.org/10.1088/1361-648X/ab51ff    |
             |                                                   |
             |  in any publications arising from the use of      |
             |  this code. For the method please cite            |
             |                                                   |
             |  [ref] "Maximally Localized Generalised Wannier   |
             |         Functions for Composite Energy Bands"     |
             |         N. Marzari and D. Vanderbilt              |
             |         Phys. Rev. B 56 12847 (1997)              |
             |                                                   |
             |  [ref] "Maximally Localized Wannier Functions     |
             |         for Entangled Energy Bands"               |
             |         I. Souza, N. Marzari and D. Vanderbilt    |
             |         Phys. Rev. B 65 035109 (2001)             |
             |                                                   |
             |                                                   |
             | Copyright (c) 1996-2020                           |
             |        The Wannier90 Developer Group and          |
             |        individual contributors                    |
             |                                                   |
             |      Release: 3.1.0        5th March    2020      |
             |                                                   |
             | This program is free software; you can            |
             | redistribute it and/or modify it under the terms  |
             | of the GNU General Public License as published by |
             | the Free Software Foundation; either version 2 of |
             | the License, or (at your option) any later version|
             |                                                   |
             | This program is distributed in the hope that it   |
             | will be useful, but WITHOUT ANY WARRANTY; without |
             | even the implied warranty of MERCHANTABILITY or   |
             | FITNESS FOR A PARTICULAR PURPOSE. See the GNU     |
             | General Public License for more details.          |
             |                                                   |
             | You should have received a copy of the GNU General|
             | Public License along with this program; if not,   |
             | write to the Free Software Foundation, Inc.,      |
             | 675 Mass Ave, Cambridge, MA 02139, USA.           |
             |                                                   |
             +---------------------------------------------------+
             |    Execution started on  3Jan2024 at 14:30:27     |
             +---------------------------------------------------+
 
 ******************************************************************************
 * -> Using CODATA 2006 constant values                                       *
 *    (http://physics.nist.gov/cuu/Constants/index.html)                      *
 * -> Using Bohr value from CODATA                                            *
 ******************************************************************************
 

 Running in parallel on   8 CPUs

 
                                    ------
                                    SYSTEM
                                    ------
 
                              Lattice Vectors (Ang)
                    a_1    -2.583784   0.000000   2.583784
                    a_2     0.000000   2.583784   2.583784
                    a_3    -2.583784   2.583784   0.000000
 
                   Unit Cell Volume:      34.49837  (Ang^3)
 
                        Reciprocal-Space Vectors (Ang^-1)
                    b_1    -1.215888  -1.215888   1.215888
                    b_2     1.215888   1.215888   1.215888
                    b_3    -1.215888   1.215888  -1.215888
  
 *----------------------------------------------------------------------------*
 |   Site       Fractional Coordinate          Cartesian Coordinate (Ang)     |
 +----------------------------------------------------------------------------+
 | Sr   1   0.50000   0.50000   0.50000   |   -2.58378   2.58378   2.58378    |
 | O    1   0.00000   0.00000   0.00000   |    0.00000   0.00000   0.00000    |
 *----------------------------------------------------------------------------*
                                ------------
                                K-POINT GRID
                                ------------
  
             Grid size = 12 x 12 x 12      Total points = 1728
  
  
 *---------------------------------- MAIN ------------------------------------*
 |  Number of Wannier Functions               :                 3             |
 |  Number of Objective Wannier Functions     :                 3             |
 |  Number of input Bloch states              :                 3             |
 |  Output verbosity (1=low, 5=high)          :                 1             |
 |  Timing Level (1=low, 5=high)              :                 1             |
 |  Optimisation (0=memory, 3=speed)          :                 3             |
 |  Length Unit                               :               Ang             |
 |  Post-processing setup (write *.nnkp)      :                 F             |
 |  Using Gamma-only branch of algorithms     :                 F             |
 *----------------------------------------------------------------------------*
 *------------------------------- WANNIERISE ---------------------------------*
 |  Total number of iterations                :               500             |
 |  Number of CG steps before reset           :                 5             |
 |  Trial step length for line search         :             2.000             |
 |  Convergence tolerence                     :         0.100E-09             |
 |  Convergence window                        :                -1             |
 |  Iterations between writing output         :                 1             |
 |  Iterations between backing up to disk     :               100             |
 |  Write r^2_nm to file                      :                 F             |
 |  Write xyz WF centres to file              :                 F             |
 |  Write on-site energies <0n|H|0n> to file  :                 F             |
 |  Use guiding centre to control phases      :                 F             |
 |  Use phases for initial projections        :                 F             |
 *----------------------------------------------------------------------------*
 Time to read parameters        0.102 (sec)

 *---------------------------------- K-MESH ----------------------------------*
 +----------------------------------------------------------------------------+
 |                    Distance to Nearest-Neighbour Shells                    |
 |                    ------------------------------------                    |
 |          Shell             Distance (Ang^-1)          Multiplicity         |
 |          -----             -----------------          ------------         |
 |             1                   0.175498                      8            |
 |             2                   0.202648                      6            |
 |             3                   0.286588                     12            |
 |             4                   0.336054                     24            |
 |             5                   0.350997                      8            |
 |             6                   0.405296                      6            |
 |             7                   0.441661                     24            |
 |             8                   0.453135                     24            |
 |             9                   0.496384                     24            |
 |            10                   0.526495                     32            |
 |            11                   0.573175                     12            |
 |            12                   0.599441                     48            |
 |            13                   0.607944                     30            |
 |            14                   0.640829                     24            |
 |            15                   0.664426                     24            |
 |            16                   0.672108                     24            |
 |            17                   0.701993                      8            |
 |            18                   0.723598                     48            |
 |            19                   0.730658                     24            |
 |            20                   0.758240                     48            |
 |            21                   0.778285                     72            |
 |            22                   0.810592                      6            |
 |            23                   0.829373                     24            |
 |            24                   0.835539                     48            |
 |            25                   0.859763                     36            |
 |            26                   0.877492                     56            |
 |            27                   0.883322                     24            |
 |            28                   0.906270                     24            |
 |            29                   0.923106                     72            |
 |            30                   0.928650                     48            |
 |            31                   0.950504                     24            |
 |            32                   0.966570                     48            |
 |            33                   0.992769                     24            |
 |            34                   1.008161                     72            |
 |            35                   1.013240                     30            |
 |            36                   1.033306                     72            |
 +----------------------------------------------------------------------------+
 | The b-vectors are chosen automatically                                     |
 | The following shells are used:   1                                         |
 +----------------------------------------------------------------------------+
 |                        Shell   # Nearest-Neighbours                        |
 |                        -----   --------------------                        |
 |                          1               8                                 |
 +----------------------------------------------------------------------------+
 | Completeness relation is fully satisfied [Eq. (B1), PRB 56, 12847 (1997)]  |
 +----------------------------------------------------------------------------+
 |                  b_k Vectors (Ang^-1) and Weights (Ang^2)                  |
 |                  ----------------------------------------                  |
 |            No.         b_k(x)      b_k(y)      b_k(z)        w_b           |
 |            ---        --------------------------------     --------        |
 |             1        -0.101324    0.101324   -0.101324    12.175455        |
 |             2         0.101324    0.101324    0.101324    12.175455        |
 |             3        -0.101324   -0.101324    0.101324    12.175455        |
 |             4        -0.101324    0.101324    0.101324    12.175455        |
 |             5         0.101324   -0.101324    0.101324    12.175455        |
 |             6        -0.101324   -0.101324   -0.101324    12.175455        |
 |             7         0.101324    0.101324   -0.101324    12.175455        |
 |             8         0.101324   -0.101324   -0.101324    12.175455        |
 +----------------------------------------------------------------------------+
 |                           b_k Directions (Ang^-1)                          |
 |                           -----------------------                          |
 |            No.           x           y           z                         |
 |            ---        --------------------------------                     |
 |             1        -0.101324    0.101324   -0.101324                     |
 |             2         0.101324    0.101324    0.101324                     |
 |             3        -0.101324   -0.101324    0.101324                     |
 |             4        -0.101324    0.101324    0.101324                     |
 +----------------------------------------------------------------------------+
  
 Time to get kmesh              1.038 (sec)
 *============================================================================*
 |                              MEMORY ESTIMATE                               |
 |         Maximum RAM allocated during each phase of the calculation         |
 *============================================================================*
 |                            Wannierise:            7.00 Mb                  |
 |                          plot_wannier:            7.00 Mb                  |
 *----------------------------------------------------------------------------*
  
 Starting a new Wannier90 calculation ...


 Reading overlaps from mp-2472.mmn    :  Created on  3Jan2024 at 14:30:17

 Reading projections from mp-2472.amn :  Created on  3Jan2024 at 14:30:17  with SCDM

 Time to read overlaps          0.136 (sec)

 Writing checkpoint file mp-2472.chk... done

 
 *------------------------------- WANNIERISE ---------------------------------*
 +--------------------------------------------------------------------+<-- CONV
 | Iter  Delta Spread     RMS Gradient      Spread (Ang^2)      Time  |<-- CONV
 +--------------------------------------------------------------------+<-- CONV
 
 ------------------------------------------------------------------------------
 Initial State
  WF centre and spread    1  (  0.000119,  0.000133, -0.000045 )     1.40650686
  WF centre and spread    2  (  0.000119, -0.000133, -0.000045 )     1.40650606
  WF centre and spread    3  ( -0.000058, -0.000000,  0.000194 )     1.40644570
  Sum of centres and spreads (  0.000180,  0.000000,  0.000104 )     4.21945862
 
      0     0.422E+01     0.0000000000        4.2194586249       0.00  <-- CONV
        O_D=      0.0297853 O_OD=      0.0447405 O_TOT=      4.2194586 <-- SPRD
 ------------------------------------------------------------------------------
 Cycle:      1
  WF centre and spread    1  (  0.000016,  0.000013, -0.000005 )     1.38694659
  WF centre and spread    2  (  0.000016, -0.000013, -0.000005 )     1.38694544
  WF centre and spread    3  ( -0.000004, -0.000000,  0.000033 )     1.38713257
  Sum of centres and spreads (  0.000028,  0.000000,  0.000023 )     4.16102461
 
      1    -0.584E-01     0.0608478806        4.1610246105       0.01  <-- CONV
        O_D=      0.0023882 O_OD=      0.0137036 O_TOT=      4.1610246 <-- SPRD
 Delta: O_D= -0.2739715E-01 O_OD= -0.3103686E-01 O_TOT= -0.5843401E-01 <-- DLTA
 ------------------------------------------------------------------------------
 Cycle:      2
  WF centre and spread    1  (  0.000016,  0.000011, -0.000008 )     1.38591670
  WF centre and spread    2  (  0.000016, -0.000011, -0.000008 )     1.38591728
  WF centre and spread    3  ( -0.000009, -0.000000,  0.000035 )     1.38610737
  Sum of centres and spreads (  0.000023,  0.000000,  0.000019 )     4.15794135
 
      2    -0.308E-02     0.0295301953        4.1579413501       0.01  <-- CONV
        O_D=      0.0011059 O_OD=      0.0119026 O_TOT=      4.1579414 <-- SPRD
 Delta: O_D= -0.1282247E-02 O_OD= -0.1801013E-02 O_TOT= -0.3083260E-02 <-- DLTA
 ------------------------------------------------------------------------------
 Cycle:      3
  WF centre and spread    1  (  0.000016,  0.000013, -0.000009 )     1.38558396
  WF centre and spread    2  (  0.000016, -0.000013, -0.000008 )     1.38558383
  WF centre and spread    3  ( -0.000010, -0.000000,  0.000034 )     1.38577459
  Sum of centres and spreads (  0.000021,  0.000000,  0.000017 )     4.15694239
 
      3    -0.999E-03     0.0184876545        4.1569423851       0.02  <-- CONV
        O_D=      0.0006721 O_OD=      0.0113375 O_TOT=      4.1569424 <-- SPRD
 Delta: O_D= -0.4338259E-03 O_OD= -0.5651390E-03 O_TOT= -0.9989649E-03 <-- DLTA
 ------------------------------------------------------------------------------
 Cycle:      4
  WF centre and spread    1  (  0.000014,  0.000013, -0.000008 )     1.38542009
  WF centre and spread    2  (  0.000014, -0.000013, -0.000008 )     1.38541985
  WF centre and spread    3  ( -0.000009, -0.000000,  0.000030 )     1.38560789
  Sum of centres and spreads (  0.000018,  0.000000,  0.000014 )     4.15644783
 
      4    -0.495E-03     0.0118916994        4.1564478269       0.03  <-- CONV
        O_D=      0.0004480 O_OD=      0.0110670 O_TOT=      4.1564478 <-- SPRD
 Delta: O_D= -0.2241058E-03 O_OD= -0.2704524E-03 O_TOT= -0.4945582E-03 <-- DLTA
 ------------------------------------------------------------------------------
 Cycle:      5
  WF centre and spread    1  (  0.000010,  0.000011, -0.000006 )     1.38529155
  WF centre and spread    2  (  0.000010, -0.000011, -0.000006 )     1.38529072
  WF centre and spread    3  ( -0.000007, -0.000000,  0.000022 )     1.38547700
  Sum of centres and spreads (  0.000012,  0.000000,  0.000010 )     4.15605927
 
      5    -0.389E-03     0.0094670136        4.1560592709       0.03  <-- CONV
        O_D=      0.0002604 O_OD=      0.0108661 O_TOT=      4.1560593 <-- SPRD
 Delta: O_D= -0.1876206E-03 O_OD= -0.2009354E-03 O_TOT= -0.3885560E-03 <-- DLTA
 ------------------------------------------------------------------------------
 Cycle:      6
  WF centre and spread    1  (  0.000006,  0.000008, -0.000004 )     1.38519047
  WF centre and spread    2  (  0.000006, -0.000008, -0.000004 )     1.38518954
  WF centre and spread    3  ( -0.000005, -0.000000,  0.000013 )     1.38537355
  Sum of centres and spreads (  0.000006,  0.000000,  0.000005 )     4.15575355
 
      6    -0.306E-03     0.0089010154        4.1557535485       0.04  <-- CONV
        O_D=      0.0001168 O_OD=      0.0107039 O_TOT=      4.1557535 <-- SPRD
 Delta: O_D= -0.1435812E-03 O_OD= -0.1621412E-03 O_TOT= -0.3057224E-03 <-- DLTA
 ------------------------------------------------------------------------------
 Cycle:      7
  WF centre and spread    1  (  0.000005,  0.000007, -0.000004 )     1.38515298
  WF centre and spread    2  (  0.000005, -0.000007, -0.000003 )     1.38515216
  WF centre and spread    3  ( -0.000004, -0.000000,  0.000012 )     1.38533600
  Sum of centres and spreads (  0.000006,  0.000000,  0.000005 )     4.15564114
 
      7    -0.112E-03     0.0070782841        4.1556411414       0.05  <-- CONV
        O_D=      0.0000704 O_OD=      0.0106379 O_TOT=      4.1556411 <-- SPRD
 Delta: O_D= -0.4639090E-04 O_OD= -0.6601619E-04 O_TOT= -0.1124071E-03 <-- DLTA
 ------------------------------------------------------------------------------
 Cycle:      8
  WF centre and spread    1  (  0.000004,  0.000005, -0.000003 )     1.38513030
  WF centre and spread    2  (  0.000004, -0.000005, -0.000003 )     1.38512991
  WF centre and spread    3  ( -0.000003, -0.000000,  0.000010 )     1.38531174
  Sum of centres and spreads (  0.000005,  0.000000,  0.000004 )     4.15557194
 
      8    -0.692E-04     0.0045958673        4.1555719439       0.05  <-- CONV
        O_D=      0.0000394 O_OD=      0.0105997 O_TOT=      4.1555719 <-- SPRD
 Delta: O_D= -0.3099834E-04 O_OD= -0.3819921E-04 O_TOT= -0.6919755E-04 <-- DLTA
 ------------------------------------------------------------------------------
 Cycle:      9
  WF centre and spread    1  (  0.000003,  0.000003, -0.000002 )     1.38511950
  WF centre and spread    2  (  0.000003, -0.000003, -0.000002 )     1.38511926
  WF centre and spread    3  ( -0.000002, -0.000000,  0.000007 )     1.38530015
  Sum of centres and spreads (  0.000004,  0.000000,  0.000003 )     4.15553891
 
      9    -0.330E-04     0.0031959691        4.1555389091       0.06  <-- CONV
        O_D=      0.0000246 O_OD=      0.0105814 O_TOT=      4.1555389 <-- SPRD
 Delta: O_D= -0.1477546E-04 O_OD= -0.1825929E-04 O_TOT= -0.3303475E-04 <-- DLTA
 ------------------------------------------------------------------------------
 Cycle:     10
  WF centre and spread    1  (  0.000002,  0.000002, -0.000001 )     1.38511306
  WF centre and spread    2  (  0.000002, -0.000002, -0.000001 )     1.38511285
  WF centre and spread    3  ( -0.000002, -0.000000,  0.000005 )     1.38529323
  Sum of centres and spreads (  0.000003,  0.000000,  0.000003 )     4.15551914
 
     10    -0.198E-04     0.0022775639        4.1555191382       0.07  <-- CONV
        O_D=      0.0000158 O_OD=      0.0105705 O_TOT=      4.1555191 <-- SPRD
 Delta: O_D= -0.8865395E-05 O_OD= -0.1090556E-04 O_TOT= -0.1977096E-04 <-- DLTA
 ------------------------------------------------------------------------------
 Cycle:     11
  WF centre and spread    1  (  0.000001,  0.000001, -0.000001 )     1.38510676
  WF centre and spread    2  (  0.000001, -0.000001, -0.000000 )     1.38510658
  WF centre and spread    3  ( -0.000001, -0.000000,  0.000003 )     1.38528629
  Sum of centres and spreads (  0.000001,  0.000000,  0.000001 )     4.15549964
 
     11    -0.195E-04     0.0020232931        4.1554996376       0.07  <-- CONV
        O_D=      0.0000071 O_OD=      0.0105597 O_TOT=      4.1554996 <-- SPRD
 Delta: O_D= -0.8702218E-05 O_OD= -0.1079837E-04 O_TOT= -0.1950059E-04 <-- DLTA
 ------------------------------------------------------------------------------
 Cycle:     12
  WF centre and spread    1  (  0.000000,  0.000000, -0.000000 )     1.38510330
  WF centre and spread    2  (  0.000001, -0.000000, -0.000000 )     1.38510312
  WF centre and spread    3  ( -0.000000, -0.000000,  0.000001 )     1.38528247
  Sum of centres and spreads (  0.000001,  0.000000,  0.000001 )     4.15548889
 
     12    -0.107E-04     0.0017591119        4.1554888929       0.08  <-- CONV
        O_D=      0.0000027 O_OD=      0.0105534 O_TOT=      4.1554889 <-- SPRD
 Delta: O_D= -0.4368297E-05 O_OD= -0.6376359E-05 O_TOT= -0.1074466E-04 <-- DLTA
 ------------------------------------------------------------------------------
 Cycle:     13
  WF centre and spread    1  (  0.000000,  0.000000, -0.000000 )     1.38510235
  WF centre and spread    2  (  0.000001, -0.000000, -0.000000 )     1.38510218
  WF centre and spread    3  ( -0.000000, -0.000000,  0.000001 )     1.38528161
  Sum of centres and spreads (  0.000001,  0.000000,  0.000001 )     4.15548614
 
     13    -0.275E-05     0.0012433488        4.1554861397       0.09  <-- CONV
        O_D=      0.0000014 O_OD=      0.0105519 O_TOT=      4.1554861 <-- SPRD
 Delta: O_D= -0.1298469E-05 O_OD= -0.1454746E-05 O_TOT= -0.2753216E-05 <-- DLTA
 ------------------------------------------------------------------------------
 Cycle:     14
  WF centre and spread    1  (  0.000000,  0.000001, -0.000000 )     1.38510186
  WF centre and spread    2  (  0.000001, -0.000000, -0.000000 )     1.38510169
  WF centre and spread    3  ( -0.000000, -0.000000,  0.000001 )     1.38528114
  Sum of centres and spreads (  0.000001,  0.000000,  0.000001 )     4.15548468
 
     14    -0.146E-05     0.0006592271        4.1554846838       0.10  <-- CONV
        O_D=      0.0000007 O_OD=      0.0105511 O_TOT=      4.1554847 <-- SPRD
 Delta: O_D= -0.6350397E-06 O_OD= -0.8209009E-06 O_TOT= -0.1455941E-05 <-- DLTA
 ------------------------------------------------------------------------------
 Cycle:     15
  WF centre and spread    1  (  0.000000,  0.000001, -0.000000 )     1.38510163
  WF centre and spread    2  (  0.000000, -0.000000, -0.000000 )     1.38510147
  WF centre and spread    3  ( -0.000000, -0.000000,  0.000001 )     1.38528090
  Sum of centres and spreads (  0.000001,  0.000000,  0.000001 )     4.15548400
 
     15    -0.689E-06     0.0004522128        4.1554839951       0.10  <-- CONV
        O_D=      0.0000005 O_OD=      0.0105507 O_TOT=      4.1554840 <-- SPRD
 Delta: O_D= -0.2842931E-06 O_OD= -0.4043632E-06 O_TOT= -0.6886563E-06 <-- DLTA
 ------------------------------------------------------------------------------
 Cycle:     16
  WF centre and spread    1  (  0.000000,  0.000000, -0.000000 )     1.38510148
  WF centre and spread    2  (  0.000000, -0.000000, -0.000000 )     1.38510131
  WF centre and spread    3  ( -0.000000, -0.000000,  0.000001 )     1.38528071
  Sum of centres and spreads (  0.000000,  0.000000,  0.000000 )     4.15548350
 
     16    -0.495E-06     0.0003619757        4.1554835001       0.11  <-- CONV
        O_D=      0.0000003 O_OD=      0.0105504 O_TOT=      4.1554835 <-- SPRD
 Delta: O_D= -0.2062636E-06 O_OD= -0.2888122E-06 O_TOT= -0.4950758E-06 <-- DLTA
 ------------------------------------------------------------------------------
 Cycle:     17
  WF centre and spread    1  (  0.000000,  0.000000, -0.000000 )     1.38510138
  WF centre and spread    2  (  0.000000, -0.000000, -0.000000 )     1.38510122
  WF centre and spread    3  ( -0.000000, -0.000000,  0.000001 )     1.38528058
  Sum of centres and spreads (  0.000000,  0.000000,  0.000000 )     4.15548318
 
     17    -0.318E-06     0.0003049685        4.1554831817       0.12  <-- CONV
        O_D=      0.0000001 O_OD=      0.0105502 O_TOT=      4.1554832 <-- SPRD
 Delta: O_D= -0.1364080E-06 O_OD= -0.1819359E-06 O_TOT= -0.3183439E-06 <-- DLTA
 ------------------------------------------------------------------------------
 Cycle:     18
  WF centre and spread    1  (  0.000000,  0.000000, -0.000000 )     1.38510135
  WF centre and spread    2  (  0.000000, -0.000000, -0.000000 )     1.38510119
  WF centre and spread    3  ( -0.000000, -0.000000,  0.000000 )     1.38528054
  Sum of centres and spreads ( -0.000000,  0.000000,  0.000000 )     4.15548308
 
     18    -0.105E-06     0.0002013605        4.1554830769       0.12  <-- CONV
        O_D=      0.0000001 O_OD=      0.0105502 O_TOT=      4.1554831 <-- SPRD
 Delta: O_D= -0.4658297E-07 O_OD= -0.5817850E-07 O_TOT= -0.1047615E-06 <-- DLTA
 ------------------------------------------------------------------------------
 Cycle:     19
  WF centre and spread    1  (  0.000000,  0.000000, -0.000000 )     1.38510133
  WF centre and spread    2  (  0.000000, -0.000000,  0.000000 )     1.38510117
  WF centre and spread    3  ( -0.000000, -0.000000,  0.000000 )     1.38528052
  Sum of centres and spreads ( -0.000000,  0.000000,  0.000000 )     4.15548302
 
     19    -0.555E-07     0.0001390981        4.1554830214       0.13  <-- CONV
        O_D=      0.0000001 O_OD=      0.0105501 O_TOT=      4.1554830 <-- SPRD
 Delta: O_D= -0.2166751E-07 O_OD= -0.3387512E-07 O_TOT= -0.5554262E-07 <-- DLTA
 ------------------------------------------------------------------------------
 Cycle:     20
  WF centre and spread    1  ( -0.000000,  0.000000, -0.000000 )     1.38510132
  WF centre and spread    2  (  0.000000, -0.000000,  0.000000 )     1.38510115
  WF centre and spread    3  ( -0.000000, -0.000000,  0.000000 )     1.38528050
  Sum of centres and spreads ( -0.000000,  0.000000,  0.000000 )     4.15548297
 
     20    -0.554E-07     0.0001222569        4.1554829660       0.14  <-- CONV
        O_D=      0.0000000 O_OD=      0.0105501 O_TOT=      4.1554830 <-- SPRD
 Delta: O_D= -0.2311691E-07 O_OD= -0.3230808E-07 O_TOT= -0.5542499E-07 <-- DLTA
 ------------------------------------------------------------------------------
 Cycle:     21
  WF centre and spread    1  ( -0.000000,  0.000000, -0.000000 )     1.38510131
  WF centre and spread    2  (  0.000000, -0.000000,  0.000000 )     1.38510115
  WF centre and spread    3  ( -0.000000, -0.000000,  0.000000 )     1.38528048
  Sum of centres and spreads ( -0.000000,  0.000000,  0.000000 )     4.15548294
 
     21    -0.310E-07     0.0000963781        4.1554829350       0.14  <-- CONV
        O_D=      0.0000000 O_OD=      0.0105501 O_TOT=      4.1554829 <-- SPRD
 Delta: O_D= -0.1314477E-07 O_OD= -0.1783322E-07 O_TOT= -0.3097799E-07 <-- DLTA
 ------------------------------------------------------------------------------
 Cycle:     22
  WF centre and spread    1  ( -0.000000,  0.000000, -0.000000 )     1.38510131
  WF centre and spread    2  ( -0.000000,  0.000000,  0.000000 )     1.38510114
  WF centre and spread    3  ( -0.000000, -0.000000,  0.000000 )     1.38528047
  Sum of centres and spreads ( -0.000000,  0.000000,  0.000000 )     4.15548292
 
     22    -0.185E-07     0.0000728284        4.1554829165       0.15  <-- CONV
        O_D=      0.0000000 O_OD=      0.0105501 O_TOT=      4.1554829 <-- SPRD
 Delta: O_D= -0.7339442E-08 O_OD= -0.1120782E-07 O_TOT= -0.1854726E-07 <-- DLTA
 ------------------------------------------------------------------------------
 Cycle:     23
  WF centre and spread    1  ( -0.000000,  0.000000, -0.000000 )     1.38510131
  WF centre and spread    2  ( -0.000000,  0.000000,  0.000000 )     1.38510114
  WF centre and spread    3  ( -0.000000, -0.000000,  0.000000 )     1.38528045
  Sum of centres and spreads ( -0.000000,  0.000000,  0.000000 )     4.15548290
 
     23    -0.124E-07     0.0000644447        4.1554829040       0.16  <-- CONV
        O_D=      0.0000000 O_OD=      0.0105501 O_TOT=      4.1554829 <-- SPRD
 Delta: O_D= -0.5074553E-08 O_OD= -0.7352158E-08 O_TOT= -0.1242671E-07 <-- DLTA
 ------------------------------------------------------------------------------
 Cycle:     24
  WF centre and spread    1  ( -0.000000,  0.000000, -0.000000 )     1.38510130
  WF centre and spread    2  ( -0.000000,  0.000000,  0.000000 )     1.38510114
  WF centre and spread    3  ( -0.000000, -0.000000,  0.000000 )     1.38528045
  Sum of centres and spreads ( -0.000000,  0.000000,  0.000000 )     4.15548290
 
     24    -0.606E-08     0.0000431919        4.1554828980       0.16  <-- CONV
        O_D=      0.0000000 O_OD=      0.0105501 O_TOT=      4.1554829 <-- SPRD
 Delta: O_D= -0.2562280E-08 O_OD= -0.3497546E-08 O_TOT= -0.6059826E-08 <-- DLTA
 ------------------------------------------------------------------------------
 Cycle:     25
  WF centre and spread    1  ( -0.000000,  0.000000, -0.000000 )     1.38510130
  WF centre and spread    2  ( -0.000000,  0.000000,  0.000000 )     1.38510114
  WF centre and spread    3  ( -0.000000, -0.000000,  0.000000 )     1.38528045
  Sum of centres and spreads ( -0.000000,  0.000000,  0.000000 )     4.15548290
 
     25    -0.283E-08     0.0000370913        4.1554828951       0.17  <-- CONV
        O_D=      0.0000000 O_OD=      0.0105501 O_TOT=      4.1554829 <-- SPRD
 Delta: O_D= -0.1304425E-08 O_OD= -0.1526545E-08 O_TOT= -0.2830970E-08 <-- DLTA
 ------------------------------------------------------------------------------
 Cycle:     26
  WF centre and spread    1  ( -0.000000,  0.000000, -0.000000 )     1.38510130
  WF centre and spread    2  ( -0.000000,  0.000000,  0.000000 )     1.38510114
  WF centre and spread    3  ( -0.000000, -0.000000,  0.000000 )     1.38528045
  Sum of centres and spreads ( -0.000000,  0.000000,  0.000000 )     4.15548290
 
     26    -0.243E-11     0.0000210219        4.1554828951       0.17  <-- CONV
        O_D=      0.0000000 O_OD=      0.0105501 O_TOT=      4.1554829 <-- SPRD
 Delta: O_D= -0.1137200E-11 O_OD= -0.1289495E-11 O_TOT= -0.2427392E-11 <-- DLTA
 ------------------------------------------------------------------------------
 Cycle:     27
  WF centre and spread    1  ( -0.000000,  0.000000, -0.000000 )     1.38510130
  WF centre and spread    2  ( -0.000000,  0.000000,  0.000000 )     1.38510114
  WF centre and spread    3  ( -0.000000, -0.000000,  0.000000 )     1.38528045
  Sum of centres and spreads ( -0.000000,  0.000000,  0.000000 )     4.15548289
 
     27    -0.165E-08     0.0000210086        4.1554828935       0.18  <-- CONV
        O_D=      0.0000000 O_OD=      0.0105501 O_TOT=      4.1554829 <-- SPRD
 Delta: O_D= -0.6382672E-09 O_OD= -0.1016065E-08 O_TOT= -0.1654333E-08 <-- DLTA
 ------------------------------------------------------------------------------
 Cycle:     28
  WF centre and spread    1  ( -0.000000,  0.000000, -0.000000 )     1.38510130
  WF centre and spread    2  ( -0.000000,  0.000000,  0.000000 )     1.38510114
  WF centre and spread    3  ( -0.000000, -0.000000,  0.000000 )     1.38528045
  Sum of centres and spreads ( -0.000000,  0.000000,  0.000000 )     4.15548289
 
     28    -0.662E-09     0.0000192927        4.1554828928       0.19  <-- CONV
        O_D=      0.0000000 O_OD=      0.0105501 O_TOT=      4.1554829 <-- SPRD
 Delta: O_D= -0.2822966E-09 O_OD= -0.3798040E-09 O_TOT= -0.6620997E-09 <-- DLTA
 ------------------------------------------------------------------------------
 Cycle:     29
  WF centre and spread    1  ( -0.000000,  0.000000, -0.000000 )     1.38510130
  WF centre and spread    2  ( -0.000000,  0.000000,  0.000000 )     1.38510114
  WF centre and spread    3  ( -0.000000, -0.000000,  0.000000 )     1.38528045
  Sum of centres and spreads ( -0.000000,  0.000000,  0.000000 )     4.15548289
 
     29    -0.606E-09     0.0000187044        4.1554828922       0.19  <-- CONV
        O_D=      0.0000000 O_OD=      0.0105501 O_TOT=      4.1554829 <-- SPRD
 Delta: O_D= -0.3049221E-09 O_OD= -0.3012267E-09 O_TOT= -0.6061489E-09 <-- DLTA
 ------------------------------------------------------------------------------
 Cycle:     30
  WF centre and spread    1  ( -0.000000,  0.000000, -0.000000 )     1.38510130
  WF centre and spread    2  ( -0.000000,  0.000000,  0.000000 )     1.38510114
  WF centre and spread    3  ( -0.000000, -0.000000,  0.000000 )     1.38528045
  Sum of centres and spreads ( -0.000000,  0.000000,  0.000000 )     4.15548289
 
     30    -0.779E-12     0.0000118498        4.1554828922       0.20  <-- CONV
        O_D=      0.0000000 O_OD=      0.0105501 O_TOT=      4.1554829 <-- SPRD
 Delta: O_D= -0.3060297E-12 O_OD= -0.4723964E-12 O_TOT= -0.7789325E-12 <-- DLTA
 ------------------------------------------------------------------------------
 Cycle:     31
  WF centre and spread    1  ( -0.000000,  0.000000, -0.000000 )     1.38510130
  WF centre and spread    2  ( -0.000000,  0.000000,  0.000000 )     1.38510114
  WF centre and spread    3  ( -0.000000, -0.000000,  0.000000 )     1.38528045
  Sum of centres and spreads ( -0.000000,  0.000000,  0.000000 )     4.15548289
 
     31    -0.156E-09     0.0000118436        4.1554828921       0.20  <-- CONV
        O_D=      0.0000000 O_OD=      0.0105501 O_TOT=      4.1554829 <-- SPRD
 Delta: O_D= -0.7080207E-10 O_OD= -0.8513543E-10 O_TOT= -0.1559375E-09 <-- DLTA
 ------------------------------------------------------------------------------
 Cycle:     32
  WF centre and spread    1  ( -0.000000,  0.000000, -0.000000 )     1.38510130
  WF centre and spread    2  ( -0.000000,  0.000000,  0.000000 )     1.38510114
  WF centre and spread    3  ( -0.000000, -0.000000,  0.000000 )     1.38528045
  Sum of centres and spreads ( -0.000000,  0.000000,  0.000000 )     4.15548289
 
     32    -0.290E-09     0.0000097633        4.1554828918       0.21  <-- CONV
        O_D=      0.0000000 O_OD=      0.0105501 O_TOT=      4.1554829 <-- SPRD
 Delta: O_D= -0.1222428E-09 O_OD= -0.1675877E-09 O_TOT= -0.2898304E-09 <-- DLTA
 ------------------------------------------------------------------------------
 Cycle:     33
  WF centre and spread    1  ( -0.000000,  0.000000, -0.000000 )     1.38510130
  WF centre and spread    2  ( -0.000000,  0.000000,  0.000000 )     1.38510114
  WF centre and spread    3  ( -0.000000, -0.000000,  0.000000 )     1.38528045
  Sum of centres and spreads ( -0.000000,  0.000000,  0.000000 )     4.15548289
 
     33    -0.359E-12     0.0000062845        4.1554828918       0.21  <-- CONV
        O_D=      0.0000000 O_OD=      0.0105501 O_TOT=      4.1554829 <-- SPRD
 Delta: O_D= -0.1514316E-12 O_OD= -0.2077227E-12 O_TOT= -0.3588241E-12 <-- DLTA
 ------------------------------------------------------------------------------
 Cycle:     34
  WF centre and spread    1  ( -0.000000,  0.000000, -0.000000 )     1.38510130
  WF centre and spread    2  ( -0.000000,  0.000000,  0.000000 )     1.38510114
  WF centre and spread    3  ( -0.000000, -0.000000,  0.000000 )     1.38528045
  Sum of centres and spreads ( -0.000000,  0.000000,  0.000000 )     4.15548289
 
     34    -0.560E-12     0.0000062801        4.1554828918       0.22  <-- CONV
        O_D=      0.0000000 O_OD=      0.0105501 O_TOT=      4.1554829 <-- SPRD
 Delta: O_D= -0.2437040E-12 O_OD= -0.3168490E-12 O_TOT= -0.5604406E-12 <-- DLTA
 ------------------------------------------------------------------------------
 Cycle:     35
  WF centre and spread    1  ( -0.000000,  0.000000, -0.000000 )     1.38510130
  WF centre and spread    2  ( -0.000000,  0.000000,  0.000000 )     1.38510114
  WF centre and spread    3  ( -0.000000, -0.000000,  0.000000 )     1.38528045
  Sum of centres and spreads ( -0.000000,  0.000000,  0.000000 )     4.15548289
 
     35    -0.760E-12     0.0000062720        4.1554828918       0.22  <-- CONV
        O_D=      0.0000000 O_OD=      0.0105501 O_TOT=      4.1554829 <-- SPRD
 Delta: O_D= -0.3349717E-12 O_OD= -0.4249830E-12 O_TOT= -0.7602807E-12 <-- DLTA
 ------------------------------------------------------------------------------
 Cycle:     36
  WF centre and spread    1  ( -0.000000,  0.000000, -0.000000 )     1.38510130
  WF centre and spread    2  ( -0.000000,  0.000000,  0.000000 )     1.38510114
  WF centre and spread    3  ( -0.000000, -0.000000,  0.000000 )     1.38528045
  Sum of centres and spreads ( -0.000000,  0.000000,  0.000000 )     4.15548289
 
     36    -0.199E-09     0.0000062601        4.1554828916       0.23  <-- CONV
        O_D=      0.0000000 O_OD=      0.0105501 O_TOT=      4.1554829 <-- SPRD
 Delta: O_D= -0.5986994E-10 O_OD= -0.1393971E-09 O_TOT= -0.1992673E-09 <-- DLTA
 ------------------------------------------------------------------------------
 Cycle:     37
  WF centre and spread    1  ( -0.000000,  0.000000, -0.000000 )     1.38510130
  WF centre and spread    2  ( -0.000000,  0.000000,  0.000000 )     1.38510114
  WF centre and spread    3  ( -0.000000, -0.000000,  0.000000 )     1.38528045
  Sum of centres and spreads ( -0.000000,  0.000000,  0.000000 )     4.15548289
 
     37    -0.269E-12     0.0000072487        4.1554828916       0.23  <-- CONV
        O_D=      0.0000000 O_OD=      0.0105501 O_TOT=      4.1554829 <-- SPRD
 Delta: O_D= -0.1880324E-12 O_OD= -0.8149384E-13 O_TOT= -0.2691181E-12 <-- DLTA
 ------------------------------------------------------------------------------
 Cycle:     38
  WF centre and spread    1  ( -0.000000,  0.000000, -0.000000 )     1.38510130
  WF centre and spread    2  ( -0.000000,  0.000000,  0.000000 )     1.38510114
  WF centre and spread    3  ( -0.000000, -0.000000,  0.000000 )     1.38528045
  Sum of centres and spreads ( -0.000000,  0.000000,  0.000000 )     4.15548289
 
     38    -0.536E-12     0.0000072376        4.1554828916       0.24  <-- CONV
        O_D=      0.0000000 O_OD=      0.0105501 O_TOT=      4.1554829 <-- SPRD
 Delta: O_D= -0.3740769E-12 O_OD= -0.1624655E-12 O_TOT= -0.5364598E-12 <-- DLTA
 ------------------------------------------------------------------------------
 Cycle:     39
  WF centre and spread    1  ( -0.000000,  0.000000, -0.000000 )     1.38510130
  WF centre and spread    2  ( -0.000000,  0.000000,  0.000000 )     1.38510114
  WF centre and spread    3  ( -0.000000, -0.000000,  0.000000 )     1.38528045
  Sum of centres and spreads ( -0.000000,  0.000000,  0.000000 )     4.15548289
 
     39    -0.677E-10     0.0000072155        4.1554828915       0.24  <-- CONV
        O_D=      0.0000000 O_OD=      0.0105501 O_TOT=      4.1554829 <-- SPRD
 Delta: O_D= -0.1682266E-10 O_OD= -0.5091136E-10 O_TOT= -0.6773426E-10 <-- DLTA
 ------------------------------------------------------------------------------
 Cycle:     40
  WF centre and spread    1  ( -0.000000,  0.000000, -0.000000 )     1.38510130
  WF centre and spread    2  ( -0.000000,  0.000000,  0.000000 )     1.38510114
  WF centre and spread    3  ( -0.000000, -0.000000,  0.000000 )     1.38528045
  Sum of centres and spreads ( -0.000000,  0.000000,  0.000000 )     4.15548289
 
     40    -0.287E-12     0.0000074851        4.1554828915       0.25  <-- CONV
        O_D=      0.0000000 O_OD=      0.0105501 O_TOT=      4.1554829 <-- SPRD
 Delta: O_D= -0.2352807E-12 O_OD= -0.5202436E-13 O_TOT= -0.2868816E-12 <-- DLTA
 ------------------------------------------------------------------------------
 Cycle:     41
  WF centre and spread    1  ( -0.000000,  0.000000, -0.000000 )     1.38510130
  WF centre and spread    2  ( -0.000000,  0.000000,  0.000000 )     1.38510114
  WF centre and spread    3  ( -0.000000, -0.000000,  0.000000 )     1.38528045
  Sum of centres and spreads ( -0.000000,  0.000000,  0.000000 )     4.15548289
 
     41    -0.572E-12     0.0000074713        4.1554828915       0.25  <-- CONV
        O_D=      0.0000000 O_OD=      0.0105501 O_TOT=      4.1554829 <-- SPRD
 Delta: O_D= -0.4677140E-12 O_OD= -0.1037521E-12 O_TOT= -0.5719869E-12 <-- DLTA
 ------------------------------------------------------------------------------
 Cycle:     42
  WF centre and spread    1  ( -0.000000,  0.000000, -0.000000 )     1.38510130
  WF centre and spread    2  ( -0.000000,  0.000000,  0.000000 )     1.38510114
  WF centre and spread    3  ( -0.000000, -0.000000,  0.000000 )     1.38528045
  Sum of centres and spreads ( -0.000000,  0.000000,  0.000000 )     4.15548289
 
     42    -0.768E-10     0.0000074437        4.1554828914       0.26  <-- CONV
        O_D=      0.0000000 O_OD=      0.0105501 O_TOT=      4.1554829 <-- SPRD
 Delta: O_D= -0.5465196E-10 O_OD= -0.2219343E-10 O_TOT= -0.7684520E-10 <-- DLTA
 ------------------------------------------------------------------------------
 Cycle:     43
  WF centre and spread    1  ( -0.000000,  0.000000, -0.000000 )     1.38510130
  WF centre and spread    2  ( -0.000000,  0.000000,  0.000000 )     1.38510114
  WF centre and spread    3  ( -0.000000, -0.000000,  0.000000 )     1.38528045
  Sum of centres and spreads ( -0.000000,  0.000000,  0.000000 )     4.15548289
 
     43    -0.666E-13     0.0000034151        4.1554828914       0.26  <-- CONV
        O_D=      0.0000000 O_OD=      0.0105501 O_TOT=      4.1554829 <-- SPRD
 Delta: O_D= -0.1285094E-13 O_OD= -0.5336183E-13 O_TOT= -0.6661338E-13 <-- DLTA
 ------------------------------------------------------------------------------
 Cycle:     44
  WF centre and spread    1  ( -0.000000,  0.000000, -0.000000 )     1.38510130
  WF centre and spread    2  ( -0.000000,  0.000000,  0.000000 )     1.38510114
  WF centre and spread    3  ( -0.000000, -0.000000,  0.000000 )     1.38528045
  Sum of centres and spreads ( -0.000000,  0.000000,  0.000000 )     4.15548289
 
     44    -0.125E-12     0.0000034170        4.1554828914       0.27  <-- CONV
        O_D=      0.0000000 O_OD=      0.0105501 O_TOT=      4.1554829 <-- SPRD
 Delta: O_D= -0.4035572E-13 O_OD= -0.8572830E-13 O_TOT= -0.1252332E-12 <-- DLTA
 ------------------------------------------------------------------------------
 Cycle:     45
  WF centre and spread    1  ( -0.000000,  0.000000, -0.000000 )     1.38510130
  WF centre and spread    2  ( -0.000000,  0.000000,  0.000000 )     1.38510114
  WF centre and spread    3  ( -0.000000, -0.000000,  0.000000 )     1.38528045
  Sum of centres and spreads ( -0.000000,  0.000000,  0.000000 )     4.15548289
 
     45    -0.187E-12     0.0000034174        4.1554828914       0.27  <-- CONV
        O_D=      0.0000000 O_OD=      0.0105501 O_TOT=      4.1554829 <-- SPRD
 Delta: O_D= -0.6791704E-13 O_OD= -0.1181295E-12 O_TOT= -0.1865175E-12 <-- DLTA
 ------------------------------------------------------------------------------
 Cycle:     46
  WF centre and spread    1  ( -0.000000,  0.000000, -0.000000 )     1.38510130
  WF centre and spread    2  ( -0.000000,  0.000000,  0.000000 )     1.38510114
  WF centre and spread    3  ( -0.000000, -0.000000,  0.000000 )     1.38528045
  Sum of centres and spreads ( -0.000000,  0.000000,  0.000000 )     4.15548289
 
     46    -0.604E-13     0.0000034162        4.1554828914       0.27  <-- CONV
        O_D=      0.0000000 O_OD=      0.0105501 O_TOT=      4.1554829 <-- SPRD
 Delta: O_D= -0.2756274E-13 O_OD= -0.3233698E-13 O_TOT= -0.6039613E-13 <-- DLTA
 ------------------------------------------------------------------------------
 Cycle:     47
  WF centre and spread    1  ( -0.000000,  0.000000, -0.000000 )     1.38510130
  WF centre and spread    2  ( -0.000000,  0.000000,  0.000000 )     1.38510114
  WF centre and spread    3  ( -0.000000, -0.000000,  0.000000 )     1.38528045
  Sum of centres and spreads ( -0.000000,  0.000000,  0.000000 )     4.15548289
 
     47    -0.120E-12     0.0000034147        4.1554828914       0.28  <-- CONV
        O_D=      0.0000000 O_OD=      0.0105501 O_TOT=      4.1554829 <-- SPRD
 Delta: O_D= -0.5500860E-13 O_OD= -0.6460457E-13 O_TOT= -0.1199041E-12 <-- DLTA
 ------------------------------------------------------------------------------
 Cycle:     48
  WF centre and spread    1  ( -0.000000,  0.000000, -0.000000 )     1.38510130
  WF centre and spread    2  ( -0.000000,  0.000000,  0.000000 )     1.38510114
  WF centre and spread    3  ( -0.000000, -0.000000,  0.000000 )     1.38528045
  Sum of centres and spreads ( -0.000000,  0.000000,  0.000000 )     4.15548289
 
     48    -0.179E-12     0.0000034117        4.1554828914       0.28  <-- CONV
        O_D=      0.0000000 O_OD=      0.0105501 O_TOT=      4.1554829 <-- SPRD
 Delta: O_D= -0.8219775E-13 O_OD= -0.9677849E-13 O_TOT= -0.1785239E-12 <-- DLTA
 ------------------------------------------------------------------------------
 Cycle:     49
  WF centre and spread    1  ( -0.000000,  0.000000, -0.000000 )     1.38510130
  WF centre and spread    2  ( -0.000000,  0.000000,  0.000000 )     1.38510114
  WF centre and spread    3  ( -0.000000, -0.000000,  0.000000 )     1.38528045
  Sum of centres and spreads ( -0.000000,  0.000000,  0.000000 )     4.15548289
 
     49    -0.238E-12     0.0000034071        4.1554828914       0.28  <-- CONV
        O_D=      0.0000000 O_OD=      0.0105501 O_TOT=      4.1554829 <-- SPRD
 Delta: O_D= -0.1089943E-12 O_OD= -0.1287928E-12 O_TOT= -0.2380318E-12 <-- DLTA
 ------------------------------------------------------------------------------
 Cycle:     50
  WF centre and spread    1  ( -0.000000,  0.000000, -0.000000 )     1.38510130
  WF centre and spread    2  ( -0.000000,  0.000000,  0.000000 )     1.38510114
  WF centre and spread    3  ( -0.000000, -0.000000,  0.000000 )     1.38528045
  Sum of centres and spreads ( -0.000000,  0.000000,  0.000000 )     4.15548289
 
     50    -0.307E-10     0.0000034012        4.1554828914       0.29  <-- CONV
        O_D=      0.0000000 O_OD=      0.0105501 O_TOT=      4.1554829 <-- SPRD
 Delta: O_D= -0.1216792E-10 O_OD= -0.1851777E-10 O_TOT= -0.3068568E-10 <-- DLTA
 ------------------------------------------------------------------------------
 Cycle:     51
  WF centre and spread    1  ( -0.000000,  0.000000, -0.000000 )     1.38510130
  WF centre and spread    2  ( -0.000000,  0.000000,  0.000000 )     1.38510114
  WF centre and spread    3  ( -0.000000, -0.000000,  0.000000 )     1.38528045
  Sum of centres and spreads ( -0.000000,  0.000000,  0.000000 )     4.15548289
 
     51    -0.215E-12     0.0000029964        4.1554828914       0.29  <-- CONV
        O_D=      0.0000000 O_OD=      0.0105501 O_TOT=      4.1554829 <-- SPRD
 Delta: O_D= -0.7053486E-13 O_OD= -0.1449084E-12 O_TOT= -0.2149392E-12 <-- DLTA
 ------------------------------------------------------------------------------
 Cycle:     52
  WF centre and spread    1  ( -0.000000,  0.000000, -0.000000 )     1.38510130
  WF centre and spread    2  ( -0.000000,  0.000000,  0.000000 )     1.38510114
  WF centre and spread    3  ( -0.000000, -0.000000,  0.000000 )     1.38528045
  Sum of centres and spreads ( -0.000000,  0.000000,  0.000000 )     4.15548289
 
     52    -0.462E-13     0.0000029969        4.1554828914       0.30  <-- CONV
        O_D=      0.0000000 O_OD=      0.0105501 O_TOT=      4.1554829 <-- SPRD
 Delta: O_D= -0.1756817E-13 O_OD= -0.2848763E-13 O_TOT= -0.4618528E-13 <-- DLTA
 ------------------------------------------------------------------------------
 Cycle:     53
  WF centre and spread    1  ( -0.000000,  0.000000, -0.000000 )     1.38510130
  WF centre and spread    2  ( -0.000000,  0.000000,  0.000000 )     1.38510114
  WF centre and spread    3  ( -0.000000, -0.000000,  0.000000 )     1.38528045
  Sum of centres and spreads ( -0.000000,  0.000000,  0.000000 )     4.15548289
 
     53    -0.915E-13     0.0000029964        4.1554828914       0.30  <-- CONV
        O_D=      0.0000000 O_OD=      0.0105501 O_TOT=      4.1554829 <-- SPRD
 Delta: O_D= -0.3511192E-13 O_OD= -0.5706373E-13 O_TOT= -0.9148238E-13 <-- DLTA
 ------------------------------------------------------------------------------
 Cycle:     54
  WF centre and spread    1  ( -0.000000,  0.000000, -0.000000 )     1.38510130
  WF centre and spread    2  ( -0.000000,  0.000000,  0.000000 )     1.38510114
  WF centre and spread    3  ( -0.000000, -0.000000,  0.000000 )     1.38528045
  Sum of centres and spreads ( -0.000000,  0.000000,  0.000000 )     4.15548289
 
     54    -0.139E-12     0.0000029955        4.1554828914       0.31  <-- CONV
        O_D=      0.0000000 O_OD=      0.0105501 O_TOT=      4.1554829 <-- SPRD
 Delta: O_D= -0.5260149E-13 O_OD= -0.8551840E-13 O_TOT= -0.1385558E-12 <-- DLTA
 ------------------------------------------------------------------------------
 Cycle:     55
  WF centre and spread    1  ( -0.000000,  0.000000, -0.000000 )     1.38510130
  WF centre and spread    2  ( -0.000000,  0.000000,  0.000000 )     1.38510114
  WF centre and spread    3  ( -0.000000, -0.000000,  0.000000 )     1.38528045
  Sum of centres and spreads ( -0.000000,  0.000000,  0.000000 )     4.15548289
 
     55    -0.184E-12     0.0000029941        4.1554828914       0.31  <-- CONV
        O_D=      0.0000000 O_OD=      0.0105501 O_TOT=      4.1554829 <-- SPRD
 Delta: O_D= -0.7000762E-13 O_OD= -0.1139210E-12 O_TOT= -0.1838529E-12 <-- DLTA
 ------------------------------------------------------------------------------
 Cycle:     56
  WF centre and spread    1  ( -0.000000,  0.000000, -0.000000 )     1.38510130
  WF centre and spread    2  ( -0.000000,  0.000000,  0.000000 )     1.38510114
  WF centre and spread    3  ( -0.000000, -0.000000,  0.000000 )     1.38528045
  Sum of centres and spreads ( -0.000000,  0.000000,  0.000000 )     4.15548289
 
     56    -0.230E-12     0.0000029922        4.1554828914       0.31  <-- CONV
        O_D=      0.0000000 O_OD=      0.0105501 O_TOT=      4.1554829 <-- SPRD
 Delta: O_D= -0.8730181E-13 O_OD= -0.1421641E-12 O_TOT= -0.2300382E-12 <-- DLTA
 ------------------------------------------------------------------------------
 Cycle:     57
  WF centre and spread    1  ( -0.000000,  0.000000, -0.000000 )     1.38510130
  WF centre and spread    2  ( -0.000000,  0.000000,  0.000000 )     1.38510114
  WF centre and spread    3  ( -0.000000, -0.000000,  0.000000 )     1.38528045
  Sum of centres and spreads ( -0.000000,  0.000000,  0.000000 )     4.15548289
 
     57    -0.274E-12     0.0000029899        4.1554828914       0.32  <-- CONV
        O_D=      0.0000000 O_OD=      0.0105501 O_TOT=      4.1554829 <-- SPRD
 Delta: O_D= -0.1044566E-12 O_OD= -0.1703707E-12 O_TOT= -0.2744471E-12 <-- DLTA
 ------------------------------------------------------------------------------
 Cycle:     58
  WF centre and spread    1  ( -0.000000,  0.000000, -0.000000 )     1.38510130
  WF centre and spread    2  ( -0.000000,  0.000000,  0.000000 )     1.38510114
  WF centre and spread    3  ( -0.000000, -0.000000,  0.000000 )     1.38528045
  Sum of centres and spreads ( -0.000000,  0.000000,  0.000000 )     4.15548289
 
     58    -0.462E-13     0.0000029871        4.1554828914       0.32  <-- CONV
        O_D=      0.0000000 O_OD=      0.0105501 O_TOT=      4.1554829 <-- SPRD
 Delta: O_D= -0.1737437E-13 O_OD= -0.2842691E-13 O_TOT= -0.4618528E-13 <-- DLTA
 ------------------------------------------------------------------------------
 Cycle:     59
  WF centre and spread    1  ( -0.000000,  0.000000, -0.000000 )     1.38510130
  WF centre and spread    2  ( -0.000000,  0.000000,  0.000000 )     1.38510114
  WF centre and spread    3  ( -0.000000, -0.000000,  0.000000 )     1.38528045
  Sum of centres and spreads ( -0.000000,  0.000000,  0.000000 )     4.15548289
 
     59    -0.915E-13     0.0000029867        4.1554828914       0.33  <-- CONV
        O_D=      0.0000000 O_OD=      0.0105501 O_TOT=      4.1554829 <-- SPRD
 Delta: O_D= -0.3472585E-13 O_OD= -0.5684689E-13 O_TOT= -0.9148238E-13 <-- DLTA
 ------------------------------------------------------------------------------
 Cycle:     60
  WF centre and spread    1  ( -0.000000,  0.000000, -0.000000 )     1.38510130
  WF centre and spread    2  ( -0.000000,  0.000000,  0.000000 )     1.38510114
  WF centre and spread    3  ( -0.000000, -0.000000,  0.000000 )     1.38528045
  Sum of centres and spreads ( -0.000000,  0.000000,  0.000000 )     4.15548289
 
     60    -0.138E-12     0.0000029858        4.1554828914       0.33  <-- CONV
        O_D=      0.0000000 O_OD=      0.0105501 O_TOT=      4.1554829 <-- SPRD
 Delta: O_D= -0.5202647E-13 O_OD= -0.8517492E-13 O_TOT= -0.1376677E-12 <-- DLTA
 ------------------------------------------------------------------------------
 Cycle:     61
  WF centre and spread    1  ( -0.000000,  0.000000, -0.000000 )     1.38510130
  WF centre and spread    2  ( -0.000000,  0.000000,  0.000000 )     1.38510114
  WF centre and spread    3  ( -0.000000, -0.000000,  0.000000 )     1.38528045
  Sum of centres and spreads ( -0.000000,  0.000000,  0.000000 )     4.15548289
 
     61    -0.182E-12     0.0000029844        4.1554828914       0.33  <-- CONV
        O_D=      0.0000000 O_OD=      0.0105501 O_TOT=      4.1554829 <-- SPRD
 Delta: O_D= -0.6924870E-13 O_OD= -0.1135064E-12 O_TOT= -0.1820766E-12 <-- DLTA
 ------------------------------------------------------------------------------
 Cycle:     62
  WF centre and spread    1  ( -0.000000,  0.000000, -0.000000 )     1.38510130
  WF centre and spread    2  ( -0.000000,  0.000000,  0.000000 )     1.38510114
  WF centre and spread    3  ( -0.000000, -0.000000,  0.000000 )     1.38528045
  Sum of centres and spreads ( -0.000000,  0.000000,  0.000000 )     4.15548289
 
     62    -0.228E-12     0.0000029826        4.1554828914       0.34  <-- CONV
        O_D=      0.0000000 O_OD=      0.0105501 O_TOT=      4.1554829 <-- SPRD
 Delta: O_D= -0.8636570E-13 O_OD= -0.1416610E-12 O_TOT= -0.2282619E-12 <-- DLTA
 ------------------------------------------------------------------------------
 Cycle:     63
  WF centre and spread    1  ( -0.000000,  0.000000, -0.000000 )     1.38510130
  WF centre and spread    2  ( -0.000000,  0.000000,  0.000000 )     1.38510114
  WF centre and spread    3  ( -0.000000, -0.000000,  0.000000 )     1.38528045
  Sum of centres and spreads ( -0.000000,  0.000000,  0.000000 )     4.15548289
 
     63    -0.273E-12     0.0000029804        4.1554828914       0.34  <-- CONV
        O_D=      0.0000000 O_OD=      0.0105501 O_TOT=      4.1554829 <-- SPRD
 Delta: O_D= -0.1033516E-12 O_OD= -0.1697236E-12 O_TOT= -0.2726708E-12 <-- DLTA
 ------------------------------------------------------------------------------
 Cycle:     64
  WF centre and spread    1  ( -0.000000,  0.000000, -0.000000 )     1.38510130
  WF centre and spread    2  ( -0.000000,  0.000000,  0.000000 )     1.38510114
  WF centre and spread    3  ( -0.000000, -0.000000,  0.000000 )     1.38528045
  Sum of centres and spreads ( -0.000000,  0.000000,  0.000000 )     4.15548289
 
     64    -0.453E-13     0.0000029778        4.1554828914       0.34  <-- CONV
        O_D=      0.0000000 O_OD=      0.0105501 O_TOT=      4.1554829 <-- SPRD
 Delta: O_D= -0.1719329E-13 O_OD= -0.2832283E-13 O_TOT= -0.4529710E-13 <-- DLTA
 ------------------------------------------------------------------------------
 Cycle:     65
  WF centre and spread    1  ( -0.000000,  0.000000, -0.000000 )     1.38510130
  WF centre and spread    2  ( -0.000000,  0.000000,  0.000000 )     1.38510114
  WF centre and spread    3  ( -0.000000, -0.000000,  0.000000 )     1.38528045
  Sum of centres and spreads ( -0.000000,  0.000000,  0.000000 )     4.15548289
 
     65    -0.915E-13     0.0000029774        4.1554828914       0.35  <-- CONV
        O_D=      0.0000000 O_OD=      0.0105501 O_TOT=      4.1554829 <-- SPRD
 Delta: O_D= -0.3436507E-13 O_OD= -0.5660923E-13 O_TOT= -0.9148238E-13 <-- DLTA
 ------------------------------------------------------------------------------
 Cycle:     66
  WF centre and spread    1  ( -0.000000,  0.000000, -0.000000 )     1.38510130
  WF centre and spread    2  ( -0.000000,  0.000000,  0.000000 )     1.38510114
  WF centre and spread    3  ( -0.000000, -0.000000,  0.000000 )     1.38528045
  Sum of centres and spreads ( -0.000000,  0.000000,  0.000000 )     4.15548289
 
     66    -0.136E-12     0.0000029765        4.1554828914       0.35  <-- CONV
        O_D=      0.0000000 O_OD=      0.0105501 O_TOT=      4.1554829 <-- SPRD
 Delta: O_D= -0.5148899E-13 O_OD= -0.8490084E-13 O_TOT= -0.1358913E-12 <-- DLTA
 ------------------------------------------------------------------------------
 Cycle:     67
  WF centre and spread    1  ( -0.000000,  0.000000, -0.000000 )     1.38510130
  WF centre and spread    2  ( -0.000000,  0.000000,  0.000000 )     1.38510114
  WF centre and spread    3  ( -0.000000, -0.000000,  0.000000 )     1.38528045
  Sum of centres and spreads ( -0.000000,  0.000000,  0.000000 )     4.15548289
 
     67    -0.181E-12     0.0000029752        4.1554828914       0.36  <-- CONV
        O_D=      0.0000000 O_OD=      0.0105501 O_TOT=      4.1554829 <-- SPRD
 Delta: O_D= -0.6853912E-13 O_OD= -0.1130606E-12 O_TOT= -0.1811884E-12 <-- DLTA
 ------------------------------------------------------------------------------
 Cycle:     68
  WF centre and spread    1  ( -0.000000,  0.000000, -0.000000 )     1.38510130
  WF centre and spread    2  ( -0.000000,  0.000000,  0.000000 )     1.38510114
  WF centre and spread    3  ( -0.000000, -0.000000,  0.000000 )     1.38528045
  Sum of centres and spreads ( -0.000000,  0.000000,  0.000000 )     4.15548289
 
     68    -0.227E-12     0.0000029735        4.1554828914       0.36  <-- CONV
        O_D=      0.0000000 O_OD=      0.0105501 O_TOT=      4.1554829 <-- SPRD
 Delta: O_D= -0.8549013E-13 O_OD= -0.1411562E-12 O_TOT= -0.2273737E-12 <-- DLTA
 ------------------------------------------------------------------------------
 Cycle:     69
  WF centre and spread    1  ( -0.000000,  0.000000, -0.000000 )     1.38510130
  WF centre and spread    2  ( -0.000000,  0.000000,  0.000000 )     1.38510114
  WF centre and spread    3  ( -0.000000, -0.000000,  0.000000 )     1.38528045
  Sum of centres and spreads ( -0.000000,  0.000000,  0.000000 )     4.15548289
 
     69    -0.272E-12     0.0000029713        4.1554828914       0.36  <-- CONV
        O_D=      0.0000000 O_OD=      0.0105501 O_TOT=      4.1554829 <-- SPRD
 Delta: O_D= -0.1023175E-12 O_OD= -0.1691407E-12 O_TOT= -0.2717826E-12 <-- DLTA
 ------------------------------------------------------------------------------
 Cycle:     70
  WF centre and spread    1  ( -0.000000,  0.000000, -0.000000 )     1.38510130
  WF centre and spread    2  ( -0.000000,  0.000000,  0.000000 )     1.38510114
  WF centre and spread    3  ( -0.000000, -0.000000,  0.000000 )     1.38528045
  Sum of centres and spreads ( -0.000000,  0.000000,  0.000000 )     4.15548289
 
     70    -0.453E-13     0.0000029688        4.1554828914       0.37  <-- CONV
        O_D=      0.0000000 O_OD=      0.0105501 O_TOT=      4.1554829 <-- SPRD
 Delta: O_D= -0.1702376E-13 O_OD= -0.2821875E-13 O_TOT= -0.4529710E-13 <-- DLTA
 ------------------------------------------------------------------------------
 Cycle:     71
  WF centre and spread    1  ( -0.000000,  0.000000, -0.000000 )     1.38510130
  WF centre and spread    2  ( -0.000000,  0.000000,  0.000000 )     1.38510114
  WF centre and spread    3  ( -0.000000, -0.000000,  0.000000 )     1.38528045
  Sum of centres and spreads ( -0.000000,  0.000000,  0.000000 )     4.15548289
 
     71    -0.897E-13     0.0000029684        4.1554828914       0.37  <-- CONV
        O_D=      0.0000000 O_OD=      0.0105501 O_TOT=      4.1554829 <-- SPRD
 Delta: O_D= -0.3402726E-13 O_OD= -0.5641494E-13 O_TOT= -0.8970602E-13 <-- DLTA
 ------------------------------------------------------------------------------
 Cycle:     72
  WF centre and spread    1  ( -0.000000,  0.000000, -0.000000 )     1.38510130
  WF centre and spread    2  ( -0.000000,  0.000000,  0.000000 )     1.38510114
  WF centre and spread    3  ( -0.000000, -0.000000,  0.000000 )     1.38528045
  Sum of centres and spreads ( -0.000000,  0.000000,  0.000000 )     4.15548289
 
     72    -0.136E-12     0.0000029676        4.1554828914       0.37  <-- CONV
        O_D=      0.0000000 O_OD=      0.0105501 O_TOT=      4.1554829 <-- SPRD
 Delta: O_D= -0.5098565E-13 O_OD= -0.8456257E-13 O_TOT= -0.1358913E-12 <-- DLTA
 ------------------------------------------------------------------------------
 Cycle:     73
  WF centre and spread    1  ( -0.000000,  0.000000, -0.000000 )     1.38510130
  WF centre and spread    2  ( -0.000000,  0.000000,  0.000000 )     1.38510114
  WF centre and spread    3  ( -0.000000, -0.000000,  0.000000 )     1.38528045
  Sum of centres and spreads ( -0.000000,  0.000000,  0.000000 )     4.15548289
 
     73    -0.180E-12     0.0000029663        4.1554828914       0.38  <-- CONV
        O_D=      0.0000000 O_OD=      0.0105501 O_TOT=      4.1554829 <-- SPRD
 Delta: O_D= -0.6787440E-13 O_OD= -0.1126876E-12 O_TOT= -0.1803002E-12 <-- DLTA
 ------------------------------------------------------------------------------
 Cycle:     74
  WF centre and spread    1  ( -0.000000,  0.000000, -0.000000 )     1.38510130
  WF centre and spread    2  ( -0.000000,  0.000000,  0.000000 )     1.38510114
  WF centre and spread    3  ( -0.000000, -0.000000,  0.000000 )     1.38528045
  Sum of centres and spreads ( -0.000000,  0.000000,  0.000000 )     4.15548289
 
     74    -0.225E-12     0.0000029647        4.1554828914       0.38  <-- CONV
        O_D=      0.0000000 O_OD=      0.0105501 O_TOT=      4.1554829 <-- SPRD
 Delta: O_D= -0.8466958E-13 O_OD= -0.1406202E-12 O_TOT= -0.2247091E-12 <-- DLTA
 ------------------------------------------------------------------------------
 Cycle:     75
  WF centre and spread    1  ( -0.000000,  0.000000, -0.000000 )     1.38510130
  WF centre and spread    2  ( -0.000000,  0.000000,  0.000000 )     1.38510114
  WF centre and spread    3  ( -0.000000, -0.000000,  0.000000 )     1.38528045
  Sum of centres and spreads ( -0.000000,  0.000000,  0.000000 )     4.15548289
 
     75    -0.271E-12     0.0000029626        4.1554828914       0.39  <-- CONV
        O_D=      0.0000000 O_OD=      0.0105501 O_TOT=      4.1554829 <-- SPRD
 Delta: O_D= -0.1013480E-12 O_OD= -0.1685214E-12 O_TOT= -0.2708944E-12 <-- DLTA
 ------------------------------------------------------------------------------
 Cycle:     76
  WF centre and spread    1  ( -0.000000,  0.000000, -0.000000 )     1.38510130
  WF centre and spread    2  ( -0.000000,  0.000000,  0.000000 )     1.38510114
  WF centre and spread    3  ( -0.000000, -0.000000,  0.000000 )     1.38528045
  Sum of centres and spreads ( -0.000000,  0.000000,  0.000000 )     4.15548289
 
     76    -0.453E-13     0.0000029602        4.1554828914       0.39  <-- CONV
        O_D=      0.0000000 O_OD=      0.0105501 O_TOT=      4.1554829 <-- SPRD
 Delta: O_D= -0.1686473E-13 O_OD= -0.2810599E-13 O_TOT= -0.4529710E-13 <-- DLTA
 ------------------------------------------------------------------------------
 Cycle:     77
  WF centre and spread    1  ( -0.000000,  0.000000, -0.000000 )     1.38510130
  WF centre and spread    2  ( -0.000000,  0.000000,  0.000000 )     1.38510114
  WF centre and spread    3  ( -0.000000, -0.000000,  0.000000 )     1.38528045
  Sum of centres and spreads ( -0.000000,  0.000000,  0.000000 )     4.15548289
 
     77    -0.361E-11     0.0000029598        4.1554828914       0.40  <-- CONV
        O_D=      0.0000000 O_OD=      0.0105501 O_TOT=      4.1554829 <-- SPRD
 Delta: O_D= -0.1349850E-11 O_OD= -0.2262151E-11 O_TOT= -0.3611333E-11 <-- DLTA
 ------------------------------------------------------------------------------
 Cycle:     78
  WF centre and spread    1  ( -0.000000,  0.000000, -0.000000 )     1.38510130
  WF centre and spread    2  ( -0.000000,  0.000000,  0.000000 )     1.38510114
  WF centre and spread    3  ( -0.000000, -0.000000,  0.000000 )     1.38528045
  Sum of centres and spreads ( -0.000000,  0.000000,  0.000000 )     4.15548289
 
     78    -0.131E-12     0.0000029284        4.1554828914       0.40  <-- CONV
        O_D=      0.0000000 O_OD=      0.0105501 O_TOT=      4.1554829 <-- SPRD
 Delta: O_D= -0.4872581E-13 O_OD= -0.8236641E-13 O_TOT= -0.1314504E-12 <-- DLTA
 ------------------------------------------------------------------------------
 Cycle:     79
  WF centre and spread    1  ( -0.000000,  0.000000, -0.000000 )     1.38510130
  WF centre and spread    2  ( -0.000000,  0.000000,  0.000000 )     1.38510114
  WF centre and spread    3  ( -0.000000, -0.000000,  0.000000 )     1.38528045
  Sum of centres and spreads ( -0.000000,  0.000000,  0.000000 )     4.15548289
 
     79    -0.174E-12     0.0000029274        4.1554828914       0.40  <-- CONV
        O_D=      0.0000000 O_OD=      0.0105501 O_TOT=      4.1554829 <-- SPRD
 Delta: O_D= -0.6493891E-13 O_OD= -0.1099364E-12 O_TOT= -0.1740830E-12 <-- DLTA
 ------------------------------------------------------------------------------
 Cycle:     80
  WF centre and spread    1  ( -0.000000,  0.000000, -0.000000 )     1.38510130
  WF centre and spread    2  ( -0.000000,  0.000000,  0.000000 )     1.38510114
  WF centre and spread    3  ( -0.000000, -0.000000,  0.000000 )     1.38528045
  Sum of centres and spreads ( -0.000000,  0.000000,  0.000000 )     4.15548289
 
     80    -0.219E-12     0.0000029259        4.1554828914       0.41  <-- CONV
        O_D=      0.0000000 O_OD=      0.0105501 O_TOT=      4.1554829 <-- SPRD
 Delta: O_D= -0.8107734E-13 O_OD= -0.1375150E-12 O_TOT= -0.2193801E-12 <-- DLTA
 ------------------------------------------------------------------------------
 Cycle:     81
  WF centre and spread    1  ( -0.000000,  0.000000, -0.000000 )     1.38510130
  WF centre and spread    2  ( -0.000000,  0.000000,  0.000000 )     1.38510114
  WF centre and spread    3  ( -0.000000, -0.000000,  0.000000 )     1.38528045
  Sum of centres and spreads ( -0.000000,  0.000000,  0.000000 )     4.15548289
 
     81    -0.262E-12     0.0000029242        4.1554828914       0.41  <-- CONV
        O_D=      0.0000000 O_OD=      0.0105501 O_TOT=      4.1554829 <-- SPRD
 Delta: O_D= -0.9712305E-13 O_OD= -0.1648889E-12 O_TOT= -0.2620126E-12 <-- DLTA
 ------------------------------------------------------------------------------
 Cycle:     82
  WF centre and spread    1  ( -0.000000,  0.000000, -0.000000 )     1.38510130
  WF centre and spread    2  ( -0.000000,  0.000000,  0.000000 )     1.38510114
  WF centre and spread    3  ( -0.000000, -0.000000,  0.000000 )     1.38528045
  Sum of centres and spreads ( -0.000000,  0.000000,  0.000000 )     4.15548289
 
     82    -0.435E-13     0.0000029221        4.1554828914       0.42  <-- CONV
        O_D=      0.0000000 O_OD=      0.0105501 O_TOT=      4.1554829 <-- SPRD
 Delta: O_D= -0.1620013E-13 O_OD= -0.2761159E-13 O_TOT= -0.4352074E-13 <-- DLTA
 ------------------------------------------------------------------------------
 Cycle:     83
  WF centre and spread    1  ( -0.000000,  0.000000, -0.000000 )     1.38510130
  WF centre and spread    2  ( -0.000000,  0.000000,  0.000000 )     1.38510114
  WF centre and spread    3  ( -0.000000, -0.000000,  0.000000 )     1.38528045
  Sum of centres and spreads ( -0.000000,  0.000000,  0.000000 )     4.15548289
 
     83    -0.879E-13     0.0000029217        4.1554828914       0.42  <-- CONV
        O_D=      0.0000000 O_OD=      0.0105501 O_TOT=      4.1554829 <-- SPRD
 Delta: O_D= -0.3238562E-13 O_OD= -0.5522666E-13 O_TOT= -0.8792966E-13 <-- DLTA
 ------------------------------------------------------------------------------
 Cycle:     84
  WF centre and spread    1  ( -0.000000,  0.000000, -0.000000 )     1.38510130
  WF centre and spread    2  ( -0.000000,  0.000000,  0.000000 )     1.38510114
  WF centre and spread    3  ( -0.000000, -0.000000,  0.000000 )     1.38528045
  Sum of centres and spreads ( -0.000000,  0.000000,  0.000000 )     4.15548289
 
     84    -0.131E-12     0.0000029210        4.1554828914       0.42  <-- CONV
        O_D=      0.0000000 O_OD=      0.0105501 O_TOT=      4.1554829 <-- SPRD
 Delta: O_D= -0.4853810E-13 O_OD= -0.8279315E-13 O_TOT= -0.1305622E-12 <-- DLTA
 ------------------------------------------------------------------------------
 Cycle:     85
  WF centre and spread    1  ( -0.000000,  0.000000, -0.000000 )     1.38510130
  WF centre and spread    2  ( -0.000000,  0.000000,  0.000000 )     1.38510114
  WF centre and spread    3  ( -0.000000, -0.000000,  0.000000 )     1.38528045
  Sum of centres and spreads ( -0.000000,  0.000000,  0.000000 )     4.15548289
 
     85    -0.176E-12     0.0000029200        4.1554828914       0.43  <-- CONV
        O_D=      0.0000000 O_OD=      0.0105501 O_TOT=      4.1554829 <-- SPRD
 Delta: O_D= -0.6463946E-13 O_OD= -0.1103492E-12 O_TOT= -0.1758593E-12 <-- DLTA
 ------------------------------------------------------------------------------
 Cycle:     86
  WF centre and spread    1  ( -0.000000,  0.000000, -0.000000 )     1.38510130
  WF centre and spread    2  ( -0.000000,  0.000000,  0.000000 )     1.38510114
  WF centre and spread    3  ( -0.000000, -0.000000,  0.000000 )     1.38528045
  Sum of centres and spreads ( -0.000000,  0.000000,  0.000000 )     4.15548289
 
     86    -0.218E-12     0.0000029187        4.1554828914       0.43  <-- CONV
        O_D=      0.0000000 O_OD=      0.0105501 O_TOT=      4.1554829 <-- SPRD
 Delta: O_D= -0.8067187E-13 O_OD= -0.1377475E-12 O_TOT= -0.2184919E-12 <-- DLTA
 ------------------------------------------------------------------------------
 Cycle:     87
  WF centre and spread    1  ( -0.000000,  0.000000, -0.000000 )     1.38510130
  WF centre and spread    2  ( -0.000000,  0.000000,  0.000000 )     1.38510114
  WF centre and spread    3  ( -0.000000, -0.000000,  0.000000 )     1.38528045
  Sum of centres and spreads ( -0.000000,  0.000000,  0.000000 )     4.15548289
 
     87    -0.261E-12     0.0000029170        4.1554828914       0.43  <-- CONV
        O_D=      0.0000000 O_OD=      0.0105501 O_TOT=      4.1554829 <-- SPRD
 Delta: O_D= -0.9661797E-13 O_OD= -0.1650555E-12 O_TOT= -0.2611245E-12 <-- DLTA
 ------------------------------------------------------------------------------
 Cycle:     88
  WF centre and spread    1  ( -0.000000,  0.000000, -0.000000 )     1.38510130
  WF centre and spread    2  ( -0.000000,  0.000000,  0.000000 )     1.38510114
  WF centre and spread    3  ( -0.000000, -0.000000,  0.000000 )     1.38528045
  Sum of centres and spreads ( -0.000000,  0.000000,  0.000000 )     4.15548289
 
     88    -0.444E-13     0.0000029150        4.1554828914       0.44  <-- CONV
        O_D=      0.0000000 O_OD=      0.0105501 O_TOT=      4.1554829 <-- SPRD
 Delta: O_D= -0.1608782E-13 O_OD= -0.2755608E-13 O_TOT= -0.4440892E-13 <-- DLTA
 ------------------------------------------------------------------------------
 Cycle:     89
  WF centre and spread    1  ( -0.000000,  0.000000, -0.000000 )     1.38510130
  WF centre and spread    2  ( -0.000000,  0.000000,  0.000000 )     1.38510114
  WF centre and spread    3  ( -0.000000, -0.000000,  0.000000 )     1.38528045
  Sum of centres and spreads ( -0.000000,  0.000000,  0.000000 )     4.15548289
 
     89    -0.358E-11     0.0000029147        4.1554828914       0.44  <-- CONV
        O_D=      0.0000000 O_OD=      0.0105501 O_TOT=      4.1554829 <-- SPRD
 Delta: O_D= -0.1316828E-11 O_OD= -0.2260341E-11 O_TOT= -0.3575806E-11 <-- DLTA
 ------------------------------------------------------------------------------
 Cycle:     90
  WF centre and spread    1  ( -0.000000,  0.000000, -0.000000 )     1.38510130
  WF centre and spread    2  ( -0.000000,  0.000000,  0.000000 )     1.38510114
  WF centre and spread    3  ( -0.000000, -0.000000,  0.000000 )     1.38528045
  Sum of centres and spreads ( -0.000000,  0.000000,  0.000000 )     4.15548289
 
     90    -0.128E-12     0.0000028880        4.1554828914       0.45  <-- CONV
        O_D=      0.0000000 O_OD=      0.0105501 O_TOT=      4.1554829 <-- SPRD
 Delta: O_D= -0.4682869E-13 O_OD= -0.8081556E-13 O_TOT= -0.1278977E-12 <-- DLTA
 ------------------------------------------------------------------------------
 Cycle:     91
  WF centre and spread    1  ( -0.000000,  0.000000, -0.000000 )     1.38510130
  WF centre and spread    2  ( -0.000000,  0.000000,  0.000000 )     1.38510114
  WF centre and spread    3  ( -0.000000, -0.000000,  0.000000 )     1.38528045
  Sum of centres and spreads ( -0.000000,  0.000000,  0.000000 )     4.15548289
 
     91    -0.171E-12     0.0000028871        4.1554828914       0.45  <-- CONV
        O_D=      0.0000000 O_OD=      0.0105501 O_TOT=      4.1554829 <-- SPRD
 Delta: O_D= -0.6243372E-13 O_OD= -0.1078183E-12 O_TOT= -0.1705303E-12 <-- DLTA
 ------------------------------------------------------------------------------
 Cycle:     92
  WF centre and spread    1  ( -0.000000,  0.000000, -0.000000 )     1.38510130
  WF centre and spread    2  ( -0.000000,  0.000000,  0.000000 )     1.38510114
  WF centre and spread    3  ( -0.000000, -0.000000,  0.000000 )     1.38528045
  Sum of centres and spreads ( -0.000000,  0.000000,  0.000000 )     4.15548289
 
     92    -0.213E-12     0.0000028858        4.1554828914       0.46  <-- CONV
        O_D=      0.0000000 O_OD=      0.0105501 O_TOT=      4.1554829 <-- SPRD
 Delta: O_D= -0.7798068E-13 O_OD= -0.1347915E-12 O_TOT= -0.2131628E-12 <-- DLTA
 ------------------------------------------------------------------------------
 Cycle:     93
  WF centre and spread    1  ( -0.000000,  0.000000, -0.000000 )     1.38510130
  WF centre and spread    2  ( -0.000000,  0.000000,  0.000000 )     1.38510114
  WF centre and spread    3  ( -0.000000, -0.000000,  0.000000 )     1.38528045
  Sum of centres and spreads ( -0.000000,  0.000000,  0.000000 )     4.15548289
 
     93    -0.255E-12     0.0000028843        4.1554828914       0.46  <-- CONV
        O_D=      0.0000000 O_OD=      0.0105501 O_TOT=      4.1554829 <-- SPRD
 Delta: O_D= -0.9345513E-13 O_OD= -0.1616693E-12 O_TOT= -0.2549072E-12 <-- DLTA
 ------------------------------------------------------------------------------
 Cycle:     94
  WF centre and spread    1  ( -0.000000,  0.000000, -0.000000 )     1.38510130
  WF centre and spread    2  ( -0.000000,  0.000000,  0.000000 )     1.38510114
  WF centre and spread    3  ( -0.000000, -0.000000,  0.000000 )     1.38528045
  Sum of centres and spreads ( -0.000000,  0.000000,  0.000000 )     4.15548289
 
     94    -0.426E-13     0.0000028825        4.1554828914       0.46  <-- CONV
        O_D=      0.0000000 O_OD=      0.0105501 O_TOT=      4.1554829 <-- SPRD
 Delta: O_D= -0.1559766E-13 O_OD= -0.2702526E-13 O_TOT= -0.4263256E-13 <-- DLTA
 ------------------------------------------------------------------------------
 Cycle:     95
  WF centre and spread    1  ( -0.000000,  0.000000, -0.000000 )     1.38510130
  WF centre and spread    2  ( -0.000000,  0.000000,  0.000000 )     1.38510114
  WF centre and spread    3  ( -0.000000, -0.000000,  0.000000 )     1.38528045
  Sum of centres and spreads ( -0.000000,  0.000000,  0.000000 )     4.15548289
 
     95    -0.853E-13     0.0000028822        4.1554828914       0.47  <-- CONV
        O_D=      0.0000000 O_OD=      0.0105501 O_TOT=      4.1554829 <-- SPRD
 Delta: O_D= -0.3118386E-13 O_OD= -0.5410603E-13 O_TOT= -0.8526513E-13 <-- DLTA
 ------------------------------------------------------------------------------
 Cycle:     96
  WF centre and spread    1  ( -0.000000,  0.000000, -0.000000 )     1.38510130
  WF centre and spread    2  ( -0.000000,  0.000000,  0.000000 )     1.38510114
  WF centre and spread    3  ( -0.000000, -0.000000,  0.000000 )     1.38528045
  Sum of centres and spreads ( -0.000000,  0.000000,  0.000000 )     4.15548289
 
     96    -0.128E-12     0.0000028816        4.1554828914       0.47  <-- CONV
        O_D=      0.0000000 O_OD=      0.0105501 O_TOT=      4.1554829 <-- SPRD
 Delta: O_D= -0.4674397E-13 O_OD= -0.8108098E-13 O_TOT= -0.1278977E-12 <-- DLTA
 ------------------------------------------------------------------------------
 Cycle:     97
  WF centre and spread    1  ( -0.000000,  0.000000, -0.000000 )     1.38510130
  WF centre and spread    2  ( -0.000000,  0.000000,  0.000000 )     1.38510114
  WF centre and spread    3  ( -0.000000, -0.000000,  0.000000 )     1.38528045
  Sum of centres and spreads ( -0.000000,  0.000000,  0.000000 )     4.15548289
 
[...]
  Sum of centres and spreads ( -0.000000,  0.000000,  0.000000 )     4.15548289
 
    473    -0.346E-13     0.0000018549        4.1554828912       1.96  <-- CONV
        O_D=      0.0000000 O_OD=      0.0105501 O_TOT=      4.1554829 <-- SPRD
 Delta: O_D= -0.1256176E-13 O_OD= -0.2278386E-13 O_TOT= -0.3463896E-13 <-- DLTA
 ------------------------------------------------------------------------------
 Cycle:    474
  WF centre and spread    1  ( -0.000000,  0.000000, -0.000000 )     1.38510130
  WF centre and spread    2  ( -0.000000,  0.000000,  0.000000 )     1.38510114
  WF centre and spread    3  ( -0.000000, -0.000000,  0.000000 )     1.38528045
  Sum of centres and spreads ( -0.000000,  0.000000,  0.000000 )     4.15548289
 
    474    -0.533E-13     0.0000018546        4.1554828912       1.97  <-- CONV
        O_D=      0.0000000 O_OD=      0.0105501 O_TOT=      4.1554829 <-- SPRD
 Delta: O_D= -0.1883432E-13 O_OD= -0.3410466E-13 O_TOT= -0.5329071E-13 <-- DLTA
 ------------------------------------------------------------------------------
 Cycle:    475
  WF centre and spread    1  ( -0.000000,  0.000000, -0.000000 )     1.38510130
  WF centre and spread    2  ( -0.000000,  0.000000,  0.000000 )     1.38510114
  WF centre and spread    3  ( -0.000000, -0.000000,  0.000000 )     1.38528045
  Sum of centres and spreads ( -0.000000,  0.000000,  0.000000 )     4.15548289
 
    475    -0.702E-13     0.0000018542        4.1554828912       1.97  <-- CONV
        O_D=      0.0000000 O_OD=      0.0105501 O_TOT=      4.1554829 <-- SPRD
 Delta: O_D= -0.2509613E-13 O_OD= -0.4546884E-13 O_TOT= -0.7016610E-13 <-- DLTA
 ------------------------------------------------------------------------------
 Cycle:    476
  WF centre and spread    1  ( -0.000000,  0.000000, -0.000000 )     1.38510130
  WF centre and spread    2  ( -0.000000,  0.000000,  0.000000 )     1.38510114
  WF centre and spread    3  ( -0.000000, -0.000000,  0.000000 )     1.38528045
  Sum of centres and spreads ( -0.000000,  0.000000,  0.000000 )     4.15548289
 
    476    -0.888E-13     0.0000018536        4.1554828912       1.98  <-- CONV
        O_D=      0.0000000 O_OD=      0.0105501 O_TOT=      4.1554829 <-- SPRD
 Delta: O_D= -0.3134330E-13 O_OD= -0.5679311E-13 O_TOT= -0.8881784E-13 <-- DLTA
 ------------------------------------------------------------------------------
 Cycle:    477
  WF centre and spread    1  ( -0.000000,  0.000000, -0.000000 )     1.38510130
  WF centre and spread    2  ( -0.000000,  0.000000,  0.000000 )     1.38510114
  WF centre and spread    3  ( -0.000000, -0.000000,  0.000000 )     1.38528045
  Sum of centres and spreads ( -0.000000,  0.000000,  0.000000 )     4.15548289
 
    477    -0.106E-12     0.0000018529        4.1554828912       1.98  <-- CONV
        O_D=      0.0000000 O_OD=      0.0105501 O_TOT=      4.1554829 <-- SPRD
 Delta: O_D= -0.3757196E-13 O_OD= -0.6802545E-13 O_TOT= -0.1056932E-12 <-- DLTA
 ------------------------------------------------------------------------------
 Cycle:    478
  WF centre and spread    1  ( -0.000000,  0.000000, -0.000000 )     1.38510130
  WF centre and spread    2  ( -0.000000,  0.000000,  0.000000 )     1.38510114
  WF centre and spread    3  ( -0.000000, -0.000000,  0.000000 )     1.38528045
  Sum of centres and spreads ( -0.000000,  0.000000,  0.000000 )     4.15548289
 
    478    -0.169E-13     0.0000018520        4.1554828912       1.98  <-- CONV
        O_D=      0.0000000 O_OD=      0.0105501 O_TOT=      4.1554829 <-- SPRD
 Delta: O_D= -0.6261721E-14 O_OD= -0.1136417E-13 O_TOT= -0.1687539E-13 <-- DLTA
 ------------------------------------------------------------------------------
 Cycle:    479
  WF centre and spread    1  ( -0.000000,  0.000000, -0.000000 )     1.38510130
  WF centre and spread    2  ( -0.000000,  0.000000,  0.000000 )     1.38510114
  WF centre and spread    3  ( -0.000000, -0.000000,  0.000000 )     1.38528045
  Sum of centres and spreads ( -0.000000,  0.000000,  0.000000 )     4.15548289
 
    479    -0.355E-13     0.0000018519        4.1554828912       1.99  <-- CONV
        O_D=      0.0000000 O_OD=      0.0105501 O_TOT=      4.1554829 <-- SPRD
 Delta: O_D= -0.1252051E-13 O_OD= -0.2270753E-13 O_TOT= -0.3552714E-13 <-- DLTA
 ------------------------------------------------------------------------------
 Cycle:    480
  WF centre and spread    1  ( -0.000000,  0.000000, -0.000000 )     1.38510130
  WF centre and spread    2  ( -0.000000,  0.000000,  0.000000 )     1.38510114
  WF centre and spread    3  ( -0.000000, -0.000000,  0.000000 )     1.38528045
  Sum of centres and spreads ( -0.000000,  0.000000,  0.000000 )     4.15548289
 
    480    -0.524E-13     0.0000018516        4.1554828912       1.99  <-- CONV
        O_D=      0.0000000 O_OD=      0.0105501 O_TOT=      4.1554829 <-- SPRD
 Delta: O_D= -0.1877248E-13 O_OD= -0.3398844E-13 O_TOT= -0.5240253E-13 <-- DLTA
 ------------------------------------------------------------------------------
 Cycle:    481
  WF centre and spread    1  ( -0.000000,  0.000000, -0.000000 )     1.38510130
  WF centre and spread    2  ( -0.000000,  0.000000,  0.000000 )     1.38510114
  WF centre and spread    3  ( -0.000000, -0.000000,  0.000000 )     1.38528045
  Sum of centres and spreads ( -0.000000,  0.000000,  0.000000 )     4.15548289
 
    481    -0.702E-13     0.0000018512        4.1554828912       1.99  <-- CONV
        O_D=      0.0000000 O_OD=      0.0105501 O_TOT=      4.1554829 <-- SPRD
 Delta: O_D= -0.2501372E-13 O_OD= -0.4528669E-13 O_TOT= -0.7016610E-13 <-- DLTA
 ------------------------------------------------------------------------------
 Cycle:    482
  WF centre and spread    1  ( -0.000000,  0.000000, -0.000000 )     1.38510130
  WF centre and spread    2  ( -0.000000,  0.000000,  0.000000 )     1.38510114
  WF centre and spread    3  ( -0.000000, -0.000000,  0.000000 )     1.38528045
  Sum of centres and spreads ( -0.000000,  0.000000,  0.000000 )     4.15548289
 
    482    -0.879E-13     0.0000018506        4.1554828912       2.00  <-- CONV
        O_D=      0.0000000 O_OD=      0.0105501 O_TOT=      4.1554829 <-- SPRD
 Delta: O_D= -0.3124038E-13 O_OD= -0.5661270E-13 O_TOT= -0.8792966E-13 <-- DLTA
 ------------------------------------------------------------------------------
 Cycle:    483
  WF centre and spread    1  ( -0.000000,  0.000000, -0.000000 )     1.38510130
  WF centre and spread    2  ( -0.000000,  0.000000,  0.000000 )     1.38510114
  WF centre and spread    3  ( -0.000000, -0.000000,  0.000000 )     1.38528045
  Sum of centres and spreads ( -0.000000,  0.000000,  0.000000 )     4.15548289
 
    483    -0.106E-12     0.0000018499        4.1554828912       2.00  <-- CONV
        O_D=      0.0000000 O_OD=      0.0105501 O_TOT=      4.1554829 <-- SPRD
 Delta: O_D= -0.3744859E-13 O_OD= -0.6786759E-13 O_TOT= -0.1056932E-12 <-- DLTA
 ------------------------------------------------------------------------------
 Cycle:    484
  WF centre and spread    1  ( -0.000000,  0.000000, -0.000000 )     1.38510130
  WF centre and spread    2  ( -0.000000,  0.000000,  0.000000 )     1.38510114
  WF centre and spread    3  ( -0.000000, -0.000000,  0.000000 )     1.38528045
  Sum of centres and spreads ( -0.000000,  0.000000,  0.000000 )     4.15548289
 
    484    -0.178E-13     0.0000018490        4.1554828912       2.01  <-- CONV
        O_D=      0.0000000 O_OD=      0.0105501 O_TOT=      4.1554829 <-- SPRD
 Delta: O_D= -0.6241161E-14 O_OD= -0.1128611E-13 O_TOT= -0.1776357E-13 <-- DLTA
 ------------------------------------------------------------------------------
 Cycle:    485
  WF centre and spread    1  ( -0.000000,  0.000000, -0.000000 )     1.38510130
  WF centre and spread    2  ( -0.000000,  0.000000,  0.000000 )     1.38510114
  WF centre and spread    3  ( -0.000000, -0.000000,  0.000000 )     1.38528045
  Sum of centres and spreads ( -0.000000,  0.000000,  0.000000 )     4.15548289
 
    485    -0.355E-13     0.0000018489        4.1554828912       2.01  <-- CONV
        O_D=      0.0000000 O_OD=      0.0105501 O_TOT=      4.1554829 <-- SPRD
 Delta: O_D= -0.1247940E-13 O_OD= -0.2261732E-13 O_TOT= -0.3552714E-13 <-- DLTA
 ------------------------------------------------------------------------------
 Cycle:    486
  WF centre and spread    1  ( -0.000000,  0.000000, -0.000000 )     1.38510130
  WF centre and spread    2  ( -0.000000,  0.000000,  0.000000 )     1.38510114
  WF centre and spread    3  ( -0.000000, -0.000000,  0.000000 )     1.38528045
  Sum of centres and spreads ( -0.000000,  0.000000,  0.000000 )     4.15548289
 
    486    -0.524E-13     0.0000018486        4.1554828912       2.01  <-- CONV
        O_D=      0.0000000 O_OD=      0.0105501 O_TOT=      4.1554829 <-- SPRD
 Delta: O_D= -0.1871084E-13 O_OD= -0.3390344E-13 O_TOT= -0.5240253E-13 <-- DLTA
 ------------------------------------------------------------------------------
 Cycle:    487
  WF centre and spread    1  ( -0.000000,  0.000000, -0.000000 )     1.38510130
  WF centre and spread    2  ( -0.000000,  0.000000,  0.000000 )     1.38510114
  WF centre and spread    3  ( -0.000000, -0.000000,  0.000000 )     1.38528045
  Sum of centres and spreads ( -0.000000,  0.000000,  0.000000 )     4.15548289
 
    487    -0.702E-13     0.0000018482        4.1554828912       2.02  <-- CONV
        O_D=      0.0000000 O_OD=      0.0105501 O_TOT=      4.1554829 <-- SPRD
 Delta: O_D= -0.2493159E-13 O_OD= -0.4518434E-13 O_TOT= -0.7016610E-13 <-- DLTA
 ------------------------------------------------------------------------------
 Cycle:    488
  WF centre and spread    1  ( -0.000000,  0.000000, -0.000000 )     1.38510130
  WF centre and spread    2  ( -0.000000,  0.000000,  0.000000 )     1.38510114
  WF centre and spread    3  ( -0.000000, -0.000000,  0.000000 )     1.38528045
  Sum of centres and spreads ( -0.000000,  0.000000,  0.000000 )     4.15548289
 
    488    -0.870E-13     0.0000018476        4.1554828912       2.02  <-- CONV
        O_D=      0.0000000 O_OD=      0.0105501 O_TOT=      4.1554829 <-- SPRD
 Delta: O_D= -0.3113781E-13 O_OD= -0.5641147E-13 O_TOT= -0.8704149E-13 <-- DLTA
 ------------------------------------------------------------------------------
 Cycle:    489
  WF centre and spread    1  ( -0.000000,  0.000000, -0.000000 )     1.38510130
  WF centre and spread    2  ( -0.000000,  0.000000,  0.000000 )     1.38510114
  WF centre and spread    3  ( -0.000000, -0.000000,  0.000000 )     1.38528045
  Sum of centres and spreads ( -0.000000,  0.000000,  0.000000 )     4.15548289
 
    489    -0.105E-12     0.0000018469        4.1554828912       2.03  <-- CONV
        O_D=      0.0000000 O_OD=      0.0105501 O_TOT=      4.1554829 <-- SPRD
 Delta: O_D= -0.3732564E-13 O_OD= -0.6762819E-13 O_TOT= -0.1048051E-12 <-- DLTA
 ------------------------------------------------------------------------------
 Cycle:    490
  WF centre and spread    1  ( -0.000000,  0.000000, -0.000000 )     1.38510130
  WF centre and spread    2  ( -0.000000,  0.000000,  0.000000 )     1.38510114
  WF centre and spread    3  ( -0.000000, -0.000000,  0.000000 )     1.38528045
  Sum of centres and spreads ( -0.000000,  0.000000,  0.000000 )     4.15548289
 
    490    -0.178E-13     0.0000018460        4.1554828912       2.03  <-- CONV
        O_D=      0.0000000 O_OD=      0.0105501 O_TOT=      4.1554829 <-- SPRD
 Delta: O_D= -0.6220670E-14 O_OD= -0.1127050E-13 O_TOT= -0.1776357E-13 <-- DLTA
 ------------------------------------------------------------------------------
 Cycle:    491
  WF centre and spread    1  ( -0.000000,  0.000000, -0.000000 )     1.38510130
  WF centre and spread    2  ( -0.000000,  0.000000,  0.000000 )     1.38510114
  WF centre and spread    3  ( -0.000000, -0.000000,  0.000000 )     1.38528045
  Sum of centres and spreads ( -0.000000,  0.000000,  0.000000 )     4.15548289
 
    491    -0.346E-13     0.0000018459        4.1554828912       2.03  <-- CONV
        O_D=      0.0000000 O_OD=      0.0105501 O_TOT=      4.1554829 <-- SPRD
 Delta: O_D= -0.1243843E-13 O_OD= -0.2254100E-13 O_TOT= -0.3463896E-13 <-- DLTA
 ------------------------------------------------------------------------------
 Cycle:    492
  WF centre and spread    1  ( -0.000000,  0.000000, -0.000000 )     1.38510130
  WF centre and spread    2  ( -0.000000,  0.000000,  0.000000 )     1.38510114
  WF centre and spread    3  ( -0.000000, -0.000000,  0.000000 )     1.38528045
  Sum of centres and spreads ( -0.000000,  0.000000,  0.000000 )     4.15548289
 
    492    -0.524E-13     0.0000018456        4.1554828912       2.04  <-- CONV
        O_D=      0.0000000 O_OD=      0.0105501 O_TOT=      4.1554829 <-- SPRD
 Delta: O_D= -0.1864941E-13 O_OD= -0.3382537E-13 O_TOT= -0.5240253E-13 <-- DLTA
 ------------------------------------------------------------------------------
 Cycle:    493
  WF centre and spread    1  ( -0.000000,  0.000000, -0.000000 )     1.38510130
  WF centre and spread    2  ( -0.000000,  0.000000,  0.000000 )     1.38510114
  WF centre and spread    3  ( -0.000000, -0.000000,  0.000000 )     1.38528045
  Sum of centres and spreads ( -0.000000,  0.000000,  0.000000 )     4.15548289
 
    493    -0.702E-13     0.0000018452        4.1554828912       2.04  <-- CONV
        O_D=      0.0000000 O_OD=      0.0105501 O_TOT=      4.1554829 <-- SPRD
 Delta: O_D= -0.2484974E-13 O_OD= -0.4499005E-13 O_TOT= -0.7016610E-13 <-- DLTA
 ------------------------------------------------------------------------------
 Cycle:    494
  WF centre and spread    1  ( -0.000000,  0.000000, -0.000000 )     1.38510130
  WF centre and spread    2  ( -0.000000,  0.000000,  0.000000 )     1.38510114
  WF centre and spread    3  ( -0.000000, -0.000000,  0.000000 )     1.38528045
  Sum of centres and spreads ( -0.000000,  0.000000,  0.000000 )     4.15548289
 
    494    -0.870E-13     0.0000018446        4.1554828912       2.04  <-- CONV
        O_D=      0.0000000 O_OD=      0.0105501 O_TOT=      4.1554829 <-- SPRD
 Delta: O_D= -0.3103558E-13 O_OD= -0.5624494E-13 O_TOT= -0.8704149E-13 <-- DLTA
 ------------------------------------------------------------------------------
 Cycle:    495
  WF centre and spread    1  ( -0.000000,  0.000000, -0.000000 )     1.38510130
  WF centre and spread    2  ( -0.000000,  0.000000,  0.000000 )     1.38510114
  WF centre and spread    3  ( -0.000000, -0.000000,  0.000000 )     1.38528045
  Sum of centres and spreads ( -0.000000,  0.000000,  0.000000 )     4.15548289
 
    495    -0.105E-12     0.0000018439        4.1554828912       2.05  <-- CONV
        O_D=      0.0000000 O_OD=      0.0105501 O_TOT=      4.1554829 <-- SPRD
 Delta: O_D= -0.3720310E-13 O_OD= -0.6741482E-13 O_TOT= -0.1048051E-12 <-- DLTA
 ------------------------------------------------------------------------------
 Cycle:    496
  WF centre and spread    1  ( -0.000000,  0.000000, -0.000000 )     1.38510130
  WF centre and spread    2  ( -0.000000,  0.000000,  0.000000 )     1.38510114
  WF centre and spread    3  ( -0.000000, -0.000000,  0.000000 )     1.38528045
  Sum of centres and spreads ( -0.000000,  0.000000,  0.000000 )     4.15548289
 
    496    -0.178E-13     0.0000018430        4.1554828912       2.05  <-- CONV
        O_D=      0.0000000 O_OD=      0.0105501 O_TOT=      4.1554829 <-- SPRD
 Delta: O_D= -0.6200248E-14 O_OD= -0.1122540E-13 O_TOT= -0.1776357E-13 <-- DLTA
 ------------------------------------------------------------------------------
 Cycle:    497
  WF centre and spread    1  ( -0.000000,  0.000000, -0.000000 )     1.38510130
  WF centre and spread    2  ( -0.000000,  0.000000,  0.000000 )     1.38510114
  WF centre and spread    3  ( -0.000000, -0.000000,  0.000000 )     1.38528045
  Sum of centres and spreads ( -0.000000,  0.000000,  0.000000 )     4.15548289
 
    497    -0.346E-13     0.0000018429        4.1554828912       2.06  <-- CONV
        O_D=      0.0000000 O_OD=      0.0105501 O_TOT=      4.1554829 <-- SPRD
 Delta: O_D= -0.1239759E-13 O_OD= -0.2248202E-13 O_TOT= -0.3463896E-13 <-- DLTA
 ------------------------------------------------------------------------------
 Cycle:    498
  WF centre and spread    1  ( -0.000000,  0.000000, -0.000000 )     1.38510130
  WF centre and spread    2  ( -0.000000,  0.000000,  0.000000 )     1.38510114
  WF centre and spread    3  ( -0.000000, -0.000000,  0.000000 )     1.38528045
  Sum of centres and spreads ( -0.000000,  0.000000,  0.000000 )     4.15548289
 
    498    -0.524E-13     0.0000018426        4.1554828912       2.06  <-- CONV
        O_D=      0.0000000 O_OD=      0.0105501 O_TOT=      4.1554829 <-- SPRD
 Delta: O_D= -0.1858818E-13 O_OD= -0.3366057E-13 O_TOT= -0.5240253E-13 <-- DLTA
 ------------------------------------------------------------------------------
 Cycle:    499
  WF centre and spread    1  ( -0.000000,  0.000000, -0.000000 )     1.38510130
  WF centre and spread    2  ( -0.000000,  0.000000,  0.000000 )     1.38510114
  WF centre and spread    3  ( -0.000000, -0.000000,  0.000000 )     1.38528045
  Sum of centres and spreads ( -0.000000,  0.000000,  0.000000 )     4.15548289
 
    499    -0.693E-13     0.0000018422        4.1554828912       2.06  <-- CONV
        O_D=      0.0000000 O_OD=      0.0105501 O_TOT=      4.1554829 <-- SPRD
 Delta: O_D= -0.2476816E-13 O_OD= -0.4489811E-13 O_TOT= -0.6927792E-13 <-- DLTA
 ------------------------------------------------------------------------------
 Cycle:    500
  WF centre and spread    1  ( -0.000000,  0.000000, -0.000000 )     1.38510130
  WF centre and spread    2  ( -0.000000,  0.000000,  0.000000 )     1.38510114
  WF centre and spread    3  ( -0.000000, -0.000000,  0.000000 )     1.38528045
  Sum of centres and spreads ( -0.000000,  0.000000,  0.000000 )     4.15548289
 
    500    -0.870E-13     0.0000018416        4.1554828912       2.07  <-- CONV
        O_D=      0.0000000 O_OD=      0.0105501 O_TOT=      4.1554829 <-- SPRD
 Delta: O_D= -0.3093370E-13 O_OD= -0.5605585E-13 O_TOT= -0.8704149E-13 <-- DLTA
 ------------------------------------------------------------------------------

 Writing checkpoint file mp-2472.chk... done

 Final State
  WF centre and spread    1  ( -0.000000,  0.000000, -0.000000 )     1.38510130
  WF centre and spread    2  ( -0.000000,  0.000000,  0.000000 )     1.38510114
  WF centre and spread    3  ( -0.000000, -0.000000,  0.000000 )     1.38528045
  Sum of centres and spreads ( -0.000000,  0.000000,  0.000000 )     4.15548289
 
         Spreads (Ang^2)       Omega I      =     4.144932841
        ================       Omega D      =     0.000000000
                               Omega OD     =     0.010550050
    Final Spread (Ang^2)       Omega Total  =     4.155482891
 ------------------------------------------------------------------------------
 Time for wannierise            2.064 (sec)

 Writing checkpoint file mp-2472.chk... done

 Time for plotting              0.000 (sec)
 Total Execution Time           3.343 (sec)

 *===========================================================================*
 |                             TIMING INFORMATION                            |
 *===========================================================================*
 |    Tag                                                Ncalls      Time (s)|
 |---------------------------------------------------------------------------|
 |kmesh: get                                        :         1         1.038|
 |overlap: allocate                                 :         1         0.002|
 |overlap: read                                     :         1         0.133|
 |wann: main                                        :         1         2.064|
 |plot: main                                        :         1         0.000|
 *---------------------------------------------------------------------------*
 
 All done: wannier90 exiting
