
     Program PWSCF v.7.1 starts on 11Apr2024 at  9:51:55 

     This program is part of the open-source Quantum ESPRESSO suite
     for quantum simulation of materials; please cite
         "P. Giannozzi et al., J. Phys.:Condens. Matter 21 395502 (2009);
         "P. Giannozzi et al., J. Phys.:Condens. Matter 29 465901 (2017);
         "P. Giannozzi et al., J. Chem. Phys. 152 154105 (2020);
          URL http://www.quantum-espresso.org", 
     in publications or presentations arising from this work. More details at
     http://www.quantum-espresso.org/quote

     Parallel version (MPI), running on    16 processors

     MPI processes distributed on     1 nodes
     248027 MiB available memory on the printing compute node when the environment starts
 
     Reading input from pw_mp-1784_nscf_k3000_E130.in
Warning: card &IONS ignored
Warning: card / ignored
Warning: card &CELL ignored
Warning: card / ignored

     Current dimensions of program PWSCF are:
     Max number of different atomic species (ntypx) = 10
     Max number of k-points (npk) =  40000
     Max angular momentum in pseudopotentials (lmaxx) =  4

     Atomic positions and unit cell read from directory:
     out/mp-1784.save/
     Atomic positions from file used, from input discarded
 
 
     R & G space division:  proc/nbgrp/npool/nimage =      16
     Subspace diagonalization in iterative solution of the eigenvalue problem:
     a serial algorithm will be used

 
     Parallelization info
     --------------------
     sticks:   dense  smooth     PW     G-vecs:    dense   smooth      PW
     Min         145     145     40                 4599     4599     686
     Max         147     147     41                 4601     4601     690
     Sum        2335    2335    649                73601    73601   11017
 
     Using Slab Decomposition
 


     bravais-lattice index     =            2
     lattice parameter (alat)  =      11.3616  a.u.
     unit-cell volume          =     366.6519 (a.u.)^3
     number of atoms/cell      =            2
     number of atomic types    =            2
     number of electrons       =        16.00
     number of Kohn-Sham states=           16
     kinetic-energy cutoff     =     130.0000  Ry
     charge density cutoff     =     520.0000  Ry
     Exchange-correlation= PBE
                           (   1   4   3   4   0   0   0)

     celldm(1)=  11.361560  celldm(2)=   0.000000  celldm(3)=   0.000000
     celldm(4)=   0.000000  celldm(5)=   0.000000  celldm(6)=   0.000000

     crystal axes: (cart. coord. in units of alat)
               a(1) = (  -0.500000   0.000000   0.500000 )  
               a(2) = (   0.000000   0.500000   0.500000 )  
               a(3) = (  -0.500000   0.500000   0.000000 )  

     reciprocal axes: (cart. coord. in units 2 pi/alat)
               b(1) = ( -1.000000 -1.000000  1.000000 )  
               b(2) = (  1.000000  1.000000  1.000000 )  
               b(3) = ( -1.000000  1.000000 -1.000000 )  


     PseudoPot. # 1 for Cs read from file:
     /usr/scratch4/magr4826/Promotion/Python/Code/devEb/pseudo/SG15/Cs.upf
     MD5 check sum: 74aa1fd125ef9ec93322f365f25225f6
     Pseudo is Norm-conserving, Zval =  9.0
     Generated using ONCVPSP code by D. R. Hamann
     Using radial grid of  602 points,  6 beta functions with: 
                l(1) =   0
                l(2) =   0
                l(3) =   1
                l(4) =   1
                l(5) =   2
                l(6) =   2

     PseudoPot. # 2 for F  read from file:
     /usr/scratch4/magr4826/Promotion/Python/Code/devEb/pseudo/SG15/F.upf
     MD5 check sum: 1d8275f47d602dd53cad6bcdc0eda7dc
     Pseudo is Norm-conserving, Zval =  7.0
     Generated using ONCVPSP code by D. R. Hamann
     Using radial grid of  602 points,  4 beta functions with: 
                l(1) =   0
                l(2) =   0
                l(3) =   1
                l(4) =   1

     atomic species   valence    mass     pseudopotential
        Cs             9.00   132.90550     Cs( 1.00)
        F              7.00    18.99840     F ( 1.00)

     48 Sym. Ops., with inversion, found



   Cartesian axes

     site n.     atom                  positions (alat units)
         1           Cs  tau(   1) = (   0.0000000   0.0000000   0.0000000  )
         2           F   tau(   2) = (  -0.5000000   0.5000000   0.5000000  )

     number of k points=    72  Gaussian smearing, width (Ry)=  0.0005
                       cart. coord. in units 2pi/alat
        k(    1) = (   0.0000000   0.0000000   0.0000000), wk =   0.0011574
        k(    2) = (  -0.0833333   0.0833333  -0.0833333), wk =   0.0092593
        k(    3) = (  -0.1666667   0.1666667  -0.1666667), wk =   0.0092593
        k(    4) = (  -0.2500000   0.2500000  -0.2500000), wk =   0.0092593
        k(    5) = (  -0.3333333   0.3333333  -0.3333333), wk =   0.0092593
        k(    6) = (  -0.4166667   0.4166667  -0.4166667), wk =   0.0092593
        k(    7) = (   0.5000000  -0.5000000   0.5000000), wk =   0.0046296
        k(    8) = (   0.0000000   0.1666667   0.0000000), wk =   0.0069444
        k(    9) = (  -0.0833333   0.2500000  -0.0833333), wk =   0.0277778
        k(   10) = (  -0.1666667   0.3333333  -0.1666667), wk =   0.0277778
        k(   11) = (  -0.2500000   0.4166667  -0.2500000), wk =   0.0277778
        k(   12) = (  -0.3333333   0.5000000  -0.3333333), wk =   0.0277778
        k(   13) = (   0.5833333  -0.4166667   0.5833333), wk =   0.0277778
        k(   14) = (   0.5000000  -0.3333333   0.5000000), wk =   0.0277778
        k(   15) = (   0.4166667  -0.2500000   0.4166667), wk =   0.0277778
        k(   16) = (   0.3333333  -0.1666667   0.3333333), wk =   0.0277778
        k(   17) = (   0.2500000  -0.0833333   0.2500000), wk =   0.0277778
        k(   18) = (   0.1666667  -0.0000000   0.1666667), wk =   0.0138889
        k(   19) = (   0.0000000   0.3333333   0.0000000), wk =   0.0069444
        k(   20) = (  -0.0833333   0.4166667  -0.0833333), wk =   0.0277778
        k(   21) = (  -0.1666667   0.5000000  -0.1666667), wk =   0.0277778
        k(   22) = (  -0.2500000   0.5833333  -0.2500000), wk =   0.0277778
        k(   23) = (   0.6666667  -0.3333333   0.6666667), wk =   0.0277778
        k(   24) = (   0.5833333  -0.2500000   0.5833333), wk =   0.0277778
        k(   25) = (   0.5000000  -0.1666667   0.5000000), wk =   0.0277778
        k(   26) = (   0.4166667  -0.0833333   0.4166667), wk =   0.0277778
        k(   27) = (   0.3333333   0.0000000   0.3333333), wk =   0.0138889
        k(   28) = (   0.0000000   0.5000000   0.0000000), wk =   0.0069444
        k(   29) = (  -0.0833333   0.5833333  -0.0833333), wk =   0.0277778
        k(   30) = (  -0.1666667   0.6666667  -0.1666667), wk =   0.0277778
        k(   31) = (   0.7500000  -0.2500000   0.7500000), wk =   0.0277778
        k(   32) = (   0.6666667  -0.1666667   0.6666667), wk =   0.0277778
        k(   33) = (   0.5833333  -0.0833333   0.5833333), wk =   0.0277778
        k(   34) = (   0.5000000   0.0000000   0.5000000), wk =   0.0138889
        k(   35) = (   0.0000000   0.6666667   0.0000000), wk =   0.0069444
        k(   36) = (  -0.0833333   0.7500000  -0.0833333), wk =   0.0277778
        k(   37) = (   0.8333333  -0.1666667   0.8333333), wk =   0.0277778
        k(   38) = (   0.7500000  -0.0833333   0.7500000), wk =   0.0277778
        k(   39) = (   0.6666667  -0.0000000   0.6666667), wk =   0.0138889
        k(   40) = (   0.0000000   0.8333333   0.0000000), wk =   0.0069444
        k(   41) = (   0.9166667  -0.0833333   0.9166667), wk =   0.0277778
        k(   42) = (   0.8333333   0.0000000   0.8333333), wk =   0.0138889
        k(   43) = (   0.0000000  -1.0000000   0.0000000), wk =   0.0034722
        k(   44) = (  -0.1666667   0.3333333   0.0000000), wk =   0.0277778
        k(   45) = (  -0.2500000   0.4166667  -0.0833333), wk =   0.0555556
        k(   46) = (  -0.3333333   0.5000000  -0.1666667), wk =   0.0555556
        k(   47) = (   0.5833333  -0.4166667   0.7500000), wk =   0.0555556
        k(   48) = (   0.5000000  -0.3333333   0.6666667), wk =   0.0277778
        k(   49) = (  -0.1666667   0.5000000   0.0000000), wk =   0.0277778
        k(   50) = (  -0.2500000   0.5833333  -0.0833333), wk =   0.0555556
        k(   51) = (   0.6666667  -0.3333333   0.8333333), wk =   0.0555556
        k(   52) = (   0.5833333  -0.2500000   0.7500000), wk =   0.0555556
        k(   53) = (   0.5000000  -0.1666667   0.6666667), wk =   0.0555556
        k(   54) = (   0.4166667  -0.0833333   0.5833333), wk =   0.0555556
        k(   55) = (   0.3333333   0.0000000   0.5000000), wk =   0.0277778
        k(   56) = (  -0.1666667   0.6666667  -0.0000000), wk =   0.0277778
        k(   57) = (   0.7500000  -0.2500000   0.9166667), wk =   0.0555556
        k(   58) = (   0.6666667  -0.1666667   0.8333333), wk =   0.0555556
        k(   59) = (   0.5833333  -0.0833333   0.7500000), wk =   0.0555556
        k(   60) = (   0.5000000   0.0000000   0.6666667), wk =   0.0277778
        k(   61) = (   0.8333333  -0.1666667   1.0000000), wk =   0.0277778
        k(   62) = (   0.7500000  -0.0833333   0.9166667), wk =   0.0555556
        k(   63) = (   0.6666667   0.0000000   0.8333333), wk =   0.0277778
        k(   64) = (  -0.1666667  -1.0000000  -0.0000000), wk =   0.0138889
        k(   65) = (   0.6666667  -0.3333333   1.0000000), wk =   0.0277778
        k(   66) = (   0.5833333  -0.2500000   0.9166667), wk =   0.0555556
        k(   67) = (   0.5000000  -0.1666667   0.8333333), wk =   0.0277778
        k(   68) = (   0.6666667  -0.1666667   1.0000000), wk =   0.0277778
        k(   69) = (   0.5833333  -0.0833333   0.9166667), wk =   0.0555556
        k(   70) = (   0.5000000   0.0000000   0.8333333), wk =   0.0277778
        k(   71) = (  -0.3333333  -1.0000000   0.0000000), wk =   0.0138889
        k(   72) = (  -0.5000000  -1.0000000   0.0000000), wk =   0.0069444

     Dense  grid:    73601 G-vectors     FFT dimensions: (  60,  60,  60)

     Estimated max dynamical RAM per process >      16.45 MB

     Estimated total dynamical RAM >     263.20 MB

     The potential is recalculated from file :
     out/mp-1784.save/charge-density

     Starting wfcs are random

     Band Structure Calculation
     Davidson diagonalization with overlap

     ethr =  5.00E-06,  avg # of iterations = 26.1

     total cpu time spent up to now is        9.7 secs

     End of band structure calculation

          k = 0.0000 0.0000 0.0000 (  9257 PWs)   bands (ev):

   -16.3287 -15.0476  -1.8972  -1.8972  -1.8972   2.6754   2.6754   2.6754
     8.5044  11.1870  11.1870  11.1870  13.2263  13.2263  15.1092  20.5903

          k =-0.0833 0.0833-0.0833 (  9257 PWs)   bands (ev):

   -16.3075 -15.0641  -1.9575  -1.9010  -1.9010   2.6296   2.6463   2.6463
     8.7061  11.0606  11.2832  11.2832  13.2805  13.2805  15.4974  20.4056

          k =-0.1667 0.1667-0.1667 (  9198 PWs)   bands (ev):

   -16.2464 -15.1123  -2.1190  -1.9112  -1.9112   2.5173   2.5682   2.5682
     9.2117  10.8872  11.5464  11.5464  13.4550  13.4550  16.4541  19.9971

          k =-0.2500 0.2500-0.2500 (  9189 PWs)   bands (ev):

   -16.1523 -15.1887  -2.3316  -1.9247  -1.9247   2.3860   2.4641   2.4641
     9.6545  11.1180  11.8958  11.8958  13.7931  13.7931  17.4767  19.8378

          k =-0.3333 0.3333-0.3333 (  9198 PWs)   bands (ev):

   -16.0386 -15.2845  -2.5359  -1.9377  -1.9377   2.2722   2.3630   2.3630
     9.7544  11.9578  12.2087  12.2087  14.3587  14.3587  17.7667  20.0605

          k =-0.4167 0.4167-0.4167 (  9171 PWs)   bands (ev):

   -15.9304 -15.3795  -2.6805  -1.9470  -1.9470   2.1966   2.2907   2.2907
     9.7501  12.4011  12.4011  12.9272  15.1192  15.1192  17.6700  18.6306

          k = 0.5000-0.5000 0.5000 (  9204 PWs)   bands (ev):

   -15.8796 -15.4255  -2.7324  -1.9503  -1.9503   2.1702   2.2645   2.2645
     9.7458  12.4630  12.4630  13.4006  15.6220  15.6220  17.8299  17.9003

          k = 0.0000 0.1667 0.0000 (  9249 PWs)   bands (ev):

   -16.3008 -15.0690  -1.9330  -1.9330  -1.9221   2.5397   2.6824   2.6824
     8.7665  10.8897  11.3854  11.3854  13.2761  13.3080  15.6161  20.5504

          k =-0.0833 0.2500-0.0833 (  9182 PWs)   bands (ev):

   -16.2540 -15.1049  -2.0636  -1.9675  -1.9169   2.4219   2.6508   2.6603
     9.1658  10.6482  11.6236  11.6567  13.3625  13.4563  16.3688  20.2431

          k =-0.1667 0.3333-0.1667 (  9197 PWs)   bands (ev):

   -16.1726 -15.1692  -2.2670  -1.9953  -1.9277   2.3221   2.5588   2.5881
     9.6648  10.6485  11.9519  12.0095  13.5806  13.7839  17.4173  19.9222

          k =-0.2500 0.4167-0.2500 (  9190 PWs)   bands (ev):

   -16.0674 -15.2556  -2.4799  -2.0092  -1.9558   2.2620   2.4419   2.4875
     9.8244  11.2364  12.3032  12.3168  14.0373  14.3591  18.0135  20.0418

          k =-0.3333 0.5000-0.3333 (  9155 PWs)   bands (ev):

   -15.9581 -15.3495  -2.6474  -2.0053  -1.9934   2.2468   2.3379   2.3856
     9.8281  11.9161  12.5057  12.7217  14.7818  15.1258  17.8974  18.6408

          k = 0.5833-0.4167 0.5833 (  9179 PWs)   bands (ev):

   -15.8844 -15.4152  -2.7304  -2.0298  -1.9846   2.2318   2.3081   2.3152
     9.8334  12.1625  12.5753  13.2322  15.5908  15.5953  17.4122  17.9691

          k = 0.5000-0.3333 0.5000 (  9174 PWs)   bands (ev):

   -15.9005 -15.4010  -2.7111  -2.0552  -1.9526   2.2076   2.2734   2.3887
     9.8438  12.1512  12.5265  13.1155  15.0733  15.8157  17.2874  18.1617

          k = 0.4167-0.2500 0.4167 (  9168 PWs)   bands (ev):

   -15.9919 -15.3207  -2.5937  -2.0631  -1.9179   2.2282   2.2906   2.4924
     9.8584  11.8121  12.3386  12.5668  14.3375  15.0672  17.8961  18.6334

          k = 0.3333-0.1667 0.3333 (  9187 PWs)   bands (ev):

   -16.1030 -15.2269  -2.4046  -2.0510  -1.8898   2.2967   2.3565   2.5963
     9.8404  11.0732  12.0130  12.2545  13.8138  14.2437  17.9166  19.7170

          k = 0.2500-0.0833 0.2500 (  9192 PWs)   bands (ev):

   -16.2022 -15.1464  -2.1908  -2.0210  -1.8760   2.4037   2.4558   2.6707
     9.5322  10.7018  11.6479  11.9369  13.5113  13.6798  17.0672  19.8686

          k = 0.1667-0.0000 0.1667 (  9199 PWs)   bands (ev):

   -16.2734 -15.0905  -2.0206  -1.9705  -1.8801   2.5283   2.5625   2.6895
     9.0091  10.8473  11.3781  11.5687  13.3479  13.3921  16.0642  20.2289

          k = 0.0000 0.3333 0.0000 (  9193 PWs)   bands (ev):

   -16.2245 -15.1248  -2.0474  -2.0292  -2.0292   2.3288   2.7051   2.7051
     9.4002  10.2833  11.9529  11.9529  13.3209  13.5464  16.8492  20.6787

          k =-0.0833 0.4167-0.0833 (  9190 PWs)   bands (ev):

   -16.1615 -15.1708  -2.2410  -2.0804  -2.0450   2.2905   2.6816   2.6911
     9.8310  10.0839  12.3030  12.3403  13.4033  13.8037  17.7542  20.4339

          k =-0.1667 0.5000-0.1667 (  9202 PWs)   bands (ev):

   -16.0736 -15.2389  -2.4585  -2.1085  -2.0880   2.3089   2.5950   2.6251
     9.8654  10.6043  12.4511  12.6595  13.8871  14.3371  18.5850  20.0538

          k =-0.2500 0.5833-0.2500 (  9171 PWs)   bands (ev):

   -15.9760 -15.3190  -2.6377  -2.1512  -2.1067   2.3739   2.4792   2.5272
     9.8877  11.2996  12.4524  12.8383  14.7772  15.0833  18.1831  18.7746

          k = 0.6667-0.3333 0.6667 (  9174 PWs)   bands (ev):

   -15.8963 -15.3884  -2.7377  -2.2158  -2.0749   2.3659   2.4229   2.4707
     9.9829  11.6816  12.6784  12.9081  15.5095  15.7101  17.1884  18.1518

          k = 0.5833-0.2500 0.5833 (  9163 PWs)   bands (ev):

   -15.8783 -15.4061  -2.7378  -2.2638  -2.0205   2.2807   2.3374   2.5786
    10.0855  11.6785  12.8766  12.8811  15.0070  16.0481  17.0625  18.9161

          k = 0.5000-0.1667 0.5000 (  9166 PWs)   bands (ev):

   -15.9371 -15.3571  -2.6386  -2.2823  -1.9573   2.2376   2.2912   2.6755
    10.1584  11.4654  12.5933  12.7005  14.3038  16.1687  16.9982  18.9141

          k = 0.4167-0.0833 0.4167 (  9186 PWs)   bands (ev):

   -16.0322 -15.2793  -2.4649  -2.2635  -1.9027   2.2440   2.2971   2.7357
    10.2219  10.9013  12.3474  12.3872  13.8497  15.1707  18.1276  18.8562

          k = 0.3333 0.0000 0.3333 (  9201 PWs)   bands (ev):

   -16.1272 -15.2043  -2.2861  -2.1833  -1.8727   2.3014   2.3565   2.7368
    10.0513  10.5147  11.9414  12.2595  13.6259  14.2371  18.0187  19.3819

          k = 0.0000 0.5000 0.0000 (  9197 PWs)   bands (ev):

   -16.1209 -15.1941  -2.3371  -2.1572  -2.1572   2.3327   2.7440   2.7440
     9.6861  10.1359  12.8160  12.8160  13.2224  13.9172  18.4819  21.2864

          k =-0.0833 0.5833-0.0833 (  9187 PWs)   bands (ev):

   -16.0571 -15.2371  -2.5397  -2.2168  -2.2073   2.4285   2.7266   2.7355
     9.5273  10.5458  12.7833  13.2153  13.7723  14.3087  19.3624  20.0589

          k =-0.1667 0.6667-0.1667 (  9185 PWs)   bands (ev):

   -15.9809 -15.2946  -2.7143  -2.2915  -2.2195   2.5502   2.6447   2.6718
     9.5823  11.0685  12.4325  13.3860  14.8361  15.0023  18.2832  18.9633

          k = 0.7500-0.2500 0.7500 (  9176 PWs)   bands (ev):

   -15.9102 -15.3539  -2.8081  -2.3752  -2.1908   2.5251   2.5715   2.6766
     9.8092  11.5943  12.1303  13.4445  15.4079  15.9247  17.0714  18.3656

          k = 0.6667-0.1667 0.6667 (  9162 PWs)   bands (ev):

   -15.8719 -15.3912  -2.7997  -2.4475  -2.1269   2.4058   2.4589   2.7767
    10.1382  11.5332  12.3350  13.4341  14.9396  15.7389  17.6154  19.0824

          k = 0.5833-0.0833 0.5833 (  9176 PWs)   bands (ev):

   -15.8899 -15.3830  -2.6888  -2.4910  -2.0425   2.3080   2.3603   2.8310
    10.4727  11.1766  12.4403  13.2755  14.2692  15.8063  17.7565  19.5165

          k = 0.5000 0.0000 0.5000 (  9177 PWs)   bands (ev):

   -15.9535 -15.3371  -2.4970  -2.4959  -1.9597   2.2498   2.3002   2.8197
    10.7145  10.7278  12.3701  12.8389  13.9435  16.2992  16.9597  19.5215

          k = 0.0000 0.6667 0.0000 (  9164 PWs)   bands (ev):

   -16.0212 -15.2517  -2.7207  -2.2813  -2.2813   2.5830   2.7907   2.7907
     9.2212  10.6785  13.1865  13.8709  13.8709  14.3640  19.9319  19.9319

          k =-0.0833 0.7500-0.0833 (  9171 PWs)   bands (ev):

   -15.9729 -15.2815  -2.8834  -2.3429  -2.3143   2.7339   2.7747   2.7807
     9.1611  10.8945  12.9778  14.1084  14.8133  14.9126  18.4101  18.9831

          k = 0.8333-0.1667 0.8333 (  9182 PWs)   bands (ev):

   -15.9221 -15.3215  -2.9637  -2.4185  -2.2993   2.6835   2.7115   2.8595
     9.3480  11.2419  12.5599  14.1315  15.3307  16.0485  17.0407  18.4339

          k = 0.7500-0.0833 0.7500 (  9169 PWs)   bands (ev):

   -15.8821 -15.3614  -2.9403  -2.4937  -2.2391   2.5570   2.6008   2.9251
     9.7279  11.7003  12.0582  14.1436  14.8995  15.8307  17.6507  19.0328

          k = 0.6667-0.0000 0.6667 (  9152 PWs)   bands (ev):

   -15.8685 -15.3857  -2.8227  -2.5412  -2.1461   2.4223   2.4738   2.9180
    10.2025  11.5075  12.1497  13.9723  14.2909  15.4424  18.8955  19.0975

          k = 0.0000 0.8333 0.0000 (  9184 PWs)   bands (ev):

   -15.9545 -15.2827  -3.0354  -2.3698  -2.3698   2.8293   2.8293   2.8891
     8.9319  10.7855  13.5707  14.7690  14.9651  14.9651  18.5469  18.5469

          k = 0.9167-0.0833 0.9167 (  9163 PWs)   bands (ev):

   -15.9297 -15.2988  -3.1026  -2.4094  -2.3748   2.8010   2.8093   2.9820
     8.9719  10.8712  13.4081  14.7641  15.3917  15.8599  17.2827  18.1335

          k = 0.8333 0.0000 0.8333 (  9162 PWs)   bands (ev):

   -15.9036 -15.3272  -3.0658  -2.4595  -2.3282   2.7005   2.7271   2.9960
     9.2650  11.1865  12.7884  14.6930  15.0843  16.3354  16.9855  18.5194

          k = 0.0000-1.0000 0.0000 (  9176 PWs)   bands (ev):

   -15.9323 -15.2906  -3.1549  -2.4017  -2.4017   2.8442   2.8442   3.0253
     8.8340  10.7377  13.9105  14.9430  15.6054  15.6054  17.8185  17.9576

          k =-0.1667 0.3333 0.0000 (  9197 PWs)   bands (ev):

   -16.1983 -15.1469  -2.1615  -2.0712  -1.9214   2.3255   2.5672   2.7126
     9.5952  10.3992  11.8669  12.0498  13.4425  13.6890  17.1810  20.0752

          k =-0.2500 0.4167-0.0833 (  9187 PWs)   bands (ev):

   -16.1133 -15.2131  -2.3511  -2.1421  -1.9347   2.2762   2.4545   2.7024
     9.9874  10.4988  12.2135  12.3253  13.6607  14.2350  18.1559  19.6092

          k =-0.3333 0.5000-0.1667 (  9168 PWs)   bands (ev):

   -16.0120 -15.2954  -2.5497  -2.1781  -1.9660   2.2776   2.3519   2.6348
     9.9914  11.1737  12.4450  12.5646  14.1198  15.1018  18.1477  18.8410

          k = 0.5833-0.4167 0.7500 (  9161 PWs)   bands (ev):

   -15.9183 -15.3751  -2.6916  -2.1927  -1.9997   2.2665   2.3422   2.5342
     9.9923  11.6804  12.7116  12.7722  14.8171  15.9608  17.1569  18.6431

          k = 0.5000-0.3333 0.6667 (  9172 PWs)   bands (ev):

   -15.8759 -15.4123  -2.7426  -2.1954  -2.0146   2.2430   2.4254   2.4304
    10.0006  11.7925  12.8112  13.0084  15.2549  16.1410  16.8722  18.4147

          k =-0.1667 0.5000 0.0000 (  9205 PWs)   bands (ev):

   -16.0969 -15.2164  -2.3878  -2.2047  -2.0667   2.3208   2.6032   2.7520
     9.8633  10.2918  12.5225  12.7360  13.5655  14.2239  18.6503  19.8513

          k =-0.2500 0.5833-0.0833 (  9176 PWs)   bands (ev):

   -16.0148 -15.2785  -2.5679  -2.2966  -2.0868   2.4014   2.4916   2.7481
     9.8554  10.8340  12.3790  13.0951  14.0418  15.0863  18.3662  19.3846

          k = 0.6667-0.3333 0.8333 (  9166 PWs)   bands (ev):

   -15.9321 -15.3454  -2.7087  -2.3599  -2.1006   2.3822   2.5108   2.6839
     9.9797  11.3415  12.2479  13.2513  14.7676  16.0340  17.1668  18.8627

          k = 0.5833-0.2500 0.7500 (  9177 PWs)   bands (ev):

   -15.8777 -15.3926  -2.7660  -2.4057  -2.0889   2.3005   2.5800   2.6283
    10.1678  11.4256  12.4664  13.2929  15.0019  16.3967  16.7784  18.8174

          k = 0.5000-0.1667 0.6667 (  9171 PWs)   bands (ev):

   -15.8844 -15.3895  -2.7251  -2.4286  -2.0503   2.2632   2.4668   2.7259
    10.3061  11.2902  12.5134  13.2457  14.6543  16.0625  17.2778  19.2217

          k = 0.4167-0.0833 0.5833 (  9184 PWs)   bands (ev):

   -15.9478 -15.3393  -2.5970  -2.4162  -1.9987   2.2770   2.3666   2.7828
    10.3350  11.0306  12.3324  13.0383  14.1190  16.2352  17.0182  19.4121

          k = 0.3333 0.0000 0.5000 (  9197 PWs)   bands (ev):

   -16.0331 -15.2733  -2.4441  -2.3310  -1.9544   2.2893   2.3528   2.7775
    10.3078  10.5816  12.3466  12.6235  13.7975  15.1690  18.2211  19.0624

          k =-0.1667 0.6667-0.0000 (  9167 PWs)   bands (ev):

   -16.0006 -15.2733  -2.7107  -2.3338  -2.2156   2.5665   2.6510   2.7992
     9.4299  10.8638  12.6137  13.8154  14.0475  15.0010  18.5302  19.7721

          k = 0.7500-0.2500 0.9167 (  9182 PWs)   bands (ev):

   -15.9387 -15.3192  -2.8328  -2.4334  -2.2122   2.5353   2.7065   2.7946
     9.5662  11.2662  12.2356  13.9494  14.7631  15.9898  17.2702  18.8908

          k = 0.6667-0.1667 0.8333 (  9166 PWs)   bands (ev):

   -15.8878 -15.3629  -2.8681  -2.5166  -2.1845   2.4179   2.7240   2.8187
     9.8852  11.6361  11.8923  13.9420  14.9769  16.4315  16.8912  18.7873

          k = 0.5833-0.0833 0.7500 (  9160 PWs)   bands (ev):

   -15.8685 -15.3857  -2.8033  -2.5763  -2.1297   2.3234   2.6120   2.8783
    10.3095  11.2774  12.1507  13.9164  14.5081  15.7390  18.0216  19.3828

          k = 0.5000 0.0000 0.6667 (  9180 PWs)   bands (ev):

   -15.8926 -15.3751  -2.6527  -2.5953  -2.0606   2.2726   2.4829   2.8688
    10.7250  10.8022  12.2590  13.6591  14.1363  15.8471  17.8166  19.4260

          k = 0.8333-0.1667 1.0000 (  9172 PWs)   bands (ev):

   -15.9375 -15.3024  -2.9980  -2.4257  -2.3103   2.6896   2.8380   2.8744
     9.1564  11.0081  12.8798  14.5834  14.9426  15.8154  17.4236  18.5244

          k = 0.7500-0.0833 0.9167 (  9162 PWs)   bands (ev):

   -15.9022 -15.3324  -3.0190  -2.5071  -2.2746   2.5653   2.8231   2.9538
     9.4048  11.2775  12.4380  14.5077  15.2550  16.6250  16.7102  18.2284

          k = 0.6667 0.0000 0.8333 (  9162 PWs)   bands (ev):

   -15.8760 -15.3638  -2.9415  -2.5697  -2.2114   2.4330   2.7407   2.9573
     9.8402  11.6911  11.8384  14.3432  14.8286  15.9292  17.8186  18.6089

          k =-0.1667-1.0000-0.0000 (  9164 PWs)   bands (ev):

   -15.9171 -15.3094  -3.1100  -2.4588  -2.3427   2.7059   2.8530   3.0107
     9.0634  10.9581  13.1558  14.7757  15.6104  16.1961  17.0052  17.7816

          k = 0.6667-0.3333 1.0000 (  9200 PWs)   bands (ev):

   -15.9482 -15.3257  -2.6674  -2.4728  -2.0948   2.3818   2.5272   2.8257
    10.0080  11.1012  12.1103  13.6968  14.1204  16.1673  17.1464  19.5987

          k = 0.5833-0.2500 0.9167 (  9168 PWs)   bands (ev):

   -15.8917 -15.3678  -2.7457  -2.5818  -2.1085   2.3056   2.6580   2.8299
    10.2787  11.1489  12.0436  13.9041  14.5373  16.1501  17.3757  19.0176

          k = 0.5000-0.1667 0.8333 (  9176 PWs)   bands (ev):

   -15.8685 -15.3857  -2.7773  -2.6163  -2.1148   2.2785   2.7589   2.7757
    10.4816  10.9981  12.1514  13.8887  14.6470  16.4356  17.0288  19.4765

          k = 0.6667-0.1667 1.0000 (  9171 PWs)   bands (ev):

   -15.8981 -15.3471  -2.8908  -2.5730  -2.1879   2.4165   2.8338   2.8650
     9.7928  11.4750  11.8375  14.3583  14.8839  16.3066  17.2235  18.4498

          k = 0.5833-0.0833 0.9167 (  9171 PWs)   bands (ev):

   -15.8711 -15.3697  -2.8685  -2.6775  -2.1608   2.3268   2.8589   2.9075
    10.2035  11.2686  11.7766  14.1286  15.1414  16.4212  17.2491  18.2952

          k = 0.5000 0.0000 0.8333 (  9173 PWs)   bands (ev):

   -15.8683 -15.3777  -2.7630  -2.7347  -2.1320   2.2865   2.7834   2.9083
    10.7027  10.7407  11.9448  14.1018  14.8207  15.9851  18.1132  18.2686

          k =-0.3333-1.0000 0.0000 (  9140 PWs)   bands (ev):

   -15.8836 -15.3499  -2.9838  -2.6090  -2.2178   2.4312   2.8802   2.9723
     9.7169  11.4574  11.9089  14.3067  15.6206  16.6531  16.9505  17.6630

          k =-0.5000-1.0000 0.0000 (  9120 PWs)   bands (ev):

   -15.8648 -15.3722  -2.8024  -2.8024  -2.1512   2.2939   2.9235   2.9235
    10.7054  10.7054  11.7657  13.9921  15.6257  16.5983  17.4201  17.4201

     the Fermi energy is     7.1963 ev
     (compare with:     7.1871 eV, computed in scf)

     Writing all to output data dir out/mp-1784.save/
 
     init_run     :      0.10s CPU      0.19s WALL (       1 calls)
     electrons    :      5.54s CPU      8.71s WALL (       1 calls)

     Called by init_run:
     wfcinit      :      0.00s CPU      0.00s WALL (       1 calls)
     potinit      :      0.02s CPU      0.04s WALL (       1 calls)
     hinit0       :      0.02s CPU      0.06s WALL (       1 calls)

     Called by electrons:
     c_bands      :      5.54s CPU      8.71s WALL (       1 calls)
     v_of_rho     :      0.02s CPU      0.02s WALL (       1 calls)

     Called by c_bands:
     init_us_2    :      0.01s CPU      0.01s WALL (      72 calls)
     init_us_2:cp :      0.01s CPU      0.01s WALL (      72 calls)
     cegterg      :      5.20s CPU      5.44s WALL (     134 calls)

     Called by *egterg:
     cdiaghg      :      0.49s CPU      0.51s WALL (    1950 calls)
     h_psi        :      4.50s CPU      4.72s WALL (    2084 calls)
     g_psi        :      0.03s CPU      0.03s WALL (    1878 calls)

     Called by h_psi:
     h_psi:calbec :      0.11s CPU      0.12s WALL (    2084 calls)
     vloc_psi     :      4.32s CPU      4.52s WALL (    2084 calls)
     add_vuspsi   :      0.05s CPU      0.06s WALL (    2084 calls)

     General routines
     calbec       :      0.11s CPU      0.11s WALL (    2084 calls)
     fft          :      0.01s CPU      0.05s WALL (      10 calls)
     fftw         :      3.98s CPU      4.17s WALL (   41860 calls)
 
     Parallel routines
 
     PWSCF        :      6.10s CPU     12.13s WALL

 
   This run was terminated on:   9:52: 7  11Apr2024            

=------------------------------------------------------------------------------=
   JOB DONE.
=------------------------------------------------------------------------------=
