
     Program PWSCF v.7.1 starts on  8Apr2024 at 15:10:54 

     This program is part of the open-source Quantum ESPRESSO suite
     for quantum simulation of materials; please cite
         "P. Giannozzi et al., J. Phys.:Condens. Matter 21 395502 (2009);
         "P. Giannozzi et al., J. Phys.:Condens. Matter 29 465901 (2017);
         "P. Giannozzi et al., J. Chem. Phys. 152 154105 (2020);
          URL http://www.quantum-espresso.org", 
     in publications or presentations arising from this work. More details at
     http://www.quantum-espresso.org/quote

     Parallel version (MPI), running on    16 processors

     MPI processes distributed on     1 nodes
     247353 MiB available memory on the printing compute node when the environment starts
 
     Reading input from pw_mp-1784_scf_k3000_E65.in
Warning: card &CELL ignored
Warning: card / ignored

     Current dimensions of program PWSCF are:
     Max number of different atomic species (ntypx) = 10
     Max number of k-points (npk) =  40000
     Max angular momentum in pseudopotentials (lmaxx) =  4
 
     R & G space division:  proc/nbgrp/npool/nimage =      16
     Subspace diagonalization in iterative solution of the eigenvalue problem:
     a serial algorithm will be used

 
     Parallelization info
     --------------------
     sticks:   dense  smooth     PW     G-vecs:    dense   smooth      PW
     Min          72      72     21                 1617     1617     266
     Max          73      73     22                 1620     1620     269
     Sum        1159    1159    349                25893    25893    4279
 
     Using Slab Decomposition
 


     bravais-lattice index     =            2
     lattice parameter (alat)  =      11.3616  a.u.
     unit-cell volume          =     366.6519 (a.u.)^3
     number of atoms/cell      =            2
     number of atomic types    =            2
     number of electrons       =        16.00
     number of Kohn-Sham states=           16
     kinetic-energy cutoff     =      65.0000  Ry
     charge density cutoff     =     260.0000  Ry
     scf convergence threshold =      1.0E-10
     mixing beta               =       0.7000
     number of iterations used =            8  plain     mixing
     Exchange-correlation= PBE
                           (   1   4   3   4   0   0   0)

     celldm(1)=  11.361560  celldm(2)=   0.000000  celldm(3)=   0.000000
     celldm(4)=   0.000000  celldm(5)=   0.000000  celldm(6)=   0.000000

     crystal axes: (cart. coord. in units of alat)
               a(1) = (  -0.500000   0.000000   0.500000 )  
               a(2) = (   0.000000   0.500000   0.500000 )  
               a(3) = (  -0.500000   0.500000   0.000000 )  

     reciprocal axes: (cart. coord. in units 2 pi/alat)
               b(1) = ( -1.000000 -1.000000  1.000000 )  
               b(2) = (  1.000000  1.000000  1.000000 )  
               b(3) = ( -1.000000  1.000000 -1.000000 )  


     PseudoPot. # 1 for Cs read from file:
     /usr/scratch4/magr4826/Promotion/Python/Code/devEb/pseudo/SG15/Cs.upf
     MD5 check sum: 74aa1fd125ef9ec93322f365f25225f6
     Pseudo is Norm-conserving, Zval =  9.0
     Generated using ONCVPSP code by D. R. Hamann
     Using radial grid of  602 points,  6 beta functions with: 
                l(1) =   0
                l(2) =   0
                l(3) =   1
                l(4) =   1
                l(5) =   2
                l(6) =   2

     PseudoPot. # 2 for F  read from file:
     /usr/scratch4/magr4826/Promotion/Python/Code/devEb/pseudo/SG15/F.upf
     MD5 check sum: 1d8275f47d602dd53cad6bcdc0eda7dc
     Pseudo is Norm-conserving, Zval =  7.0
     Generated using ONCVPSP code by D. R. Hamann
     Using radial grid of  602 points,  4 beta functions with: 
                l(1) =   0
                l(2) =   0
                l(3) =   1
                l(4) =   1

     atomic species   valence    mass     pseudopotential
        Cs             9.00   132.90550     Cs( 1.00)
        F              7.00    18.99840     F ( 1.00)

     48 Sym. Ops., with inversion, found



   Cartesian axes

     site n.     atom                  positions (alat units)
         1           Cs  tau(   1) = (   0.0000000   0.0000000   0.0000000  )
         2           F   tau(   2) = (  -0.5000000   0.5000000   0.5000000  )

     number of k points=    72  Gaussian smearing, width (Ry)=  0.0005
                       cart. coord. in units 2pi/alat
        k(    1) = (   0.0000000   0.0000000   0.0000000), wk =   0.0011574
        k(    2) = (  -0.0833333   0.0833333  -0.0833333), wk =   0.0092593
        k(    3) = (  -0.1666667   0.1666667  -0.1666667), wk =   0.0092593
        k(    4) = (  -0.2500000   0.2500000  -0.2500000), wk =   0.0092593
        k(    5) = (  -0.3333333   0.3333333  -0.3333333), wk =   0.0092593
        k(    6) = (  -0.4166667   0.4166667  -0.4166667), wk =   0.0092593
        k(    7) = (   0.5000000  -0.5000000   0.5000000), wk =   0.0046296
        k(    8) = (   0.0000000   0.1666667   0.0000000), wk =   0.0069444
        k(    9) = (  -0.0833333   0.2500000  -0.0833333), wk =   0.0277778
        k(   10) = (  -0.1666667   0.3333333  -0.1666667), wk =   0.0277778
        k(   11) = (  -0.2500000   0.4166667  -0.2500000), wk =   0.0277778
        k(   12) = (  -0.3333333   0.5000000  -0.3333333), wk =   0.0277778
        k(   13) = (   0.5833333  -0.4166667   0.5833333), wk =   0.0277778
        k(   14) = (   0.5000000  -0.3333333   0.5000000), wk =   0.0277778
        k(   15) = (   0.4166667  -0.2500000   0.4166667), wk =   0.0277778
        k(   16) = (   0.3333333  -0.1666667   0.3333333), wk =   0.0277778
        k(   17) = (   0.2500000  -0.0833333   0.2500000), wk =   0.0277778
        k(   18) = (   0.1666667  -0.0000000   0.1666667), wk =   0.0138889
        k(   19) = (   0.0000000   0.3333333   0.0000000), wk =   0.0069444
        k(   20) = (  -0.0833333   0.4166667  -0.0833333), wk =   0.0277778
        k(   21) = (  -0.1666667   0.5000000  -0.1666667), wk =   0.0277778
        k(   22) = (  -0.2500000   0.5833333  -0.2500000), wk =   0.0277778
        k(   23) = (   0.6666667  -0.3333333   0.6666667), wk =   0.0277778
        k(   24) = (   0.5833333  -0.2500000   0.5833333), wk =   0.0277778
        k(   25) = (   0.5000000  -0.1666667   0.5000000), wk =   0.0277778
        k(   26) = (   0.4166667  -0.0833333   0.4166667), wk =   0.0277778
        k(   27) = (   0.3333333   0.0000000   0.3333333), wk =   0.0138889
        k(   28) = (   0.0000000   0.5000000   0.0000000), wk =   0.0069444
        k(   29) = (  -0.0833333   0.5833333  -0.0833333), wk =   0.0277778
        k(   30) = (  -0.1666667   0.6666667  -0.1666667), wk =   0.0277778
        k(   31) = (   0.7500000  -0.2500000   0.7500000), wk =   0.0277778
        k(   32) = (   0.6666667  -0.1666667   0.6666667), wk =   0.0277778
        k(   33) = (   0.5833333  -0.0833333   0.5833333), wk =   0.0277778
        k(   34) = (   0.5000000   0.0000000   0.5000000), wk =   0.0138889
        k(   35) = (   0.0000000   0.6666667   0.0000000), wk =   0.0069444
        k(   36) = (  -0.0833333   0.7500000  -0.0833333), wk =   0.0277778
        k(   37) = (   0.8333333  -0.1666667   0.8333333), wk =   0.0277778
        k(   38) = (   0.7500000  -0.0833333   0.7500000), wk =   0.0277778
        k(   39) = (   0.6666667  -0.0000000   0.6666667), wk =   0.0138889
        k(   40) = (   0.0000000   0.8333333   0.0000000), wk =   0.0069444
        k(   41) = (   0.9166667  -0.0833333   0.9166667), wk =   0.0277778
        k(   42) = (   0.8333333   0.0000000   0.8333333), wk =   0.0138889
        k(   43) = (   0.0000000  -1.0000000   0.0000000), wk =   0.0034722
        k(   44) = (  -0.1666667   0.3333333   0.0000000), wk =   0.0277778
        k(   45) = (  -0.2500000   0.4166667  -0.0833333), wk =   0.0555556
        k(   46) = (  -0.3333333   0.5000000  -0.1666667), wk =   0.0555556
        k(   47) = (   0.5833333  -0.4166667   0.7500000), wk =   0.0555556
        k(   48) = (   0.5000000  -0.3333333   0.6666667), wk =   0.0277778
        k(   49) = (  -0.1666667   0.5000000   0.0000000), wk =   0.0277778
        k(   50) = (  -0.2500000   0.5833333  -0.0833333), wk =   0.0555556
        k(   51) = (   0.6666667  -0.3333333   0.8333333), wk =   0.0555556
        k(   52) = (   0.5833333  -0.2500000   0.7500000), wk =   0.0555556
        k(   53) = (   0.5000000  -0.1666667   0.6666667), wk =   0.0555556
        k(   54) = (   0.4166667  -0.0833333   0.5833333), wk =   0.0555556
        k(   55) = (   0.3333333   0.0000000   0.5000000), wk =   0.0277778
        k(   56) = (  -0.1666667   0.6666667  -0.0000000), wk =   0.0277778
        k(   57) = (   0.7500000  -0.2500000   0.9166667), wk =   0.0555556
        k(   58) = (   0.6666667  -0.1666667   0.8333333), wk =   0.0555556
        k(   59) = (   0.5833333  -0.0833333   0.7500000), wk =   0.0555556
        k(   60) = (   0.5000000   0.0000000   0.6666667), wk =   0.0277778
        k(   61) = (   0.8333333  -0.1666667   1.0000000), wk =   0.0277778
        k(   62) = (   0.7500000  -0.0833333   0.9166667), wk =   0.0555556
        k(   63) = (   0.6666667   0.0000000   0.8333333), wk =   0.0277778
        k(   64) = (  -0.1666667  -1.0000000  -0.0000000), wk =   0.0138889
        k(   65) = (   0.6666667  -0.3333333   1.0000000), wk =   0.0277778
        k(   66) = (   0.5833333  -0.2500000   0.9166667), wk =   0.0555556
        k(   67) = (   0.5000000  -0.1666667   0.8333333), wk =   0.0277778
        k(   68) = (   0.6666667  -0.1666667   1.0000000), wk =   0.0277778
        k(   69) = (   0.5833333  -0.0833333   0.9166667), wk =   0.0555556
        k(   70) = (   0.5000000   0.0000000   0.8333333), wk =   0.0277778
        k(   71) = (  -0.3333333  -1.0000000   0.0000000), wk =   0.0138889
        k(   72) = (  -0.5000000  -1.0000000   0.0000000), wk =   0.0069444

     Dense  grid:    25893 G-vectors     FFT dimensions: (  45,  45,  45)

     Estimated max dynamical RAM per process >       7.51 MB

     Estimated total dynamical RAM >     120.23 MB

     Initial potential from superposition of free atoms

     starting charge      15.6094, renormalised to      16.0000
     Starting wfcs are random

     total cpu time spent up to now is        0.5 secs

     Self-consistent Calculation

     iteration #  1     ecut=    65.00 Ry     beta= 0.70
     ParO style diagonalization
     ethr =  5.00E-06,  avg # of iterations = 20.3

     total cpu time spent up to now is        5.5 secs

     total energy              =     -88.33579317 Ry
     estimated scf accuracy    <       0.11880889 Ry

     iteration #  2     ecut=    65.00 Ry     beta= 0.70
     ParO style diagonalization
     ethr =  7.43E-04,  avg # of iterations =  5.0

     total cpu time spent up to now is        6.8 secs

     total energy              =     -88.35118353 Ry
     estimated scf accuracy    <       0.13883300 Ry

     iteration #  3     ecut=    65.00 Ry     beta= 0.70
     ParO style diagonalization
     ethr =  7.43E-04,  avg # of iterations =  3.5

     total cpu time spent up to now is        7.6 secs

     total energy              =     -88.38292526 Ry
     estimated scf accuracy    <       0.00343617 Ry

     iteration #  4     ecut=    65.00 Ry     beta= 0.70
     ParO style diagonalization
     ethr =  2.15E-05,  avg # of iterations =  4.7

     total cpu time spent up to now is        8.9 secs

     total energy              =     -88.38355264 Ry
     estimated scf accuracy    <       0.00003752 Ry

     iteration #  5     ecut=    65.00 Ry     beta= 0.70
     ParO style diagonalization
     ethr =  2.35E-07,  avg # of iterations =  5.5

     total cpu time spent up to now is       10.6 secs

     total energy              =     -88.38355763 Ry
     estimated scf accuracy    <       0.00000222 Ry

     iteration #  6     ecut=    65.00 Ry     beta= 0.70
     ParO style diagonalization
     ethr =  1.39E-08,  avg # of iterations =  5.1

     total cpu time spent up to now is       11.7 secs

     total energy              =     -88.38355824 Ry
     estimated scf accuracy    <       0.00000021 Ry

     iteration #  7     ecut=    65.00 Ry     beta= 0.70
     ParO style diagonalization
     ethr =  1.32E-09,  avg # of iterations =  4.7

     total cpu time spent up to now is       13.0 secs

     total energy              =     -88.38355829 Ry
     estimated scf accuracy    <          2.1E-09 Ry

     iteration #  8     ecut=    65.00 Ry     beta= 0.70
     ParO style diagonalization
     ethr =  1.34E-11,  avg # of iterations =  5.5

     total cpu time spent up to now is       15.1 secs

     total energy              =     -88.38355829 Ry
     estimated scf accuracy    <          1.4E-10 Ry

     iteration #  9     ecut=    65.00 Ry     beta= 0.70
     ParO style diagonalization
     ethr =  9.03E-13,  avg # of iterations =  4.3

     total cpu time spent up to now is       16.3 secs

     End of self-consistent calculation

          k = 0.0000 0.0000 0.0000 (  3287 PWs)   bands (ev):

   -16.3285 -15.0475  -1.8971  -1.8971  -1.8971   2.6795   2.6795   2.6795
     8.5044  11.1877  11.1877  11.1877  13.2267  13.2267  15.1092  20.5956

          k =-0.0833 0.0833-0.0833 (  3245 PWs)   bands (ev):

   -16.3073 -15.0639  -1.9575  -1.9009  -1.9009   2.6345   2.6510   2.6510
     8.7063  11.0613  11.2839  11.2839  13.2811  13.2811  15.4974  20.4109

          k =-0.1667 0.1667-0.1667 (  3260 PWs)   bands (ev):

   -16.2461 -15.1122  -2.1189  -1.9111  -1.9111   2.5213   2.5727   2.5727
     9.2123  10.8878  11.5472  11.5472  13.4559  13.4559  16.4542  20.0003

          k =-0.2500 0.2500-0.2500 (  3251 PWs)   bands (ev):

   -16.1520 -15.1886  -2.3316  -1.9246  -1.9246   2.3903   2.4685   2.4685
     9.6559  11.1183  11.8967  11.8967  13.7945  13.7945  17.4772  19.8392

          k =-0.3333 0.3333-0.3333 (  3257 PWs)   bands (ev):

   -16.0383 -15.2844  -2.5359  -1.9377  -1.9377   2.2761   2.3673   2.3673
     9.7564  11.9580  12.2102  12.2102  14.3601  14.3601  17.7671  20.0609

          k =-0.4167 0.4167-0.4167 (  3239 PWs)   bands (ev):

   -15.9301 -15.3794  -2.6805  -1.9469  -1.9469   2.2008   2.2950   2.2950
     9.7525  12.4030  12.4030  12.9274  15.1204  15.1204  17.6702  18.6307

          k = 0.5000-0.5000 0.5000 (  3214 PWs)   bands (ev):

   -15.8792 -15.4255  -2.7324  -1.9503  -1.9503   2.1745   2.2694   2.2694
     9.7485  12.4653  12.4653  13.4006  15.6234  15.6234  17.8265  17.9000

          k = 0.0000 0.1667 0.0000 (  3239 PWs)   bands (ev):

   -16.3006 -15.0688  -1.9329  -1.9329  -1.9221   2.5443   2.6873   2.6873
     8.7666  10.8904  11.3861  11.3861  13.2770  13.3084  15.6162  20.5552

          k =-0.0833 0.2500-0.0833 (  3251 PWs)   bands (ev):

   -16.2538 -15.1047  -2.0635  -1.9674  -1.9169   2.4262   2.6556   2.6650
     9.1662  10.6490  11.6243  11.6575  13.3639  13.4568  16.3688  20.2465

          k =-0.1667 0.3333-0.1667 (  3259 PWs)   bands (ev):

   -16.1724 -15.1691  -2.2670  -1.9953  -1.9276   2.3263   2.5630   2.5926
     9.6658  10.6491  11.9527  12.0104  13.5824  13.7847  17.4176  19.9238

          k =-0.2500 0.4167-0.2500 (  3252 PWs)   bands (ev):

   -16.0671 -15.2556  -2.4799  -2.0091  -1.9558   2.2663   2.4461   2.4919
     9.8261  11.2369  12.3042  12.3182  14.0391  14.3600  18.0141  20.0419

          k =-0.3333 0.5000-0.3333 (  3257 PWs)   bands (ev):

   -15.9578 -15.3494  -2.6473  -2.0053  -1.9933   2.2509   2.3420   2.3898
     9.8302  11.9172  12.5075  12.7227  14.7831  15.1267  17.8978  18.6410

          k = 0.5833-0.4167 0.5833 (  3243 PWs)   bands (ev):

   -15.8840 -15.4152  -2.7304  -2.0298  -1.9846   2.2360   2.3123   2.3195
     9.8358  12.1642  12.5773  13.2328  15.5920  15.5963  17.4132  17.9692

          k = 0.5000-0.3333 0.5000 (  3233 PWs)   bands (ev):

   -15.9002 -15.4010  -2.7111  -2.0552  -1.9526   2.2119   2.2780   2.3930
     9.8462  12.1529  12.5284  13.1161  15.0748  15.8166  17.2882  18.1621

          k = 0.4167-0.2500 0.4167 (  3244 PWs)   bands (ev):

   -15.9916 -15.3207  -2.5937  -2.0630  -1.9179   2.2324   2.2951   2.4967
     9.8604  11.8130  12.3400  12.5679  14.3394  15.0679  17.8965  18.6342

          k = 0.3333-0.1667 0.3333 (  3250 PWs)   bands (ev):

   -16.1028 -15.2268  -2.4046  -2.0509  -1.8898   2.3010   2.3609   2.6007
     9.8420  11.0737  12.0138  12.2556  13.8157  14.2445  17.9172  19.7172

          k = 0.2500-0.0833 0.2500 (  3261 PWs)   bands (ev):

   -16.2020 -15.1463  -2.1908  -2.0209  -1.8760   2.4078   2.4601   2.6752
     9.5329  10.7025  11.6486  11.9378  13.5129  13.6805  17.0674  19.8704

          k = 0.1667-0.0000 0.1667 (  3251 PWs)   bands (ev):

   -16.2732 -15.0904  -2.0206  -1.9704  -1.8800   2.5326   2.5670   2.6944
     9.0094  10.8480  11.3788  11.5694  13.3489  13.3927  16.0643  20.2326

          k = 0.0000 0.3333 0.0000 (  3251 PWs)   bands (ev):

   -16.2243 -15.1247  -2.0474  -2.0291  -2.0291   2.3329   2.7099   2.7099
     9.4005  10.2840  11.9537  11.9537  13.3228  13.5468  16.8492  20.6808

          k =-0.0833 0.4167-0.0833 (  3246 PWs)   bands (ev):

   -16.1613 -15.1707  -2.2410  -2.0803  -2.0450   2.2949   2.6860   2.6959
     9.8316  10.0845  12.3039  12.3412  13.4057  13.8041  17.7543  20.4354

          k =-0.1667 0.5000-0.1667 (  3253 PWs)   bands (ev):

   -16.0734 -15.2388  -2.4585  -2.1085  -2.0880   2.3132   2.5995   2.6294
     9.8665  10.6050  12.4526  12.6607  13.8890  14.3375  18.5855  20.0545

          k =-0.2500 0.5833-0.2500 (  3253 PWs)   bands (ev):

   -15.9757 -15.3189  -2.6377  -2.1511  -2.1066   2.3782   2.4833   2.5315
     9.8892  11.3005  12.4540  12.8400  14.7784  15.0839  18.1838  18.7749

          k = 0.6667-0.3333 0.6667 (  3231 PWs)   bands (ev):

   -15.8959 -15.3884  -2.7377  -2.2158  -2.0748   2.3703   2.4275   2.4752
     9.9849  11.6829  12.6795  12.9101  15.5104  15.7110  17.1896  18.1518

          k = 0.5833-0.2500 0.5833 (  3234 PWs)   bands (ev):

   -15.8780 -15.4061  -2.7377  -2.2638  -2.0205   2.2850   2.3420   2.5830
    10.0876  11.6798  12.8785  12.8818  15.0086  16.0494  17.0630  18.9160

          k = 0.5000-0.1667 0.5000 (  3243 PWs)   bands (ev):

   -15.9368 -15.3571  -2.6385  -2.2823  -1.9573   2.2418   2.2956   2.6800
    10.1604  11.4667  12.5941  12.7017  14.3061  16.1694  16.9989  18.9146

          k = 0.4167-0.0833 0.4167 (  3255 PWs)   bands (ev):

   -16.0320 -15.2792  -2.4649  -2.2634  -1.9027   2.2480   2.3014   2.7402
    10.2234  10.9023  12.3481  12.3883  13.8523  15.1712  18.1281  18.8571

          k = 0.3333 0.0000 0.3333 (  3254 PWs)   bands (ev):

   -16.1270 -15.2042  -2.2861  -2.1832  -1.8727   2.3056   2.3608   2.7414
    10.0524  10.5156  11.9419  12.2605  13.6282  14.2377  18.0192  19.3821

          k = 0.0000 0.5000 0.0000 (  3263 PWs)   bands (ev):

   -16.1207 -15.1940  -2.3370  -2.1571  -2.1571   2.3370   2.7484   2.7484
     9.6869  10.1362  12.8168  12.8168  13.2252  13.9175  18.4820  21.2714

          k =-0.0833 0.5833-0.0833 (  3260 PWs)   bands (ev):

   -16.0568 -15.2371  -2.5396  -2.2167  -2.2073   2.4327   2.7310   2.7399
     9.5281  10.5462  12.7853  13.2163  13.7739  14.3091  19.3627  20.0599

          k =-0.1667 0.6667-0.1667 (  3247 PWs)   bands (ev):

   -15.9807 -15.2946  -2.7142  -2.2914  -2.2194   2.5547   2.6492   2.6762
     9.5832  11.0691  12.4345  13.3874  14.8374  15.0026  18.2840  18.9639

          k = 0.7500-0.2500 0.7500 (  3244 PWs)   bands (ev):

   -15.9099 -15.3539  -2.8081  -2.3751  -2.1907   2.5295   2.5758   2.6811
     9.8104  11.5952  12.1319  13.4462  15.4085  15.9259  17.0725  18.3661

          k = 0.6667-0.1667 0.6667 (  3241 PWs)   bands (ev):

   -15.8716 -15.3912  -2.7996  -2.4474  -2.1268   2.4101   2.4633   2.7813
    10.1398  11.5344  12.3359  13.4357  14.9410  15.7404  17.6160  19.0828

          k = 0.5833-0.0833 0.5833 (  3234 PWs)   bands (ev):

   -15.8896 -15.3830  -2.6887  -2.4910  -2.0425   2.3124   2.3649   2.8354
    10.4745  11.1778  12.4409  13.2764  14.2718  15.8079  17.7568  19.5170

          k = 0.5000 0.0000 0.5000 (  3250 PWs)   bands (ev):

   -15.9532 -15.3371  -2.4970  -2.4958  -1.9597   2.2540   2.3046   2.8241
    10.7156  10.7296  12.3708  12.8394  13.9466  16.3002  16.9602  19.5223

          k = 0.0000 0.6667 0.0000 (  3246 PWs)   bands (ev):

   -16.0210 -15.2517  -2.7206  -2.2812  -2.2812   2.5878   2.7952   2.7952
     9.2221  10.6788  13.1893  13.8718  13.8718  14.3643  19.9335  19.9335

          k =-0.0833 0.7500-0.0833 (  3242 PWs)   bands (ev):

   -15.9726 -15.2814  -2.8834  -2.3428  -2.3142   2.7388   2.7792   2.7851
     9.1619  10.8951  12.9800  14.1094  14.8144  14.9129  18.4112  18.9845

          k = 0.8333-0.1667 0.8333 (  3245 PWs)   bands (ev):

   -15.9218 -15.3215  -2.9636  -2.4185  -2.2992   2.6882   2.7159   2.8639
     9.3489  11.2427  12.5615  14.1328  15.3310  16.0498  17.0417  18.4352

          k = 0.7500-0.0833 0.7500 (  3239 PWs)   bands (ev):

   -15.8817 -15.3614  -2.9402  -2.4936  -2.2390   2.5614   2.6054   2.9296
     9.7291  11.7011  12.0594  14.1451  14.9005  15.8324  17.6516  19.0339

          k = 0.6667-0.0000 0.6667 (  3236 PWs)   bands (ev):

   -15.8682 -15.3857  -2.8226  -2.5412  -2.1460   2.4266   2.4784   2.9226
    10.2040  11.5086  12.1504  13.9726  14.2938  15.4441  18.8963  19.0980

          k = 0.0000 0.8333 0.0000 (  3254 PWs)   bands (ev):

   -15.9542 -15.2826  -3.0353  -2.3697  -2.3697   2.8336   2.8336   2.8937
     8.9327  10.7861  13.5726  14.7693  14.9658  14.9658  18.5491  18.5491

          k = 0.9167-0.0833 0.9167 (  3267 PWs)   bands (ev):

   -15.9294 -15.2987  -3.1026  -2.4093  -2.3747   2.8053   2.8134   2.9862
     8.9728  10.8719  13.4095  14.7648  15.3919  15.8606  17.2842  18.1358

          k = 0.8333 0.0000 0.8333 (  3254 PWs)   bands (ev):

   -15.9033 -15.3271  -3.0657  -2.4594  -2.3282   2.7050   2.7314   3.0003
     9.2659  11.1873  12.7895  14.6944  15.0845  16.3371  16.9863  18.5213

          k = 0.0000-1.0000 0.0000 (  3250 PWs)   bands (ev):

   -15.9320 -15.2906  -3.1548  -2.4016  -2.4016   2.8487   2.8487   3.0297
     8.8349  10.7383  13.9120  14.9433  15.6056  15.6056  17.8214  17.8214

          k =-0.1667 0.3333 0.0000 (  3244 PWs)   bands (ev):

   -16.1981 -15.1468  -2.1615  -2.0711  -1.9213   2.3299   2.5717   2.7174
     9.5958  10.4000  11.8676  12.0507  13.4445  13.6895  17.1812  20.0771

          k =-0.2500 0.4167-0.0833 (  3246 PWs)   bands (ev):

   -16.1130 -15.2130  -2.3511  -2.1420  -1.9347   2.2806   2.4590   2.7070
     9.9886  10.4995  12.2143  12.3265  13.6629  14.2356  18.1564  19.6094

          k =-0.3333 0.5000-0.1667 (  3255 PWs)   bands (ev):

   -16.0117 -15.2954  -2.5497  -2.1780  -1.9660   2.2818   2.3561   2.6392
     9.9930  11.1746  12.4463  12.5658  14.1217  15.1024  18.1482  18.8419

          k = 0.5833-0.4167 0.7500 (  3240 PWs)   bands (ev):

   -15.9180 -15.3751  -2.6915  -2.1926  -1.9996   2.2708   2.3466   2.5386
     9.9944  11.6816  12.7128  12.7738  14.8186  15.9615  17.1577  18.6435

          k = 0.5000-0.3333 0.6667 (  3238 PWs)   bands (ev):

   -15.8756 -15.4123  -2.7425  -2.1953  -2.0146   2.2474   2.4296   2.4349
    10.0028  11.7939  12.8132  13.0092  15.2564  16.1418  16.8732  18.4148

          k =-0.1667 0.5000 0.0000 (  3245 PWs)   bands (ev):

   -16.0967 -15.2163  -2.3877  -2.2046  -2.0667   2.3254   2.6076   2.7567
     9.8641  10.2925  12.5240  12.7367  13.5678  14.2243  18.6507  19.8516

          k =-0.2500 0.5833-0.0833 (  3238 PWs)   bands (ev):

   -16.0145 -15.2784  -2.5679  -2.2965  -2.0868   2.4059   2.4960   2.7529
     9.8564  10.8349  12.3808  13.0961  14.0435  15.0868  18.3669  19.3850

          k = 0.6667-0.3333 0.8333 (  3243 PWs)   bands (ev):

   -15.9318 -15.3453  -2.7086  -2.3599  -2.1005   2.3864   2.5154   2.6884
     9.9810  11.3427  12.2494  13.2529  14.7688  16.0348  17.1677  18.8632

          k = 0.5833-0.2500 0.7500 (  3238 PWs)   bands (ev):

   -15.8774 -15.3926  -2.7659  -2.4056  -2.0889   2.3049   2.5846   2.6327
    10.1695  11.4269  12.4673  13.2947  15.0034  16.3976  16.7793  18.8178

          k = 0.5000-0.1667 0.6667 (  3235 PWs)   bands (ev):

   -15.8841 -15.3895  -2.7251  -2.4285  -2.0502   2.2675   2.4713   2.7305
    10.3079  11.2914  12.5141  13.2473  14.6561  16.0639  17.2781  19.2221

          k = 0.4167-0.0833 0.5833 (  3243 PWs)   bands (ev):

   -15.9475 -15.3393  -2.5970  -2.4161  -1.9986   2.2812   2.3710   2.7874
    10.3364  11.0320  12.3334  13.0392  14.1214  16.2361  17.0188  19.4127

          k = 0.3333 0.0000 0.5000 (  3247 PWs)   bands (ev):

   -16.0328 -15.2732  -2.4441  -2.3309  -1.9543   2.2936   2.3571   2.7823
    10.3087  10.5829  12.3479  12.6241  13.8001  15.1695  18.2217  19.0631

          k =-0.1667 0.6667-0.0000 (  3262 PWs)   bands (ev):

   -16.0003 -15.2732  -2.7106  -2.3337  -2.2155   2.5709   2.6553   2.8034
     9.4308  10.8643  12.6158  13.8162  14.0489  15.0015  18.5311  19.7728

          k = 0.7500-0.2500 0.9167 (  3243 PWs)   bands (ev):

   -15.9384 -15.3192  -2.8327  -2.4333  -2.2122   2.5398   2.7110   2.7991
     9.5671  11.2670  12.2374  13.9508  14.7641  15.9905  17.2712  18.8920

          k = 0.6667-0.1667 0.8333 (  3243 PWs)   bands (ev):

   -15.8875 -15.3628  -2.8680  -2.5165  -2.1844   2.4223   2.7285   2.8232
     9.8863  11.6371  11.8935  13.9438  14.9781  16.4325  16.8922  18.7882

          k = 0.5833-0.0833 0.7500 (  3235 PWs)   bands (ev):

   -15.8682 -15.3857  -2.8032  -2.5762  -2.1296   2.3279   2.6165   2.8829
    10.3110  11.2785  12.1514  13.9182  14.5097  15.7404  18.0223  19.3838

          k = 0.5000 0.0000 0.6667 (  3235 PWs)   bands (ev):

   -15.8922 -15.3751  -2.6526  -2.5952  -2.0605   2.2770   2.4875   2.8733
    10.7268  10.8032  12.2597  13.6595  14.1393  15.8487  17.8170  19.4266

          k = 0.8333-0.1667 1.0000 (  3252 PWs)   bands (ev):

   -15.9372 -15.3024  -2.9979  -2.4256  -2.3102   2.6942   2.8424   2.8788
     9.1573  11.0088  12.8814  14.5845  14.9433  15.8160  17.4248  18.5262

          k = 0.7500-0.0833 0.9167 (  3243 PWs)   bands (ev):

   -15.9018 -15.3324  -3.0189  -2.5070  -2.2746   2.5700   2.8276   2.9583
     9.4057  11.2783  12.4392  14.5094  15.2555  16.6261  16.7111  18.2302

          k = 0.6667 0.0000 0.8333 (  3249 PWs)   bands (ev):

   -15.8757 -15.3638  -2.9414  -2.5696  -2.2114   2.4374   2.7450   2.9617
     9.8413  11.6918  11.8395  14.3457  14.8289  15.9305  17.8196  18.6100

          k =-0.1667-1.0000-0.0000 (  3250 PWs)   bands (ev):

   -15.9168 -15.3093  -3.1099  -2.4587  -2.3426   2.7105   2.8573   3.0152
     9.0643  10.9589  13.1570  14.7767  15.6107  16.1967  17.0064  17.7842

          k = 0.6667-0.3333 1.0000 (  3240 PWs)   bands (ev):

   -15.9479 -15.3256  -2.6673  -2.4727  -2.0947   2.3862   2.5318   2.8304
    10.0089  11.1025  12.1117  13.6975  14.1226  16.1681  17.1472  19.5993

          k = 0.5833-0.2500 0.9167 (  3242 PWs)   bands (ev):

   -15.8914 -15.3678  -2.7456  -2.5817  -2.1085   2.3100   2.6624   2.8345
    10.2798  11.1503  12.0444  13.9058  14.5388  16.1513  17.3762  19.0185

          k = 0.5000-0.1667 0.8333 (  3246 PWs)   bands (ev):

   -15.8682 -15.3857  -2.7772  -2.6162  -2.1148   2.2828   2.7634   2.7801
    10.4830  10.9991  12.1521  13.8909  14.6484  16.4362  17.0300  19.4777

          k = 0.6667-0.1667 1.0000 (  3241 PWs)   bands (ev):

   -15.8977 -15.3470  -2.8908  -2.5729  -2.1879   2.4211   2.8383   2.8696
     9.7937  11.4758  11.8388  14.3606  14.8845  16.3077  17.2241  18.4513

          k = 0.5833-0.0833 0.9167 (  3239 PWs)   bands (ev):

   -15.8707 -15.3697  -2.8684  -2.6774  -2.1607   2.3314   2.8634   2.9120
    10.2044  11.2697  11.7773  14.1316  15.1419  16.4218  17.2505  18.2965

          k = 0.5000 0.0000 0.8333 (  3241 PWs)   bands (ev):

   -15.8680 -15.3777  -2.7629  -2.7346  -2.1320   2.2908   2.7879   2.9128
    10.7039  10.7416  11.9454  14.1049  14.8212  15.9862  18.1140  18.2698

          k =-0.3333-1.0000 0.0000 (  3244 PWs)   bands (ev):

   -15.8833 -15.3499  -2.9837  -2.6089  -2.2177   2.4358   2.8845   2.9768
     9.7177  11.4581  11.9099  14.3093  15.6208  16.6535  16.9516  17.6652

          k =-0.5000-1.0000 0.0000 (  3248 PWs)   bands (ev):

   -15.8645 -15.3722  -2.8023  -2.8023  -2.1512   2.2982   2.9279   2.9279
    10.7064  10.7064  11.7662  13.9954  15.6259  16.5985  17.4217  17.4217

     the Fermi energy is     7.1871 ev

!    total energy              =     -88.38355829 Ry
     estimated scf accuracy    <          7.9E-13 Ry
     smearing contrib. (-TS)   =      -0.00000000 Ry
     internal energy E=F+TS    =     -88.38355829 Ry

     The total energy is F=E-TS. E is the sum of the following terms:
     one-electron contribution =     -32.06510129 Ry
     hartree contribution      =      24.00853370 Ry
     xc contribution           =     -15.78141644 Ry
     ewald contribution        =     -64.54557426 Ry

     convergence has been achieved in   9 iterations

     Writing all to output data dir out/mp-1784.save/
 
     init_run     :      0.29s CPU      0.31s WALL (       1 calls)
     electrons    :     11.79s CPU     16.30s WALL (       1 calls)

     Called by init_run:
     wfcinit      :      0.25s CPU      0.26s WALL (       1 calls)
     potinit      :      0.01s CPU      0.01s WALL (       1 calls)
     hinit0       :      0.01s CPU      0.01s WALL (       1 calls)

     Called by electrons:
     c_bands      :     11.01s CPU     14.80s WALL (       9 calls)
     sum_band     :      0.75s CPU      0.77s WALL (       9 calls)
     v_of_rho     :      0.02s CPU      0.02s WALL (      10 calls)
     mix_rho      :      0.00s CPU      0.00s WALL (       9 calls)

     Called by c_bands:
     init_us_2    :      0.05s CPU      0.05s WALL (    1368 calls)
     init_us_2:cp :      0.05s CPU      0.05s WALL (    1368 calls)
     paro_k       :     10.85s CPU     11.34s WALL (     648 calls)

     Called by paro_*:
     h_psi        :      9.44s CPU      9.86s WALL (   12560 calls)
     g_psi        :      0.08s CPU      0.09s WALL (   76822 calls)

     Called by h_psi:
     h_psi:calbec :      0.20s CPU      0.21s WALL (   12560 calls)
     vloc_psi     :      9.09s CPU      9.49s WALL (   12560 calls)
     add_vuspsi   :      0.10s CPU      0.10s WALL (   12560 calls)

     General routines
     calbec       :      0.19s CPU      0.20s WALL (   12560 calls)
     fft          :      0.01s CPU      0.02s WALL (      99 calls)
     ffts         :      0.00s CPU      0.00s WALL (       9 calls)
     fftw         :      9.29s CPU      9.68s WALL (  144066 calls)
 
     Parallel routines
 
     PWSCF        :     12.24s CPU     17.23s WALL

 
   This run was terminated on:  15:11:12   8Apr2024            

=------------------------------------------------------------------------------=
   JOB DONE.
=------------------------------------------------------------------------------=
