
     Program PWSCF v.7.1 starts on  3Jan2024 at 14:29:15 

     This program is part of the open-source Quantum ESPRESSO suite
     for quantum simulation of materials; please cite
         "P. Giannozzi et al., J. Phys.:Condens. Matter 21 395502 (2009);
         "P. Giannozzi et al., J. Phys.:Condens. Matter 29 465901 (2017);
         "P. Giannozzi et al., J. Chem. Phys. 152 154105 (2020);
          URL http://www.quantum-espresso.org", 
     in publications or presentations arising from this work. More details at
     http://www.quantum-espresso.org/quote

     Parallel version (MPI), running on     8 processors

     MPI processes distributed on     1 nodes
     248625 MiB available memory on the printing compute node when the environment starts
 
     Reading input from pw_mp-1500_scf_k3000_E65.in
Warning: card &CELL ignored
Warning: card / ignored

     Current dimensions of program PWSCF are:
     Max number of different atomic species (ntypx) = 10
     Max number of k-points (npk) =  40000
     Max angular momentum in pseudopotentials (lmaxx) =  4
 
     R & G space division:  proc/nbgrp/npool/nimage =       8
     Subspace diagonalization in iterative solution of the eigenvalue problem:
     a serial algorithm will be used

 
     Parallelization info
     --------------------
     sticks:   dense  smooth     PW     G-vecs:    dense   smooth      PW
     Min         166     166     47                 3993     3993     627
     Max         167     167     48                 3996     3996     631
     Sum        1333    1333    379                31951    31951    5029
 
     Using Slab Decomposition
 


     bravais-lattice index     =            2
     lattice parameter (alat)  =      12.1913  a.u.
     unit-cell volume          =     452.9900 (a.u.)^3
     number of atoms/cell      =            2
     number of atomic types    =            2
     number of electrons       =        16.00
     number of Kohn-Sham states=           16
     kinetic-energy cutoff     =      65.0000  Ry
     charge density cutoff     =     260.0000  Ry
     scf convergence threshold =      1.0E-10
     mixing beta               =       0.7000
     number of iterations used =            8  plain     mixing
     Exchange-correlation= PBE
                           (   1   4   3   4   0   0   0)

     celldm(1)=  12.191286  celldm(2)=   0.000000  celldm(3)=   0.000000
     celldm(4)=   0.000000  celldm(5)=   0.000000  celldm(6)=   0.000000

     crystal axes: (cart. coord. in units of alat)
               a(1) = (  -0.500000   0.000000   0.500000 )  
               a(2) = (   0.000000   0.500000   0.500000 )  
               a(3) = (  -0.500000   0.500000   0.000000 )  

     reciprocal axes: (cart. coord. in units 2 pi/alat)
               b(1) = ( -1.000000 -1.000000  1.000000 )  
               b(2) = (  1.000000  1.000000  1.000000 )  
               b(3) = ( -1.000000  1.000000 -1.000000 )  


     PseudoPot. # 1 for Ba read from file:
     /usr/scratch4/magr4985/MG/devEb/pseudo/SG15/Ba.upf
     MD5 check sum: e41eb7508bab73859f43c2f9f93c7154
     Pseudo is Norm-conserving, Zval = 10.0
     Generated using ONCVPSP code by D. R. Hamann
     Using radial grid of  602 points,  8 beta functions with: 
                l(1) =   0
                l(2) =   0
                l(3) =   1
                l(4) =   1
                l(5) =   2
                l(6) =   2
                l(7) =   3
                l(8) =   3

     PseudoPot. # 2 for S  read from file:
     /usr/scratch4/magr4985/MG/devEb/pseudo/SG15/S.upf
     MD5 check sum: f71d1a2a52b6d571906ac9250480b432
     Pseudo is Norm-conserving, Zval =  6.0
     Generated using ONCVPSP code by D. R. Hamann
     Using radial grid of  602 points,  4 beta functions with: 
                l(1) =   0
                l(2) =   0
                l(3) =   1
                l(4) =   1

     atomic species   valence    mass     pseudopotential
        Ba            10.00   137.32700     Ba( 1.00)
        S              6.00    32.06500     S ( 1.00)

     48 Sym. Ops., with inversion, found



   Cartesian axes

     site n.     atom                  positions (alat units)
         1           Ba  tau(   1) = (   0.0000000   0.0000000   0.0000000  )
         2           S   tau(   2) = (  -0.5000000   0.5000000   0.5000000  )

     number of k points=    72  Gaussian smearing, width (Ry)=  0.0005
                       cart. coord. in units 2pi/alat
        k(    1) = (   0.0000000   0.0000000   0.0000000), wk =   0.0011574
        k(    2) = (  -0.0833333   0.0833333  -0.0833333), wk =   0.0092593
        k(    3) = (  -0.1666667   0.1666667  -0.1666667), wk =   0.0092593
        k(    4) = (  -0.2500000   0.2500000  -0.2500000), wk =   0.0092593
        k(    5) = (  -0.3333333   0.3333333  -0.3333333), wk =   0.0092593
        k(    6) = (  -0.4166667   0.4166667  -0.4166667), wk =   0.0092593
        k(    7) = (   0.5000000  -0.5000000   0.5000000), wk =   0.0046296
        k(    8) = (   0.0000000   0.1666667   0.0000000), wk =   0.0069444
        k(    9) = (  -0.0833333   0.2500000  -0.0833333), wk =   0.0277778
        k(   10) = (  -0.1666667   0.3333333  -0.1666667), wk =   0.0277778
        k(   11) = (  -0.2500000   0.4166667  -0.2500000), wk =   0.0277778
        k(   12) = (  -0.3333333   0.5000000  -0.3333333), wk =   0.0277778
        k(   13) = (   0.5833333  -0.4166667   0.5833333), wk =   0.0277778
        k(   14) = (   0.5000000  -0.3333333   0.5000000), wk =   0.0277778
        k(   15) = (   0.4166667  -0.2500000   0.4166667), wk =   0.0277778
        k(   16) = (   0.3333333  -0.1666667   0.3333333), wk =   0.0277778
        k(   17) = (   0.2500000  -0.0833333   0.2500000), wk =   0.0277778
        k(   18) = (   0.1666667  -0.0000000   0.1666667), wk =   0.0138889
        k(   19) = (   0.0000000   0.3333333   0.0000000), wk =   0.0069444
        k(   20) = (  -0.0833333   0.4166667  -0.0833333), wk =   0.0277778
        k(   21) = (  -0.1666667   0.5000000  -0.1666667), wk =   0.0277778
        k(   22) = (  -0.2500000   0.5833333  -0.2500000), wk =   0.0277778
        k(   23) = (   0.6666667  -0.3333333   0.6666667), wk =   0.0277778
        k(   24) = (   0.5833333  -0.2500000   0.5833333), wk =   0.0277778
        k(   25) = (   0.5000000  -0.1666667   0.5000000), wk =   0.0277778
        k(   26) = (   0.4166667  -0.0833333   0.4166667), wk =   0.0277778
        k(   27) = (   0.3333333   0.0000000   0.3333333), wk =   0.0138889
        k(   28) = (   0.0000000   0.5000000   0.0000000), wk =   0.0069444
        k(   29) = (  -0.0833333   0.5833333  -0.0833333), wk =   0.0277778
        k(   30) = (  -0.1666667   0.6666667  -0.1666667), wk =   0.0277778
        k(   31) = (   0.7500000  -0.2500000   0.7500000), wk =   0.0277778
        k(   32) = (   0.6666667  -0.1666667   0.6666667), wk =   0.0277778
        k(   33) = (   0.5833333  -0.0833333   0.5833333), wk =   0.0277778
        k(   34) = (   0.5000000   0.0000000   0.5000000), wk =   0.0138889
        k(   35) = (   0.0000000   0.6666667   0.0000000), wk =   0.0069444
        k(   36) = (  -0.0833333   0.7500000  -0.0833333), wk =   0.0277778
        k(   37) = (   0.8333333  -0.1666667   0.8333333), wk =   0.0277778
        k(   38) = (   0.7500000  -0.0833333   0.7500000), wk =   0.0277778
        k(   39) = (   0.6666667  -0.0000000   0.6666667), wk =   0.0138889
        k(   40) = (   0.0000000   0.8333333   0.0000000), wk =   0.0069444
        k(   41) = (   0.9166667  -0.0833333   0.9166667), wk =   0.0277778
        k(   42) = (   0.8333333   0.0000000   0.8333333), wk =   0.0138889
        k(   43) = (   0.0000000  -1.0000000   0.0000000), wk =   0.0034722
        k(   44) = (  -0.1666667   0.3333333   0.0000000), wk =   0.0277778
        k(   45) = (  -0.2500000   0.4166667  -0.0833333), wk =   0.0555556
        k(   46) = (  -0.3333333   0.5000000  -0.1666667), wk =   0.0555556
        k(   47) = (   0.5833333  -0.4166667   0.7500000), wk =   0.0555556
        k(   48) = (   0.5000000  -0.3333333   0.6666667), wk =   0.0277778
        k(   49) = (  -0.1666667   0.5000000   0.0000000), wk =   0.0277778
        k(   50) = (  -0.2500000   0.5833333  -0.0833333), wk =   0.0555556
        k(   51) = (   0.6666667  -0.3333333   0.8333333), wk =   0.0555556
        k(   52) = (   0.5833333  -0.2500000   0.7500000), wk =   0.0555556
        k(   53) = (   0.5000000  -0.1666667   0.6666667), wk =   0.0555556
        k(   54) = (   0.4166667  -0.0833333   0.5833333), wk =   0.0555556
        k(   55) = (   0.3333333   0.0000000   0.5000000), wk =   0.0277778
        k(   56) = (  -0.1666667   0.6666667  -0.0000000), wk =   0.0277778
        k(   57) = (   0.7500000  -0.2500000   0.9166667), wk =   0.0555556
        k(   58) = (   0.6666667  -0.1666667   0.8333333), wk =   0.0555556
        k(   59) = (   0.5833333  -0.0833333   0.7500000), wk =   0.0555556
        k(   60) = (   0.5000000   0.0000000   0.6666667), wk =   0.0277778
        k(   61) = (   0.8333333  -0.1666667   1.0000000), wk =   0.0277778
        k(   62) = (   0.7500000  -0.0833333   0.9166667), wk =   0.0555556
        k(   63) = (   0.6666667   0.0000000   0.8333333), wk =   0.0277778
        k(   64) = (  -0.1666667  -1.0000000  -0.0000000), wk =   0.0138889
        k(   65) = (   0.6666667  -0.3333333   1.0000000), wk =   0.0277778
        k(   66) = (   0.5833333  -0.2500000   0.9166667), wk =   0.0555556
        k(   67) = (   0.5000000  -0.1666667   0.8333333), wk =   0.0277778
        k(   68) = (   0.6666667  -0.1666667   1.0000000), wk =   0.0277778
        k(   69) = (   0.5833333  -0.0833333   0.9166667), wk =   0.0555556
        k(   70) = (   0.5000000   0.0000000   0.8333333), wk =   0.0277778
        k(   71) = (  -0.3333333  -1.0000000   0.0000000), wk =   0.0138889
        k(   72) = (  -0.5000000  -1.0000000   0.0000000), wk =   0.0069444

     Dense  grid:    31951 G-vectors     FFT dimensions: (  45,  45,  45)

     Estimated max dynamical RAM per process >      18.32 MB

     Estimated total dynamical RAM >     146.53 MB

     Initial potential from superposition of free atoms

     starting charge      15.5979, renormalised to      16.0000
     Starting wfcs are random

     total cpu time spent up to now is        0.6 secs

     Self-consistent Calculation

     iteration #  1     ecut=    65.00 Ry     beta= 0.70
     ParO style diagonalization
     c_bands:  1 eigenvalues not converged
     c_bands:  1 eigenvalues not converged
     c_bands:  1 eigenvalues not converged
     c_bands:  1 eigenvalues not converged
     c_bands:  1 eigenvalues not converged
     c_bands:  1 eigenvalues not converged
     c_bands:  1 eigenvalues not converged
     c_bands:  1 eigenvalues not converged
     c_bands:  1 eigenvalues not converged
     ethr =  5.00E-06,  avg # of iterations = 33.4

     total cpu time spent up to now is       14.0 secs

     total energy              =     -72.14129921 Ry
     estimated scf accuracy    <       0.21621175 Ry

     iteration #  2     ecut=    65.00 Ry     beta= 0.70
     ParO style diagonalization
     ethr =  1.35E-03,  avg # of iterations =  9.7

     total cpu time spent up to now is       18.4 secs

     total energy              =     -72.19407084 Ry
     estimated scf accuracy    <       0.16100904 Ry

     iteration #  3     ecut=    65.00 Ry     beta= 0.70
     ParO style diagonalization
     ethr =  1.01E-03,  avg # of iterations =  6.6

     total cpu time spent up to now is       21.6 secs

     total energy              =     -72.22898857 Ry
     estimated scf accuracy    <       0.00187075 Ry

     iteration #  4     ecut=    65.00 Ry     beta= 0.70
     ParO style diagonalization
     c_bands:  1 eigenvalues not converged
     ethr =  1.17E-05,  avg # of iterations = 10.0

     total cpu time spent up to now is       25.9 secs

     total energy              =     -72.22928935 Ry
     estimated scf accuracy    <       0.00002933 Ry

     iteration #  5     ecut=    65.00 Ry     beta= 0.70
     ParO style diagonalization
     c_bands:  1 eigenvalues not converged
     c_bands:  1 eigenvalues not converged
     ethr =  1.83E-07,  avg # of iterations = 10.4

     total cpu time spent up to now is       30.4 secs

     total energy              =     -72.22929505 Ry
     estimated scf accuracy    <       0.00000079 Ry

     iteration #  6     ecut=    65.00 Ry     beta= 0.70
     ParO style diagonalization
     c_bands:  1 eigenvalues not converged
     c_bands:  1 eigenvalues not converged
     c_bands:  1 eigenvalues not converged
     ethr =  4.93E-09,  avg # of iterations = 11.9

     total cpu time spent up to now is       35.5 secs

     total energy              =     -72.22929530 Ry
     estimated scf accuracy    <       0.00000019 Ry

     iteration #  7     ecut=    65.00 Ry     beta= 0.70
     ParO style diagonalization
     c_bands:  1 eigenvalues not converged
     ethr =  1.16E-09,  avg # of iterations =  9.5

     total cpu time spent up to now is       39.7 secs

     total energy              =     -72.22929534 Ry
     estimated scf accuracy    <          4.8E-09 Ry

     iteration #  8     ecut=    65.00 Ry     beta= 0.70
     ParO style diagonalization
     c_bands:  1 eigenvalues not converged
     ethr =  3.01E-11,  avg # of iterations = 11.1

     total cpu time spent up to now is       44.5 secs

     End of self-consistent calculation

          k = 0.0000 0.0000 0.0000 (  4015 PWs)   bands (ev):

   -20.5643  -5.6333  -5.6333  -5.6333  -4.7729   5.4782   5.4782   5.4782
     9.0152   9.4399   9.4399   9.4399  10.3377  10.3377  12.9011  15.3094

          k =-0.0833 0.0833-0.0833 (  3975 PWs)   bands (ev):

   -20.5617  -5.7671  -5.6357  -5.6357  -4.6335   5.2950   5.3927   5.3927
     9.2553   9.4547   9.5357   9.5357  10.5231  10.5231  13.1047  15.2770

          k =-0.1667 0.1667-0.1667 (  3993 PWs)   bands (ev):

   -20.5547  -6.0261  -5.6422  -5.6422  -4.3589   4.8762   5.1811   5.1811
     9.4248   9.8132   9.8132   9.9662  11.0342  11.0342  13.6054  15.1475

          k =-0.2500 0.2500-0.2500 (  3996 PWs)   bands (ev):

   -20.5451  -6.2812  -5.6510  -5.6510  -4.0817   4.4151   4.9307   4.9307
     9.5817  10.2519  10.2519  10.7645  11.7708  11.7708  14.1450  14.8697

          k =-0.3333 0.3333-0.3333 (  3996 PWs)   bands (ev):

   -20.5354  -6.4849  -5.6597  -5.6597  -3.8547   4.0260   4.7121   4.7121
     9.9071  10.8179  10.8179  11.4063  12.6182  12.6182  14.4200  14.4228

          k =-0.4167 0.4167-0.4167 (  4005 PWs)   bands (ev):

   -20.5283  -6.6148  -5.6661  -5.6661  -3.7069   3.7706   4.5670   4.5670
    10.3979  11.4255  11.4255  11.4572  13.3356  13.3356  14.0003  14.0003

          k = 0.5000-0.5000 0.5000 (  3996 PWs)   bands (ev):

   -20.5257  -6.6593  -5.6684  -5.6684  -3.6555   3.6818   4.5166   4.5166
    10.9624  11.0045  11.7669  11.7669  13.3031  13.3031  14.2672  14.2672

          k = 0.0000 0.1667 0.0000 (  3975 PWs)   bands (ev):

   -20.5609  -5.7839  -5.6449  -5.6449  -4.6009   5.1236   5.4450   5.4450
     9.2489   9.2830   9.6651   9.6651  10.3940  10.8014  13.1636  15.2745

          k =-0.0833 0.2500-0.0833 (  3998 PWs)   bands (ev):

   -20.5553  -5.9712  -5.6574  -5.6494  -4.4030   4.7940   5.3006   5.3392
     9.1528   9.6505   9.9473   9.9656  10.6326  11.4035  13.5471  15.1518

          k =-0.1667 0.3333-0.1667 (  3998 PWs)   bands (ev):

   -20.5466  -6.2038  -5.6696  -5.6545  -4.1613   4.4453   5.0262   5.1280
     9.2264  10.1889  10.4116  10.4446  11.1839  12.1742  14.0611  14.8714

          k =-0.2500 0.4167-0.2500 (  3997 PWs)   bands (ev):

   -20.5370  -6.4089  -5.6784  -5.6649  -3.9447   4.1317   4.7666   4.8918
     9.4869  10.7232  10.9740  11.1193  11.9334  12.9173  14.4059  14.4127

          k =-0.3333 0.5000-0.3333 (  4000 PWs)   bands (ev):

   -20.5290  -6.5543  -5.6814  -5.6783  -3.7878   3.8944   4.6010   4.6925
     9.9311  11.2805  11.4734  11.5580  12.7470  13.4050  13.8924  14.4172

          k = 0.5833-0.4167 0.5833 (  4008 PWs)   bands (ev):

   -20.5249  -6.6239  -5.6907  -5.6778  -3.7102   3.7710   4.5535   4.5671
    10.5104  11.0717  11.8135  11.8978  13.3110  13.5641  13.9071  14.0867

          k = 0.5000-0.3333 0.5000 (  4007 PWs)   bands (ev):

   -20.5258  -6.6110  -5.6986  -5.6687  -3.7212   3.7859   4.5342   4.6213
    10.4636  11.1297  11.4149  12.0188  13.0837  13.7286  13.8405  14.2813

          k = 0.4167-0.2500 0.4167 (  3997 PWs)   bands (ev):

   -20.5314  -6.5172  -5.6994  -5.6564  -3.8205   3.9435   4.5984   4.7878
     9.9415  10.8082  11.3234  11.5213  12.4967  13.3809  14.1064  14.4924

          k = 0.3333-0.1667 0.3333 (  3990 PWs)   bands (ev):

   -20.5402  -6.3525  -5.6923  -5.6441  -3.9971   4.2274   4.7517   5.0205
     9.5747  10.2575  10.7768  10.9125  11.9498  12.5223  14.3158  14.4887

          k = 0.2500-0.0833 0.2500 (  3990 PWs)   bands (ev):

   -20.5498  -6.1379  -5.6778  -5.6352  -4.2277   4.6006   4.9704   5.2591
     9.3929   9.8422  10.0731  10.3621  11.2584  11.6818  13.8966  14.8700

          k = 0.1667-0.0000 0.1667 (  3971 PWs)   bands (ev):

   -20.5577  -5.9151  -5.6570  -5.6321  -4.4693   4.9989   5.2083   5.4074
     9.3712   9.5451   9.5959   9.8927  10.6960  10.9824  13.3984  15.1603

          k = 0.0000 0.3333 0.0000 (  3983 PWs)   bands (ev):

   -20.5516  -6.0151  -5.6766  -5.6766  -4.3427   4.5572   5.3792   5.3792
     8.8288   9.6834  10.2830  10.2830  10.5560  12.0734  13.7565  15.1688

          k =-0.0833 0.4167-0.0833 (  3998 PWs)   bands (ev):

   -20.5444  -6.1509  -5.6948  -5.6890  -4.2181   4.3523   5.2417   5.2828
     8.7209  10.0586  10.6973  10.7123  10.8501  12.8375  14.1398  14.9029

          k =-0.1667 0.5000-0.1667 (  4003 PWs)   bands (ev):

   -20.5357  -6.3096  -5.7070  -5.7020  -4.0774   4.2106   4.9783   5.0956
     8.8503  10.6989  11.1475  11.2454  11.4201  13.3819  14.4653  14.4994

          k =-0.2500 0.5833-0.2500 (  4007 PWs)   bands (ev):

   -20.5278  -6.4413  -5.7239  -5.7102  -3.9526   4.1140   4.7430   4.8858
     9.1985  11.3033  11.5997  11.7945  12.1473  13.3548  13.9553  14.6177

          k = 0.6667-0.3333 0.6667 (  4004 PWs)   bands (ev):

   -20.5229  -6.5215  -5.7498  -5.7034  -3.8643   4.0207   4.6563   4.7084
     9.7352  11.1612  11.9512  12.1525  13.0192  13.5627  13.7447  13.9611

          k = 0.5833-0.2500 0.5833 (  4003 PWs)   bands (ev):

   -20.5222  -6.5399  -5.7705  -5.6885  -3.8265   3.9481   4.5973   4.7303
    10.3591  10.6509  11.5349  12.2242  13.3752  13.8772  13.9241  14.0281

          k = 0.5000-0.1667 0.5000 (  4005 PWs)   bands (ev):

   -20.5260  -6.4968  -5.7767  -5.6693  -3.8487   3.9568   4.5700   4.8983
    10.0524  10.9531  10.9797  11.7576  12.7697  14.0829  14.1962  14.5993

          k = 0.4167-0.0833 0.4167 (  4007 PWs)   bands (ev):

   -20.5332  -6.4017  -5.7622  -5.6510  -3.9329   4.0753   4.6311   5.0920
     9.6754  10.4339  10.7158  11.5690  12.2540  13.3509  14.2112  14.5875

          k = 0.3333 0.0000 0.3333 (  4007 PWs)   bands (ev):

   -20.5419  -6.2733  -5.7263  -5.6385  -4.0688   4.3001   4.7724   5.2366
     9.4614  10.0532  10.2773  10.9933  11.8338  12.4866  14.2863  14.4293

          k = 0.0000 0.5000 0.0000 (  4016 PWs)   bands (ev):

   -20.5390  -6.1579  -5.7197  -5.7197  -4.2429   4.2942   5.3342   5.3342
     8.3884  10.1201  10.8022  11.1586  11.1586  13.5343  14.3652  14.9255

          k =-0.0833 0.5833-0.0833 (  4014 PWs)   bands (ev):

   -20.5319  -6.2216  -5.7411  -5.7378  -4.2285   4.3055   5.2190   5.2615
     8.3260  10.5214  11.0972  11.6194  11.6565  13.8291  14.5687  14.6187

          k =-0.1667 0.6667-0.1667 (  4018 PWs)   bands (ev):

   -20.5249  -6.3007  -5.7760  -5.7444  -4.1738   4.3654   4.9797   5.1006
     8.5317  11.1236  11.6620  11.9833  12.1079  13.5071  14.1290  14.2781

          k = 0.7500-0.2500 0.7500 (  4020 PWs)   bands (ev):

   -20.5200  -6.3653  -5.8248  -5.7379  -4.0912   4.3760   4.8067   4.9104
     8.9661  11.3435  12.1511  12.2512  12.4720  13.4397  13.7253  13.9658

          k = 0.6667-0.1667 0.6667 (  4000 PWs)   bands (ev):

   -20.5185  -6.4061  -5.8642  -5.7198  -4.0039   4.2321   4.7416   4.8539
     9.5856  10.8814  11.7815  12.1497  13.2906  13.6163  13.9703  14.2576

          k = 0.5833-0.0833 0.5833 (  4015 PWs)   bands (ev):

   -20.5207  -6.4253  -5.8692  -5.6948  -3.9371   4.0849   4.6278   4.9784
    10.2716  10.3915  11.2473  11.6211  13.5423  14.0427  14.4245  14.6796

          k = 0.5000 0.0000 0.5000 (  4015 PWs)   bands (ev):

   -20.5261  -6.4249  -5.8306  -5.6696  -3.9106   4.0252   4.5884   5.0741
     9.9438  10.7539  10.7734  11.4744  12.8560  14.1007  14.5445  14.7140

          k = 0.0000 0.6667 0.0000 (  4020 PWs)   bands (ev):

   -20.5266  -6.1799  -5.7626  -5.7626  -4.3557   4.4415   5.3286   5.3286
     8.0335  10.6323  11.0880  12.0880  12.0880  13.9103  14.6519  14.6519

          k =-0.0833 0.7500-0.0833 (  4021 PWs)   bands (ev):

   -20.5212  -6.1786  -5.7986  -5.7749  -4.4047   4.6020   5.2281   5.2736
     8.0403  11.0367  11.3729  12.3846  12.4520  13.6404  14.0079  14.3594

          k = 0.8333-0.1667 0.8333 (  4002 PWs)   bands (ev):

   -20.5172  -6.1890  -5.8814  -5.7718  -4.3503   4.7301   4.9997   5.1250
     8.3284  11.5221  11.8992  12.2045  12.5019  13.2958  13.7610  14.2490

          k = 0.7500-0.0833 0.7500 (  4019 PWs)   bands (ev):

   -20.5156  -6.2238  -5.9576  -5.7539  -4.2223   4.5882   4.9366   4.9514
     8.8440  11.3129  12.0667  12.1288  12.6133  13.1960  14.2128  14.4814

          k = 0.6667-0.0000 0.6667 (  4017 PWs)   bands (ev):

   -20.5169  -6.3188  -5.9450  -5.7258  -4.0708   4.3100   4.7584   4.9957
     9.5345  10.7870  11.6644  11.7764  13.3595  13.6679  14.5897  14.7726

          k = 0.0000 0.8333 0.0000 (  4028 PWs)   bands (ev):

   -20.5176  -6.1158  -5.7938  -5.7938  -4.5695   4.7998   5.3455   5.3455
     7.8085  11.1518  11.3347  12.7347  12.7347  13.3358  13.7975  14.5618

          k = 0.9167-0.0833 0.9167 (  4012 PWs)   bands (ev):

   -20.5151  -6.0816  -5.8572  -5.7963  -4.5803   4.9348   5.2378   5.2921
     7.8924  11.4743  11.5594  12.5013  12.7789  13.1100  13.6731  14.4583

          k = 0.8333 0.0000 0.8333 (  4015 PWs)   bands (ev):

   -20.5143  -6.0343  -6.0207  -5.7818  -4.4372   4.9502   4.9869   5.1382
     8.2593  11.8636  11.8839  12.0066  12.5162  12.9369  14.1000  14.5743

          k = 0.0000-1.0000 0.0000 (  3984 PWs)   bands (ev):

   -20.5143  -6.0680  -5.8051  -5.8051  -4.6812   4.9931   5.3557   5.3557
     7.7318  11.4116  11.4365  12.9116  12.9116  13.0462  13.2829  14.4725

          k =-0.1667 0.3333 0.0000 (  3987 PWs)   bands (ev):

   -20.5490  -6.1139  -5.6900  -5.6506  -4.2471   4.5068   5.1062   5.3319
     9.0496   9.9377  10.1530  10.4697  10.9470  12.1250  13.9241  14.8781

          k =-0.2500 0.4167-0.0833 (  3996 PWs)   bands (ev):

   -20.5403  -6.2848  -5.7180  -5.6563  -4.0716   4.2559   4.8631   5.1857
     9.1462  10.3947  10.5299  11.0455  11.5614  12.8743  14.3359  14.4841

          k =-0.3333 0.5000-0.1667 (  4003 PWs)   bands (ev):

   -20.5315  -6.4348  -5.7339  -5.6695  -3.9228   4.0651   4.6734   4.9686
     9.4383  10.9215  11.0710  11.6064  12.1733  13.3594  14.2238  14.6258

          k = 0.5833-0.4167 0.7500 (  4001 PWs)   bands (ev):

   -20.5251  -6.5347  -5.7389  -5.6845  -3.8255   3.9432   4.5887   4.7653
     9.9128  11.1204  11.4834  12.0332  12.7878  13.8046  13.8590  14.3781

          k = 0.5000-0.3333 0.6667 (  4002 PWs)   bands (ev):

   -20.5228  -6.5696  -5.7388  -5.6919  -3.7919   3.9005   4.6039   4.6482
    10.4255  10.6483  11.8344  12.2141  13.4388  13.6728  13.7285  14.0057

          k =-0.1667 0.5000 0.0000 (  4003 PWs)   bands (ev):

   -20.5372  -6.2345  -5.7347  -5.6942  -4.1562   4.2566   5.0768   5.2763
     8.6358  10.3477  11.0438  11.1568  11.3255  13.4492  14.4417  14.5851

          k =-0.2500 0.5833-0.0833 (  4015 PWs)   bands (ev):

   -20.5294  -6.3302  -5.7664  -5.7078  -4.0801   4.2253   4.8592   5.1489
     8.7994  10.8038  11.4535  11.7231  11.8789  13.4669  14.3743  14.6561

          k = 0.6667-0.3333 0.8333 (  4021 PWs)   bands (ev):

   -20.5231  -6.4084  -5.7887  -5.7253  -4.0068   4.2098   4.7152   4.9596
     9.1798  11.1527  11.8136  11.9204  12.6417  13.5598  13.9593  14.1906

          k = 0.5833-0.2500 0.7500 (  4011 PWs)   bands (ev):

   -20.5198  -6.4521  -5.8103  -5.7274  -3.9509   4.1498   4.7220   4.7915
     9.7420  10.7037  12.0473  12.2391  13.0405  13.6523  14.0024  14.0858

          k = 0.5000-0.1667 0.6667 (  4008 PWs)   bands (ev):

   -20.5207  -6.4559  -5.8238  -5.7109  -3.9249   4.0875   4.6496   4.8779
    10.0679  10.4514  11.7015  11.9312  13.3047  13.8890  14.0982  14.4070

          k = 0.4167-0.0833 0.5833 (  4009 PWs)   bands (ev):

   -20.5253  -6.4230  -5.8139  -5.6869  -3.9373   4.0753   4.6240   5.0396
     9.5966  10.8722  11.2183  11.5715  12.8153  13.8380  14.3589  14.6390

          k = 0.3333 0.0000 0.5000 (  4011 PWs)   bands (ev):

   -20.5325  -6.3623  -5.7755  -5.6662  -3.9894   4.1293   4.7017   5.1623
     9.2786  10.6094  10.7958  11.6304  12.1050  13.3673  14.3828  14.5979

          k =-0.1667 0.6667-0.0000 (  4013 PWs)   bands (ev):

   -20.5256  -6.2372  -5.7792  -5.7537  -4.2595   4.4085   5.0878   5.2612
     8.2982  10.8094  11.4544  12.0078  12.0996  13.6693  14.2715  14.6002

          k = 0.7500-0.2500 0.9167 (  4012 PWs)   bands (ev):

   -20.5202  -6.2606  -5.8246  -5.7763  -4.2326   4.5172   4.9002   5.1485
     8.5394  11.1812  11.7750  12.3262  12.3818  13.6187  13.7579  14.2669

          k = 0.6667-0.1667 0.8333 (  4011 PWs)   bands (ev):

   -20.5170  -6.2860  -5.8866  -5.7731  -4.1598   4.4740   4.8600   4.9752
     9.0029  11.0142  11.9526  12.3881  12.6684  13.5569  13.9001  14.3130

          k = 0.5833-0.0833 0.7500 (  4014 PWs)   bands (ev):

   -20.5169  -6.3256  -5.9157  -5.7497  -4.0695   4.3051   4.7923   4.9640
     9.6438  10.4376  11.8660  12.0437  12.9602  14.0892  14.2330  14.6965

          k = 0.5000 0.0000 0.6667 (  4027 PWs)   bands (ev):

   -20.5199  -6.3796  -5.8851  -5.7171  -3.9891   4.1604   4.6669   5.0363
     9.9419  10.3736  11.5116  11.5997  13.4054  14.0568  14.5216  14.5997

          k = 0.8333-0.1667 1.0000 (  4020 PWs)   bands (ev):

   -20.5173  -6.1416  -5.8303  -5.8116  -4.4508   4.7752   5.1112   5.2707
     8.0842  11.2575  11.7170  12.2932  12.7110  13.3704  13.7748  14.4655

          k = 0.7500-0.0833 0.9167 (  4016 PWs)   bands (ev):

   -20.5149  -6.1090  -5.9422  -5.8126  -4.3788   4.8121   4.9658   5.1590
     8.4041  11.4492  11.6930  12.3188  12.7371  13.1175  14.0385  14.4976

          k = 0.6667 0.0000 0.8333 (  4023 PWs)   bands (ev):

   -20.5148  -6.1698  -5.9883  -5.7879  -4.2336   4.5660   4.9800   4.9910
     8.9420  10.9345  11.8878  12.4351  12.4679  13.5660  14.3371  14.6408

          k =-0.1667-1.0000-0.0000 (  4016 PWs)   bands (ev):

   -20.5142  -6.0510  -5.8972  -5.8234  -4.5468   4.9899   5.1058   5.2781
     8.0115  11.4729  11.9076  12.0843  12.9170  12.9775  13.7969  14.5419

          k = 0.6667-0.3333 1.0000 (  4023 PWs)   bands (ev):

   -20.5232  -6.3377  -5.8243  -5.7337  -4.0770   4.2783   4.7450   5.1325
     8.9948  10.9190  11.6016  11.8090  12.6818  13.6248  14.1416  14.5732

          k = 0.5833-0.2500 0.9167 (  4016 PWs)   bands (ev):

   -20.5186  -6.3348  -5.8620  -5.7691  -4.0710   4.3040   4.7536   5.0288
     9.3940  10.6229  11.6472  12.1868  13.0270  13.9854  14.0997  14.3223

          k = 0.5000-0.1667 0.8333 (  4012 PWs)   bands (ev):

   -20.5169  -6.3318  -5.8739  -5.7865  -4.0681   4.3005   4.8513   4.9071
     9.9131  10.0164  11.9991  12.3513  12.7171  13.9074  14.4335  14.6002

          k = 0.6667-0.1667 1.0000 (  4013 PWs)   bands (ev):

   -20.5164  -6.2086  -5.8597  -5.8510  -4.2370   4.5644   4.8732   5.1324
     8.8051  10.9744  11.5586  12.6397  12.6741  13.5450  14.1538  14.4626

          k = 0.5833-0.0833 0.9167 (  4020 PWs)   bands (ev):

   -20.5147  -6.1786  -5.9324  -5.8579  -4.1977   4.4737   4.9642   5.0338
     9.2788  10.3675  11.7540  12.4041  12.7577  14.1636  14.2267  14.5647

          k = 0.5000 0.0000 0.8333 (  4016 PWs)   bands (ev):

   -20.5155  -6.2377  -5.9246  -5.8237  -4.1372   4.3809   4.8848   5.0321
     9.8051   9.9142  11.7250  12.5328  12.5962  14.4024  14.4561  14.5152

          k =-0.3333-1.0000 0.0000 (  4022 PWs)   bands (ev):

   -20.5140  -6.0418  -6.0040  -5.8726  -4.3145   4.6636   4.9937   5.1364
     8.7399  10.9174  11.6005  12.3690  12.9278  13.5596  14.1612  14.5057

          k =-0.5000-1.0000 0.0000 (  3996 PWs)   bands (ev):

   -20.5139  -6.1020  -5.9389  -5.9389  -4.2087   4.4628   5.0348   5.0348
     9.7519   9.7519  11.6935  12.2852  12.9333  14.3596  14.3596  14.6168

     the Fermi energy is     6.3722 ev

!    total energy              =     -72.22929534 Ry
     estimated scf accuracy    <          5.0E-12 Ry
     smearing contrib. (-TS)   =      -0.00000000 Ry
     internal energy E=F+TS    =     -72.22929534 Ry

     The total energy is F=E-TS. E is the sum of the following terms:
     one-electron contribution =      -8.14863973 Ry
     hartree contribution      =       9.78123597 Ry
     xc contribution           =     -11.98907663 Ry
     ewald contribution        =     -61.87281494 Ry

     convergence has been achieved in   8 iterations

     Writing all to output data dir out/mp-1500.save/
 
     init_run     :      0.46s CPU      0.52s WALL (       1 calls)
     electrons    :     41.92s CPU     43.94s WALL (       1 calls)

     Called by init_run:
     wfcinit      :      0.41s CPU      0.46s WALL (       1 calls)
     potinit      :      0.02s CPU      0.02s WALL (       1 calls)
     hinit0       :      0.01s CPU      0.02s WALL (       1 calls)

     Called by electrons:
     c_bands      :     40.28s CPU     42.23s WALL (       8 calls)
     sum_band     :      1.59s CPU      1.63s WALL (       8 calls)
     v_of_rho     :      0.05s CPU      0.06s WALL (       9 calls)
     mix_rho      :      0.01s CPU      0.01s WALL (       8 calls)

     Called by c_bands:
     init_us_2    :      0.26s CPU      0.27s WALL (    1224 calls)
     init_us_2:cp :      0.25s CPU      0.27s WALL (    1224 calls)
     paro_k       :     38.91s CPU     40.60s WALL (     576 calls)

     Called by paro_*:
     h_psi        :     32.63s CPU     34.00s WALL (   20565 calls)
     g_psi        :      0.51s CPU      0.53s WALL (  123757 calls)

     Called by h_psi:
     h_psi:calbec :      1.44s CPU      1.49s WALL (   20565 calls)
     vloc_psi     :     29.87s CPU     31.14s WALL (   20565 calls)
     add_vuspsi   :      1.12s CPU      1.17s WALL (   20565 calls)

     General routines
     calbec       :      1.39s CPU      1.45s WALL (   20565 calls)
     fft          :      0.02s CPU      0.03s WALL (      89 calls)
     ffts         :      0.00s CPU      0.00s WALL (       8 calls)
     fftw         :     28.32s CPU     29.47s WALL (  224690 calls)
 
     Parallel routines
 
     PWSCF        :     42.49s CPU     44.74s WALL

 
   This run was terminated on:  14:29:59   3Jan2024            

=------------------------------------------------------------------------------=
   JOB DONE.
=------------------------------------------------------------------------------=
