
     Program PWSCF v.7.1 starts on  3Jan2024 at 14:28:36 

     This program is part of the open-source Quantum ESPRESSO suite
     for quantum simulation of materials; please cite
         "P. Giannozzi et al., J. Phys.:Condens. Matter 21 395502 (2009);
         "P. Giannozzi et al., J. Phys.:Condens. Matter 29 465901 (2017);
         "P. Giannozzi et al., J. Chem. Phys. 152 154105 (2020);
          URL http://www.quantum-espresso.org", 
     in publications or presentations arising from this work. More details at
     http://www.quantum-espresso.org/quote

     Parallel version (MPI), running on     8 processors

     MPI processes distributed on     1 nodes
     122699 MiB available memory on the printing compute node when the environment starts
 
     Reading input from pw_mp-111_emass_k3000_E130.in
Warning: card &IONS ignored
Warning: card / ignored
Warning: card &CELL ignored
Warning: card / ignored

     Current dimensions of program PWSCF are:
     Max number of different atomic species (ntypx) = 10
     Max number of k-points (npk) =  40000
     Max angular momentum in pseudopotentials (lmaxx) =  4

     Atomic positions and unit cell read from directory:
     out/mp-111.save/
 
 
     R & G space division:  proc/nbgrp/npool/nimage =       8
     Subspace diagonalization in iterative solution of the eigenvalue problem:
     a serial algorithm will be used

 
     Parallelization info
     --------------------
     sticks:   dense  smooth     PW     G-vecs:    dense   smooth      PW
     Min         141     141     35                 3135     3135     389
     Max         142     142     36                 3138     3138     391
     Sum        1135    1135    283                25101    25101    3119
 
     Using Slab Decomposition
 


     bravais-lattice index     =            2
     lattice parameter (alat)  =       7.9274  a.u.
     unit-cell volume          =     124.5485 (a.u.)^3
     number of atoms/cell      =            1
     number of atomic types    =            1
     number of electrons       =         8.00
     number of Kohn-Sham states=            8
     kinetic-energy cutoff     =     130.0000  Ry
     charge density cutoff     =     520.0000  Ry
     Exchange-correlation= PBE
                           (   1   4   3   4   0   0   0)

     celldm(1)=   7.927438  celldm(2)=   0.000000  celldm(3)=   0.000000
     celldm(4)=   0.000000  celldm(5)=   0.000000  celldm(6)=   0.000000

     crystal axes: (cart. coord. in units of alat)
               a(1) = (  -0.500000   0.000000   0.500000 )  
               a(2) = (   0.000000   0.500000   0.500000 )  
               a(3) = (  -0.500000   0.500000   0.000000 )  

     reciprocal axes: (cart. coord. in units 2 pi/alat)
               b(1) = ( -1.000000 -1.000000  1.000000 )  
               b(2) = (  1.000000  1.000000  1.000000 )  
               b(3) = ( -1.000000  1.000000 -1.000000 )  


     PseudoPot. # 1 for Ne read from file:
     /usr/scratch4/magr4985/MG/devEb/pseudo/SG15/Ne.upf
     MD5 check sum: c5a1767964a47406567c5640d9a9be05
     Pseudo is Norm-conserving, Zval =  8.0
     Generated using ONCVPSP code by D. R. Hamann
     Using radial grid of  602 points,  4 beta functions with: 
                l(1) =   0
                l(2) =   0
                l(3) =   1
                l(4) =   1

     atomic species   valence    mass     pseudopotential
        Ne             8.00    20.17970     Ne( 1.00)

     48 Sym. Ops., with inversion, found



   Cartesian axes

     site n.     atom                  positions (alat units)
         1           Ne  tau(   1) = (   0.0000000   0.0000000   0.0000000  )

     number of k points=     7  Gaussian smearing, width (Ry)=  0.0005
                       cart. coord. in units 2pi/alat
        k(    1) = (   0.0000000   0.0000000   0.0000000), wk =   0.2857143
        k(    2) = (   0.0100000   0.0000000   0.0000000), wk =   0.2857143
        k(    3) = (  -0.0100000   0.0000000   0.0000000), wk =   0.2857143
        k(    4) = (   0.0000000   0.0100000   0.0000000), wk =   0.2857143
        k(    5) = (   0.0000000  -0.0100000   0.0000000), wk =   0.2857143
        k(    6) = (   0.0000000   0.0000000   0.0100000), wk =   0.2857143
        k(    7) = (   0.0000000   0.0000000  -0.0100000), wk =   0.2857143

     Dense  grid:    25101 G-vectors     FFT dimensions: (  45,  45,  45)

     Estimated max dynamical RAM per process >       2.28 MB

     Estimated total dynamical RAM >      18.23 MB

     The potential is recalculated from file :
     out/mp-111.save/charge-density

     Starting wfcs are random

     Band Structure Calculation
     ParO style diagonalization

     ethr =  5.00E-06,  avg # of iterations = 16.7

     total cpu time spent up to now is        0.5 secs

     End of band structure calculation

          k = 0.0000 0.0000 0.0000 (  3119 PWs)   bands (ev):

   -31.2215  -7.6040  -7.6040  -7.6040   4.2615  24.9394  24.9394  24.9394

          k = 0.0100 0.0000 0.0000 (  3119 PWs)   bands (ev):

   -31.2215  -7.6043  -7.6041  -7.6041   4.2626  24.9206  24.9362  24.9362

          k =-0.0100 0.0000 0.0000 (  3119 PWs)   bands (ev):

   -31.2215  -7.6043  -7.6041  -7.6041   4.2626  24.9206  24.9362  24.9362

          k = 0.0000 0.0100 0.0000 (  3119 PWs)   bands (ev):

   -31.2215  -7.6043  -7.6041  -7.6041   4.2626  24.9206  24.9362  24.9362

          k = 0.0000-0.0100 0.0000 (  3119 PWs)   bands (ev):

   -31.2215  -7.6043  -7.6041  -7.6041   4.2626  24.9206  24.9362  24.9362

          k = 0.0000 0.0000 0.0100 (  3119 PWs)   bands (ev):

   -31.2215  -7.6043  -7.6041  -7.6041   4.2626  24.9206  24.9362  24.9362

          k = 0.0000 0.0000-0.0100 (  3119 PWs)   bands (ev):

   -31.2215  -7.6043  -7.6041  -7.6041   4.2626  24.9206  24.9362  24.9362

     the Fermi energy is    -3.1410 ev
     (compare with:    -3.1410 eV, computed in scf)

     Writing all to output data dir out/mp-111.save/
 
     init_run     :      0.04s CPU      0.05s WALL (       1 calls)
     electrons    :      0.34s CPU      0.36s WALL (       1 calls)

     Called by init_run:
     wfcinit      :      0.00s CPU      0.00s WALL (       1 calls)
     potinit      :      0.02s CPU      0.02s WALL (       1 calls)
     hinit0       :      0.01s CPU      0.01s WALL (       1 calls)

     Called by electrons:
     c_bands      :      0.34s CPU      0.36s WALL (       1 calls)
     v_of_rho     :      0.01s CPU      0.01s WALL (       1 calls)

     Called by c_bands:
     init_us_2    :      0.00s CPU      0.00s WALL (       7 calls)
     init_us_2:cp :      0.00s CPU      0.00s WALL (       7 calls)
     paro_k       :      0.32s CPU      0.34s WALL (       7 calls)

     Called by paro_*:
     h_psi        :      0.28s CPU      0.30s WALL (     352 calls)
     g_psi        :      0.00s CPU      0.00s WALL (    1160 calls)

     Called by h_psi:
     h_psi:calbec :      0.01s CPU      0.01s WALL (     352 calls)
     vloc_psi     :      0.27s CPU      0.28s WALL (     352 calls)
     add_vuspsi   :      0.00s CPU      0.00s WALL (     352 calls)

     General routines
     calbec       :      0.01s CPU      0.01s WALL (     352 calls)
     fft          :      0.01s CPU      0.01s WALL (      10 calls)
     fftw         :      0.24s CPU      0.26s WALL (    1932 calls)
 
     Parallel routines
 
     PWSCF        :      0.49s CPU      0.53s WALL

 
   This run was terminated on:  14:28:36   3Jan2024            

=------------------------------------------------------------------------------=
   JOB DONE.
=------------------------------------------------------------------------------=
