 vasp.5.4.4.18Apr17-6-g9f103f2a35 (build Aug 24 2017 11:22:49) complex          
  
 executed on             LinuxIFC date 2023.12.25  13:07:20
 running on    8 total cores
 distrk:  each k-point on    8 cores,    1 groups
 distr:  one band on NCORES_PER_BAND=   1 cores,    8 groups


--------------------------------------------------------------------------------------------------------


 INCAR:
 POTCAR:    PAW_PBE Ca_sv 06Sep2000               
 POTCAR:    PAW_PBE Se 06Sep2000                  

 ----------------------------------------------------------------------------- 
|                                                                             |
|           W    W    AA    RRRRR   N    N  II  N    N   GGGG   !!!           |
|           W    W   A  A   R    R  NN   N  II  NN   N  G    G  !!!           |
|           W    W  A    A  R    R  N N  N  II  N N  N  G       !!!           |
|           W WW W  AAAAAA  RRRRR   N  N N  II  N  N N  G  GGG   !            |
|           WW  WW  A    A  R   R   N   NN  II  N   NN  G    G                |
|           W    W  A    A  R    R  N    N  II  N    N   GGGG   !!!           |
|                                                                             |
|      For optimal performance we recommend to set                            |
|        NCORE= 4 - approx SQRT( number of cores)                             |
|      NCORE specifies how many cores store one orbital (NPAR=cpu/NCORE).     |
|      This setting can  greatly improve the performance of VASP for DFT.     |
|      The default,   NCORE=1            might be grossly inefficient         |
|      on modern multi-core architectures or massively parallel machines.     |
|      Do your own testing !!!!                                               |
|      Unfortunately you need to use the default for GW and RPA calculations. |
|      (for HF NCORE is supported but not extensively tested yet)             |
|                                                                             |
 ----------------------------------------------------------------------------- 

 POTCAR:    PAW_PBE Ca_sv 06Sep2000               
   VRHFIN =Ca: 3s3p4s                                                           
   LEXCH  = PE                                                                  
   EATOM  =  1006.0909 eV,   73.9456 Ry                                         
                                                                                
   TITEL  = PAW_PBE Ca_sv 06Sep2000                                             
   LULTRA =        F    use ultrasoft PP ?                                      
   IUNSCR =        1    unscreen: 0-lin 1-nonlin 2-no                           
   RPACOR =    2.000    partial core radius                                     
   POMASS =   40.078; ZVAL   =   10.000    mass and valenz                      
   RCORE  =    2.300    outmost cutoff radius                                   
   RWIGS  =    2.500; RWIGS  =    1.323    wigner-seitz radius (au A)           
   ENMAX  =  266.622; ENMIN  =  199.967 eV                                      
   RCLOC  =    1.808    cutoff for local pot                                    
   LCOR   =        T    correct aug charges                                     
   LPAW   =        T    paw PP                                                  
   EAUG   =  420.852                                                            
   RMAX   =    2.359    core radius for proj-oper                               
   RAUG   =    1.300    factor for augmentation sphere                          
   RDEP   =    2.392    radius for radial grids                                 
   RDEPT  =    1.987    core radius for aug-charge                              
                                                                                
   Atomic configuration                                                         
    7 entries                                                                   
     n  l   j            E        occ.                                          
     1  0  0.50     -3949.1705   2.0000                                         
     2  0  0.50      -414.3434   2.0000                                         
     2  1  1.50      -334.7047   6.0000                                         
     3  0  0.50       -47.0896   2.0000                                         
     4  0  0.50        -3.7663   2.0000                                         
     3  1  1.50       -28.0061   6.0000                                         
     3  2  1.50        -4.0817   0.0000                                         
   Description                                                                  
     l       E           TYP  RCUT    TYP  RCUT                                 
     0    -47.0896403     23  2.300                                             
     0     -3.7663320     23  2.300                                             
     1    -28.0060855     23  2.300                                             
     1      6.8029130     23  2.300                                             
     2     -4.0817478     23  2.300                                             
     2      0.4464412     23  2.300                                             
  local pseudopotential read in
  partial core-charges read in
  partial kinetic energy density read in
  atomic valenz-charges read in
  non local Contribution for L=           0  read in
    real space projection operators read in
  non local Contribution for L=           0  read in
    real space projection operators read in
  non local Contribution for L=           1  read in
    real space projection operators read in
  non local Contribution for L=           1  read in
    real space projection operators read in
  non local Contribution for L=           2  read in
    real space projection operators read in
  non local Contribution for L=           2  read in
    real space projection operators read in
    PAW grid and wavefunctions read in
 
   number of l-projection  operators is LMAX  =           6
   number of lm-projection operators is LMMAX =          18
 
 POTCAR:    PAW_PBE Se 06Sep2000                  
   VRHFIN =Se: s2p4                                                             
   LEXCH  = PE                                                                  
   EATOM  =   257.1286 eV,   18.8984 Ry                                         
                                                                                
   TITEL  = PAW_PBE Se 06Sep2000                                                
   LULTRA =        F    use ultrasoft PP ?                                      
   IUNSCR =        1    unscreen: 0-lin 1-nonlin 2-no                           
   RPACOR =    1.900    partial core radius                                     
   POMASS =   78.960; ZVAL   =    6.000    mass and valenz                      
   RCORE  =    2.100    outmost cutoff radius                                   
   RWIGS  =    2.200; RWIGS  =    1.164    wigner-seitz radius (au A)           
   ENMAX  =  211.555; ENMIN  =  158.666 eV                                      
   ICORE  =        3    local potential                                         
   LCOR   =        T    correct aug charges                                     
   LPAW   =        T    paw PP                                                  
   EAUG   =  446.842                                                            
   DEXC   =    0.000                                                            
   RMAX   =    2.147    core radius for proj-oper                               
   RAUG   =    1.300    factor for augmentation sphere                          
   RDEP   =    2.177    radius for radial grids                                 
   RDEPT  =    1.928    core radius for aug-charge                              
                                                                                
   Atomic configuration                                                         
   10 entries                                                                   
     n  l   j            E        occ.                                          
     1  0  0.50    -12503.4787   2.0000                                         
     2  0  0.50     -1606.9547   2.0000                                         
     2  1  1.50     -1413.3140   6.0000                                         
     3  0  0.50      -213.4885   2.0000                                         
     3  1  1.50      -152.9538   6.0000                                         
     3  2  2.50       -53.1221  10.0000                                         
     4  0  0.50       -17.2865   2.0000                                         
     4  1  0.50        -6.5110   4.0000                                         
     4  2  2.50        -6.8029   0.0000                                         
     4  3  2.50        -6.8029   0.0000                                         
   Description                                                                  
     l       E           TYP  RCUT    TYP  RCUT                                 
     0    -17.2865377     23  2.100                                             
     0    -15.3094411     23  2.100                                             
     1     -6.5110275     23  2.100                                             
     1     -0.0695192     23  2.100                                             
     2     -6.8029130     23  2.100                                             
     3     -1.3605826      7  2.100                                             
  local pseudopotential read in
  partial core-charges read in
  partial kinetic energy density read in
  atomic valenz-charges read in
  non local Contribution for L=           0  read in
    real space projection operators read in
  non local Contribution for L=           0  read in
    real space projection operators read in
  non local Contribution for L=           1  read in
    real space projection operators read in
  non local Contribution for L=           1  read in
    real space projection operators read in
  non local Contribution for L=           2  read in
    real space projection operators read in
    PAW grid and wavefunctions read in
 
   number of l-projection  operators is LMAX  =           5
   number of lm-projection operators is LMMAX =          13
 
  PAW_PBE Ca_sv 06Sep2000               :
 energy of atom  1       EATOM=-1006.0909
 kinetic energy error for atom=    0.0022 (will be added to EATOM!!)
  PAW_PBE Se 06Sep2000                  :
 energy of atom  2       EATOM= -257.1286
 kinetic energy error for atom=    0.0007 (will be added to EATOM!!)
 
 
 POSCAR: Ca1 Se1                                 
  positions in direct lattice
  No initial velocities read in
 exchange correlation table for  LEXCH =        8
   RHO(1)=    0.500       N(1)  =     2000
   RHO(2)=  100.500       N(2)  =     4000
 


--------------------------------------------------------------------------------------------------------


 ion  position               nearest neighbor table
   1  0.000  0.000  0.000-   2 2.97   2 2.97   2 2.97   2 2.97   2 2.97   2 2.97
   2  0.500  0.500  0.500-   1 2.97   1 2.97   1 2.97   1 2.97   1 2.97   1 2.97
 
  LATTYP: Found a face centered cubic cell.
 ALAT       =     5.9404757541
  
  Lattice vectors:
  
 A1 = (  -2.9702378770,   0.0000000000,   2.9702378770)
 A2 = (   0.0000000000,   2.9702378770,   2.9702378770)
 A3 = (  -2.9702378770,   2.9702378770,   0.0000000000)


Analysis of symmetry for initial positions (statically):
=====================================================================
 Subroutine PRICEL returns:
 Original cell was already a primitive cell.
 

 Routine SETGRP: Setting up the symmetry group for a 
 face centered cubic supercell.


 Subroutine GETGRP returns: Found  8 space group operations
 (whereof  8 operations were pure point group operations)
 out of a pool of 48 trial point group operations.


The static configuration has the point symmetry C_4v.


Analysis of symmetry for dynamics (positions and initial velocities):
=====================================================================
 Subroutine PRICEL returns:
 Original cell was already a primitive cell.
 

 Routine SETGRP: Setting up the symmetry group for a 
 face centered cubic supercell.


 Subroutine GETGRP returns: Found  8 space group operations
 (whereof  8 operations were pure point group operations)
 out of a pool of 48 trial point group operations.


The dynamic configuration has the point symmetry C_4v.


 Subroutine INISYM returns: Found  8 space group operations
 (whereof  8 operations are pure point group operations),
 and found     1 'primitive' translations

 
 
 KPOINTS: pymatgen with grid density = 3000 / numb

Automatic generation of k-mesh.
Space group operators:
 irot       det(A)        alpha          n_x          n_y          n_z        tau_x        tau_y        tau_z
    1     1.000000     0.000001     1.000000     0.000000     0.000000     0.000000     0.000000     0.000000
    2     1.000000    90.000000    -1.000000    -0.000000     0.000000     0.000000     0.000000     0.000000
    3    -1.000000   180.000000    -0.000000     0.000000    -1.000000     0.000000     0.000000     0.000000
    4    -1.000000   180.000000     0.000000     0.707107     0.707107     0.000000     0.000000     0.000000
    5    -1.000000   180.000000    -0.000000    -1.000000     0.000000     0.000000     0.000000     0.000000
    6     1.000000    90.000000     1.000000    -0.000000    -0.000000     0.000000     0.000000     0.000000
    7     1.000000   180.000000     1.000000     0.000000     0.000000     0.000000     0.000000     0.000000
    8    -1.000000   180.000000     0.000000    -0.707107     0.707107     0.000000     0.000000     0.000000
 
 Subroutine IBZKPT returns following result:
 ===========================================
 
 Found    163 irreducible k-points:
 
 Following reciprocal coordinates:
            Coordinates               Weight
  0.000000  0.000000  0.000000      1.000000
  0.083333 -0.000000 -0.000000      8.000000
  0.166667  0.000000  0.000000      8.000000
  0.250000 -0.000000  0.000000      8.000000
  0.333333 -0.000000 -0.000000      8.000000
  0.416667  0.000000  0.000000      8.000000
  0.500000 -0.000000  0.000000      4.000000
  0.083333  0.083333 -0.000000      4.000000
  0.166667  0.083333 -0.000000     16.000000
  0.250000  0.083333 -0.000000     16.000000
  0.333333  0.083333  0.000000     16.000000
  0.416667  0.083333  0.000000     16.000000
  0.500000  0.083333 -0.000000     16.000000
 -0.416667  0.083333 -0.000000     16.000000
 -0.333333  0.083333  0.000000     16.000000
 -0.250000  0.083333 -0.000000     16.000000
 -0.166667  0.083333 -0.000000     16.000000
 -0.083333  0.083333  0.000000      8.000000
  0.166667  0.166667 -0.000000      4.000000
  0.250000  0.166667 -0.000000     16.000000
  0.333333  0.166667  0.000000     16.000000
  0.416667  0.166667  0.000000     16.000000
  0.500000  0.166667  0.000000     16.000000
 -0.416667  0.166667  0.000000     16.000000
 -0.333333  0.166667 -0.000000     16.000000
 -0.250000  0.166667 -0.000000     16.000000
 -0.166667  0.166667  0.000000      8.000000
  0.250000  0.250000 -0.000000      4.000000
  0.333333  0.250000 -0.000000     16.000000
  0.416667  0.250000  0.000000     16.000000
  0.500000  0.250000  0.000000     16.000000
 -0.416667  0.250000  0.000000     16.000000
 -0.333333  0.250000  0.000000     16.000000
 -0.250000  0.250000  0.000000      8.000000
  0.333333  0.333333 -0.000000      4.000000
  0.416667  0.333333 -0.000000     16.000000
  0.500000  0.333333  0.000000     16.000000
 -0.416667  0.333333  0.000000     16.000000
 -0.333333  0.333333 -0.000000      8.000000
  0.416667  0.416667 -0.000000      4.000000
  0.500000  0.416667 -0.000000     16.000000
 -0.416667  0.416667 -0.000000      8.000000
  0.500000  0.500000 -0.000000      2.000000
  0.083333 -0.000000  0.083333      2.000000
  0.166667  0.000000  0.083333      8.000000
  0.250000 -0.000000  0.083333      8.000000
  0.333333  0.000000  0.083333      8.000000
  0.416667  0.000000  0.083333      8.000000
  0.500000 -0.000000  0.083333      8.000000
 -0.416667 -0.000000  0.083333      8.000000
 -0.333333  0.000000  0.083333      8.000000
 -0.250000  0.000000  0.083333      8.000000
 -0.166667 -0.000000  0.083333      8.000000
 -0.083333  0.000000  0.083333      4.000000
  0.250000  0.166667  0.083333      8.000000
  0.333333  0.166667  0.083333     16.000000
  0.416667  0.166667  0.083333     16.000000
  0.500000  0.166667  0.083333     16.000000
 -0.416667  0.166667  0.083333      8.000000
  0.166667  0.250000  0.083333      8.000000
  0.333333  0.250000  0.083333      8.000000
  0.416667  0.250000  0.083333     16.000000
  0.500000  0.250000  0.083333     16.000000
 -0.416667  0.250000  0.083333     16.000000
 -0.333333  0.250000  0.083333     16.000000
 -0.250000  0.250000  0.083333     16.000000
 -0.166667  0.250000  0.083333      8.000000
  0.166667  0.333333  0.083333     16.000000
  0.250000  0.333333  0.083333      8.000000
  0.416667  0.333333  0.083333      8.000000
  0.500000  0.333333  0.083333     16.000000
 -0.416667  0.333333  0.083333     16.000000
 -0.333333  0.333333  0.083333     16.000000
 -0.250000  0.333333  0.083333      8.000000
  0.166667  0.416667  0.083333     16.000000
  0.250000  0.416667  0.083333     16.000000
  0.333333  0.416667  0.083333      8.000000
  0.500000  0.416667  0.083333      8.000000
 -0.416667  0.416667  0.083333     16.000000
 -0.333333  0.416667  0.083333      8.000000
  0.166667  0.500000  0.083333     16.000000
  0.250000  0.500000  0.083333     16.000000
  0.333333  0.500000  0.083333     16.000000
  0.416667  0.500000  0.083333      8.000000
 -0.416667  0.500000  0.083333      4.000000
  0.166667 -0.416667  0.083333     16.000000
  0.250000 -0.416667  0.083333     16.000000
  0.333333 -0.416667  0.083333     16.000000
  0.416667 -0.416667  0.083333     16.000000
  0.500000 -0.416667  0.083333      4.000000
  0.166667 -0.333333  0.083333     16.000000
  0.250000 -0.333333  0.083333     16.000000
  0.333333 -0.333333  0.083333     16.000000
  0.416667 -0.333333  0.083333      8.000000
  0.166667 -0.250000  0.083333     16.000000
  0.250000 -0.250000  0.083333     16.000000
  0.333333 -0.250000  0.083333      8.000000
  0.166667 -0.166667  0.083333     16.000000
  0.250000 -0.166667  0.083333      8.000000
  0.166667 -0.083333  0.083333      8.000000
  0.166667 -0.000000  0.166667      2.000000
  0.250000  0.000000  0.166667      8.000000
  0.333333  0.000000  0.166667      8.000000
  0.416667  0.000000  0.166667      8.000000
  0.500000 -0.000000  0.166667      8.000000
 -0.416667 -0.000000  0.166667      8.000000
 -0.333333 -0.000000  0.166667      8.000000
 -0.250000 -0.000000  0.166667      8.000000
 -0.166667 -0.000000  0.166667      4.000000
  0.500000  0.333333  0.166667      8.000000
 -0.416667  0.333333  0.166667     16.000000
 -0.333333  0.333333  0.166667      8.000000
  0.250000  0.416667  0.166667      8.000000
 -0.416667  0.416667  0.166667      8.000000
 -0.333333  0.416667  0.166667     16.000000
 -0.250000  0.416667  0.166667      8.000000
  0.250000  0.500000  0.166667     16.000000
  0.333333  0.500000  0.166667      8.000000
 -0.333333  0.500000  0.166667      4.000000
  0.250000 -0.416667  0.166667     16.000000
  0.333333 -0.416667  0.166667     16.000000
  0.416667 -0.416667  0.166667      8.000000
  0.250000 -0.333333  0.166667     16.000000
  0.333333 -0.333333  0.166667     16.000000
  0.416667 -0.333333  0.166667     16.000000
  0.500000 -0.333333  0.166667      4.000000
  0.250000 -0.250000  0.166667     16.000000
  0.333333 -0.250000  0.166667     16.000000
  0.416667 -0.250000  0.166667      8.000000
  0.250000 -0.166667  0.166667     16.000000
  0.333333 -0.166667  0.166667      8.000000
  0.250000 -0.083333  0.166667      8.000000
  0.250000  0.000000  0.250000      2.000000
  0.333333  0.000000  0.250000      8.000000
  0.416667 -0.000000  0.250000      8.000000
  0.500000  0.000000  0.250000      8.000000
 -0.416667  0.000000  0.250000      8.000000
 -0.333333 -0.000000  0.250000      8.000000
 -0.250000  0.000000  0.250000      4.000000
 -0.250000  0.500000  0.250000      2.000000
  0.333333 -0.416667  0.250000      8.000000
  0.333333 -0.333333  0.250000     16.000000
  0.416667 -0.333333  0.250000      8.000000
  0.333333 -0.250000  0.250000     16.000000
  0.416667 -0.250000  0.250000     16.000000
  0.500000 -0.250000  0.250000      4.000000
  0.333333 -0.166667  0.250000     16.000000
  0.416667 -0.166667  0.250000      8.000000
  0.333333 -0.083333  0.250000      8.000000
  0.333333  0.000000  0.333333      2.000000
  0.416667  0.000000  0.333333      8.000000
  0.500000  0.000000  0.333333      8.000000
 -0.416667 -0.000000  0.333333      8.000000
 -0.333333 -0.000000  0.333333      4.000000
  0.416667 -0.250000  0.333333      8.000000
  0.416667 -0.166667  0.333333     16.000000
  0.500000 -0.166667  0.333333      4.000000
  0.416667 -0.083333  0.333333      8.000000
  0.416667 -0.000000  0.416667      2.000000
  0.500000  0.000000  0.416667      8.000000
 -0.416667  0.000000  0.416667      4.000000
  0.500000 -0.083333  0.416667      4.000000
  0.500000  0.000000  0.500000      1.000000
 
 Following cartesian coordinates:
            Coordinates               Weight
  0.000000  0.000000  0.000000      1.000000
 -0.014028 -0.014028  0.014028      8.000000
 -0.028056 -0.028056  0.028056      8.000000
 -0.042084 -0.042084  0.042084      8.000000
 -0.056112 -0.056112  0.056112      8.000000
 -0.070140 -0.070140  0.070140      8.000000
 -0.084168 -0.084168  0.084168      4.000000
 -0.000000 -0.000000  0.028056      4.000000
 -0.014028 -0.014028  0.042084     16.000000
 -0.028056 -0.028056  0.056112     16.000000
 -0.042084 -0.042084  0.070140     16.000000
 -0.056112 -0.056112  0.084168     16.000000
 -0.070140 -0.070140  0.098196     16.000000
  0.084168  0.084168 -0.056112     16.000000
  0.070140  0.070140 -0.042084     16.000000
  0.056112  0.056112 -0.028056     16.000000
  0.042084  0.042084 -0.014028     16.000000
  0.028056  0.028056  0.000000      8.000000
  0.000000  0.000000  0.056112      4.000000
 -0.014028 -0.014028  0.070140     16.000000
 -0.028056 -0.028056  0.084168     16.000000
 -0.042084 -0.042084  0.098196     16.000000
 -0.056112 -0.056112  0.112224     16.000000
  0.098196  0.098196 -0.042084     16.000000
  0.084168  0.084168 -0.028056     16.000000
  0.070140  0.070140 -0.014028     16.000000
  0.056112  0.056112  0.000000      8.000000
  0.000000  0.000000  0.084168      4.000000
 -0.014028 -0.014028  0.098196     16.000000
 -0.028056 -0.028056  0.112224     16.000000
 -0.042084 -0.042084  0.126253     16.000000
  0.112224  0.112224 -0.028056     16.000000
  0.098196  0.098196 -0.014028     16.000000
  0.084168  0.084168  0.000000      8.000000
  0.000000  0.000000  0.112224      4.000000
 -0.014028 -0.014028  0.126253     16.000000
 -0.028056 -0.028056  0.140281     16.000000
  0.126253  0.126253 -0.014028     16.000000
  0.112224  0.112224  0.000000      8.000000
  0.000000  0.000000  0.140281      4.000000
 -0.014028 -0.014028  0.154309     16.000000
  0.140281  0.140281  0.000000      8.000000
  0.000000  0.000000  0.168337      2.000000
 -0.028056  0.000000  0.000000      2.000000
 -0.042084 -0.014028  0.014028      8.000000
 -0.056112 -0.028056  0.028056      8.000000
 -0.070140 -0.042084  0.042084      8.000000
 -0.084168 -0.056112  0.056112      8.000000
 -0.098196 -0.070140  0.070140      8.000000
  0.056112  0.084168 -0.084168      8.000000
  0.042084  0.070140 -0.070140      8.000000
  0.028056  0.056112 -0.056112      8.000000
  0.014028  0.042084 -0.042084      8.000000
  0.000000  0.028056 -0.028056      4.000000
 -0.028056  0.000000  0.056112      8.000000
 -0.042084 -0.014028  0.070140     16.000000
 -0.056112 -0.028056  0.084168     16.000000
 -0.070140 -0.042084  0.098196     16.000000
  0.084168  0.112224 -0.056112      8.000000
  0.000000  0.028056  0.056112      8.000000
 -0.028056  0.000000  0.084168      8.000000
 -0.042084 -0.014028  0.098196     16.000000
 -0.056112 -0.028056  0.112224     16.000000
  0.098196  0.126253 -0.042084     16.000000
  0.084168  0.112224 -0.028056     16.000000
  0.070140  0.098196 -0.014028     16.000000
  0.056112  0.084168  0.000000      8.000000
  0.014028  0.042084  0.070140     16.000000
  0.000000  0.028056  0.084168      8.000000
 -0.028056 -0.000000  0.112224      8.000000
 -0.042084 -0.014028  0.126253     16.000000
  0.112224  0.140281 -0.028056     16.000000
  0.098196  0.126253 -0.014028     16.000000
  0.084168  0.112224  0.000000      8.000000
  0.028056  0.056112  0.084168     16.000000
  0.014028  0.042084  0.098196     16.000000
  0.000000  0.028056  0.112224      8.000000
 -0.028056  0.000000  0.140281      8.000000
  0.126253  0.154309 -0.014028     16.000000
  0.112224  0.140281  0.000000      8.000000
  0.042084  0.070140  0.098196     16.000000
  0.028056  0.056112  0.112224     16.000000
  0.014028  0.042084  0.126253     16.000000
  0.000000  0.028056  0.140281      8.000000
  0.140281  0.168337  0.000000      4.000000
 -0.112224 -0.084168 -0.056112     16.000000
 -0.126253 -0.098196 -0.042084     16.000000
 -0.140281 -0.112224 -0.028056     16.000000
 -0.154309 -0.126253 -0.014028     16.000000
 -0.168337 -0.140281 -0.000000      4.000000
 -0.098196 -0.070140 -0.042084     16.000000
 -0.112224 -0.084168 -0.028056     16.000000
 -0.126253 -0.098196 -0.014028     16.000000
 -0.140281 -0.112224  0.000000      8.000000
 -0.084168 -0.056112 -0.028056     16.000000
 -0.098196 -0.070140 -0.014028     16.000000
 -0.112224 -0.084168  0.000000      8.000000
 -0.070140 -0.042084 -0.014028     16.000000
 -0.084168 -0.056112  0.000000      8.000000
 -0.056112 -0.028056  0.000000      8.000000
 -0.056112 -0.000000  0.000000      2.000000
 -0.070140 -0.014028  0.014028      8.000000
 -0.084168 -0.028056  0.028056      8.000000
 -0.098196 -0.042084  0.042084      8.000000
 -0.112224 -0.056112  0.056112      8.000000
  0.042084  0.098196 -0.098196      8.000000
  0.028056  0.084168 -0.084168      8.000000
  0.014028  0.070140 -0.070140      8.000000
 -0.000000  0.056112 -0.056112      4.000000
 -0.056112 -0.000000  0.112224      8.000000
  0.098196  0.154309 -0.042084     16.000000
  0.084168  0.140281 -0.028056      8.000000
  0.000000  0.056112  0.084168      8.000000
  0.112224  0.168337 -0.028056      8.000000
  0.098196  0.154309 -0.014028     16.000000
  0.084168  0.140281  0.000000      8.000000
  0.014028  0.070140  0.098196     16.000000
  0.000000  0.056112  0.112224      8.000000
  0.112224  0.168337  0.000000      4.000000
 -0.140281 -0.084168 -0.056112     16.000000
 -0.154309 -0.098196 -0.042084     16.000000
 -0.168337 -0.112224 -0.028056      8.000000
 -0.126253 -0.070140 -0.042084     16.000000
 -0.140281 -0.084168 -0.028056     16.000000
 -0.154309 -0.098196 -0.014028     16.000000
 -0.168337 -0.112224  0.000000      4.000000
 -0.112224 -0.056112 -0.028056     16.000000
 -0.126253 -0.070140 -0.014028     16.000000
 -0.140281 -0.084168  0.000000      8.000000
 -0.098196 -0.042084 -0.014028     16.000000
 -0.112224 -0.056112 -0.000000      8.000000
 -0.084168 -0.028056  0.000000      8.000000
 -0.084168  0.000000  0.000000      2.000000
 -0.098196 -0.014028  0.014028      8.000000
 -0.112224 -0.028056  0.028056      8.000000
 -0.126253 -0.042084  0.042084      8.000000
  0.028056  0.112224 -0.112224      8.000000
  0.014028  0.098196 -0.098196      8.000000
  0.000000  0.084168 -0.084168      4.000000
  0.084168  0.168337  0.000000      2.000000
 -0.168337 -0.084168 -0.056112      8.000000
 -0.154309 -0.070140 -0.042084     16.000000
 -0.168337 -0.084168 -0.028056      8.000000
 -0.140281 -0.056112 -0.028056     16.000000
 -0.154309 -0.070140 -0.014028     16.000000
 -0.168337 -0.084168  0.000000      4.000000
 -0.126253 -0.042084 -0.014028     16.000000
 -0.140281 -0.056112  0.000000      8.000000
 -0.112224 -0.028056  0.000000      8.000000
 -0.112224  0.000000  0.000000      2.000000
 -0.126253 -0.014028  0.014028      8.000000
 -0.140281 -0.028056  0.028056      8.000000
  0.014028  0.126253 -0.126253      8.000000
  0.000000  0.112224 -0.112224      4.000000
 -0.168337 -0.056112 -0.028056      8.000000
 -0.154309 -0.042084 -0.014028     16.000000
 -0.168337 -0.056112  0.000000      4.000000
 -0.140281 -0.028056  0.000000      8.000000
 -0.140281  0.000000  0.000000      2.000000
 -0.154309 -0.014028  0.014028      8.000000
  0.000000  0.140281 -0.140281      4.000000
 -0.168337 -0.028056  0.000000      4.000000
 -0.168337  0.000000  0.000000      1.000000
 
 
 Subroutine IBZKPT_HF returns following result:
 ==============================================
 
 Found   1728 k-points in 1st BZ
 the following   1728 k-points will be used (e.g. in the exchange kernel)
 Following reciprocal coordinates:   # in IRBZ
  0.000000  0.000000  0.000000    0.00057870   1 t-inv F
  0.083333 -0.000000 -0.000000    0.00057870   2 t-inv F
  0.166667  0.000000  0.000000    0.00057870   3 t-inv F
  0.250000 -0.000000  0.000000    0.00057870   4 t-inv F
  0.333333 -0.000000 -0.000000    0.00057870   5 t-inv F
  0.416667  0.000000  0.000000    0.00057870   6 t-inv F
  0.500000 -0.000000  0.000000    0.00057870   7 t-inv F
  0.083333  0.083333 -0.000000    0.00057870   8 t-inv F
  0.166667  0.083333 -0.000000    0.00057870   9 t-inv F
  0.250000  0.083333 -0.000000    0.00057870  10 t-inv F
  0.333333  0.083333  0.000000    0.00057870  11 t-inv F
  0.416667  0.083333  0.000000    0.00057870  12 t-inv F
  0.500000  0.083333 -0.000000    0.00057870  13 t-inv F
 -0.416667  0.083333 -0.000000    0.00057870  14 t-inv F
 -0.333333  0.083333  0.000000    0.00057870  15 t-inv F
 -0.250000  0.083333 -0.000000    0.00057870  16 t-inv F
 -0.166667  0.083333 -0.000000    0.00057870  17 t-inv F
 -0.083333  0.083333  0.000000    0.00057870  18 t-inv F
  0.166667  0.166667 -0.000000    0.00057870  19 t-inv F
  0.250000  0.166667 -0.000000    0.00057870  20 t-inv F
  0.333333  0.166667  0.000000    0.00057870  21 t-inv F
  0.416667  0.166667  0.000000    0.00057870  22 t-inv F
  0.500000  0.166667  0.000000    0.00057870  23 t-inv F
 -0.416667  0.166667  0.000000    0.00057870  24 t-inv F
 -0.333333  0.166667 -0.000000    0.00057870  25 t-inv F
 -0.250000  0.166667 -0.000000    0.00057870  26 t-inv F
 -0.166667  0.166667  0.000000    0.00057870  27 t-inv F
  0.250000  0.250000 -0.000000    0.00057870  28 t-inv F
  0.333333  0.250000 -0.000000    0.00057870  29 t-inv F
  0.416667  0.250000  0.000000    0.00057870  30 t-inv F
  0.500000  0.250000  0.000000    0.00057870  31 t-inv F
 -0.416667  0.250000  0.000000    0.00057870  32 t-inv F
 -0.333333  0.250000  0.000000    0.00057870  33 t-inv F
 -0.250000  0.250000  0.000000    0.00057870  34 t-inv F
  0.333333  0.333333 -0.000000    0.00057870  35 t-inv F
  0.416667  0.333333 -0.000000    0.00057870  36 t-inv F
  0.500000  0.333333  0.000000    0.00057870  37 t-inv F
 -0.416667  0.333333  0.000000    0.00057870  38 t-inv F
 -0.333333  0.333333 -0.000000    0.00057870  39 t-inv F
  0.416667  0.416667 -0.000000    0.00057870  40 t-inv F
  0.500000  0.416667 -0.000000    0.00057870  41 t-inv F
 -0.416667  0.416667 -0.000000    0.00057870  42 t-inv F
  0.500000  0.500000 -0.000000    0.00057870  43 t-inv F
  0.083333 -0.000000  0.083333    0.00057870  44 t-inv F
  0.166667  0.000000  0.083333    0.00057870  45 t-inv F
  0.250000 -0.000000  0.083333    0.00057870  46 t-inv F
  0.333333  0.000000  0.083333    0.00057870  47 t-inv F
  0.416667  0.000000  0.083333    0.00057870  48 t-inv F
  0.500000 -0.000000  0.083333    0.00057870  49 t-inv F
 -0.416667 -0.000000  0.083333    0.00057870  50 t-inv F
 -0.333333  0.000000  0.083333    0.00057870  51 t-inv F
 -0.250000  0.000000  0.083333    0.00057870  52 t-inv F
 -0.166667 -0.000000  0.083333    0.00057870  53 t-inv F
 -0.083333  0.000000  0.083333    0.00057870  54 t-inv F
  0.250000  0.166667  0.083333    0.00057870  55 t-inv F
  0.333333  0.166667  0.083333    0.00057870  56 t-inv F
  0.416667  0.166667  0.083333    0.00057870  57 t-inv F
  0.500000  0.166667  0.083333    0.00057870  58 t-inv F
 -0.416667  0.166667  0.083333    0.00057870  59 t-inv F
  0.166667  0.250000  0.083333    0.00057870  60 t-inv F
  0.333333  0.250000  0.083333    0.00057870  61 t-inv F
  0.416667  0.250000  0.083333    0.00057870  62 t-inv F
  0.500000  0.250000  0.083333    0.00057870  63 t-inv F
 -0.416667  0.250000  0.083333    0.00057870  64 t-inv F
 -0.333333  0.250000  0.083333    0.00057870  65 t-inv F
 -0.250000  0.250000  0.083333    0.00057870  66 t-inv F
 -0.166667  0.250000  0.083333    0.00057870  67 t-inv F
  0.166667  0.333333  0.083333    0.00057870  68 t-inv F
  0.250000  0.333333  0.083333    0.00057870  69 t-inv F
  0.416667  0.333333  0.083333    0.00057870  70 t-inv F
  0.500000  0.333333  0.083333    0.00057870  71 t-inv F
 -0.416667  0.333333  0.083333    0.00057870  72 t-inv F
 -0.333333  0.333333  0.083333    0.00057870  73 t-inv F
 -0.250000  0.333333  0.083333    0.00057870  74 t-inv F
  0.166667  0.416667  0.083333    0.00057870  75 t-inv F
  0.250000  0.416667  0.083333    0.00057870  76 t-inv F
  0.333333  0.416667  0.083333    0.00057870  77 t-inv F
  0.500000  0.416667  0.083333    0.00057870  78 t-inv F
 -0.416667  0.416667  0.083333    0.00057870  79 t-inv F
 -0.333333  0.416667  0.083333    0.00057870  80 t-inv F
  0.166667  0.500000  0.083333    0.00057870  81 t-inv F
  0.250000  0.500000  0.083333    0.00057870  82 t-inv F
  0.333333  0.500000  0.083333    0.00057870  83 t-inv F
  0.416667  0.500000  0.083333    0.00057870  84 t-inv F
 -0.416667  0.500000  0.083333    0.00057870  85 t-inv F
  0.166667 -0.416667  0.083333    0.00057870  86 t-inv F
  0.250000 -0.416667  0.083333    0.00057870  87 t-inv F
  0.333333 -0.416667  0.083333    0.00057870  88 t-inv F
  0.416667 -0.416667  0.083333    0.00057870  89 t-inv F
  0.500000 -0.416667  0.083333    0.00057870  90 t-inv F
  0.166667 -0.333333  0.083333    0.00057870  91 t-inv F
  0.250000 -0.333333  0.083333    0.00057870  92 t-inv F
  0.333333 -0.333333  0.083333    0.00057870  93 t-inv F
  0.416667 -0.333333  0.083333    0.00057870  94 t-inv F
  0.166667 -0.250000  0.083333    0.00057870  95 t-inv F
  0.250000 -0.250000  0.083333    0.00057870  96 t-inv F
  0.333333 -0.250000  0.083333    0.00057870  97 t-inv F
  0.166667 -0.166667  0.083333    0.00057870  98 t-inv F
  0.250000 -0.166667  0.083333    0.00057870  99 t-inv F
  0.166667 -0.083333  0.083333    0.00057870 100 t-inv F
  0.166667 -0.000000  0.166667    0.00057870 101 t-inv F
  0.250000  0.000000  0.166667    0.00057870 102 t-inv F
  0.333333  0.000000  0.166667    0.00057870 103 t-inv F
  0.416667  0.000000  0.166667    0.00057870 104 t-inv F
  0.500000 -0.000000  0.166667    0.00057870 105 t-inv F
 -0.416667 -0.000000  0.166667    0.00057870 106 t-inv F
 -0.333333 -0.000000  0.166667    0.00057870 107 t-inv F
 -0.250000 -0.000000  0.166667    0.00057870 108 t-inv F
 -0.166667 -0.000000  0.166667    0.00057870 109 t-inv F
  0.500000  0.333333  0.166667    0.00057870 110 t-inv F
 -0.416667  0.333333  0.166667    0.00057870 111 t-inv F
 -0.333333  0.333333  0.166667    0.00057870 112 t-inv F
  0.250000  0.416667  0.166667    0.00057870 113 t-inv F
 -0.416667  0.416667  0.166667    0.00057870 114 t-inv F
 -0.333333  0.416667  0.166667    0.00057870 115 t-inv F
 -0.250000  0.416667  0.166667    0.00057870 116 t-inv F
  0.250000  0.500000  0.166667    0.00057870 117 t-inv F
  0.333333  0.500000  0.166667    0.00057870 118 t-inv F
 -0.333333  0.500000  0.166667    0.00057870 119 t-inv F
  0.250000 -0.416667  0.166667    0.00057870 120 t-inv F
  0.333333 -0.416667  0.166667    0.00057870 121 t-inv F
  0.416667 -0.416667  0.166667    0.00057870 122 t-inv F
  0.250000 -0.333333  0.166667    0.00057870 123 t-inv F
  0.333333 -0.333333  0.166667    0.00057870 124 t-inv F
  0.416667 -0.333333  0.166667    0.00057870 125 t-inv F
  0.500000 -0.333333  0.166667    0.00057870 126 t-inv F
  0.250000 -0.250000  0.166667    0.00057870 127 t-inv F
  0.333333 -0.250000  0.166667    0.00057870 128 t-inv F
  0.416667 -0.250000  0.166667    0.00057870 129 t-inv F
  0.250000 -0.166667  0.166667    0.00057870 130 t-inv F
  0.333333 -0.166667  0.166667    0.00057870 131 t-inv F
  0.250000 -0.083333  0.166667    0.00057870 132 t-inv F
  0.250000  0.000000  0.250000    0.00057870 133 t-inv F
  0.333333  0.000000  0.250000    0.00057870 134 t-inv F
  0.416667 -0.000000  0.250000    0.00057870 135 t-inv F
  0.500000  0.000000  0.250000    0.00057870 136 t-inv F
 -0.416667  0.000000  0.250000    0.00057870 137 t-inv F
 -0.333333 -0.000000  0.250000    0.00057870 138 t-inv F
 -0.250000  0.000000  0.250000    0.00057870 139 t-inv F
 -0.250000  0.500000  0.250000    0.00057870 140 t-inv F
  0.333333 -0.416667  0.250000    0.00057870 141 t-inv F
  0.333333 -0.333333  0.250000    0.00057870 142 t-inv F
  0.416667 -0.333333  0.250000    0.00057870 143 t-inv F
  0.333333 -0.250000  0.250000    0.00057870 144 t-inv F
  0.416667 -0.250000  0.250000    0.00057870 145 t-inv F
  0.500000 -0.250000  0.250000    0.00057870 146 t-inv F
  0.333333 -0.166667  0.250000    0.00057870 147 t-inv F
  0.416667 -0.166667  0.250000    0.00057870 148 t-inv F
  0.333333 -0.083333  0.250000    0.00057870 149 t-inv F
  0.333333  0.000000  0.333333    0.00057870 150 t-inv F
  0.416667  0.000000  0.333333    0.00057870 151 t-inv F
  0.500000  0.000000  0.333333    0.00057870 152 t-inv F
 -0.416667 -0.000000  0.333333    0.00057870 153 t-inv F
 -0.333333 -0.000000  0.333333    0.00057870 154 t-inv F
  0.416667 -0.250000  0.333333    0.00057870 155 t-inv F
  0.416667 -0.166667  0.333333    0.00057870 156 t-inv F
  0.500000 -0.166667  0.333333    0.00057870 157 t-inv F
  0.416667 -0.083333  0.333333    0.00057870 158 t-inv F
  0.416667 -0.000000  0.416667    0.00057870 159 t-inv F
  0.500000  0.000000  0.416667    0.00057870 160 t-inv F
 -0.416667  0.000000  0.416667    0.00057870 161 t-inv F
  0.500000 -0.083333  0.416667    0.00057870 162 t-inv F
  0.500000  0.000000  0.500000    0.00057870 163 t-inv F
 -0.000000 -0.083333  0.000000    0.00057870   2 t-inv F
  0.083333  0.083333  0.083333    0.00057870   2 t-inv F
  0.000000  0.000000  0.083333    0.00057870   2 t-inv F
  0.000000 -0.166667 -0.000000    0.00057870   3 t-inv F
  0.166667  0.166667  0.166667    0.00057870   3 t-inv F
 -0.000000 -0.000000  0.166667    0.00057870   3 t-inv F
  0.000000 -0.250000  0.000000    0.00057870   4 t-inv F
  0.250000  0.250000  0.250000    0.00057870   4 t-inv F
  0.000000  0.000000  0.250000    0.00057870   4 t-inv F
 -0.000000 -0.333333  0.000000    0.00057870   5 t-inv F
  0.333333  0.333333  0.333333    0.00057870   5 t-inv F
  0.000000  0.000000  0.333333    0.00057870   5 t-inv F
  0.000000 -0.416667  0.000000    0.00057870   6 t-inv F
  0.416667  0.416667  0.416667    0.00057870   6 t-inv F
  0.000000 -0.000000  0.416667    0.00057870   6 t-inv F
  0.000000 -0.500000  0.000000    0.00057870   7 t-inv F
  0.500000  0.500000  0.500000    0.00057870   7 t-inv F
  0.000000  0.000000  0.500000    0.00057870   7 t-inv F
 -0.000000 -0.083333 -0.083333    0.00057870   8 t-inv F
 -0.083333 -0.083333 -0.000000    0.00057870   8 t-inv F
  0.000000  0.083333  0.083333    0.00057870   8 t-inv F
 -0.000000 -0.166667 -0.083333    0.00057870   9 t-inv F
 -0.083333 -0.166667 -0.000000    0.00057870   9 t-inv F
  0.083333 -0.083333 -0.083333    0.00057870   9 t-inv F
  0.166667  0.166667  0.083333    0.00057870   9 t-inv F
  0.083333  0.166667  0.166667    0.00057870   9 t-inv F
 -0.083333 -0.083333  0.083333    0.00057870   9 t-inv F
 -0.000000  0.083333  0.166667    0.00057870   9 t-inv F
 -0.000000 -0.250000 -0.083333    0.00057870  10 t-inv F
 -0.083333 -0.250000 -0.000000    0.00057870  10 t-inv F
  0.166667 -0.083333 -0.083333    0.00057870  10 t-inv F
  0.250000  0.250000  0.166667    0.00057870  10 t-inv F
  0.166667  0.250000  0.250000    0.00057870  10 t-inv F
 -0.083333 -0.083333  0.166667    0.00057870  10 t-inv F
 -0.000000  0.083333  0.250000    0.00057870  10 t-inv F
  0.000000 -0.333333 -0.083333    0.00057870  11 t-inv F
 -0.083333 -0.333333  0.000000    0.00057870  11 t-inv F
  0.250000 -0.083333 -0.083333    0.00057870  11 t-inv F
  0.333333  0.333333  0.250000    0.00057870  11 t-inv F
  0.250000  0.333333  0.333333    0.00057870  11 t-inv F
 -0.083333 -0.083333  0.250000    0.00057870  11 t-inv F
  0.000000  0.083333  0.333333    0.00057870  11 t-inv F
  0.000000 -0.416667 -0.083333    0.00057870  12 t-inv F
 -0.083333 -0.416667  0.000000    0.00057870  12 t-inv F
  0.333333 -0.083333 -0.083333    0.00057870  12 t-inv F
  0.416667  0.416667  0.333333    0.00057870  12 t-inv F
  0.333333  0.416667  0.416667    0.00057870  12 t-inv F
 -0.083333 -0.083333  0.333333    0.00057870  12 t-inv F
  0.000000  0.083333  0.416667    0.00057870  12 t-inv F
 -0.000000 -0.500000 -0.083333    0.00057870  13 t-inv F
 -0.083333 -0.500000 -0.000000    0.00057870  13 t-inv F
  0.416667 -0.083333 -0.083333    0.00057870  13 t-inv F
  0.500000  0.500000  0.416667    0.00057870  13 t-inv F
  0.416667  0.500000  0.500000    0.00057870  13 t-inv F
 -0.083333 -0.083333  0.416667    0.00057870  13 t-inv F
 -0.000000  0.083333  0.500000    0.00057870  13 t-inv F
 -0.000000  0.416667 -0.083333    0.00057870  14 t-inv F
 -0.083333  0.416667 -0.000000    0.00057870  14 t-inv F
 -0.500000 -0.083333 -0.083333    0.00057870  14 t-inv F
 -0.416667 -0.416667 -0.500000    0.00057870  14 t-inv F
 -0.500000 -0.416667 -0.416667    0.00057870  14 t-inv F
 -0.083333 -0.083333 -0.500000    0.00057870  14 t-inv F
 -0.000000  0.083333 -0.416667    0.00057870  14 t-inv F
  0.000000  0.333333 -0.083333    0.00057870  15 t-inv F
 -0.083333  0.333333  0.000000    0.00057870  15 t-inv F
 -0.416667 -0.083333 -0.083333    0.00057870  15 t-inv F
 -0.333333 -0.333333 -0.416667    0.00057870  15 t-inv F
 -0.416667 -0.333333 -0.333333    0.00057870  15 t-inv F
 -0.083333 -0.083333 -0.416667    0.00057870  15 t-inv F
  0.000000  0.083333 -0.333333    0.00057870  15 t-inv F
 -0.000000  0.250000 -0.083333    0.00057870  16 t-inv F
 -0.083333  0.250000 -0.000000    0.00057870  16 t-inv F
 -0.333333 -0.083333 -0.083333    0.00057870  16 t-inv F
 -0.250000 -0.250000 -0.333333    0.00057870  16 t-inv F
 -0.333333 -0.250000 -0.250000    0.00057870  16 t-inv F
 -0.083333 -0.083333 -0.333333    0.00057870  16 t-inv F
 -0.000000  0.083333 -0.250000    0.00057870  16 t-inv F
 -0.000000  0.166667 -0.083333    0.00057870  17 t-inv F
 -0.083333  0.166667 -0.000000    0.00057870  17 t-inv F
 -0.250000 -0.083333 -0.083333    0.00057870  17 t-inv F
 -0.166667 -0.166667 -0.250000    0.00057870  17 t-inv F
 -0.250000 -0.166667 -0.166667    0.00057870  17 t-inv F
 -0.083333 -0.083333 -0.250000    0.00057870  17 t-inv F
 -0.000000  0.083333 -0.166667    0.00057870  17 t-inv F
  0.000000  0.083333 -0.083333    0.00057870  18 t-inv F
 -0.166667 -0.083333 -0.083333    0.00057870  18 t-inv F
 -0.083333 -0.083333 -0.166667    0.00057870  18 t-inv F
 -0.000000 -0.166667 -0.166667    0.00057870  19 t-inv F
 -0.166667 -0.166667 -0.000000    0.00057870  19 t-inv F
 -0.000000  0.166667  0.166667    0.00057870  19 t-inv F
 -0.000000 -0.250000 -0.166667    0.00057870  20 t-inv F
 -0.166667 -0.250000 -0.000000    0.00057870  20 t-inv F
  0.083333 -0.166667 -0.166667    0.00057870  20 t-inv F
  0.250000  0.250000  0.083333    0.00057870  20 t-inv F
  0.083333  0.250000  0.250000    0.00057870  20 t-inv F
 -0.166667 -0.166667  0.083333    0.00057870  20 t-inv F
 -0.000000  0.166667  0.250000    0.00057870  20 t-inv F
  0.000000 -0.333333 -0.166667    0.00057870  21 t-inv F
 -0.166667 -0.333333  0.000000    0.00057870  21 t-inv F
  0.166667 -0.166667 -0.166667    0.00057870  21 t-inv F
  0.333333  0.333333  0.166667    0.00057870  21 t-inv F
  0.166667  0.333333  0.333333    0.00057870  21 t-inv F
 -0.166667 -0.166667  0.166667    0.00057870  21 t-inv F
  0.000000  0.166667  0.333333    0.00057870  21 t-inv F
  0.000000 -0.416667 -0.166667    0.00057870  22 t-inv F
 -0.166667 -0.416667  0.000000    0.00057870  22 t-inv F
  0.250000 -0.166667 -0.166667    0.00057870  22 t-inv F
  0.416667  0.416667  0.250000    0.00057870  22 t-inv F
  0.250000  0.416667  0.416667    0.00057870  22 t-inv F
 -0.166667 -0.166667  0.250000    0.00057870  22 t-inv F
  0.000000  0.166667  0.416667    0.00057870  22 t-inv F
  0.000000 -0.500000 -0.166667    0.00057870  23 t-inv F
 -0.166667 -0.500000  0.000000    0.00057870  23 t-inv F
  0.333333 -0.166667 -0.166667    0.00057870  23 t-inv F
  0.500000  0.500000  0.333333    0.00057870  23 t-inv F
  0.333333  0.500000  0.500000    0.00057870  23 t-inv F
 -0.166667 -0.166667  0.333333    0.00057870  23 t-inv F
  0.000000  0.166667  0.500000    0.00057870  23 t-inv F
  0.000000  0.416667 -0.166667    0.00057870  24 t-inv F
 -0.166667  0.416667  0.000000    0.00057870  24 t-inv F
 -0.583333 -0.166667 -0.166667    0.00057870  24 t-inv F
 -0.416667 -0.416667 -0.583333    0.00057870  24 t-inv F
 -0.583333 -0.416667 -0.416667    0.00057870  24 t-inv F
 -0.166667 -0.166667 -0.583333    0.00057870  24 t-inv F
  0.000000  0.166667 -0.416667    0.00057870  24 t-inv F
 -0.000000  0.333333 -0.166667    0.00057870  25 t-inv F
 -0.166667  0.333333 -0.000000    0.00057870  25 t-inv F
 -0.500000 -0.166667 -0.166667    0.00057870  25 t-inv F
 -0.333333 -0.333333 -0.500000    0.00057870  25 t-inv F
 -0.500000 -0.333333 -0.333333    0.00057870  25 t-inv F
 -0.166667 -0.166667 -0.500000    0.00057870  25 t-inv F
 -0.000000  0.166667 -0.333333    0.00057870  25 t-inv F
 -0.000000  0.250000 -0.166667    0.00057870  26 t-inv F
 -0.166667  0.250000 -0.000000    0.00057870  26 t-inv F
 -0.416667 -0.166667 -0.166667    0.00057870  26 t-inv F
 -0.250000 -0.250000 -0.416667    0.00057870  26 t-inv F
 -0.416667 -0.250000 -0.250000    0.00057870  26 t-inv F
 -0.166667 -0.166667 -0.416667    0.00057870  26 t-inv F
 -0.000000  0.166667 -0.250000    0.00057870  26 t-inv F
  0.000000  0.166667 -0.166667    0.00057870  27 t-inv F
 -0.333333 -0.166667 -0.166667    0.00057870  27 t-inv F
 -0.166667 -0.166667 -0.333333    0.00057870  27 t-inv F
 -0.000000 -0.250000 -0.250000    0.00057870  28 t-inv F
 -0.250000 -0.250000 -0.000000    0.00057870  28 t-inv F
  0.000000  0.250000  0.250000    0.00057870  28 t-inv F
 -0.000000 -0.333333 -0.250000    0.00057870  29 t-inv F
 -0.250000 -0.333333 -0.000000    0.00057870  29 t-inv F
  0.083333 -0.250000 -0.250000    0.00057870  29 t-inv F
  0.333333  0.333333  0.083333    0.00057870  29 t-inv F
  0.083333  0.333333  0.333333    0.00057870  29 t-inv F
 -0.250000 -0.250000  0.083333    0.00057870  29 t-inv F
 -0.000000  0.250000  0.333333    0.00057870  29 t-inv F
  0.000000 -0.416667 -0.250000    0.00057870  30 t-inv F
 -0.250000 -0.416667  0.000000    0.00057870  30 t-inv F
  0.166667 -0.250000 -0.250000    0.00057870  30 t-inv F
  0.416667  0.416667  0.166667    0.00057870  30 t-inv F
  0.166667  0.416667  0.416667    0.00057870  30 t-inv F
 -0.250000 -0.250000  0.166667    0.00057870  30 t-inv F
  0.000000  0.250000  0.416667    0.00057870  30 t-inv F
  0.000000 -0.500000 -0.250000    0.00057870  31 t-inv F
 -0.250000 -0.500000  0.000000    0.00057870  31 t-inv F
  0.250000 -0.250000 -0.250000    0.00057870  31 t-inv F
  0.500000  0.500000  0.250000    0.00057870  31 t-inv F
  0.250000  0.500000  0.500000    0.00057870  31 t-inv F
 -0.250000 -0.250000  0.250000    0.00057870  31 t-inv F
  0.000000  0.250000  0.500000    0.00057870  31 t-inv F
  0.000000  0.416667 -0.250000    0.00057870  32 t-inv F
 -0.250000  0.416667  0.000000    0.00057870  32 t-inv F
 -0.666667 -0.250000 -0.250000    0.00057870  32 t-inv F
 -0.416667 -0.416667 -0.666667    0.00057870  32 t-inv F
 -0.666667 -0.416667 -0.416667    0.00057870  32 t-inv F
 -0.250000 -0.250000 -0.666667    0.00057870  32 t-inv F
  0.000000  0.250000 -0.416667    0.00057870  32 t-inv F
  0.000000  0.333333 -0.250000    0.00057870  33 t-inv F
 -0.250000  0.333333  0.000000    0.00057870  33 t-inv F
 -0.583333 -0.250000 -0.250000    0.00057870  33 t-inv F
 -0.333333 -0.333333 -0.583333    0.00057870  33 t-inv F
 -0.583333 -0.333333 -0.333333    0.00057870  33 t-inv F
 -0.250000 -0.250000 -0.583333    0.00057870  33 t-inv F
  0.000000  0.250000 -0.333333    0.00057870  33 t-inv F
  0.000000  0.250000 -0.250000    0.00057870  34 t-inv F
 -0.500000 -0.250000 -0.250000    0.00057870  34 t-inv F
 -0.250000 -0.250000 -0.500000    0.00057870  34 t-inv F
 -0.000000 -0.333333 -0.333333    0.00057870  35 t-inv F
 -0.333333 -0.333333 -0.000000    0.00057870  35 t-inv F
  0.000000  0.333333  0.333333    0.00057870  35 t-inv F
 -0.000000 -0.416667 -0.333333    0.00057870  36 t-inv F
 -0.333333 -0.416667 -0.000000    0.00057870  36 t-inv F
  0.083333 -0.333333 -0.333333    0.00057870  36 t-inv F
  0.416667  0.416667  0.083333    0.00057870  36 t-inv F
  0.083333  0.416667  0.416667    0.00057870  36 t-inv F
 -0.333333 -0.333333  0.083333    0.00057870  36 t-inv F
 -0.000000  0.333333  0.416667    0.00057870  36 t-inv F
  0.000000 -0.500000 -0.333333    0.00057870  37 t-inv F
 -0.333333 -0.500000  0.000000    0.00057870  37 t-inv F
  0.166667 -0.333333 -0.333333    0.00057870  37 t-inv F
  0.500000  0.500000  0.166667    0.00057870  37 t-inv F
  0.166667  0.500000  0.500000    0.00057870  37 t-inv F
 -0.333333 -0.333333  0.166667    0.00057870  37 t-inv F
  0.000000  0.333333  0.500000    0.00057870  37 t-inv F
  0.000000  0.416667 -0.333333    0.00057870  38 t-inv F
 -0.333333  0.416667  0.000000    0.00057870  38 t-inv F
 -0.750000 -0.333333 -0.333333    0.00057870  38 t-inv F
 -0.416667 -0.416667 -0.750000    0.00057870  38 t-inv F
 -0.750000 -0.416667 -0.416667    0.00057870  38 t-inv F
 -0.333333 -0.333333 -0.750000    0.00057870  38 t-inv F
  0.000000  0.333333 -0.416667    0.00057870  38 t-inv F
 -0.000000  0.333333 -0.333333    0.00057870  39 t-inv F
 -0.666667 -0.333333 -0.333333    0.00057870  39 t-inv F
 -0.333333 -0.333333 -0.666667    0.00057870  39 t-inv F
 -0.000000 -0.416667 -0.416667    0.00057870  40 t-inv F
 -0.416667 -0.416667 -0.000000    0.00057870  40 t-inv F
  0.000000  0.416667  0.416667    0.00057870  40 t-inv F
 -0.000000 -0.500000 -0.416667    0.00057870  41 t-inv F
 -0.416667 -0.500000 -0.000000    0.00057870  41 t-inv F
  0.083333 -0.416667 -0.416667    0.00057870  41 t-inv F
  0.500000  0.500000  0.083333    0.00057870  41 t-inv F
  0.083333  0.500000  0.500000    0.00057870  41 t-inv F
 -0.416667 -0.416667  0.083333    0.00057870  41 t-inv F
 -0.000000  0.416667  0.500000    0.00057870  41 t-inv F
 -0.000000  0.416667 -0.416667    0.00057870  42 t-inv F
 -0.833333 -0.416667 -0.416667    0.00057870  42 t-inv F
 -0.416667 -0.416667 -0.833333    0.00057870  42 t-inv F
 -0.000000 -0.500000 -0.500000    0.00057870  43 t-inv F
  0.083333 -0.083333  0.083333    0.00057870  45 t-inv F
  0.166667  0.083333  0.166667    0.00057870  45 t-inv F
  0.083333 -0.000000  0.166667    0.00057870  45 t-inv F
  0.083333 -0.166667  0.083333    0.00057870  46 t-inv F
  0.250000  0.166667  0.250000    0.00057870  46 t-inv F
  0.083333  0.000000  0.250000    0.00057870  46 t-inv F
  0.083333 -0.250000  0.083333    0.00057870  47 t-inv F
  0.333333  0.250000  0.333333    0.00057870  47 t-inv F
  0.083333 -0.000000  0.333333    0.00057870  47 t-inv F
  0.083333 -0.333333  0.083333    0.00057870  48 t-inv F
  0.416667  0.333333  0.416667    0.00057870  48 t-inv F
  0.083333 -0.000000  0.416667    0.00057870  48 t-inv F
  0.083333 -0.416667  0.083333    0.00057870  49 t-inv F
  0.500000  0.416667  0.500000    0.00057870  49 t-inv F
  0.083333  0.000000  0.500000    0.00057870  49 t-inv F
  0.083333  0.500000  0.083333    0.00057870  50 t-inv F
 -0.416667 -0.500000 -0.416667    0.00057870  50 t-inv F
  0.083333  0.000000 -0.416667    0.00057870  50 t-inv F
  0.083333  0.416667  0.083333    0.00057870  51 t-inv F
 -0.333333 -0.416667 -0.333333    0.00057870  51 t-inv F
  0.083333 -0.000000 -0.333333    0.00057870  51 t-inv F
  0.083333  0.333333  0.083333    0.00057870  52 t-inv F
 -0.250000 -0.333333 -0.250000    0.00057870  52 t-inv F
  0.083333 -0.000000 -0.250000    0.00057870  52 t-inv F
  0.083333  0.250000  0.083333    0.00057870  53 t-inv F
 -0.166667 -0.250000 -0.166667    0.00057870  53 t-inv F
  0.083333  0.000000 -0.166667    0.00057870  53 t-inv F
  0.083333  0.166667  0.083333    0.00057870  54 t-inv F
 -0.083333 -0.166667 -0.083333    0.00057870  54 t-inv F
  0.083333 -0.000000 -0.083333    0.00057870  54 t-inv F
  0.083333 -0.166667 -0.083333    0.00057870  55 t-inv F
 -0.083333 -0.166667  0.083333    0.00057870  55 t-inv F
  0.083333  0.166667  0.250000    0.00057870  55 t-inv F
  0.083333 -0.250000 -0.083333    0.00057870  56 t-inv F
 -0.083333 -0.250000  0.083333    0.00057870  56 t-inv F
  0.166667 -0.166667 -0.083333    0.00057870  56 t-inv F
  0.333333  0.250000  0.166667    0.00057870  56 t-inv F
  0.166667  0.250000  0.333333    0.00057870  56 t-inv F
 -0.083333 -0.166667  0.166667    0.00057870  56 t-inv F
  0.083333  0.166667  0.333333    0.00057870  56 t-inv F
  0.083333 -0.333333 -0.083333    0.00057870  57 t-inv F
 -0.083333 -0.333333  0.083333    0.00057870  57 t-inv F
  0.250000 -0.166667 -0.083333    0.00057870  57 t-inv F
  0.416667  0.333333  0.250000    0.00057870  57 t-inv F
  0.250000  0.333333  0.416667    0.00057870  57 t-inv F
 -0.083333 -0.166667  0.250000    0.00057870  57 t-inv F
  0.083333  0.166667  0.416667    0.00057870  57 t-inv F
  0.083333 -0.416667 -0.083333    0.00057870  58 t-inv F
 -0.083333 -0.416667  0.083333    0.00057870  58 t-inv F
  0.333333 -0.166667 -0.083333    0.00057870  58 t-inv F
  0.500000  0.416667  0.333333    0.00057870  58 t-inv F
  0.333333  0.416667  0.500000    0.00057870  58 t-inv F
 -0.083333 -0.166667  0.333333    0.00057870  58 t-inv F
  0.083333  0.166667  0.500000    0.00057870  58 t-inv F
  0.083333  0.500000 -0.083333    0.00057870  59 t-inv F
 -0.083333  0.500000  0.083333    0.00057870  59 t-inv F
 -0.583333 -0.166667 -0.083333    0.00057870  59 t-inv F
 -0.416667 -0.500000 -0.583333    0.00057870  59 t-inv F
 -0.583333 -0.500000 -0.416667    0.00057870  59 t-inv F
 -0.083333 -0.166667 -0.583333    0.00057870  59 t-inv F
  0.083333  0.166667 -0.416667    0.00057870  59 t-inv F
  0.083333 -0.083333 -0.166667    0.00057870  60 t-inv F
 -0.166667 -0.083333  0.083333    0.00057870  60 t-inv F
 -0.083333 -0.250000 -0.166667    0.00057870  60 t-inv F
  0.166667  0.083333 -0.083333    0.00057870  60 t-inv F
 -0.083333  0.083333  0.166667    0.00057870  60 t-inv F
 -0.166667 -0.250000 -0.083333    0.00057870  60 t-inv F
  0.083333  0.250000  0.166667    0.00057870  60 t-inv F
  0.083333 -0.250000 -0.166667    0.00057870  61 t-inv F
 -0.166667 -0.250000  0.083333    0.00057870  61 t-inv F
  0.083333  0.250000  0.333333    0.00057870  61 t-inv F
  0.083333 -0.333333 -0.166667    0.00057870  62 t-inv F
 -0.166667 -0.333333  0.083333    0.00057870  62 t-inv F
  0.166667 -0.250000 -0.166667    0.00057870  62 t-inv F
  0.416667  0.333333  0.166667    0.00057870  62 t-inv F
  0.166667  0.333333  0.416667    0.00057870  62 t-inv F
 -0.166667 -0.250000  0.166667    0.00057870  62 t-inv F
  0.083333  0.250000  0.416667    0.00057870  62 t-inv F
  0.083333 -0.416667 -0.166667    0.00057870  63 t-inv F
 -0.166667 -0.416667  0.083333    0.00057870  63 t-inv F
  0.250000 -0.250000 -0.166667    0.00057870  63 t-inv F
  0.500000  0.416667  0.250000    0.00057870  63 t-inv F
  0.250000  0.416667  0.500000    0.00057870  63 t-inv F
 -0.166667 -0.250000  0.250000    0.00057870  63 t-inv F
  0.083333  0.250000  0.500000    0.00057870  63 t-inv F
  0.083333  0.500000 -0.166667    0.00057870  64 t-inv F
 -0.166667  0.500000  0.083333    0.00057870  64 t-inv F
 -0.666667 -0.250000 -0.166667    0.00057870  64 t-inv F
 -0.416667 -0.500000 -0.666667    0.00057870  64 t-inv F
 -0.666667 -0.500000 -0.416667    0.00057870  64 t-inv F
 -0.166667 -0.250000 -0.666667    0.00057870  64 t-inv F
  0.083333  0.250000 -0.416667    0.00057870  64 t-inv F
  0.083333  0.416667 -0.166667    0.00057870  65 t-inv F
 -0.166667  0.416667  0.083333    0.00057870  65 t-inv F
 -0.583333 -0.250000 -0.166667    0.00057870  65 t-inv F
 -0.333333 -0.416667 -0.583333    0.00057870  65 t-inv F
 -0.583333 -0.416667 -0.333333    0.00057870  65 t-inv F
 -0.166667 -0.250000 -0.583333    0.00057870  65 t-inv F
  0.083333  0.250000 -0.333333    0.00057870  65 t-inv F
  0.083333  0.333333 -0.166667    0.00057870  66 t-inv F
 -0.166667  0.333333  0.083333    0.00057870  66 t-inv F
 -0.500000 -0.250000 -0.166667    0.00057870  66 t-inv F
 -0.250000 -0.333333 -0.500000    0.00057870  66 t-inv F
 -0.500000 -0.333333 -0.250000    0.00057870  66 t-inv F
 -0.166667 -0.250000 -0.500000    0.00057870  66 t-inv F
  0.083333  0.250000 -0.250000    0.00057870  66 t-inv F
  0.083333  0.250000 -0.166667    0.00057870  67 t-inv F
 -0.416667 -0.250000 -0.166667    0.00057870  67 t-inv F
 -0.166667 -0.250000 -0.416667    0.00057870  67 t-inv F
  0.083333 -0.083333 -0.250000    0.00057870  68 t-inv F
 -0.250000 -0.083333  0.083333    0.00057870  68 t-inv F
 -0.166667 -0.333333 -0.250000    0.00057870  68 t-inv F
  0.166667  0.083333 -0.166667    0.00057870  68 t-inv F
 -0.166667  0.083333  0.166667    0.00057870  68 t-inv F
 -0.250000 -0.333333 -0.166667    0.00057870  68 t-inv F
  0.083333  0.333333  0.166667    0.00057870  68 t-inv F
  0.083333 -0.166667 -0.250000    0.00057870  69 t-inv F
 -0.250000 -0.166667  0.083333    0.00057870  69 t-inv F
 -0.083333 -0.333333 -0.250000    0.00057870  69 t-inv F
  0.250000  0.166667 -0.083333    0.00057870  69 t-inv F
 -0.083333  0.166667  0.250000    0.00057870  69 t-inv F
 -0.250000 -0.333333 -0.083333    0.00057870  69 t-inv F
  0.083333  0.333333  0.250000    0.00057870  69 t-inv F
  0.083333 -0.333333 -0.250000    0.00057870  70 t-inv F
 -0.250000 -0.333333  0.083333    0.00057870  70 t-inv F
  0.083333  0.333333  0.416667    0.00057870  70 t-inv F
  0.083333 -0.416667 -0.250000    0.00057870  71 t-inv F
 -0.250000 -0.416667  0.083333    0.00057870  71 t-inv F
  0.166667 -0.333333 -0.250000    0.00057870  71 t-inv F
  0.500000  0.416667  0.166667    0.00057870  71 t-inv F
  0.166667  0.416667  0.500000    0.00057870  71 t-inv F
 -0.250000 -0.333333  0.166667    0.00057870  71 t-inv F
  0.083333  0.333333  0.500000    0.00057870  71 t-inv F
  0.083333  0.500000 -0.250000    0.00057870  72 t-inv F
 -0.250000  0.500000  0.083333    0.00057870  72 t-inv F
 -0.750000 -0.333333 -0.250000    0.00057870  72 t-inv F
 -0.416667 -0.500000 -0.750000    0.00057870  72 t-inv F
 -0.750000 -0.500000 -0.416667    0.00057870  72 t-inv F
 -0.250000 -0.333333 -0.750000    0.00057870  72 t-inv F
  0.083333  0.333333 -0.416667    0.00057870  72 t-inv F
  0.083333  0.416667 -0.250000    0.00057870  73 t-inv F
 -0.250000  0.416667  0.083333    0.00057870  73 t-inv F
 -0.666667 -0.333333 -0.250000    0.00057870  73 t-inv F
 -0.333333 -0.416667 -0.666667    0.00057870  73 t-inv F
 -0.666667 -0.416667 -0.333333    0.00057870  73 t-inv F
 -0.250000 -0.333333 -0.666667    0.00057870  73 t-inv F
  0.083333  0.333333 -0.333333    0.00057870  73 t-inv F
  0.083333  0.333333 -0.250000    0.00057870  74 t-inv F
 -0.583333 -0.333333 -0.250000    0.00057870  74 t-inv F
 -0.250000 -0.333333 -0.583333    0.00057870  74 t-inv F
  0.083333 -0.083333 -0.333333    0.00057870  75 t-inv F
 -0.333333 -0.083333  0.083333    0.00057870  75 t-inv F
 -0.250000 -0.416667 -0.333333    0.00057870  75 t-inv F
  0.166667  0.083333 -0.250000    0.00057870  75 t-inv F
 -0.250000  0.083333  0.166667    0.00057870  75 t-inv F
 -0.333333 -0.416667 -0.250000    0.00057870  75 t-inv F
  0.083333  0.416667  0.166667    0.00057870  75 t-inv F
  0.083333 -0.166667 -0.333333    0.00057870  76 t-inv F
 -0.333333 -0.166667  0.083333    0.00057870  76 t-inv F
 -0.166667 -0.416667 -0.333333    0.00057870  76 t-inv F
  0.250000  0.166667 -0.166667    0.00057870  76 t-inv F
 -0.166667  0.166667  0.250000    0.00057870  76 t-inv F
 -0.333333 -0.416667 -0.166667    0.00057870  76 t-inv F
  0.083333  0.416667  0.250000    0.00057870  76 t-inv F
  0.083333 -0.250000 -0.333333    0.00057870  77 t-inv F
 -0.333333 -0.250000  0.083333    0.00057870  77 t-inv F
 -0.083333 -0.416667 -0.333333    0.00057870  77 t-inv F
  0.333333  0.250000 -0.083333    0.00057870  77 t-inv F
 -0.083333  0.250000  0.333333    0.00057870  77 t-inv F
 -0.333333 -0.416667 -0.083333    0.00057870  77 t-inv F
  0.083333  0.416667  0.333333    0.00057870  77 t-inv F
  0.083333 -0.416667 -0.333333    0.00057870  78 t-inv F
 -0.333333 -0.416667  0.083333    0.00057870  78 t-inv F
  0.083333  0.416667  0.500000    0.00057870  78 t-inv F
  0.083333  0.500000 -0.333333    0.00057870  79 t-inv F
 -0.333333  0.500000  0.083333    0.00057870  79 t-inv F
 -0.833333 -0.416667 -0.333333    0.00057870  79 t-inv F
 -0.416667 -0.500000 -0.833333    0.00057870  79 t-inv F
 -0.833333 -0.500000 -0.416667    0.00057870  79 t-inv F
 -0.333333 -0.416667 -0.833333    0.00057870  79 t-inv F
  0.083333  0.416667 -0.416667    0.00057870  79 t-inv F
  0.083333  0.416667 -0.333333    0.00057870  80 t-inv F
 -0.750000 -0.416667 -0.333333    0.00057870  80 t-inv F
 -0.333333 -0.416667 -0.750000    0.00057870  80 t-inv F
  0.083333 -0.083333 -0.416667    0.00057870  81 t-inv F
 -0.416667 -0.083333  0.083333    0.00057870  81 t-inv F
 -0.333333 -0.500000 -0.416667    0.00057870  81 t-inv F
  0.166667  0.083333 -0.333333    0.00057870  81 t-inv F
 -0.333333  0.083333  0.166667    0.00057870  81 t-inv F
 -0.416667 -0.500000 -0.333333    0.00057870  81 t-inv F
  0.083333  0.500000  0.166667    0.00057870  81 t-inv F
  0.083333 -0.166667 -0.416667    0.00057870  82 t-inv F
 -0.416667 -0.166667  0.083333    0.00057870  82 t-inv F
 -0.250000 -0.500000 -0.416667    0.00057870  82 t-inv F
  0.250000  0.166667 -0.250000    0.00057870  82 t-inv F
 -0.250000  0.166667  0.250000    0.00057870  82 t-inv F
 -0.416667 -0.500000 -0.250000    0.00057870  82 t-inv F
  0.083333  0.500000  0.250000    0.00057870  82 t-inv F
  0.083333 -0.250000 -0.416667    0.00057870  83 t-inv F
 -0.416667 -0.250000  0.083333    0.00057870  83 t-inv F
 -0.166667 -0.500000 -0.416667    0.00057870  83 t-inv F
  0.333333  0.250000 -0.166667    0.00057870  83 t-inv F
 -0.166667  0.250000  0.333333    0.00057870  83 t-inv F
 -0.416667 -0.500000 -0.166667    0.00057870  83 t-inv F
  0.083333  0.500000  0.333333    0.00057870  83 t-inv F
  0.083333 -0.333333 -0.416667    0.00057870  84 t-inv F
 -0.416667 -0.333333  0.083333    0.00057870  84 t-inv F
 -0.083333 -0.500000 -0.416667    0.00057870  84 t-inv F
  0.416667  0.333333 -0.083333    0.00057870  84 t-inv F
 -0.083333  0.333333  0.416667    0.00057870  84 t-inv F
 -0.416667 -0.500000 -0.083333    0.00057870  84 t-inv F
  0.083333  0.500000  0.416667    0.00057870  84 t-inv F
  0.083333  0.500000 -0.416667    0.00057870  85 t-inv F
  0.083333 -0.083333  0.500000    0.00057870  86 t-inv F
  0.500000 -0.083333  0.083333    0.00057870  86 t-inv F
  0.583333  0.416667  0.500000    0.00057870  86 t-inv F
  0.166667  0.083333  0.583333    0.00057870  86 t-inv F
  0.583333  0.083333  0.166667    0.00057870  86 t-inv F
  0.500000  0.416667  0.583333    0.00057870  86 t-inv F
  0.083333 -0.416667  0.166667    0.00057870  86 t-inv F
  0.083333 -0.166667  0.500000    0.00057870  87 t-inv F
  0.500000 -0.166667  0.083333    0.00057870  87 t-inv F
  0.666667  0.416667  0.500000    0.00057870  87 t-inv F
  0.250000  0.166667  0.666667    0.00057870  87 t-inv F
  0.666667  0.166667  0.250000    0.00057870  87 t-inv F
  0.500000  0.416667  0.666667    0.00057870  87 t-inv F
  0.083333 -0.416667  0.250000    0.00057870  87 t-inv F
  0.083333 -0.250000  0.500000    0.00057870  88 t-inv F
  0.500000 -0.250000  0.083333    0.00057870  88 t-inv F
  0.750000  0.416667  0.500000    0.00057870  88 t-inv F
  0.333333  0.250000  0.750000    0.00057870  88 t-inv F
  0.750000  0.250000  0.333333    0.00057870  88 t-inv F
  0.500000  0.416667  0.750000    0.00057870  88 t-inv F
  0.083333 -0.416667  0.333333    0.00057870  88 t-inv F
  0.083333 -0.333333  0.500000    0.00057870  89 t-inv F
  0.500000 -0.333333  0.083333    0.00057870  89 t-inv F
  0.833333  0.416667  0.500000    0.00057870  89 t-inv F
  0.416667  0.333333  0.833333    0.00057870  89 t-inv F
  0.833333  0.333333  0.416667    0.00057870  89 t-inv F
  0.500000  0.416667  0.833333    0.00057870  89 t-inv F
  0.083333 -0.416667  0.416667    0.00057870  89 t-inv F
  0.083333 -0.416667  0.500000    0.00057870  90 t-inv F
  0.916667  0.416667  0.500000    0.00057870  90 t-inv F
  0.500000  0.416667  0.916667    0.00057870  90 t-inv F
  0.083333 -0.083333  0.416667    0.00057870  91 t-inv F
  0.416667 -0.083333  0.083333    0.00057870  91 t-inv F
  0.500000  0.333333  0.416667    0.00057870  91 t-inv F
  0.166667  0.083333  0.500000    0.00057870  91 t-inv F
  0.500000  0.083333  0.166667    0.00057870  91 t-inv F
  0.416667  0.333333  0.500000    0.00057870  91 t-inv F
  0.083333 -0.333333  0.166667    0.00057870  91 t-inv F
  0.083333 -0.166667  0.416667    0.00057870  92 t-inv F
  0.416667 -0.166667  0.083333    0.00057870  92 t-inv F
  0.583333  0.333333  0.416667    0.00057870  92 t-inv F
  0.250000  0.166667  0.583333    0.00057870  92 t-inv F
  0.583333  0.166667  0.250000    0.00057870  92 t-inv F
  0.416667  0.333333  0.583333    0.00057870  92 t-inv F
  0.083333 -0.333333  0.250000    0.00057870  92 t-inv F
  0.083333 -0.250000  0.416667    0.00057870  93 t-inv F
  0.416667 -0.250000  0.083333    0.00057870  93 t-inv F
  0.666667  0.333333  0.416667    0.00057870  93 t-inv F
  0.333333  0.250000  0.666667    0.00057870  93 t-inv F
  0.666667  0.250000  0.333333    0.00057870  93 t-inv F
  0.416667  0.333333  0.666667    0.00057870  93 t-inv F
  0.083333 -0.333333  0.333333    0.00057870  93 t-inv F
  0.083333 -0.333333  0.416667    0.00057870  94 t-inv F
  0.750000  0.333333  0.416667    0.00057870  94 t-inv F
  0.416667  0.333333  0.750000    0.00057870  94 t-inv F
  0.083333 -0.083333  0.333333    0.00057870  95 t-inv F
  0.333333 -0.083333  0.083333    0.00057870  95 t-inv F
  0.416667  0.250000  0.333333    0.00057870  95 t-inv F
  0.166667  0.083333  0.416667    0.00057870  95 t-inv F
  0.416667  0.083333  0.166667    0.00057870  95 t-inv F
  0.333333  0.250000  0.416667    0.00057870  95 t-inv F
  0.083333 -0.250000  0.166667    0.00057870  95 t-inv F
  0.083333 -0.166667  0.333333    0.00057870  96 t-inv F
  0.333333 -0.166667  0.083333    0.00057870  96 t-inv F
  0.500000  0.250000  0.333333    0.00057870  96 t-inv F
  0.250000  0.166667  0.500000    0.00057870  96 t-inv F
  0.500000  0.166667  0.250000    0.00057870  96 t-inv F
  0.333333  0.250000  0.500000    0.00057870  96 t-inv F
  0.083333 -0.250000  0.250000    0.00057870  96 t-inv F
  0.083333 -0.250000  0.333333    0.00057870  97 t-inv F
  0.583333  0.250000  0.333333    0.00057870  97 t-inv F
  0.333333  0.250000  0.583333    0.00057870  97 t-inv F
  0.083333 -0.083333  0.250000    0.00057870  98 t-inv F
  0.250000 -0.083333  0.083333    0.00057870  98 t-inv F
  0.333333  0.166667  0.250000    0.00057870  98 t-inv F
  0.166667  0.083333  0.333333    0.00057870  98 t-inv F
  0.333333  0.083333  0.166667    0.00057870  98 t-inv F
  0.250000  0.166667  0.333333    0.00057870  98 t-inv F
  0.083333 -0.166667  0.166667    0.00057870  98 t-inv F
  0.083333 -0.166667  0.250000    0.00057870  99 t-inv F
  0.416667  0.166667  0.250000    0.00057870  99 t-inv F
  0.250000  0.166667  0.416667    0.00057870  99 t-inv F
  0.083333 -0.083333  0.166667    0.00057870 100 t-inv F
  0.250000  0.083333  0.166667    0.00057870 100 t-inv F
  0.166667  0.083333  0.250000    0.00057870 100 t-inv F
  0.166667 -0.083333  0.166667    0.00057870 102 t-inv F
  0.250000  0.083333  0.250000    0.00057870 102 t-inv F
  0.166667 -0.000000  0.250000    0.00057870 102 t-inv F
  0.166667 -0.166667  0.166667    0.00057870 103 t-inv F
  0.333333  0.166667  0.333333    0.00057870 103 t-inv F
  0.166667 -0.000000  0.333333    0.00057870 103 t-inv F
  0.166667 -0.250000  0.166667    0.00057870 104 t-inv F
  0.416667  0.250000  0.416667    0.00057870 104 t-inv F
  0.166667 -0.000000  0.416667    0.00057870 104 t-inv F
  0.166667 -0.333333  0.166667    0.00057870 105 t-inv F
  0.500000  0.333333  0.500000    0.00057870 105 t-inv F
  0.166667  0.000000  0.500000    0.00057870 105 t-inv F
  0.166667  0.583333  0.166667    0.00057870 106 t-inv F
 -0.416667 -0.583333 -0.416667    0.00057870 106 t-inv F
  0.166667  0.000000 -0.416667    0.00057870 106 t-inv F
  0.166667  0.500000  0.166667    0.00057870 107 t-inv F
 -0.333333 -0.500000 -0.333333    0.00057870 107 t-inv F
  0.166667  0.000000 -0.333333    0.00057870 107 t-inv F
  0.166667  0.416667  0.166667    0.00057870 108 t-inv F
 -0.250000 -0.416667 -0.250000    0.00057870 108 t-inv F
  0.166667  0.000000 -0.250000    0.00057870 108 t-inv F
  0.166667  0.333333  0.166667    0.00057870 109 t-inv F
 -0.166667 -0.333333 -0.166667    0.00057870 109 t-inv F
  0.166667  0.000000 -0.166667    0.00057870 109 t-inv F
  0.166667 -0.333333 -0.166667    0.00057870 110 t-inv F
 -0.166667 -0.333333  0.166667    0.00057870 110 t-inv F
  0.166667  0.333333  0.500000    0.00057870 110 t-inv F
  0.166667  0.583333 -0.166667    0.00057870 111 t-inv F
 -0.166667  0.583333  0.166667    0.00057870 111 t-inv F
 -0.750000 -0.333333 -0.166667    0.00057870 111 t-inv F
 -0.416667 -0.583333 -0.750000    0.00057870 111 t-inv F
 -0.750000 -0.583333 -0.416667    0.00057870 111 t-inv F
 -0.166667 -0.333333 -0.750000    0.00057870 111 t-inv F
  0.166667  0.333333 -0.416667    0.00057870 111 t-inv F
  0.166667  0.500000 -0.166667    0.00057870 112 t-inv F
 -0.166667  0.500000  0.166667    0.00057870 112 t-inv F
 -0.666667 -0.333333 -0.166667    0.00057870 112 t-inv F
 -0.333333 -0.500000 -0.666667    0.00057870 112 t-inv F
 -0.666667 -0.500000 -0.333333    0.00057870 112 t-inv F
 -0.166667 -0.333333 -0.666667    0.00057870 112 t-inv F
  0.166667  0.333333 -0.333333    0.00057870 112 t-inv F
  0.166667 -0.083333 -0.250000    0.00057870 113 t-inv F
 -0.250000 -0.083333  0.166667    0.00057870 113 t-inv F
 -0.166667 -0.416667 -0.250000    0.00057870 113 t-inv F
  0.250000  0.083333 -0.166667    0.00057870 113 t-inv F
 -0.166667  0.083333  0.250000    0.00057870 113 t-inv F
 -0.250000 -0.416667 -0.166667    0.00057870 113 t-inv F
  0.166667  0.416667  0.250000    0.00057870 113 t-inv F
  0.166667  0.583333 -0.250000    0.00057870 114 t-inv F
 -0.250000  0.583333  0.166667    0.00057870 114 t-inv F
 -0.833333 -0.583333 -0.416667    0.00057870 114 t-inv F
  0.166667  0.500000 -0.250000    0.00057870 115 t-inv F
 -0.250000  0.500000  0.166667    0.00057870 115 t-inv F
 -0.750000 -0.416667 -0.250000    0.00057870 115 t-inv F
 -0.333333 -0.500000 -0.750000    0.00057870 115 t-inv F
 -0.750000 -0.500000 -0.333333    0.00057870 115 t-inv F
 -0.250000 -0.416667 -0.750000    0.00057870 115 t-inv F
  0.166667  0.416667 -0.333333    0.00057870 115 t-inv F
  0.166667  0.416667 -0.250000    0.00057870 116 t-inv F
 -0.666667 -0.416667 -0.250000    0.00057870 116 t-inv F
 -0.250000 -0.416667 -0.666667    0.00057870 116 t-inv F
  0.166667 -0.083333 -0.333333    0.00057870 117 t-inv F
 -0.333333 -0.083333  0.166667    0.00057870 117 t-inv F
 -0.250000 -0.500000 -0.333333    0.00057870 117 t-inv F
  0.250000  0.083333 -0.250000    0.00057870 117 t-inv F
 -0.250000  0.083333  0.250000    0.00057870 117 t-inv F
 -0.333333 -0.500000 -0.250000    0.00057870 117 t-inv F
  0.166667  0.500000  0.250000    0.00057870 117 t-inv F
  0.166667 -0.166667 -0.333333    0.00057870 118 t-inv F
 -0.333333 -0.166667  0.166667    0.00057870 118 t-inv F
 -0.166667 -0.500000 -0.333333    0.00057870 118 t-inv F
  0.333333  0.166667 -0.166667    0.00057870 118 t-inv F
 -0.166667  0.166667  0.333333    0.00057870 118 t-inv F
 -0.333333 -0.500000 -0.166667    0.00057870 118 t-inv F
  0.166667  0.500000  0.333333    0.00057870 118 t-inv F
  0.166667  0.500000 -0.333333    0.00057870 119 t-inv F
  0.166667 -0.083333  0.583333    0.00057870 120 t-inv F
  0.583333 -0.083333  0.166667    0.00057870 120 t-inv F
  0.666667  0.416667  0.583333    0.00057870 120 t-inv F
  0.250000  0.083333  0.666667    0.00057870 120 t-inv F
  0.666667  0.083333  0.250000    0.00057870 120 t-inv F
  0.583333  0.416667  0.666667    0.00057870 120 t-inv F
  0.166667 -0.416667  0.250000    0.00057870 120 t-inv F
  0.166667 -0.166667  0.583333    0.00057870 121 t-inv F
  0.583333 -0.166667  0.166667    0.00057870 121 t-inv F
  0.750000  0.416667  0.583333    0.00057870 121 t-inv F
  0.333333  0.166667  0.750000    0.00057870 121 t-inv F
  0.750000  0.166667  0.333333    0.00057870 121 t-inv F
  0.583333  0.416667  0.750000    0.00057870 121 t-inv F
  0.166667 -0.416667  0.333333    0.00057870 121 t-inv F
  0.166667 -0.250000  0.583333    0.00057870 122 t-inv F
  0.583333 -0.250000  0.166667    0.00057870 122 t-inv F
  0.833333  0.416667  0.583333    0.00057870 122 t-inv F
  0.416667  0.250000  0.833333    0.00057870 122 t-inv F
  0.833333  0.250000  0.416667    0.00057870 122 t-inv F
  0.583333  0.416667  0.833333    0.00057870 122 t-inv F
  0.166667 -0.416667  0.416667    0.00057870 122 t-inv F
  0.166667 -0.083333  0.500000    0.00057870 123 t-inv F
  0.500000 -0.083333  0.166667    0.00057870 123 t-inv F
  0.583333  0.333333  0.500000    0.00057870 123 t-inv F
  0.250000  0.083333  0.583333    0.00057870 123 t-inv F
  0.583333  0.083333  0.250000    0.00057870 123 t-inv F
  0.500000  0.333333  0.583333    0.00057870 123 t-inv F
  0.166667 -0.333333  0.250000    0.00057870 123 t-inv F
  0.166667 -0.166667  0.500000    0.00057870 124 t-inv F
  0.500000 -0.166667  0.166667    0.00057870 124 t-inv F
  0.666667  0.333333  0.500000    0.00057870 124 t-inv F
  0.333333  0.166667  0.666667    0.00057870 124 t-inv F
  0.666667  0.166667  0.333333    0.00057870 124 t-inv F
  0.500000  0.333333  0.666667    0.00057870 124 t-inv F
  0.166667 -0.333333  0.333333    0.00057870 124 t-inv F
  0.166667 -0.250000  0.500000    0.00057870 125 t-inv F
  0.500000 -0.250000  0.166667    0.00057870 125 t-inv F
  0.750000  0.333333  0.500000    0.00057870 125 t-inv F
  0.416667  0.250000  0.750000    0.00057870 125 t-inv F
  0.750000  0.250000  0.416667    0.00057870 125 t-inv F
  0.500000  0.333333  0.750000    0.00057870 125 t-inv F
  0.166667 -0.333333  0.416667    0.00057870 125 t-inv F
  0.166667 -0.333333  0.500000    0.00057870 126 t-inv F
  0.833333  0.333333  0.500000    0.00057870 126 t-inv F
  0.500000  0.333333  0.833333    0.00057870 126 t-inv F
  0.166667 -0.083333  0.416667    0.00057870 127 t-inv F
  0.416667 -0.083333  0.166667    0.00057870 127 t-inv F
  0.500000  0.250000  0.416667    0.00057870 127 t-inv F
  0.250000  0.083333  0.500000    0.00057870 127 t-inv F
  0.500000  0.083333  0.250000    0.00057870 127 t-inv F
  0.416667  0.250000  0.500000    0.00057870 127 t-inv F
  0.166667 -0.250000  0.250000    0.00057870 127 t-inv F
  0.166667 -0.166667  0.416667    0.00057870 128 t-inv F
  0.416667 -0.166667  0.166667    0.00057870 128 t-inv F
  0.583333  0.250000  0.416667    0.00057870 128 t-inv F
  0.333333  0.166667  0.583333    0.00057870 128 t-inv F
  0.583333  0.166667  0.333333    0.00057870 128 t-inv F
  0.416667  0.250000  0.583333    0.00057870 128 t-inv F
  0.166667 -0.250000  0.333333    0.00057870 128 t-inv F
  0.166667 -0.250000  0.416667    0.00057870 129 t-inv F
  0.666667  0.250000  0.416667    0.00057870 129 t-inv F
  0.416667  0.250000  0.666667    0.00057870 129 t-inv F
  0.166667 -0.083333  0.333333    0.00057870 130 t-inv F
  0.333333 -0.083333  0.166667    0.00057870 130 t-inv F
  0.416667  0.166667  0.333333    0.00057870 130 t-inv F
  0.250000  0.083333  0.416667    0.00057870 130 t-inv F
  0.416667  0.083333  0.250000    0.00057870 130 t-inv F
  0.333333  0.166667  0.416667    0.00057870 130 t-inv F
  0.166667 -0.166667  0.250000    0.00057870 130 t-inv F
  0.166667 -0.166667  0.333333    0.00057870 131 t-inv F
  0.500000  0.166667  0.333333    0.00057870 131 t-inv F
  0.333333  0.166667  0.500000    0.00057870 131 t-inv F
  0.166667 -0.083333  0.250000    0.00057870 132 t-inv F
  0.333333  0.083333  0.250000    0.00057870 132 t-inv F
  0.250000  0.083333  0.333333    0.00057870 132 t-inv F
  0.250000 -0.083333  0.250000    0.00057870 134 t-inv F
  0.333333  0.083333  0.333333    0.00057870 134 t-inv F
  0.250000 -0.000000  0.333333    0.00057870 134 t-inv F
  0.250000 -0.166667  0.250000    0.00057870 135 t-inv F
  0.416667  0.166667  0.416667    0.00057870 135 t-inv F
  0.250000  0.000000  0.416667    0.00057870 135 t-inv F
  0.250000 -0.250000  0.250000    0.00057870 136 t-inv F
  0.500000  0.250000  0.500000    0.00057870 136 t-inv F
  0.250000 -0.000000  0.500000    0.00057870 136 t-inv F
  0.250000  0.666667  0.250000    0.00057870 137 t-inv F
 -0.416667 -0.666667 -0.416667    0.00057870 137 t-inv F
  0.250000 -0.000000 -0.416667    0.00057870 137 t-inv F
  0.250000  0.583333  0.250000    0.00057870 138 t-inv F
 -0.333333 -0.583333 -0.333333    0.00057870 138 t-inv F
  0.250000  0.000000 -0.333333    0.00057870 138 t-inv F
  0.250000  0.500000  0.250000    0.00057870 139 t-inv F
 -0.250000 -0.500000 -0.250000    0.00057870 139 t-inv F
  0.250000 -0.000000 -0.250000    0.00057870 139 t-inv F
  0.250000  0.500000 -0.250000    0.00057870 140 t-inv F
  0.250000 -0.083333  0.666667    0.00057870 141 t-inv F
  0.666667 -0.083333  0.250000    0.00057870 141 t-inv F
  0.750000  0.416667  0.666667    0.00057870 141 t-inv F
  0.333333  0.083333  0.750000    0.00057870 141 t-inv F
  0.750000  0.083333  0.333333    0.00057870 141 t-inv F
  0.666667  0.416667  0.750000    0.00057870 141 t-inv F
  0.250000 -0.416667  0.333333    0.00057870 141 t-inv F
  0.250000 -0.083333  0.583333    0.00057870 142 t-inv F
  0.583333 -0.083333  0.250000    0.00057870 142 t-inv F
  0.666667  0.333333  0.583333    0.00057870 142 t-inv F
  0.333333  0.083333  0.666667    0.00057870 142 t-inv F
  0.666667  0.083333  0.333333    0.00057870 142 t-inv F
  0.583333  0.333333  0.666667    0.00057870 142 t-inv F
  0.250000 -0.333333  0.333333    0.00057870 142 t-inv F
  0.250000 -0.166667  0.583333    0.00057870 143 t-inv F
  0.583333 -0.166667  0.250000    0.00057870 143 t-inv F
  0.750000  0.333333  0.583333    0.00057870 143 t-inv F
  0.416667  0.166667  0.750000    0.00057870 143 t-inv F
  0.750000  0.166667  0.416667    0.00057870 143 t-inv F
  0.583333  0.333333  0.750000    0.00057870 143 t-inv F
  0.250000 -0.333333  0.416667    0.00057870 143 t-inv F
  0.250000 -0.083333  0.500000    0.00057870 144 t-inv F
  0.500000 -0.083333  0.250000    0.00057870 144 t-inv F
  0.583333  0.250000  0.500000    0.00057870 144 t-inv F
  0.333333  0.083333  0.583333    0.00057870 144 t-inv F
  0.583333  0.083333  0.333333    0.00057870 144 t-inv F
  0.500000  0.250000  0.583333    0.00057870 144 t-inv F
  0.250000 -0.250000  0.333333    0.00057870 144 t-inv F
  0.250000 -0.166667  0.500000    0.00057870 145 t-inv F
  0.500000 -0.166667  0.250000    0.00057870 145 t-inv F
  0.666667  0.250000  0.500000    0.00057870 145 t-inv F
  0.416667  0.166667  0.666667    0.00057870 145 t-inv F
  0.666667  0.166667  0.416667    0.00057870 145 t-inv F
  0.500000  0.250000  0.666667    0.00057870 145 t-inv F
  0.250000 -0.250000  0.416667    0.00057870 145 t-inv F
  0.250000 -0.250000  0.500000    0.00057870 146 t-inv F
[...]
      5       0.0003      0.00000
      6       0.0001      0.00000
      7       0.0001      0.00000
      8       0.0002      0.00000
      9       0.0000      0.00000
     10      -0.0001      0.00000
     11      -0.0000      0.00000
     12      -0.0000      0.00000
     13       0.0001      0.00000
     14      -0.0001      0.00000
     15       0.0000      0.00000
     16       0.6703      0.00000

 k-point 465 :       0.7500    0.2500    0.5000
  band No.  band energies     occupation 
      1      -0.0001      0.00000
      2      -0.0001      0.00000
      3      -0.0001      0.00000
      4      -0.0001      0.00000
      5       0.0003      0.00000
      6       0.0001      0.00000
      7       0.0002      0.00000
      8       0.0001      0.00000
      9       0.0000      0.00000
     10      -0.0000      0.00000
     11      -0.0000      0.00000
     12      -0.0001      0.00000
     13      -0.0001      0.00000
     14       0.0000      0.00000
     15       0.0000      0.00000
     16       0.0000      0.00000

 k-point 466 :      -0.1667    0.2500   -0.5000
  band No.  band energies     occupation 
      1      -0.0001      0.00000
      2      -0.0001      0.00000
      3      -0.0002      0.00000
      4      -0.0001      0.00000
      5       0.0003      0.00000
      6       0.0001      0.00000
      7       0.0002      0.00000
      8       0.0001      0.00000
      9       0.0000      0.00000
     10      -0.0000      0.00000
     11      -0.0000      0.00000
     12      -0.0001      0.00000
     13      -0.0001      0.00000
     14       0.0000      0.00000
     15       0.0000      0.00000
     16       0.0001      0.00000

 k-point 467 :      -0.0833    0.2500   -0.5000
  band No.  band energies     occupation 
      1      -0.0001      0.00000
      2      -0.0001      0.00000
      3      -0.0002      0.00000
      4      -0.0001      0.00000
      5       0.0003      0.00000
      6       0.0001      0.00000
      7       0.0002      0.00000
      8       0.0002      0.00000
      9       0.0000      0.00000
     10      -0.0000      0.00000
     11      -0.0000      0.00000
     12      -0.0001      0.00000
     13      -0.0001      0.00000
     14       0.0000      0.00000
     15       0.0000      0.00000
     16       0.0001      0.00000

 k-point 468 :       0.0000    0.3333    0.5000
  band No.  band energies     occupation 
      1      -0.0001      0.00000
      2      -0.0001      0.00000
      3      -0.0001      0.00000
      4      -0.0001      0.00000
      5       0.0003      0.00000
      6       0.0001      0.00000
      7       0.0002      0.00000
      8       0.0002      0.00000
      9       0.0000      0.00000
     10      -0.0000      0.00000
     11      -0.0000      0.00000
     12      -0.0000      0.00000
     13      -0.0001      0.00000
     14      -0.0001      0.00000
     15       0.0001      0.00000
     16       0.0000      0.00000

 k-point 469 :       0.0833    0.3333    0.5000
  band No.  band energies     occupation 
      1      -0.0001      0.00000
      2      -0.0001      0.00000
      3      -0.0001      0.00000
      4      -0.0001      0.00000
      5       0.0003      0.00000
      6       0.0001      0.00000
      7       0.0002      0.00000
      8       0.0002      0.00000
      9       0.0000      0.00000
     10      -0.0000      0.00000
     11      -0.0001      0.00000
     12      -0.0001      0.00000
     13      -0.0000      0.00000
     14      -0.0000      0.00000
     15       0.0001      0.00000
     16       0.0000      0.00000

 k-point 470 :       0.1667    0.3333    0.5000
  band No.  band energies     occupation 
      1      -0.0001      0.00000
      2      -0.0001      0.00000
      3      -0.0001      0.00000
      4      -0.0002      0.00000
      5       0.0003      0.00000
      6       0.0001      0.00000
      7       0.0001      0.00000
      8       0.0002      0.00000
      9       0.0000      0.00000
     10      -0.0000      0.00000
     11      -0.0000      0.00000
     12      -0.0001      0.00000
     13      -0.0000      0.00000
     14       0.0000      0.00000
     15       0.0000      0.00000
     16       0.0000      0.00000

 k-point 471 :       0.8333    0.3333    0.5000
  band No.  band energies     occupation 
      1      -0.0001      0.00000
      2      -0.0001      0.00000
      3      -0.0001      0.00000
      4      -0.0001      0.00000
      5       0.0003      0.00000
      6       0.0001      0.00000
      7       0.0002      0.00000
      8       0.0001      0.00000
      9       0.0000      0.00000
     10      -0.0000      0.00000
     11      -0.0001      0.00000
     12      -0.0001      0.00000
     13      -0.0001      0.00000
     14       0.0000      0.00000
     15       0.0001      0.00000
     16       0.0000      0.00000

 k-point 472 :      -0.0833    0.3333   -0.5000
  band No.  band energies     occupation 
      1      -0.0001      0.00000
      2      -0.0001      0.00000
      3      -0.0001      0.00000
      4      -0.0001      0.00000
      5       0.0003      0.00000
      6       0.0001      0.00000
      7       0.0002      0.00000
      8       0.0002      0.00000
      9       0.0000      0.00000
     10      -0.0000      0.00000
     11      -0.0001      0.00000
     12      -0.0001      0.00000
     13      -0.0001      0.00000
     14       0.0000      0.00000
     15       0.0001      0.00000
     16       0.0000      0.00000

 k-point 473 :      -0.0000    0.4167    0.5000
  band No.  band energies     occupation 
      1      -0.0001      0.00000
      2      -0.0001      0.00000
      3      -0.0001      0.00000
      4      -0.0001      0.00000
      5       0.0003      0.00000
      6       0.0001      0.00000
      7       0.0002      0.00000
      8       0.0002      0.00000
      9       0.0000      0.00000
     10      -0.0000      0.00000
     11       0.0000      0.00000
     12      -0.0001      0.00000
     13      -0.0001      0.00000
     14      -0.0001      0.00000
     15       0.0001      0.00000
     16      -0.0000      0.00000

 k-point 474 :       0.0833    0.4167    0.5000
  band No.  band energies     occupation 
      1      -0.0001      0.00000
      2      -0.0001      0.00000
      3      -0.0001      0.00000
      4      -0.0001      0.00000
      5       0.0003      0.00000
      6       0.0001      0.00000
      7       0.0001      0.00000
      8       0.0002      0.00000
      9       0.0000      0.00000
     10      -0.0000      0.00000
     11       0.0000      0.00000
     12      -0.0001      0.00000
     13      -0.0001      0.00000
     14      -0.0001      0.00000
     15       0.0001      0.00000
     16      -0.0000      0.00000

 k-point 475 :       0.9167    0.4167    0.5000
  band No.  band energies     occupation 
      1      -0.0001      0.00000
      2      -0.0001      0.00000
      3      -0.0001      0.00000
      4      -0.0001      0.00000
      5       0.0003      0.00000
      6       0.0001      0.00000
      7       0.0002      0.00000
      8       0.0001      0.00000
      9       0.0000      0.00000
     10      -0.0000      0.00000
     11      -0.0000      0.00000
     12      -0.0001      0.00000
     13      -0.0001      0.00000
     14      -0.0001      0.00000
     15       0.0001      0.00000
     16      -0.0000      0.00000

 k-point 476 :      -0.0000   -0.5000   -0.5000
  band No.  band energies     occupation 
      1      -0.0001      0.00000
      2      -0.0001      0.00000
      3      -0.0001      0.00000
      4      -0.0001      0.00000
      5       0.0003      0.00000
      6       0.0001      0.00000
      7       0.0002      0.00000
      8       0.0002      0.00000
      9      -0.0000      0.00000
     10       0.0000      0.00000
     11      -0.0000      0.00000
     12      -0.0001      0.00000
     13      -0.0001      0.00000
     14      -0.0001      0.00000
     15       0.0001      0.00000
     16      -0.0000      0.00000


------------------------ aborting loop because EDIFF is reached ----------------------------------------


    FORLOC:  cpu time    0.0021: real time    0.0021
    FORNL :  cpu time    0.3618: real time    0.3618
    STRESS:  cpu time    3.1986: real time    3.2180
    FORCOR:  cpu time    0.0146: real time    0.0146
    OFIELD:  cpu time    0.0001: real time    0.0001
    FORLOC:  cpu time    0.0014: real time    0.0014
    FORNL :  cpu time    0.3549: real time    0.3700
    STRESS:  cpu time    3.1785: real time    3.2039
    FORCOR:  cpu time    0.0173: real time    0.0173
    OFIELD:  cpu time    0.0001: real time    0.0001
    FORLOC:  cpu time    0.0016: real time    0.0016
    FORNL :  cpu time    0.3636: real time    0.3646
    STRESS:  cpu time    3.2259: real time    3.2407
    FORCOR:  cpu time    0.0172: real time    0.0172
    OFIELD:  cpu time    0.0001: real time    0.0001
    FORLOC:  cpu time    0.0011: real time    0.0011
    FORNL :  cpu time    0.3671: real time    0.3671
    STRESS:  cpu time    3.2184: real time    3.2296
    FORCOR:  cpu time    0.0168: real time    0.0168
    OFIELD:  cpu time    0.0001: real time    0.0001

 INTERNAL STRAIN TENSOR  FOR ION    2  DIRECTION 2   (eV/Angst):
 -----------------------------------------------------------------------------
     0.00118 -0.00048  0.00000
    -0.00047  0.00068  0.00000
     0.00000  0.00000  0.00014


 POSITION                   FORCE-CONSTANT FOR ION    2 DIRECTION 2 (eV/Angst/Angst)
 -----------------------------------------------------------------------------------
      0.00000      0.00000      0.00000        -0.000006      2.961907     -0.000000
     -2.97024      2.97024      2.97024         0.000006     -2.961907      0.000000
 -----------------------------------------------------------------------------------
    total drift:                                0.000000      0.000000      0.000000


 BORN EFFECTIVE CHARGE FOR ION    2 DIRECTION 2 :  -0.000  -2.373   0.000
                   rigid augmentation           :  -0.000   1.112  -0.000
                   ionic contribution           :  -0.000   6.000  -0.000
                   Berry contribution           :  -0.000  -9.486   0.000


--------------------------------------------------------------------------------------------------------


  LATTYP: Found a face centered cubic cell.
 ALAT       =     5.9404757541
  
  Lattice vectors:
  
 A1 = (  -2.9702378770,   0.0000000000,   2.9702378770)
 A2 = (   0.0000000000,   2.9702378770,   2.9702378770)
 A3 = (  -2.9702378770,   2.9702378770,   0.0000000000)


Analysis of symmetry for initial positions (statically):
=====================================================================
 Subroutine PRICEL returns:
 Original cell was already a primitive cell.
 

 Routine SETGRP: Setting up the symmetry group for a 
 face centered cubic supercell.


 Subroutine GETGRP returns: Found  8 space group operations
 (whereof  8 operations were pure point group operations)
 out of a pool of 48 trial point group operations.


The static configuration has the point symmetry C_4v.


Analysis of symmetry for dynamics (positions and initial velocities):
=====================================================================
 Subroutine PRICEL returns:
 Original cell was already a primitive cell.
 

 Routine SETGRP: Setting up the symmetry group for a 
 face centered cubic supercell.


 Subroutine GETGRP returns: Found  8 space group operations
 (whereof  8 operations were pure point group operations)
 out of a pool of 48 trial point group operations.


The dynamic configuration has the point symmetry C_4v.


 Subroutine INISYM returns: Found  8 space group operations
 (whereof  8 operations are pure point group operations),
 and found     1 'primitive' translations



--------------------------------------------------------------------------------------------------------




 MACROSCOPIC STATIC DIELECTRIC TENSOR (including local field effects in DFT)
 ------------------------------------------------------
           5.643709    -0.000000     0.000000
          -0.000000     5.644029    -0.000000
           0.000000    -0.000000     5.644029
 ------------------------------------------------------


 PIEZOELECTRIC TENSOR  for field in x, y, z        (e  Angst)
          XX          YY          ZZ          XY          YZ          ZX
  --------------------------------------------------------------------------------
  x     0.00024     0.00006     0.00006    -0.00000     0.00000    -0.00000
  y    -0.00009     0.00006    -0.00013     0.00026     0.00000    -0.00000
  z     0.00001    -0.00003     0.00002    -0.00000    -0.00000    -0.00025

 PIEZOELECTRIC TENSOR  for field in x, y, z        (C/m^2)
          XX          YY          ZZ          XY          YZ          ZX
  --------------------------------------------------------------------------------
  x     0.00007     0.00002     0.00002    -0.00000    -0.00000     0.00000
  y    -0.00000    -0.00000    -0.00000     0.00000     0.00000    -0.00000
  z     0.00000     0.00000     0.00000    -0.00000    -0.00000     0.00000
 
 BORN EFFECTIVE CHARGES (in e, cummulative output)
 -------------------------------------------------
 ion    1
    1     2.37322    -0.00000    -0.00000
    2    -0.00006     2.37332    -0.00000
    3     0.00003    -0.00000     2.37326
 ion    2
    1    -2.37322     0.00000     0.00000
    2     0.00006    -2.37332     0.00000
    3    -0.00003     0.00000    -2.37326

 INTERNAL STRAIN TENSOR FOR ION    1 for displacements in x,y,z  (eV/Angst):
          X           Y           Z          XY          YZ          ZX
  --------------------------------------------------------------------------------
  x     0.00204    -0.00056    -0.00056    -0.00000     0.00000     0.00000
  y     0.00000     0.00000     0.00000    -0.00081    -0.00000     0.00000
  z     0.00000    -0.00000     0.00000     0.00000     0.00000    -0.00081

 INTERNAL STRAIN TENSOR FOR ION    2 for displacements in x,y,z  (eV/Angst):
          X           Y           Z          XY          YZ          ZX
  --------------------------------------------------------------------------------
  x    -0.00196    -0.00031    -0.00031     0.00000     0.00000    -0.00000
  y     0.00000     0.00000     0.00000    -0.00047    -0.00000     0.00000
  z    -0.00000    -0.00000     0.00000     0.00000     0.00000    -0.00048


--------------------------------------------------------------------------------------------------------


 
 SECOND DERIVATIVES (NOT SYMMETRIZED)
 ------------------------------------
               1X          1Y          1Z          2X          2Y          2Z 
  1X    -2.955750    0.000000   -0.000000    2.955750   -0.000000    0.000000
  1Y     0.000000   -2.955854    0.000000   -0.000000    2.955854   -0.000000
  1Z    -0.000000    0.000000   -2.955854    0.000000   -0.000000    2.955854
  2X     2.961881   -0.000000    0.000000   -2.961881    0.000000   -0.000000
  2Y    -0.000000    2.961907   -0.000000    0.000000   -2.961907    0.000000
  2Z     0.000000   -0.000000    2.961907   -0.000000    0.000000   -2.961907
 
 
 Eigenvectors and eigenvalues of the dynamical matrix
 ----------------------------------------------------
 
 
   1 f  =    5.214686 THz    32.764837 2PiTHz  173.943187 cm-1    21.566214 meV
             X         Y         Z           dx          dy          dz
      0.000000  0.000000  0.000000     0.000000   -0.814162   -0.000000  
     -2.970238  2.970238  2.970238    -0.000000    0.580637   -0.000000  
 
   2 f  =    5.214686 THz    32.764837 2PiTHz  173.943187 cm-1    21.566214 meV
             X         Y         Z           dx          dy          dz
      0.000000  0.000000  0.000000     0.000000   -0.000000    0.814162  
     -2.970238  2.970238  2.970238    -0.000000   -0.000000   -0.580637  
 
   3 f  =    5.214617 THz    32.764406 2PiTHz  173.940901 cm-1    21.565931 meV
             X         Y         Z           dx          dy          dz
      0.000000  0.000000  0.000000     0.814159    0.000000   -0.000000  
     -2.970238  2.970238  2.970238    -0.580642   -0.000000    0.000000  
 
   4 f/i=    0.002522 THz     0.015845 2PiTHz    0.084118 cm-1     0.010429 meV
             X         Y         Z           dx          dy          dz
      0.000000  0.000000  0.000000     0.000000    0.255933   -0.521189  
     -2.970238  2.970238  2.970238     0.000000    0.358867   -0.730804  
 
   5 f/i=    0.002522 THz     0.015845 2PiTHz    0.084118 cm-1     0.010429 meV
             X         Y         Z           dx          dy          dz
      0.000000  0.000000  0.000000     0.000000    0.521189    0.255933  
     -2.970238  2.970238  2.970238     0.000000    0.730804    0.358867  
 
   6 f/i=    0.002554 THz     0.016046 2PiTHz    0.085185 cm-1     0.010562 meV
             X         Y         Z           dx          dy          dz
      0.000000  0.000000  0.000000     0.580642   -0.000000    0.000000  
     -2.970238  2.970238  2.970238     0.814159   -0.000000    0.000000  
 


--------------------------------------------------------------------------------------------------------




 MACROSCOPIC STATIC DIELECTRIC TENSOR IONIC CONTRIBUTION
 ------------------------------------------------------
           6.572334    -0.000162     0.000087
          -0.000162     6.572760    -0.000000
           0.000087    -0.000000     6.572439
 ------------------------------------------------------


 ELASTIC MODULI IONIC CONTR (kBar)
 Direction    XX          YY          ZZ          XY          YZ          ZX
 --------------------------------------------------------------------------------
 XX          -0.0000      0.0000      0.0000      0.0000     -0.0000      0.0000
 YY           0.0000     -0.0000     -0.0000     -0.0000      0.0000     -0.0000
 ZZ           0.0000     -0.0000     -0.0000     -0.0000      0.0000     -0.0000
 XY           0.0000     -0.0000     -0.0000     -0.0000     -0.0000      0.0000
 YZ          -0.0000      0.0000      0.0000     -0.0000     -0.0000      0.0000
 ZX           0.0000     -0.0000     -0.0000      0.0000      0.0000     -0.0000
 --------------------------------------------------------------------------------


 PIEZOELECTRIC TENSOR IONIC CONTR  for field in x, y, z        (C/m^2)
          XX          YY          ZZ          XY          YZ          ZX
  --------------------------------------------------------------------------------
  x     0.00049    -0.00003    -0.00003    -0.00000     0.00000    -0.00000
  y    -0.00000     0.00000     0.00000    -0.00004    -0.00000    -0.00000
  z     0.00000    -0.00000    -0.00000     0.00000     0.00000    -0.00004


--------------------------------------------------------------------------------------------------------


     LOOP+:  cpu time  552.0803: real time  555.3011
    4ORBIT:  cpu time    0.0000: real time    0.0000

 total amount of memory used by VASP MPI-rank0   108991. kBytes
=======================================================================

   base      :      30000. kBytes
   nonl-proj :      66893. kBytes
   fftplans  :       1270. kBytes
   grid      :       3203. kBytes
   one-center:         31. kBytes
   wavefun   :       7594. kBytes
 
  
  
 General timing and accounting informations for this job:
 ========================================================
  
                  Total CPU time used (sec):      554.822
                            User time (sec):      544.614
                          System time (sec):       10.208
                         Elapsed time (sec):      558.092
  
                   Maximum memory used (kb):      539732.
                   Average memory used (kb):           0.
  
                          Minor page faults:       889784
                          Major page faults:           15
                 Voluntary context switches:        10903
