<?xml version="1.0" encoding="ISO-8859-1"?>
<modeling>
 <generator>
  <i name="program" type="string">vasp </i>
  <i name="version" type="string">5.4.4.18Apr17-6-g9f103f2a35  </i>
  <i name="subversion" type="string">(build Aug 24 2017 11:22:49) complex            parallel </i>
  <i name="platform" type="string">LinuxIFC </i>
  <i name="date" type="string">2023 12 25 </i>
  <i name="time" type="string">13:07:20 </i>
 </generator>
 <incar>
  <i type="string" name="PREC">accurate</i>
  <i type="string" name="ALGO"> Normal</i>
  <i type="int" name="NELM">   100</i>
  <i type="int" name="IBRION">     8</i>
  <i name="EDIFF">      0.00000001</i>
  <i name="SYMPREC">      0.00000001</i>
  <i name="ENCUT">    520.00000000</i>
  <i type="logical" name="LREAL"> F  </i>
  <i type="int" name="ISMEAR">     0</i>
  <i name="SIGMA">      0.01000000</i>
  <i type="logical" name="LWAVE"> F  </i>
  <v type="int" name="KPOINT_BSE">    -1     0     0     0</v>
  <i type="int" name="NELM">   100</i>
  <i type="logical" name="LPEAD"> T  </i>
  <i type="logical" name="LEPSILON"> T  </i>
 </incar>
 <structure name="primitive_cell" >
  <crystal>
   <varray name="basis" >
    <v>      -2.97023788       0.00000000       2.97023788 </v>
    <v>       0.00000000       2.97023788       2.97023788 </v>
    <v>      -2.97023788       2.97023788       0.00000000 </v>
   </varray>
   <i name="volume">     52.40873675 </i>
   <varray name="rec_basis" >
    <v>      -0.16833669      -0.16833669       0.16833669 </v>
    <v>       0.16833669       0.16833669       0.16833669 </v>
    <v>      -0.16833669       0.16833669      -0.16833669 </v>
   </varray>
  </crystal>
  <varray name="positions" >
   <v>       0.00000000       0.00000000       0.00000000 </v>
   <v>       0.49999996      -0.49999996       0.49999996 </v>
  </varray>
 </structure>
 <varray name="primitive_index" >
  <v type="int" >        1 </v>
  <v type="int" >        2 </v>
 </varray>
 <kpoints>
  <generation param="Gamma">
   <v type="int" name="divisions">      12       12       12 </v>
   <v name="usershift">      0.00000000       0.00000000       0.00000000 </v>
   <v name="genvec1">      0.08333333      -0.00000000      -0.00000000 </v>
   <v name="genvec2">     -0.00000000       0.08333333       0.00000000 </v>
   <v name="genvec3">      0.00000000       0.00000000       0.08333333 </v>
   <v name="shift">      0.00000000       0.00000000       0.00000000 </v>
  </generation>
  <varray name="kpointlist" >
   <v>       0.00000000       0.00000000       0.00000000 </v>
   <v>       0.08333333      -0.00000000      -0.00000000 </v>
   <v>       0.16666667       0.00000000       0.00000000 </v>
   <v>       0.25000000      -0.00000000       0.00000000 </v>
   <v>       0.33333333      -0.00000000      -0.00000000 </v>
   <v>       0.41666667       0.00000000       0.00000000 </v>
   <v>       0.50000000      -0.00000000       0.00000000 </v>
   <v>       0.08333333       0.08333333      -0.00000000 </v>
   <v>       0.16666667       0.08333333      -0.00000000 </v>
   <v>       0.25000000       0.08333333      -0.00000000 </v>
   <v>       0.33333333       0.08333333       0.00000000 </v>
   <v>       0.41666667       0.08333333       0.00000000 </v>
   <v>       0.50000000       0.08333333      -0.00000000 </v>
   <v>      -0.41666667       0.08333333      -0.00000000 </v>
   <v>      -0.33333333       0.08333333       0.00000000 </v>
   <v>      -0.25000000       0.08333333      -0.00000000 </v>
   <v>      -0.16666667       0.08333333      -0.00000000 </v>
   <v>      -0.08333333       0.08333333       0.00000000 </v>
   <v>       0.16666667       0.16666667      -0.00000000 </v>
   <v>       0.25000000       0.16666667      -0.00000000 </v>
   <v>       0.33333333       0.16666667       0.00000000 </v>
   <v>       0.41666667       0.16666667       0.00000000 </v>
   <v>       0.50000000       0.16666667       0.00000000 </v>
   <v>      -0.41666667       0.16666667       0.00000000 </v>
   <v>      -0.33333333       0.16666667      -0.00000000 </v>
   <v>      -0.25000000       0.16666667      -0.00000000 </v>
   <v>      -0.16666667       0.16666667       0.00000000 </v>
   <v>       0.25000000       0.25000000      -0.00000000 </v>
   <v>       0.33333333       0.25000000      -0.00000000 </v>
   <v>       0.41666667       0.25000000       0.00000000 </v>
   <v>       0.50000000       0.25000000       0.00000000 </v>
   <v>      -0.41666667       0.25000000       0.00000000 </v>
   <v>      -0.33333333       0.25000000       0.00000000 </v>
   <v>      -0.25000000       0.25000000       0.00000000 </v>
   <v>       0.33333333       0.33333333      -0.00000000 </v>
   <v>       0.41666667       0.33333333      -0.00000000 </v>
   <v>       0.50000000       0.33333333       0.00000000 </v>
   <v>      -0.41666667       0.33333333       0.00000000 </v>
   <v>      -0.33333333       0.33333333      -0.00000000 </v>
   <v>       0.41666667       0.41666667      -0.00000000 </v>
   <v>       0.50000000       0.41666667      -0.00000000 </v>
   <v>      -0.41666667       0.41666667      -0.00000000 </v>
   <v>       0.50000000       0.50000000      -0.00000000 </v>
   <v>       0.08333333      -0.00000000       0.08333333 </v>
   <v>       0.16666667       0.00000000       0.08333333 </v>
   <v>       0.25000000      -0.00000000       0.08333333 </v>
   <v>       0.33333333       0.00000000       0.08333333 </v>
   <v>       0.41666667       0.00000000       0.08333333 </v>
   <v>       0.50000000      -0.00000000       0.08333333 </v>
   <v>      -0.41666667      -0.00000000       0.08333333 </v>
   <v>      -0.33333333       0.00000000       0.08333333 </v>
   <v>      -0.25000000       0.00000000       0.08333333 </v>
   <v>      -0.16666667      -0.00000000       0.08333333 </v>
   <v>      -0.08333333       0.00000000       0.08333333 </v>
   <v>       0.25000000       0.16666667       0.08333333 </v>
   <v>       0.33333333       0.16666667       0.08333333 </v>
   <v>       0.41666667       0.16666667       0.08333333 </v>
   <v>       0.50000000       0.16666667       0.08333333 </v>
   <v>      -0.41666667       0.16666667       0.08333333 </v>
   <v>       0.16666667       0.25000000       0.08333333 </v>
   <v>       0.33333333       0.25000000       0.08333333 </v>
   <v>       0.41666667       0.25000000       0.08333333 </v>
   <v>       0.50000000       0.25000000       0.08333333 </v>
   <v>      -0.41666667       0.25000000       0.08333333 </v>
   <v>      -0.33333333       0.25000000       0.08333333 </v>
   <v>      -0.25000000       0.25000000       0.08333333 </v>
   <v>      -0.16666667       0.25000000       0.08333333 </v>
   <v>       0.16666667       0.33333333       0.08333333 </v>
   <v>       0.25000000       0.33333333       0.08333333 </v>
   <v>       0.41666667       0.33333333       0.08333333 </v>
   <v>       0.50000000       0.33333333       0.08333333 </v>
   <v>      -0.41666667       0.33333333       0.08333333 </v>
   <v>      -0.33333333       0.33333333       0.08333333 </v>
   <v>      -0.25000000       0.33333333       0.08333333 </v>
   <v>       0.16666667       0.41666667       0.08333333 </v>
   <v>       0.25000000       0.41666667       0.08333333 </v>
   <v>       0.33333333       0.41666667       0.08333333 </v>
   <v>       0.50000000       0.41666667       0.08333333 </v>
   <v>      -0.41666667       0.41666667       0.08333333 </v>
   <v>      -0.33333333       0.41666667       0.08333333 </v>
   <v>       0.16666667       0.50000000       0.08333333 </v>
   <v>       0.25000000       0.50000000       0.08333333 </v>
   <v>       0.33333333       0.50000000       0.08333333 </v>
   <v>       0.41666667       0.50000000       0.08333333 </v>
   <v>      -0.41666667       0.50000000       0.08333333 </v>
   <v>       0.16666667      -0.41666667       0.08333333 </v>
   <v>       0.25000000      -0.41666667       0.08333333 </v>
   <v>       0.33333333      -0.41666667       0.08333333 </v>
   <v>       0.41666667      -0.41666667       0.08333333 </v>
   <v>       0.50000000      -0.41666667       0.08333333 </v>
   <v>       0.16666667      -0.33333333       0.08333333 </v>
   <v>       0.25000000      -0.33333333       0.08333333 </v>
   <v>       0.33333333      -0.33333333       0.08333333 </v>
   <v>       0.41666667      -0.33333333       0.08333333 </v>
   <v>       0.16666667      -0.25000000       0.08333333 </v>
   <v>       0.25000000      -0.25000000       0.08333333 </v>
   <v>       0.33333333      -0.25000000       0.08333333 </v>
   <v>       0.16666667      -0.16666667       0.08333333 </v>
   <v>       0.25000000      -0.16666667       0.08333333 </v>
   <v>       0.16666667      -0.08333333       0.08333333 </v>
   <v>       0.16666667      -0.00000000       0.16666667 </v>
   <v>       0.25000000       0.00000000       0.16666667 </v>
   <v>       0.33333333       0.00000000       0.16666667 </v>
   <v>       0.41666667       0.00000000       0.16666667 </v>
   <v>       0.50000000      -0.00000000       0.16666667 </v>
   <v>      -0.41666667      -0.00000000       0.16666667 </v>
   <v>      -0.33333333      -0.00000000       0.16666667 </v>
   <v>      -0.25000000      -0.00000000       0.16666667 </v>
   <v>      -0.16666667      -0.00000000       0.16666667 </v>
   <v>       0.50000000       0.33333333       0.16666667 </v>
   <v>      -0.41666667       0.33333333       0.16666667 </v>
   <v>      -0.33333333       0.33333333       0.16666667 </v>
   <v>       0.25000000       0.41666667       0.16666667 </v>
   <v>      -0.41666667       0.41666667       0.16666667 </v>
   <v>      -0.33333333       0.41666667       0.16666667 </v>
   <v>      -0.25000000       0.41666667       0.16666667 </v>
   <v>       0.25000000       0.50000000       0.16666667 </v>
   <v>       0.33333333       0.50000000       0.16666667 </v>
   <v>      -0.33333333       0.50000000       0.16666667 </v>
   <v>       0.25000000      -0.41666667       0.16666667 </v>
   <v>       0.33333333      -0.41666667       0.16666667 </v>
   <v>       0.41666667      -0.41666667       0.16666667 </v>
   <v>       0.25000000      -0.33333333       0.16666667 </v>
   <v>       0.33333333      -0.33333333       0.16666667 </v>
   <v>       0.41666667      -0.33333333       0.16666667 </v>
   <v>       0.50000000      -0.33333333       0.16666667 </v>
   <v>       0.25000000      -0.25000000       0.16666667 </v>
   <v>       0.33333333      -0.25000000       0.16666667 </v>
   <v>       0.41666667      -0.25000000       0.16666667 </v>
   <v>       0.25000000      -0.16666667       0.16666667 </v>
   <v>       0.33333333      -0.16666667       0.16666667 </v>
   <v>       0.25000000      -0.08333333       0.16666667 </v>
   <v>       0.25000000       0.00000000       0.25000000 </v>
   <v>       0.33333333       0.00000000       0.25000000 </v>
   <v>       0.41666667      -0.00000000       0.25000000 </v>
   <v>       0.50000000       0.00000000       0.25000000 </v>
   <v>      -0.41666667       0.00000000       0.25000000 </v>
   <v>      -0.33333333      -0.00000000       0.25000000 </v>
   <v>      -0.25000000       0.00000000       0.25000000 </v>
   <v>      -0.25000000       0.50000000       0.25000000 </v>
   <v>       0.33333333      -0.41666667       0.25000000 </v>
   <v>       0.33333333      -0.33333333       0.25000000 </v>
   <v>       0.41666667      -0.33333333       0.25000000 </v>
   <v>       0.33333333      -0.25000000       0.25000000 </v>
   <v>       0.41666667      -0.25000000       0.25000000 </v>
   <v>       0.50000000      -0.25000000       0.25000000 </v>
   <v>       0.33333333      -0.16666667       0.25000000 </v>
   <v>       0.41666667      -0.16666667       0.25000000 </v>
   <v>       0.33333333      -0.08333333       0.25000000 </v>
   <v>       0.33333333       0.00000000       0.33333333 </v>
   <v>       0.41666667       0.00000000       0.33333333 </v>
   <v>       0.50000000       0.00000000       0.33333333 </v>
   <v>      -0.41666667      -0.00000000       0.33333333 </v>
   <v>      -0.33333333      -0.00000000       0.33333333 </v>
   <v>       0.41666667      -0.25000000       0.33333333 </v>
   <v>       0.41666667      -0.16666667       0.33333333 </v>
   <v>       0.50000000      -0.16666667       0.33333333 </v>
   <v>       0.41666667      -0.08333333       0.33333333 </v>
   <v>       0.41666667      -0.00000000       0.41666667 </v>
   <v>       0.50000000       0.00000000       0.41666667 </v>
   <v>      -0.41666667       0.00000000       0.41666667 </v>
   <v>       0.50000000      -0.08333333       0.41666667 </v>
   <v>       0.50000000       0.00000000       0.50000000 </v>
  </varray>
  <varray name="weights" >
   <v>       0.00057870 </v>
   <v>       0.00462963 </v>
   <v>       0.00462963 </v>
   <v>       0.00462963 </v>
   <v>       0.00462963 </v>
   <v>       0.00462963 </v>
   <v>       0.00231481 </v>
   <v>       0.00231481 </v>
   <v>       0.00925926 </v>
   <v>       0.00925926 </v>
   <v>       0.00925926 </v>
   <v>       0.00925926 </v>
   <v>       0.00925926 </v>
   <v>       0.00925926 </v>
   <v>       0.00925926 </v>
   <v>       0.00925926 </v>
   <v>       0.00925926 </v>
   <v>       0.00462963 </v>
   <v>       0.00231481 </v>
   <v>       0.00925926 </v>
   <v>       0.00925926 </v>
   <v>       0.00925926 </v>
   <v>       0.00925926 </v>
   <v>       0.00925926 </v>
   <v>       0.00925926 </v>
   <v>       0.00925926 </v>
   <v>       0.00462963 </v>
   <v>       0.00231481 </v>
   <v>       0.00925926 </v>
   <v>       0.00925926 </v>
   <v>       0.00925926 </v>
   <v>       0.00925926 </v>
   <v>       0.00925926 </v>
   <v>       0.00462963 </v>
   <v>       0.00231481 </v>
   <v>       0.00925926 </v>
   <v>       0.00925926 </v>
   <v>       0.00925926 </v>
   <v>       0.00462963 </v>
   <v>       0.00231481 </v>
   <v>       0.00925926 </v>
   <v>       0.00462963 </v>
   <v>       0.00115741 </v>
   <v>       0.00115741 </v>
   <v>       0.00462963 </v>
   <v>       0.00462963 </v>
   <v>       0.00462963 </v>
   <v>       0.00462963 </v>
   <v>       0.00462963 </v>
   <v>       0.00462963 </v>
   <v>       0.00462963 </v>
   <v>       0.00462963 </v>
   <v>       0.00462963 </v>
   <v>       0.00231481 </v>
   <v>       0.00462963 </v>
   <v>       0.00925926 </v>
   <v>       0.00925926 </v>
   <v>       0.00925926 </v>
   <v>       0.00462963 </v>
   <v>       0.00462963 </v>
   <v>       0.00462963 </v>
   <v>       0.00925926 </v>
   <v>       0.00925926 </v>
   <v>       0.00925926 </v>
   <v>       0.00925926 </v>
   <v>       0.00925926 </v>
   <v>       0.00462963 </v>
   <v>       0.00925926 </v>
   <v>       0.00462963 </v>
   <v>       0.00462963 </v>
   <v>       0.00925926 </v>
   <v>       0.00925926 </v>
   <v>       0.00925926 </v>
   <v>       0.00462963 </v>
   <v>       0.00925926 </v>
   <v>       0.00925926 </v>
   <v>       0.00462963 </v>
   <v>       0.00462963 </v>
   <v>       0.00925926 </v>
   <v>       0.00462963 </v>
   <v>       0.00925926 </v>
   <v>       0.00925926 </v>
   <v>       0.00925926 </v>
   <v>       0.00462963 </v>
   <v>       0.00231481 </v>
   <v>       0.00925926 </v>
   <v>       0.00925926 </v>
   <v>       0.00925926 </v>
   <v>       0.00925926 </v>
   <v>       0.00231481 </v>
   <v>       0.00925926 </v>
   <v>       0.00925926 </v>
   <v>       0.00925926 </v>
   <v>       0.00462963 </v>
   <v>       0.00925926 </v>
   <v>       0.00925926 </v>
   <v>       0.00462963 </v>
   <v>       0.00925926 </v>
   <v>       0.00462963 </v>
   <v>       0.00462963 </v>
   <v>       0.00115741 </v>
   <v>       0.00462963 </v>
   <v>       0.00462963 </v>
   <v>       0.00462963 </v>
   <v>       0.00462963 </v>
   <v>       0.00462963 </v>
   <v>       0.00462963 </v>
   <v>       0.00462963 </v>
   <v>       0.00231481 </v>
   <v>       0.00462963 </v>
   <v>       0.00925926 </v>
   <v>       0.00462963 </v>
   <v>       0.00462963 </v>
   <v>       0.00462963 </v>
   <v>       0.00925926 </v>
   <v>       0.00462963 </v>
   <v>       0.00925926 </v>
   <v>       0.00462963 </v>
   <v>       0.00231481 </v>
   <v>       0.00925926 </v>
   <v>       0.00925926 </v>
   <v>       0.00462963 </v>
   <v>       0.00925926 </v>
   <v>       0.00925926 </v>
   <v>       0.00925926 </v>
   <v>       0.00231481 </v>
   <v>       0.00925926 </v>
   <v>       0.00925926 </v>
   <v>       0.00462963 </v>
   <v>       0.00925926 </v>
   <v>       0.00462963 </v>
   <v>       0.00462963 </v>
   <v>       0.00115741 </v>
   <v>       0.00462963 </v>
   <v>       0.00462963 </v>
   <v>       0.00462963 </v>
   <v>       0.00462963 </v>
   <v>       0.00462963 </v>
   <v>       0.00231481 </v>
   <v>       0.00115741 </v>
   <v>       0.00462963 </v>
   <v>       0.00925926 </v>
   <v>       0.00462963 </v>
   <v>       0.00925926 </v>
   <v>       0.00925926 </v>
   <v>       0.00231481 </v>
   <v>       0.00925926 </v>
   <v>       0.00462963 </v>
   <v>       0.00462963 </v>
   <v>       0.00115741 </v>
   <v>       0.00462963 </v>
   <v>       0.00462963 </v>
   <v>       0.00462963 </v>
   <v>       0.00231481 </v>
   <v>       0.00462963 </v>
   <v>       0.00925926 </v>
   <v>       0.00231481 </v>
   <v>       0.00462963 </v>
   <v>       0.00115741 </v>
   <v>       0.00462963 </v>
   <v>       0.00231481 </v>
   <v>       0.00231481 </v>
   <v>       0.00057870 </v>
  </varray>
 </kpoints>
 <parameters>
  <separator name="general" >
   <i type="string" name="SYSTEM">unknown system</i>
   <i type="logical" name="LCOMPAT"> F  </i>
  </separator>
  <separator name="electronic" >
   <i type="string" name="PREC">accura</i>
   <i name="ENMAX">    520.00000000</i>
   <i name="ENAUG">    446.84200000</i>
   <i name="EDIFF">      0.00000001</i>
   <i type="int" name="IALGO">    38</i>
   <i type="int" name="IWAVPR">    11</i>
   <i type="int" name="NBANDS">    16</i>
   <i name="NELECT">     16.00000000</i>
   <i type="int" name="TURBO">     0</i>
   <i type="int" name="IRESTART">     0</i>
   <i type="int" name="NREBOOT">     0</i>
   <i type="int" name="NMIN">     0</i>
   <i name="EREF">      0.00000000</i>
   <separator name="electronic smearing" >
    <i type="int" name="ISMEAR">     0</i>
    <i name="SIGMA">      0.01000000</i>
    <i name="KSPACING">      0.50000000</i>
    <i type="logical" name="KGAMMA"> T  </i>
   </separator>
   <separator name="electronic projectors" >
    <i type="logical" name="LREAL"> F  </i>
    <v name="ROPT">      0.00000000      0.00000000</v>
    <i type="int" name="LMAXPAW">  -100</i>
    <i type="int" name="LMAXMIX">     2</i>
    <i type="logical" name="NLSPLINE"> F  </i>
   </separator>
   <separator name="electronic startup" >
    <i type="int" name="ISTART">     0</i>
    <i type="int" name="ICHARG">     2</i>
    <i type="int" name="INIWAV">     1</i>
   </separator>
   <separator name="electronic spin" >
    <i type="int" name="ISPIN">     1</i>
    <i type="logical" name="LNONCOLLINEAR"> F  </i>
    <v name="MAGMOM">      1.00000000      1.00000000</v>
    <i name="NUPDOWN">     -1.00000000</i>
    <i type="logical" name="LSORBIT"> F  </i>
    <v name="SAXIS">      0.00000000      0.00000000      1.00000000</v>
    <i type="logical" name="LSPIRAL"> F  </i>
    <v name="QSPIRAL">      0.00000000      0.00000000      0.00000000</v>
    <i type="logical" name="LZEROZ"> F  </i>
   </separator>
   <separator name="electronic exchange-correlation" >
    <i type="logical" name="LASPH"> F  </i>
    <i type="logical" name="LMETAGGA"> F  </i>
   </separator>
   <separator name="electronic convergence" >
    <i type="int" name="NELM">   100</i>
    <i type="int" name="NELMDL">    -5</i>
    <i type="int" name="NELMIN">     2</i>
    <i name="ENINI">    520.00000000</i>
    <separator name="electronic convergence detail" >
     <i type="logical" name="LDIAG"> T  </i>
     <i type="logical" name="LSUBROT"> F  </i>
     <i name="WEIMIN">      0.00100000</i>
     <i name="EBREAK">      0.00000000</i>
     <i name="DEPER">      0.30000000</i>
     <i type="int" name="NRMM">     4</i>
     <i name="TIME">      0.40000000</i>
    </separator>
   </separator>
   <separator name="electronic mixer" >
    <i name="AMIX">      0.40000000</i>
    <i name="BMIX">      1.00000000</i>
    <i name="AMIN">      0.10000000</i>
    <i name="AMIX_MAG">      1.60000000</i>
    <i name="BMIX_MAG">      1.00000000</i>
    <separator name="electronic mixer details" >
     <i type="int" name="IMIX">     4</i>
     <i type="logical" name="MIXFIRST"> F  </i>
     <i type="int" name="MAXMIX">   -45</i>
     <i name="WC">    100.00000000</i>
     <i type="int" name="INIMIX">     1</i>
     <i type="int" name="MIXPRE">     1</i>
     <i type="int" name="MREMOVE">     5</i>
    </separator>
   </separator>
   <separator name="electronic dipolcorrection" >
    <i type="logical" name="LDIPOL"> F  </i>
    <i type="logical" name="LMONO"> F  </i>
    <i type="int" name="IDIPOL">     0</i>
    <i name="EPSILON">      1.00000000</i>
    <v name="DIPOL">   -100.00000000   -100.00000000   -100.00000000</v>
    <i name="EFIELD">      0.00000000</i>
   </separator>
  </separator>
  <separator name="grids" >
   <i type="int" name="NGX">    32</i>
   <i type="int" name="NGY">    32</i>
   <i type="int" name="NGZ">    32</i>
   <i type="int" name="NGXF">    64</i>
   <i type="int" name="NGYF">    64</i>
   <i type="int" name="NGZF">    64</i>
   <i type="logical" name="ADDGRID"> F  </i>
  </separator>
  <separator name="ionic" >
   <i type="int" name="NSW">     1</i>
   <i type="int" name="IBRION">     8</i>
   <i type="int" name="MDALGO">     0</i>
   <i type="int" name="ISIF">     2</i>
   <i name="PSTRESS">      0.00000000</i>
   <i name="EDIFFG">      0.00000010</i>
   <i type="int" name="NFREE">     0</i>
   <i name="POTIM">      0.50000000</i>
   <i name="SMASS">     -3.00000000</i>
   <i name="SCALEE">      1.00000000</i>
  </separator>
  <separator name="ionic md" >
   <i name="TEBEG">      0.00010000</i>
   <i name="TEEND">      0.00010000</i>
   <i type="int" name="NBLOCK">     1</i>
   <i type="int" name="KBLOCK">     1</i>
   <i type="int" name="NPACO">   256</i>
   <i name="APACO">     16.00000000</i>
  </separator>
  <separator name="symmetry" >
   <i type="int" name="ISYM">     2</i>
   <i name="SYMPREC">      0.00000001</i>
  </separator>
  <separator name="dos" >
   <i type="int" name="LORBIT">     0</i>
   <v name="RWIGS">     -1.00000000     -1.00000000</v>
   <i type="int" name="NEDOS">   301</i>
   <i name="EMIN">     10.00000000</i>
   <i name="EMAX">    -10.00000000</i>
   <i name="EFERMI">      0.00000000</i>
  </separator>
  <separator name="writing" >
   <i type="int" name="NWRITE">     2</i>
   <i type="logical" name="LWAVE"> F  </i>
   <i type="logical" name="LDOWNSAMPLE"> F  </i>
   <i type="logical" name="LCHARG"> T  </i>
   <i type="logical" name="LPARD"> F  </i>
   <i type="logical" name="LVTOT"> F  </i>
   <i type="logical" name="LVHAR"> F  </i>
   <i type="logical" name="LELF"> F  </i>
   <i type="logical" name="LOPTICS"> F  </i>
   <v name="STM">      0.00000000      0.00000000      0.00000000      0.00000000      0.00000000      0.00000000      0.00000000</v>
  </separator>
  <separator name="performance" >
   <i type="int" name="NPAR">     8</i>
   <i type="int" name="NSIM">     4</i>
   <i type="int" name="NBLK">    -1</i>
   <i type="logical" name="LPLANE"> T  </i>
   <i type="logical" name="LSCALAPACK"> T  </i>
   <i type="logical" name="LSCAAWARE"> F  </i>
   <i type="logical" name="LSCALU"> F  </i>
   <i type="logical" name="LASYNC"> F  </i>
   <i type="logical" name="LORBITALREAL"> F  </i>
  </separator>
  <separator name="miscellaneous" >
   <i type="int" name="IDIOT">     3</i>
   <i type="int" name="ISPECIAL">     0</i>
   <i type="logical" name="LMUSIC"> F  </i>
   <v name="POMASS">     40.07800000     78.96000000</v>
   <v name="DARWINR">      0.00000000      0.00000000</v>
   <v name="DARWINV">      1.00000000      1.00000000</v>
   <i type="logical" name="LCORR"> T  </i>
  </separator>
  <i type="logical" name="GGA_COMPAT"> T  </i>
  <i type="logical" name="LBERRY"> F  </i>
  <i type="int" name="ICORELEVEL">     0</i>
  <i type="logical" name="LDAU"> F  </i>
  <i type="int" name="I_CONSTRAINED_M">     0</i>
  <separator name="electronic exchange-correlation" >
   <i type="string" name="GGA">--</i>
   <i type="int" name="VOSKOWN">     0</i>
   <i type="logical" name="LHFCALC"> F  </i>
   <i type="string" name="PRECFOCK"></i>
   <i type="logical" name="LSYMGRAD"> F  </i>
   <i type="logical" name="LHFONE"> F  </i>
   <i type="logical" name="LRHFCALC"> F  </i>
   <i type="logical" name="LTHOMAS"> F  </i>
   <i type="logical" name="LMODELHF"> F  </i>
   <i name="ENCUT4O">     -1.00000000</i>
   <i type="int" name="EXXOEP">     0</i>
   <i type="int" name="FOURORBIT">     0</i>
   <i name="AEXX">      0.00000000</i>
   <i name="HFALPHA">      0.00000000</i>
   <i name="MCALPHA">      0.00000000</i>
   <i name="ALDAX">      1.00000000</i>
   <i name="AGGAX">      1.00000000</i>
   <i name="ALDAC">      1.00000000</i>
   <i name="AGGAC">      1.00000000</i>
   <i type="int" name="NKREDX">     1</i>
   <i type="int" name="NKREDY">     1</i>
   <i type="int" name="NKREDZ">     1</i>
   <i type="logical" name="SHIFTRED"> F  </i>
   <i type="logical" name="ODDONLY"> F  </i>
   <i type="logical" name="EVENONLY"> F  </i>
   <i type="int" name="LMAXFOCK">     0</i>
   <i type="int" name="NMAXFOCKAE">     0</i>
   <i type="logical" name="LFOCKAEDFT"> F  </i>
   <i name="HFSCREEN">      0.00000000</i>
   <i name="HFSCREENC">      0.00000000</i>
   <i type="int" name="NBANDSGWLOW">     0</i>
  </separator>
  <separator name="vdW DFT" >
   <i type="logical" name="LUSE_VDW"> F  </i>
   <i name="Zab_VDW">     -0.84910000</i>
   <i name="PARAM1">      0.12340000</i>
   <i name="PARAM2">      1.00000000</i>
   <i name="PARAM3">      0.00000000</i>
  </separator>
  <separator name="model GW" >
   <i type="int" name="MODEL_GW">     0</i>
   <i name="MODEL_EPS0">     15.72262102</i>
   <i name="MODEL_ALPHA">      1.00000000</i>
  </separator>
  <separator name="linear response parameters" >
   <i type="logical" name="LEPSILON"> T  </i>
   <i type="logical" name="LRPA"> F  </i>
   <i type="logical" name="LNABLA"> F  </i>
   <i type="logical" name="LVEL"> F  </i>
   <i type="int" name="KINTER">     0</i>
   <i name="CSHIFT">      0.10000000</i>
   <i name="OMEGAMAX">     -1.00000000</i>
   <i name="DEG_THRESHOLD">      0.00200000</i>
   <i name="RTIME">     -0.10000000</i>
   <i name="WPLASMAI">      0.00000000</i>
   <v name="DFIELD">      0.00000000      0.00000000      0.00000000</v>
   <v name="WPLASMA">      0.00000000      0.00000000      0.00000000      0.00000000      0.00000000      0.00000000      0.00000000      0.00000000      0.00000000</v>
  </separator>
  <separator name="orbital magnetization" >
   <i type="logical" name="NUCIND"> F  </i>
   <v name="MAGPOS">      0.00000000      0.00000000      0.00000000</v>
   <i type="logical" name="LNICSALL"> T  </i>
   <i type="logical" name="ORBITALMAG"> F  </i>
   <i type="logical" name="LMAGBLOCH"> F  </i>
   <i type="logical" name="LCHIMAG"> F  </i>
   <i type="logical" name="LGAUGE"> T  </i>
   <i type="int" name="MAGATOM">     0</i>
   <v name="MAGDIPOL">      0.00000000      0.00000000      0.00000000</v>
   <v name="AVECCONST">      0.00000000      0.00000000      0.00000000</v>
  </separator>
  <separator name="response functions" >
   <i type="logical" name="LADDER"> F  </i>
   <i type="logical" name="LRPAFORCE"> F  </i>
   <i type="logical" name="LFXC"> F  </i>
   <i type="logical" name="LHARTREE"> T  </i>
   <i type="int" name="IBSE">     0</i>
   <v type="int" name="KPOINT">    -1     0     0     0</v>
   <i type="logical" name="LTCTE"> F  </i>
   <i type="logical" name="LTETE"> F  </i>
   <i type="logical" name="LTRIPLET"> F  </i>
   <i type="logical" name="LFXCEPS"> F  </i>
   <i type="logical" name="LFXHEG"> F  </i>
   <i type="int" name="NATURALO">     2</i>
   <i type="logical" name="L2ORDER"> F  </i>
   <i type="logical" name="LMP2LT"> F  </i>
   <i type="logical" name="LUSEW"> F  </i>
   <i name="ENCUTGW">     -2.00000000</i>
   <i name="ENCUTGWSOFT">     -2.00000000</i>
   <i name="ENCUTLF">     -1.00000000</i>
   <i type="int" name="LMAXMP2">    -1</i>
   <i name="SCISSOR">      0.00000000</i>
   <i type="int" name="NOMEGA">     0</i>
   <i type="int" name="NOMEGAR">     0</i>
   <i type="int" name="NBANDSGW">    -1</i>
   <i type="int" name="NBANDSO">    -1</i>
   <i type="int" name="NBANDSV">    -1</i>
   <i type="int" name="NELM">   100</i>
   <i type="int" name="NELMHF">     1</i>
   <i type="int" name="DIM">     3</i>
   <i type="int" name="ANTIRES">     0</i>
   <i name="OMEGAMAX">    -30.00000000</i>
   <i name="OMEGAMIN">    -30.00000000</i>
   <i name="OMEGATL">   -200.00000000</i>
   <i type="int" name="OMEGAGRID">   140</i>
   <i name="CSHIFT">     -0.10000000</i>
   <i type="logical" name="SELFENERGY"> F  </i>
   <i type="logical" name="LSPECTRAL"> F  </i>
   <i type="logical" name="LSPECTRALGW"> F  </i>
   <i type="logical" name="LSINGLES"> F  </i>
   <i type="logical" name="LFERMIGW"> F  </i>
   <i type="logical" name="ODDONLYGW"> F  </i>
   <i type="logical" name="EVENONLYGW"> F  </i>
   <i type="int" name="NKREDLFX">     1</i>
   <i type="int" name="NKREDLFY">     1</i>
   <i type="int" name="NKREDLFZ">     1</i>
   <i type="int" name="MAXMEM">  2800</i>
   <i type="int" name="TELESCOPE">     0</i>
   <i type="int" name="TAUPAR">     1</i>
   <i type="int" name="OMEGAPAR">    -1</i>
   <i name="LAMBDA">      1.00000000</i>
  </separator>
  <separator name="External order field" >
   <i name="OFIELD_KAPPA">      0.00000000</i>
   <v name="OFIELD_K">      0.00000000      0.00000000      0.00000000</v>
   <i name="OFIELD_Q6_NEAR">      0.00000000</i>
   <i name="OFIELD_Q6_FAR">      0.00000000</i>
   <i name="OFIELD_A">      0.00000000</i>
  </separator>
 </parameters>
 <atominfo>
  <atoms>       2 </atoms>
  <types>       2 </types>
  <array name="atoms" >
   <dimension dim="1">ion</dimension>
   <field type="string">element</field>
   <field type="int">atomtype</field>
   <set>
    <rc><c>Ca</c><c>   1</c></rc>
    <rc><c>Se</c><c>   2</c></rc>
   </set>
  </array>
  <array name="atomtypes" >
   <dimension dim="1">type</dimension>
   <field type="int">atomspertype</field>
   <field type="string">element</field>
   <field>mass</field>
   <field>valence</field>
   <field type="string">pseudopotential</field>
   <set>
    <rc><c>   1</c><c>Ca</c><c>     40.07800000</c><c>     10.00000000</c><c>  PAW_PBE Ca_sv 06Sep2000               </c></rc>
    <rc><c>   1</c><c>Se</c><c>     78.96000000</c><c>      6.00000000</c><c>  PAW_PBE Se 06Sep2000                  </c></rc>
   </set>
  </array>
 </atominfo>
 <structure name="initialpos" >
  <crystal>
   <varray name="basis" >
    <v>      -2.97023788       0.00000000       2.97023788 </v>
    <v>       0.00000000       2.97023788       2.97023788 </v>
    <v>      -2.97023788       2.97023788       0.00000000 </v>
   </varray>
   <i name="volume">     52.40873675 </i>
   <varray name="rec_basis" >
    <v>      -0.16833669      -0.16833669       0.16833669 </v>
    <v>       0.16833669       0.16833669       0.16833669 </v>
    <v>      -0.16833669       0.16833669      -0.16833669 </v>
   </varray>
  </crystal>
  <varray name="positions" >
   <v>       0.00000000       0.00000000       0.00000000 </v>
   <v>       0.49999996       0.50000004       0.49999996 </v>
  </varray>
 </structure>
 <calculation>
  <scstep>
   <time name="dav">    1.22    1.25</time>
   <time name="total">    1.25    1.29</time>
   <energy>
    <i name="alphaZ">     56.50018726 </i>
    <i name="ewald">   -914.22743734 </i>
    <i name="hartreedc">   -276.09669381 </i>
    <i name="XCdc">     41.60748741 </i>
    <i name="pawpsdc">    956.39897280 </i>
    <i name="pawaedc">   -932.60563010 </i>
    <i name="eentropy">     -0.00003985 </i>
    <i name="bandstr">    -87.13149327 </i>
    <i name="atom">   1263.21653605 </i>
    <i name="e_fr_energy">    107.66188914 </i>
    <i name="e_wo_entrp">    107.66192899 </i>
    <i name="e_0_energy">    107.66190906 </i>
   </energy>
  </scstep>
  <scstep>
   <time name="dav">    1.42    1.43</time>
   <time name="total">    1.42    1.43</time>
   <energy>
    <i name="e_fr_energy">     -5.12839263 </i>
    <i name="e_wo_entrp">     -5.12839263 </i>
    <i name="e_0_energy">     -5.12839263 </i>
   </energy>
  </scstep>
  <scstep>
   <time name="dav">    1.44    1.45</time>
   <time name="total">    1.44    1.45</time>
   <energy>
    <i name="e_fr_energy">     -9.43971498 </i>
    <i name="e_wo_entrp">     -9.43971498 </i>
    <i name="e_0_energy">     -9.43971498 </i>
   </energy>
  </scstep>
  <scstep>
   <time name="dav">    1.57    1.59</time>
   <time name="total">    1.58    1.59</time>
   <energy>
    <i name="e_fr_energy">     -9.62647243 </i>
    <i name="e_wo_entrp">     -9.62647243 </i>
    <i name="e_0_energy">     -9.62647243 </i>
   </energy>
  </scstep>
  <scstep>
   <time name="dav">    1.43    1.45</time>
   <time name="total">    1.49    1.51</time>
   <energy>
    <i name="e_fr_energy">     -9.62770365 </i>
    <i name="e_wo_entrp">     -9.62770365 </i>
    <i name="e_0_energy">     -9.62770365 </i>
   </energy>
  </scstep>
  <scstep>
   <time name="dav">    1.34    1.35</time>
   <time name="total">    1.42    1.43</time>
   <energy>
    <i name="e_fr_energy">     -9.48753894 </i>
    <i name="e_wo_entrp">     -9.48753894 </i>
    <i name="e_0_energy">     -9.48753894 </i>
   </energy>
  </scstep>
  <scstep>
   <time name="dav">    1.55    1.56</time>
   <time name="total">    1.62    1.64</time>
   <energy>
    <i name="e_fr_energy">     -9.48038638 </i>
    <i name="e_wo_entrp">     -9.48038638 </i>
    <i name="e_0_energy">     -9.48038638 </i>
   </energy>
  </scstep>
  <scstep>
   <time name="dav">    1.27    1.28</time>
   <time name="total">    1.36    1.38</time>
   <energy>
    <i name="e_fr_energy">     -9.48439220 </i>
    <i name="e_wo_entrp">     -9.48439220 </i>
    <i name="e_0_energy">     -9.48439220 </i>
   </energy>
  </scstep>
  <scstep>
   <time name="dav">    1.41    1.43</time>
   <time name="total">    1.49    1.51</time>
   <energy>
    <i name="e_fr_energy">     -9.48445235 </i>
    <i name="e_wo_entrp">     -9.48445235 </i>
    <i name="e_0_energy">     -9.48445235 </i>
   </energy>
  </scstep>
  <scstep>
   <time name="dav">    1.29    1.30</time>
   <time name="total">    1.36    1.38</time>
   <energy>
    <i name="e_fr_energy">     -9.48458056 </i>
    <i name="e_wo_entrp">     -9.48458056 </i>
    <i name="e_0_energy">     -9.48458056 </i>
   </energy>
  </scstep>
  <scstep>
   <time name="dav">    1.45    1.46</time>
   <time name="total">    1.52    1.54</time>
   <energy>
    <i name="e_fr_energy">     -9.48460037 </i>
    <i name="e_wo_entrp">     -9.48460037 </i>
    <i name="e_0_energy">     -9.48460037 </i>
   </energy>
  </scstep>
  <scstep>
   <time name="dav">    1.39    1.40</time>
   <time name="total">    1.47    1.48</time>
   <energy>
    <i name="e_fr_energy">     -9.48459925 </i>
    <i name="e_wo_entrp">     -9.48459925 </i>
    <i name="e_0_energy">     -9.48459925 </i>
   </energy>
  </scstep>
  <scstep>
   <time name="dav">    1.46    1.47</time>
   <time name="total">    1.54    1.56</time>
   <energy>
    <i name="e_fr_energy">     -9.48459885 </i>
    <i name="e_wo_entrp">     -9.48459885 </i>
    <i name="e_0_energy">     -9.48459885 </i>
   </energy>
  </scstep>
  <scstep>
   <time name="dav">    1.35    1.36</time>
   <time name="total">    1.44    1.45</time>
   <energy>
    <i name="e_fr_energy">     -9.48459890 </i>
    <i name="e_wo_entrp">     -9.48459890 </i>
    <i name="e_0_energy">     -9.48459890 </i>
   </energy>
  </scstep>
  <scstep>
   <time name="dav">    1.37    1.39</time>
   <time name="total">    1.45    1.47</time>
   <energy>
    <i name="e_fr_energy">     -9.48459896 </i>
    <i name="e_wo_entrp">     -9.48459896 </i>
    <i name="e_0_energy">     -9.48459896 </i>
   </energy>
  </scstep>
  <scstep>
   <time name="dav">    0.89    0.90</time>
   <time name="total">    0.97    0.99</time>
   <energy>
    <i name="e_fr_energy">     -9.48459894 </i>
    <i name="e_wo_entrp">     -9.48459894 </i>
    <i name="e_0_energy">     -9.48459894 </i>
   </energy>
  </scstep>
  <scstep>
   <time name="dav">    0.88    0.89</time>
   <time name="total">    0.89    0.90</time>
   <energy>
    <i name="alphaZ">     56.50018726 </i>
    <i name="ewald">   -914.22743734 </i>
    <i name="hartreedc">   -272.84090359 </i>
    <i name="XCdc">     41.88220788 </i>
    <i name="pawpsdc">   1058.90956542 </i>
    <i name="pawaedc">  -1044.28263638 </i>
    <i name="eentropy">     -0.00000000 </i>
    <i name="bandstr">   -198.64211823 </i>
    <i name="atom">   1263.21653605 </i>
    <i name="e_fr_energy">     -9.48459894 </i>
    <i name="e_wo_entrp">     -9.48459894 </i>
    <i name="e_0_energy">     -9.48459894 </i>
   </energy>
  </scstep>
  <structure>
   <crystal>
    <varray name="basis" >
     <v>      -2.97023788       0.00000000       2.97023788 </v>
     <v>       0.00000000       2.97023788       2.97023788 </v>
     <v>      -2.97023788       2.97023788       0.00000000 </v>
    </varray>
    <i name="volume">     52.40873675 </i>
    <varray name="rec_basis" >
     <v>      -0.16833669      -0.16833669       0.16833669 </v>
     <v>       0.16833669       0.16833669       0.16833669 </v>
     <v>      -0.16833669       0.16833669      -0.16833669 </v>
    </varray>
   </crystal>
   <varray name="positions" >
    <v>       0.00000000       0.00000000       0.00000000 </v>
    <v>       0.49999996       0.50000004       0.49999996 </v>
   </varray>
  </structure>
  <varray name="forces" >
   <v>       0.00000067      -0.00000000       0.00000000 </v>
   <v>      -0.00000067       0.00000000      -0.00000000 </v>
  </varray>
  <varray name="stress" >
   <v>       6.01522425       0.00000000      -0.00000000 </v>
   <v>      -0.00000000       6.01522157       0.00000000 </v>
   <v>       0.00000000      -0.00000000       6.01522157 </v>
  </varray>
  <energy>
   <i name="e_fr_energy">     -9.48459894 </i>
   <i name="e_wo_entrp">     -9.48459894 </i>
   <i name="e_0_energy">     -0.00000000 </i>
  </energy>
  <scstep>
   <time name="total">    1.26    1.27</time>
   <energy>
    <i name="e_fr_energy">     -0.69473195 </i>
    <i name="e_wo_entrp">     -0.69473195 </i>
    <i name="e_0_energy">     -0.69473195 </i>
   </energy>
  </scstep>
  <scstep>
   <time name="total">    1.18    1.19</time>
   <energy>
    <i name="e_fr_energy">     -0.73227044 </i>
    <i name="e_wo_entrp">     -0.73227044 </i>
    <i name="e_0_energy">     -0.73227044 </i>
   </energy>
  </scstep>
  <scstep>
   <time name="total">    1.17    1.17</time>
   <energy>
    <i name="e_fr_energy">     -0.73679952 </i>
    <i name="e_wo_entrp">     -0.73679952 </i>
    <i name="e_0_energy">     -0.73679952 </i>
   </energy>
  </scstep>
  <scstep>
   <time name="total">    1.24    1.25</time>
   <energy>
    <i name="e_fr_energy">     -0.73774423 </i>
    <i name="e_wo_entrp">     -0.73774423 </i>
    <i name="e_0_energy">     -0.73774423 </i>
   </energy>
  </scstep>
  <scstep>
   <time name="total">    1.19    1.21</time>
   <energy>
    <i name="e_fr_energy">     -0.73782738 </i>
    <i name="e_wo_entrp">     -0.73782738 </i>
    <i name="e_0_energy">     -0.73782738 </i>
   </energy>
  </scstep>
  <scstep>
   <time name="total">    1.16    1.17</time>
   <energy>
    <i name="e_fr_energy">     -0.73783772 </i>
    <i name="e_wo_entrp">     -0.73783772 </i>
    <i name="e_0_energy">     -0.73783772 </i>
   </energy>
  </scstep>
  <scstep>
   <time name="total">    1.15    1.17</time>
   <energy>
    <i name="e_fr_energy">     -0.73783880 </i>
    <i name="e_wo_entrp">     -0.73783880 </i>
    <i name="e_0_energy">     -0.73783880 </i>
   </energy>
  </scstep>
  <scstep>
   <time name="total">    1.11    1.12</time>
   <energy>
    <i name="e_fr_energy">     -0.73783896 </i>
    <i name="e_wo_entrp">     -0.73783896 </i>
    <i name="e_0_energy">     -0.73783896 </i>
   </energy>
  </scstep>
  <scstep>
   <time name="total">    1.11    1.12</time>
   <energy>
    <i name="e_fr_energy">     -0.73783898 </i>
    <i name="e_wo_entrp">     -0.73783898 </i>
    <i name="e_0_energy">     -0.73783898 </i>
   </energy>
  </scstep>
  <scstep>
   <time name="total">    1.11    1.12</time>
   <energy>
    <i name="e_fr_energy">     -0.73783899 </i>
    <i name="e_wo_entrp">     -0.73783899 </i>
    <i name="e_0_energy">     -0.73783899 </i>
   </energy>
  </scstep>
  <scstep>
   <time name="total">    1.29    1.29</time>
   <energy>
    <i name="e_fr_energy">     -0.78119717 </i>
    <i name="e_wo_entrp">     -0.78119717 </i>
    <i name="e_0_energy">     -0.78119717 </i>
   </energy>
  </scstep>
  <scstep>
   <time name="total">    1.25    1.27</time>
   <energy>
    <i name="e_fr_energy">     -0.81637427 </i>
    <i name="e_wo_entrp">     -0.81637427 </i>
    <i name="e_0_energy">     -0.81637427 </i>
   </energy>
  </scstep>
  <scstep>
   <time name="total">    1.24    1.24</time>
   <energy>
    <i name="e_fr_energy">     -0.82080750 </i>
    <i name="e_wo_entrp">     -0.82080750 </i>
    <i name="e_0_energy">     -0.82080750 </i>
   </energy>
  </scstep>
  <scstep>
   <time name="total">    1.24    1.26</time>
   <energy>
    <i name="e_fr_energy">     -0.82173298 </i>
    <i name="e_wo_entrp">     -0.82173298 </i>
    <i name="e_0_energy">     -0.82173298 </i>
   </energy>
  </scstep>
  <scstep>
   <time name="total">    1.24    1.25</time>
   <energy>
    <i name="e_fr_energy">     -0.82181386 </i>
    <i name="e_wo_entrp">     -0.82181386 </i>
    <i name="e_0_energy">     -0.82181386 </i>
   </energy>
  </scstep>
  <scstep>
   <time name="total">    1.24    1.24</time>
   <energy>
    <i name="e_fr_energy">     -0.82182416 </i>
    <i name="e_wo_entrp">     -0.82182416 </i>
    <i name="e_0_energy">     -0.82182416 </i>
   </energy>
  </scstep>
  <scstep>
   <time name="total">    1.24    1.24</time>
   <energy>
    <i name="e_fr_energy">     -0.82182524 </i>
    <i name="e_wo_entrp">     -0.82182524 </i>
    <i name="e_0_energy">     -0.82182524 </i>
   </energy>
  </scstep>
  <scstep>
   <time name="total">    1.21    1.21</time>
   <energy>
    <i name="e_fr_energy">     -0.82182540 </i>
    <i name="e_wo_entrp">     -0.82182540 </i>
    <i name="e_0_energy">     -0.82182540 </i>
   </energy>
  </scstep>
  <scstep>
   <time name="total">    1.27    1.27</time>
   <energy>
    <i name="e_fr_energy">     -0.82182542 </i>
    <i name="e_wo_entrp">     -0.82182542 </i>
    <i name="e_0_energy">     -0.82182542 </i>
   </energy>
  </scstep>
  <scstep>
   <time name="total">    1.20    1.21</time>
   <energy>
    <i name="e_fr_energy">     -0.82182542 </i>
    <i name="e_wo_entrp">     -0.82182542 </i>
    <i name="e_0_energy">     -0.82182542 </i>
   </energy>
  </scstep>
  <scstep>
   <time name="total">    1.22    1.23</time>
   <energy>
    <i name="e_fr_energy">     -0.60849177 </i>
    <i name="e_wo_entrp">     -0.60849177 </i>
    <i name="e_0_energy">     -0.60849177 </i>
   </energy>
  </scstep>
  <scstep>
   <time name="total">    1.17    1.18</time>
   <energy>
    <i name="e_fr_energy">     -0.64827751 </i>
    <i name="e_wo_entrp">     -0.64827751 </i>
    <i name="e_0_energy">     -0.64827751 </i>
   </energy>
  </scstep>
  <scstep>
   <time name="total">    1.17    1.17</time>
   <energy>
    <i name="e_fr_energy">     -0.65286866 </i>
    <i name="e_wo_entrp">     -0.65286866 </i>
    <i name="e_0_energy">     -0.65286866 </i>
   </energy>
  </scstep>
  <scstep>
   <time name="total">    1.16    1.16</time>
   <energy>
    <i name="e_fr_energy">     -0.65383561 </i>
    <i name="e_wo_entrp">     -0.65383561 </i>
    <i name="e_0_energy">     -0.65383561 </i>
   </energy>
  </scstep>
  <scstep>
   <time name="total">    1.19    1.20</time>
   <energy>
    <i name="e_fr_energy">     -0.65392068 </i>
    <i name="e_wo_entrp">     -0.65392068 </i>
    <i name="e_0_energy">     -0.65392068 </i>
   </energy>
  </scstep>
  <scstep>
   <time name="total">    1.16    1.16</time>
   <energy>
    <i name="e_fr_energy">     -0.65393107 </i>
    <i name="e_wo_entrp">     -0.65393107 </i>
    <i name="e_0_energy">     -0.65393107 </i>
   </energy>
  </scstep>
  <scstep>
   <time name="total">    1.17    1.18</time>
   <energy>
    <i name="e_fr_energy">     -0.65393216 </i>
    <i name="e_wo_entrp">     -0.65393216 </i>
    <i name="e_0_energy">     -0.65393216 </i>
   </energy>
  </scstep>
  <scstep>
   <time name="total">    1.12    1.13</time>
   <energy>
    <i name="e_fr_energy">     -0.65393233 </i>
    <i name="e_wo_entrp">     -0.65393233 </i>
    <i name="e_0_energy">     -0.65393233 </i>
   </energy>
  </scstep>
  <scstep>
   <time name="total">    1.15    1.16</time>
   <energy>
    <i name="e_fr_energy">     -0.65393235 </i>
    <i name="e_wo_entrp">     -0.65393235 </i>
    <i name="e_0_energy">     -0.65393235 </i>
   </energy>
  </scstep>
  <scstep>
   <time name="total">    1.11    1.12</time>
   <energy>
    <i name="e_fr_energy">     -0.65393235 </i>
    <i name="e_wo_entrp">     -0.65393235 </i>
    <i name="e_0_energy">     -0.65393235 </i>
   </energy>
  </scstep>
  <varray name="epsilon_rpa" >
   <v>       6.09511257      -0.00000000       0.00000000 </v>
   <v>      -0.00000000       6.09538860      -0.00000000 </v>
   <v>       0.00000000      -0.00000000       6.09538860 </v>
  </varray>
  <kpoints>
   <generation param="Gamma">
    <v type="int" name="divisions">      12       12       12 </v>
    <v name="usershift">      0.00000000       0.00000000       0.00000000 </v>
    <v name="genvec1">      0.08333333      -0.00000000      -0.00000000 </v>
    <v name="genvec2">     -0.00000000       0.08333333       0.00000000 </v>
    <v name="genvec3">      0.00000000       0.00000000       0.08333333 </v>
    <v name="shift">      0.00000000       0.00000000       0.00000000 </v>
   </generation>
   <varray name="kpointlist" >
    <v>       0.00000000       0.00000000       0.00000000 </v>
    <v>       0.08333333      -0.00000000      -0.00000000 </v>
    <v>       0.16666667       0.00000000       0.00000000 </v>
    <v>       0.25000000      -0.00000000       0.00000000 </v>
    <v>       0.33333333      -0.00000000      -0.00000000 </v>
    <v>       0.41666667       0.00000000       0.00000000 </v>
    <v>       0.50000000      -0.00000000       0.00000000 </v>
    <v>       0.08333333       0.08333333      -0.00000000 </v>
    <v>       0.16666667       0.08333333      -0.00000000 </v>
    <v>       0.25000000       0.08333333      -0.00000000 </v>
    <v>       0.33333333       0.08333333       0.00000000 </v>
    <v>       0.41666667       0.08333333       0.00000000 </v>
    <v>       0.50000000       0.08333333      -0.00000000 </v>
    <v>      -0.41666667       0.08333333      -0.00000000 </v>
    <v>      -0.33333333       0.08333333       0.00000000 </v>
    <v>      -0.25000000       0.08333333      -0.00000000 </v>
    <v>      -0.16666667       0.08333333      -0.00000000 </v>
    <v>      -0.08333333       0.08333333       0.00000000 </v>
    <v>       0.16666667       0.16666667      -0.00000000 </v>
    <v>       0.25000000       0.16666667      -0.00000000 </v>
    <v>       0.33333333       0.16666667       0.00000000 </v>
    <v>       0.41666667       0.16666667       0.00000000 </v>
    <v>       0.50000000       0.16666667       0.00000000 </v>
    <v>      -0.41666667       0.16666667       0.00000000 </v>
    <v>      -0.33333333       0.16666667      -0.00000000 </v>
    <v>      -0.25000000       0.16666667      -0.00000000 </v>
    <v>      -0.16666667       0.16666667       0.00000000 </v>
    <v>       0.25000000       0.25000000      -0.00000000 </v>
    <v>       0.33333333       0.25000000      -0.00000000 </v>
    <v>       0.41666667       0.25000000       0.00000000 </v>
    <v>       0.50000000       0.25000000       0.00000000 </v>
    <v>      -0.41666667       0.25000000       0.00000000 </v>
    <v>      -0.33333333       0.25000000       0.00000000 </v>
    <v>      -0.25000000       0.25000000       0.00000000 </v>
    <v>       0.33333333       0.33333333      -0.00000000 </v>
    <v>       0.41666667       0.33333333      -0.00000000 </v>
    <v>       0.50000000       0.33333333       0.00000000 </v>
    <v>      -0.41666667       0.33333333       0.00000000 </v>
    <v>      -0.33333333       0.33333333      -0.00000000 </v>
    <v>       0.41666667       0.41666667      -0.00000000 </v>
    <v>       0.50000000       0.41666667      -0.00000000 </v>
    <v>      -0.41666667       0.41666667      -0.00000000 </v>
    <v>       0.50000000       0.50000000      -0.00000000 </v>
    <v>       0.08333333      -0.00000000       0.08333333 </v>
    <v>       0.16666667       0.00000000       0.08333333 </v>
    <v>       0.25000000      -0.00000000       0.08333333 </v>
    <v>       0.33333333       0.00000000       0.08333333 </v>
    <v>       0.41666667       0.00000000       0.08333333 </v>
    <v>       0.50000000      -0.00000000       0.08333333 </v>
    <v>      -0.41666667      -0.00000000       0.08333333 </v>
    <v>      -0.33333333       0.00000000       0.08333333 </v>
    <v>      -0.25000000       0.00000000       0.08333333 </v>
    <v>      -0.16666667      -0.00000000       0.08333333 </v>
    <v>      -0.08333333       0.00000000       0.08333333 </v>
    <v>       0.25000000       0.16666667       0.08333333 </v>
    <v>       0.33333333       0.16666667       0.08333333 </v>
    <v>       0.41666667       0.16666667       0.08333333 </v>
    <v>       0.50000000       0.16666667       0.08333333 </v>
    <v>      -0.41666667       0.16666667       0.08333333 </v>
    <v>       0.16666667       0.25000000       0.08333333 </v>
    <v>       0.33333333       0.25000000       0.08333333 </v>
    <v>       0.41666667       0.25000000       0.08333333 </v>
    <v>       0.50000000       0.25000000       0.08333333 </v>
    <v>      -0.41666667       0.25000000       0.08333333 </v>
    <v>      -0.33333333       0.25000000       0.08333333 </v>
    <v>      -0.25000000       0.25000000       0.08333333 </v>
    <v>      -0.16666667       0.25000000       0.08333333 </v>
    <v>       0.16666667       0.33333333       0.08333333 </v>
    <v>       0.25000000       0.33333333       0.08333333 </v>
    <v>       0.41666667       0.33333333       0.08333333 </v>
    <v>       0.50000000       0.33333333       0.08333333 </v>
    <v>      -0.41666667       0.33333333       0.08333333 </v>
    <v>      -0.33333333       0.33333333       0.08333333 </v>
    <v>      -0.25000000       0.33333333       0.08333333 </v>
    <v>       0.16666667       0.41666667       0.08333333 </v>
    <v>       0.25000000       0.41666667       0.08333333 </v>
    <v>       0.33333333       0.41666667       0.08333333 </v>
    <v>       0.50000000       0.41666667       0.08333333 </v>
    <v>      -0.41666667       0.41666667       0.08333333 </v>
    <v>      -0.33333333       0.41666667       0.08333333 </v>
    <v>       0.16666667       0.50000000       0.08333333 </v>
    <v>       0.25000000       0.50000000       0.08333333 </v>
    <v>       0.33333333       0.50000000       0.08333333 </v>
    <v>       0.41666667       0.50000000       0.08333333 </v>
    <v>      -0.41666667       0.50000000       0.08333333 </v>
    <v>       0.16666667      -0.41666667       0.08333333 </v>
    <v>       0.25000000      -0.41666667       0.08333333 </v>
    <v>       0.33333333      -0.41666667       0.08333333 </v>
    <v>       0.41666667      -0.41666667       0.08333333 </v>
    <v>       0.50000000      -0.41666667       0.08333333 </v>
    <v>       0.16666667      -0.33333333       0.08333333 </v>
    <v>       0.25000000      -0.33333333       0.08333333 </v>
    <v>       0.33333333      -0.33333333       0.08333333 </v>
    <v>       0.41666667      -0.33333333       0.08333333 </v>
    <v>       0.16666667      -0.25000000       0.08333333 </v>
    <v>       0.25000000      -0.25000000       0.08333333 </v>
    <v>       0.33333333      -0.25000000       0.08333333 </v>
    <v>       0.16666667      -0.16666667       0.08333333 </v>
    <v>       0.25000000      -0.16666667       0.08333333 </v>
    <v>       0.16666667      -0.08333333       0.08333333 </v>
    <v>       0.16666667      -0.00000000       0.16666667 </v>
    <v>       0.25000000       0.00000000       0.16666667 </v>
    <v>       0.33333333       0.00000000       0.16666667 </v>
    <v>       0.41666667       0.00000000       0.16666667 </v>
    <v>       0.50000000      -0.00000000       0.16666667 </v>
    <v>      -0.41666667      -0.00000000       0.16666667 </v>
    <v>      -0.33333333      -0.00000000       0.16666667 </v>
    <v>      -0.25000000      -0.00000000       0.16666667 </v>
    <v>      -0.16666667      -0.00000000       0.16666667 </v>
    <v>       0.50000000       0.33333333       0.16666667 </v>
    <v>      -0.41666667       0.33333333       0.16666667 </v>
    <v>      -0.33333333       0.33333333       0.16666667 </v>
    <v>       0.25000000       0.41666667       0.16666667 </v>
    <v>      -0.41666667       0.41666667       0.16666667 </v>
    <v>      -0.33333333       0.41666667       0.16666667 </v>
    <v>      -0.25000000       0.41666667       0.16666667 </v>
    <v>       0.25000000       0.50000000       0.16666667 </v>
    <v>       0.33333333       0.50000000       0.16666667 </v>
    <v>      -0.33333333       0.50000000       0.16666667 </v>
    <v>       0.25000000      -0.41666667       0.16666667 </v>
    <v>       0.33333333      -0.41666667       0.16666667 </v>
    <v>       0.41666667      -0.41666667       0.16666667 </v>
    <v>       0.25000000      -0.33333333       0.16666667 </v>
    <v>       0.33333333      -0.33333333       0.16666667 </v>
    <v>       0.41666667      -0.33333333       0.16666667 </v>
    <v>       0.50000000      -0.33333333       0.16666667 </v>
    <v>       0.25000000      -0.25000000       0.16666667 </v>
    <v>       0.33333333      -0.25000000       0.16666667 </v>
    <v>       0.41666667      -0.25000000       0.16666667 </v>
    <v>       0.25000000      -0.16666667       0.16666667 </v>
    <v>       0.33333333      -0.16666667       0.16666667 </v>
    <v>       0.25000000      -0.08333333       0.16666667 </v>
    <v>       0.25000000       0.00000000       0.25000000 </v>
    <v>       0.33333333       0.00000000       0.25000000 </v>
    <v>       0.41666667      -0.00000000       0.25000000 </v>
    <v>       0.50000000       0.00000000       0.25000000 </v>
    <v>      -0.41666667       0.00000000       0.25000000 </v>
    <v>      -0.33333333      -0.00000000       0.25000000 </v>
    <v>      -0.25000000       0.00000000       0.25000000 </v>
    <v>      -0.25000000       0.50000000       0.25000000 </v>
    <v>       0.33333333      -0.41666667       0.25000000 </v>
    <v>       0.33333333      -0.33333333       0.25000000 </v>
    <v>       0.41666667      -0.33333333       0.25000000 </v>
    <v>       0.33333333      -0.25000000       0.25000000 </v>
    <v>       0.41666667      -0.25000000       0.25000000 </v>
    <v>       0.50000000      -0.25000000       0.25000000 </v>
    <v>       0.33333333      -0.16666667       0.25000000 </v>
    <v>       0.41666667      -0.16666667       0.25000000 </v>
    <v>       0.33333333      -0.08333333       0.25000000 </v>
    <v>       0.33333333       0.00000000       0.33333333 </v>
    <v>       0.41666667       0.00000000       0.33333333 </v>
    <v>       0.50000000       0.00000000       0.33333333 </v>
    <v>      -0.41666667      -0.00000000       0.33333333 </v>
    <v>      -0.33333333      -0.00000000       0.33333333 </v>
    <v>       0.41666667      -0.25000000       0.33333333 </v>
    <v>       0.41666667      -0.16666667       0.33333333 </v>
    <v>       0.50000000      -0.16666667       0.33333333 </v>
    <v>       0.41666667      -0.08333333       0.33333333 </v>
    <v>       0.41666667      -0.00000000       0.41666667 </v>
    <v>       0.50000000       0.00000000       0.41666667 </v>
    <v>      -0.41666667       0.00000000       0.41666667 </v>
    <v>       0.50000000      -0.08333333       0.41666667 </v>
    <v>       0.50000000       0.00000000       0.50000000 </v>
   </varray>
   <varray name="weights" >
    <v>       0.00057870 </v>
    <v>       0.00462963 </v>
    <v>       0.00462963 </v>
    <v>       0.00462963 </v>
    <v>       0.00462963 </v>
    <v>       0.00462963 </v>
    <v>       0.00231481 </v>
    <v>       0.00231481 </v>
    <v>       0.00925926 </v>
    <v>       0.00925926 </v>
    <v>       0.00925926 </v>
    <v>       0.00925926 </v>
    <v>       0.00925926 </v>
    <v>       0.00925926 </v>
    <v>       0.00925926 </v>
    <v>       0.00925926 </v>
    <v>       0.00925926 </v>
    <v>       0.00462963 </v>
    <v>       0.00231481 </v>
    <v>       0.00925926 </v>
    <v>       0.00925926 </v>
    <v>       0.00925926 </v>
    <v>       0.00925926 </v>
    <v>       0.00925926 </v>
    <v>       0.00925926 </v>
    <v>       0.00925926 </v>
    <v>       0.00462963 </v>
    <v>       0.00231481 </v>
    <v>       0.00925926 </v>
    <v>       0.00925926 </v>
    <v>       0.00925926 </v>
    <v>       0.00925926 </v>
    <v>       0.00925926 </v>
    <v>       0.00462963 </v>
    <v>       0.00231481 </v>
    <v>       0.00925926 </v>
    <v>       0.00925926 </v>
    <v>       0.00925926 </v>
    <v>       0.00462963 </v>
    <v>       0.00231481 </v>
    <v>       0.00925926 </v>
    <v>       0.00462963 </v>
    <v>       0.00115741 </v>
    <v>       0.00115741 </v>
    <v>       0.00462963 </v>
    <v>       0.00462963 </v>
    <v>       0.00462963 </v>
    <v>       0.00462963 </v>
    <v>       0.00462963 </v>
    <v>       0.00462963 </v>
    <v>       0.00462963 </v>
    <v>       0.00462963 </v>
    <v>       0.00462963 </v>
    <v>       0.00231481 </v>
    <v>       0.00462963 </v>
    <v>       0.00925926 </v>
    <v>       0.00925926 </v>
    <v>       0.00925926 </v>
    <v>       0.00462963 </v>
    <v>       0.00462963 </v>
    <v>       0.00462963 </v>
    <v>       0.00925926 </v>
    <v>       0.00925926 </v>
    <v>       0.00925926 </v>
    <v>       0.00925926 </v>
    <v>       0.00925926 </v>
    <v>       0.00462963 </v>
    <v>       0.00925926 </v>
    <v>       0.00462963 </v>
    <v>       0.00462963 </v>
    <v>       0.00925926 </v>
    <v>       0.00925926 </v>
    <v>       0.00925926 </v>
    <v>       0.00462963 </v>
    <v>       0.00925926 </v>
    <v>       0.00925926 </v>
    <v>       0.00462963 </v>
    <v>       0.00462963 </v>
    <v>       0.00925926 </v>
    <v>       0.00462963 </v>
    <v>       0.00925926 </v>
    <v>       0.00925926 </v>
    <v>       0.00925926 </v>
    <v>       0.00462963 </v>
    <v>       0.00231481 </v>
    <v>       0.00925926 </v>
    <v>       0.00925926 </v>
    <v>       0.00925926 </v>
    <v>       0.00925926 </v>
    <v>       0.00231481 </v>
    <v>       0.00925926 </v>
    <v>       0.00925926 </v>
    <v>       0.00925926 </v>
    <v>       0.00462963 </v>
    <v>       0.00925926 </v>
    <v>       0.00925926 </v>
    <v>       0.00462963 </v>
    <v>       0.00925926 </v>
    <v>       0.00462963 </v>
    <v>       0.00462963 </v>
    <v>       0.00115741 </v>
    <v>       0.00462963 </v>
    <v>       0.00462963 </v>
    <v>       0.00462963 </v>
    <v>       0.00462963 </v>
    <v>       0.00462963 </v>
    <v>       0.00462963 </v>
    <v>       0.00462963 </v>
    <v>       0.00231481 </v>
    <v>       0.00462963 </v>
    <v>       0.00925926 </v>
    <v>       0.00462963 </v>
    <v>       0.00462963 </v>
    <v>       0.00462963 </v>
    <v>       0.00925926 </v>
    <v>       0.00462963 </v>
    <v>       0.00925926 </v>
    <v>       0.00462963 </v>
    <v>       0.00231481 </v>
    <v>       0.00925926 </v>
    <v>       0.00925926 </v>
    <v>       0.00462963 </v>
    <v>       0.00925926 </v>
    <v>       0.00925926 </v>
    <v>       0.00925926 </v>
    <v>       0.00231481 </v>
    <v>       0.00925926 </v>
    <v>       0.00925926 </v>
    <v>       0.00462963 </v>
    <v>       0.00925926 </v>
    <v>       0.00462963 </v>
    <v>       0.00462963 </v>
    <v>       0.00115741 </v>
    <v>       0.00462963 </v>
    <v>       0.00462963 </v>
    <v>       0.00462963 </v>
    <v>       0.00462963 </v>
    <v>       0.00462963 </v>
    <v>       0.00231481 </v>
    <v>       0.00115741 </v>
    <v>       0.00462963 </v>
    <v>       0.00925926 </v>
    <v>       0.00462963 </v>
    <v>       0.00925926 </v>
    <v>       0.00925926 </v>
    <v>       0.00231481 </v>
    <v>       0.00925926 </v>
    <v>       0.00462963 </v>
    <v>       0.00462963 </v>
    <v>       0.00115741 </v>
    <v>       0.00462963 </v>
    <v>       0.00462963 </v>
    <v>       0.00462963 </v>
    <v>       0.00231481 </v>
    <v>       0.00462963 </v>
    <v>       0.00925926 </v>
    <v>       0.00231481 </v>
    <v>       0.00462963 </v>
    <v>       0.00115741 </v>
    <v>       0.00462963 </v>
    <v>       0.00231481 </v>
    <v>       0.00231481 </v>
    <v>       0.00057870 </v>
   </varray>
  </kpoints>
  <scstep>
   <time name="total">    1.28    1.28</time>
   <energy>
    <i name="e_fr_energy">     -0.69473195 </i>
    <i name="e_wo_entrp">     -0.69473195 </i>
    <i name="e_0_energy">     -0.69473195 </i>
   </energy>
  </scstep>
  <scstep>
   <time name="total">    1.30    1.31</time>
   <energy>
    <i name="e_fr_energy">     -0.73227044 </i>
    <i name="e_wo_entrp">     -0.73227044 </i>
    <i name="e_0_energy">     -0.73227044 </i>
   </energy>
  </scstep>
  <scstep>
   <time name="total">    1.57    1.58</time>
   <energy>
    <i name="e_fr_energy">     -0.69207331 </i>
    <i name="e_wo_entrp">     -0.69207331 </i>
    <i name="e_0_energy">     -0.69207331 </i>
   </energy>
  </scstep>
  <scstep>
   <time name="total">    1.83    1.84</time>
   <energy>
    <i name="e_fr_energy">     -0.72764442 </i>
    <i name="e_wo_entrp">     -0.72764442 </i>
    <i name="e_0_energy">     -0.72764442 </i>
   </energy>
  </scstep>
  <scstep>
   <time name="total">    1.79    1.79</time>
   <energy>
    <i name="e_fr_energy">     -0.75415053 </i>
    <i name="e_wo_entrp">     -0.75415053 </i>
    <i name="e_0_energy">     -0.75415053 </i>
   </energy>
  </scstep>
  <scstep>
   <time name="total">    2.05    2.05</time>
   <energy>
    <i name="e_fr_energy">     -0.75586770 </i>
    <i name="e_wo_entrp">     -0.75586770 </i>
    <i name="e_0_energy">     -0.75586770 </i>
   </energy>
  </scstep>
  <scstep>
   <time name="total">    1.96    1.98</time>
   <energy>
    <i name="e_fr_energy">     -0.75727705 </i>
    <i name="e_wo_entrp">     -0.75727705 </i>
    <i name="e_0_energy">     -0.75727705 </i>
   </energy>
  </scstep>
  <scstep>
   <time name="total">    1.99    2.00</time>
   <energy>
    <i name="e_fr_energy">     -0.75730319 </i>
    <i name="e_wo_entrp">     -0.75730319 </i>
    <i name="e_0_energy">     -0.75730319 </i>
   </energy>
  </scstep>
  <scstep>
   <time name="total">    2.01    2.04</time>
   <energy>
    <i name="e_fr_energy">     -0.75732290 </i>
    <i name="e_wo_entrp">     -0.75732290 </i>
    <i name="e_0_energy">     -0.75732290 </i>
   </energy>
  </scstep>
  <scstep>
   <time name="total">    1.84    1.85</time>
   <energy>
    <i name="e_fr_energy">     -0.75734354 </i>
    <i name="e_wo_entrp">     -0.75734354 </i>
    <i name="e_0_energy">     -0.75734354 </i>
   </energy>
  </scstep>
  <scstep>
   <time name="total">    1.94    1.95</time>
   <energy>
    <i name="e_fr_energy">     -0.75734390 </i>
    <i name="e_wo_entrp">     -0.75734390 </i>
    <i name="e_0_energy">     -0.75734390 </i>
   </energy>
  </scstep>
  <scstep>
   <time name="total">    1.89    1.90</time>
   <energy>
    <i name="e_fr_energy">     -0.75734299 </i>
    <i name="e_wo_entrp">     -0.75734299 </i>
    <i name="e_0_energy">     -0.75734299 </i>
   </energy>
  </scstep>
  <scstep>
   <time name="total">    1.90    1.91</time>
   <energy>
    <i name="e_fr_energy">     -0.75734247 </i>
    <i name="e_wo_entrp">     -0.75734247 </i>
    <i name="e_0_energy">     -0.75734247 </i>
   </energy>
  </scstep>
  <scstep>
   <time name="total">    1.76    1.78</time>
   <energy>
    <i name="e_fr_energy">     -0.75734267 </i>
    <i name="e_wo_entrp">     -0.75734267 </i>
    <i name="e_0_energy">     -0.75734267 </i>
   </energy>
  </scstep>
  <kpoints>
   <generation param="Gamma">
    <v type="int" name="divisions">      12       12       12 </v>
    <v name="usershift">      0.00000000       0.00000000       0.00000000 </v>
    <v name="genvec1">      0.08333333      -0.00000000      -0.00000000 </v>
    <v name="genvec2">     -0.00000000       0.08333333       0.00000000 </v>
    <v name="genvec3">      0.00000000       0.00000000       0.08333333 </v>
    <v name="shift">      0.00000000       0.00000000       0.00000000 </v>
   </generation>
   <varray name="kpointlist" >
    <v>       0.00000000       0.00000000       0.00000000 </v>
    <v>       0.08333333      -0.00000000      -0.00000000 </v>
    <v>       0.16666667       0.00000000       0.00000000 </v>
    <v>       0.25000000      -0.00000000       0.00000000 </v>
    <v>       0.33333333      -0.00000000      -0.00000000 </v>
    <v>       0.41666667       0.00000000       0.00000000 </v>
    <v>       0.50000000      -0.00000000       0.00000000 </v>
    <v>       0.08333333       0.08333333      -0.00000000 </v>
    <v>       0.16666667       0.08333333      -0.00000000 </v>
    <v>       0.25000000       0.08333333      -0.00000000 </v>
    <v>       0.33333333       0.08333333       0.00000000 </v>
    <v>       0.41666667       0.08333333       0.00000000 </v>
    <v>       0.50000000       0.08333333      -0.00000000 </v>
    <v>      -0.41666667       0.08333333      -0.00000000 </v>
    <v>      -0.33333333       0.08333333       0.00000000 </v>
    <v>      -0.25000000       0.08333333      -0.00000000 </v>
    <v>      -0.16666667       0.08333333      -0.00000000 </v>
    <v>      -0.08333333       0.08333333       0.00000000 </v>
    <v>       0.16666667       0.16666667      -0.00000000 </v>
    <v>       0.25000000       0.16666667      -0.00000000 </v>
    <v>       0.33333333       0.16666667       0.00000000 </v>
    <v>       0.41666667       0.16666667       0.00000000 </v>
    <v>       0.50000000       0.16666667       0.00000000 </v>
    <v>      -0.41666667       0.16666667       0.00000000 </v>
    <v>      -0.33333333       0.16666667      -0.00000000 </v>
    <v>      -0.25000000       0.16666667      -0.00000000 </v>
    <v>      -0.16666667       0.16666667       0.00000000 </v>
    <v>       0.25000000       0.25000000      -0.00000000 </v>
    <v>       0.33333333       0.25000000      -0.00000000 </v>
    <v>       0.41666667       0.25000000       0.00000000 </v>
    <v>       0.50000000       0.25000000       0.00000000 </v>
    <v>      -0.41666667       0.25000000       0.00000000 </v>
    <v>      -0.33333333       0.25000000       0.00000000 </v>
    <v>      -0.25000000       0.25000000       0.00000000 </v>
    <v>       0.33333333       0.33333333      -0.00000000 </v>
    <v>       0.41666667       0.33333333      -0.00000000 </v>
    <v>       0.50000000       0.33333333       0.00000000 </v>
    <v>      -0.41666667       0.33333333       0.00000000 </v>
    <v>      -0.33333333       0.33333333      -0.00000000 </v>
    <v>       0.41666667       0.41666667      -0.00000000 </v>
    <v>       0.50000000       0.41666667      -0.00000000 </v>
    <v>      -0.41666667       0.41666667      -0.00000000 </v>
    <v>       0.50000000       0.50000000      -0.00000000 </v>
    <v>      -0.00000000      -0.00000000       0.08333333 </v>
    <v>       0.08333333      -0.00000000       0.08333333 </v>
    <v>       0.16666667       0.00000000       0.08333333 </v>
    <v>       0.25000000      -0.00000000       0.08333333 </v>
    <v>       0.33333333       0.00000000       0.08333333 </v>
    <v>       0.41666667       0.00000000       0.08333333 </v>
    <v>       0.50000000      -0.00000000       0.08333333 </v>
    <v>      -0.41666667      -0.00000000       0.08333333 </v>
    <v>      -0.33333333       0.00000000       0.08333333 </v>
    <v>      -0.25000000       0.00000000       0.08333333 </v>
    <v>      -0.16666667      -0.00000000       0.08333333 </v>
    <v>      -0.08333333       0.00000000       0.08333333 </v>
    <v>       0.00000000       0.08333333       0.08333333 </v>
    <v>       0.16666667       0.08333333       0.08333333 </v>
    <v>       0.25000000       0.08333333       0.08333333 </v>
    <v>       0.33333333       0.08333333       0.08333333 </v>
    <v>       0.41666667       0.08333333       0.08333333 </v>
    <v>       0.50000000       0.08333333       0.08333333 </v>
    <v>      -0.41666667       0.08333333       0.08333333 </v>
    <v>      -0.33333333       0.08333333       0.08333333 </v>
    <v>      -0.25000000       0.08333333       0.08333333 </v>
    <v>      -0.16666667       0.08333333       0.08333333 </v>
    <v>      -0.08333333       0.08333333       0.08333333 </v>
    <v>       0.16666667       0.16666667       0.08333333 </v>
    <v>       0.25000000       0.16666667       0.08333333 </v>
    <v>       0.33333333       0.16666667       0.08333333 </v>
    <v>       0.41666667       0.16666667       0.08333333 </v>
    <v>       0.50000000       0.16666667       0.08333333 </v>
    <v>      -0.41666667       0.16666667       0.08333333 </v>
    <v>      -0.33333333       0.16666667       0.08333333 </v>
    <v>      -0.25000000       0.16666667       0.08333333 </v>
    <v>      -0.16666667       0.16666667       0.08333333 </v>
    <v>      -0.08333333       0.16666667       0.08333333 </v>
    <v>       0.16666667       0.25000000       0.08333333 </v>
    <v>       0.25000000       0.25000000       0.08333333 </v>
    <v>       0.33333333       0.25000000       0.08333333 </v>
    <v>       0.41666667       0.25000000       0.08333333 </v>
    <v>       0.50000000       0.25000000       0.08333333 </v>
    <v>      -0.41666667       0.25000000       0.08333333 </v>
    <v>      -0.33333333       0.25000000       0.08333333 </v>
    <v>      -0.25000000       0.25000000       0.08333333 </v>
    <v>      -0.16666667       0.25000000       0.08333333 </v>
    <v>       0.16666667       0.33333333       0.08333333 </v>
    <v>       0.25000000       0.33333333       0.08333333 </v>
    <v>       0.33333333       0.33333333       0.08333333 </v>
    <v>       0.41666667       0.33333333       0.08333333 </v>
    <v>       0.50000000       0.33333333       0.08333333 </v>
    <v>      -0.41666667       0.33333333       0.08333333 </v>
    <v>      -0.33333333       0.33333333       0.08333333 </v>
    <v>      -0.25000000       0.33333333       0.08333333 </v>
    <v>       0.16666667       0.41666667       0.08333333 </v>
    <v>       0.25000000       0.41666667       0.08333333 </v>
    <v>       0.33333333       0.41666667       0.08333333 </v>
    <v>       0.41666667       0.41666667       0.08333333 </v>
    <v>       0.50000000       0.41666667       0.08333333 </v>
    <v>      -0.41666667       0.41666667       0.08333333 </v>
    <v>      -0.33333333       0.41666667       0.08333333 </v>
    <v>       0.16666667       0.50000000       0.08333333 </v>
    <v>       0.25000000       0.50000000       0.08333333 </v>
    <v>       0.33333333       0.50000000       0.08333333 </v>
    <v>       0.41666667       0.50000000       0.08333333 </v>
    <v>       0.50000000       0.50000000       0.08333333 </v>
    <v>      -0.41666667       0.50000000       0.08333333 </v>
    <v>       0.16666667      -0.41666667       0.08333333 </v>
    <v>       0.25000000      -0.41666667       0.08333333 </v>
    <v>       0.33333333      -0.41666667       0.08333333 </v>
    <v>       0.41666667      -0.41666667       0.08333333 </v>
    <v>       0.50000000      -0.41666667       0.08333333 </v>
    <v>       0.16666667      -0.33333333       0.08333333 </v>
    <v>       0.25000000      -0.33333333       0.08333333 </v>
    <v>       0.33333333      -0.33333333       0.08333333 </v>
    <v>       0.41666667      -0.33333333       0.08333333 </v>
    <v>       0.16666667      -0.25000000       0.08333333 </v>
    <v>       0.25000000      -0.25000000       0.08333333 </v>
    <v>       0.33333333      -0.25000000       0.08333333 </v>
    <v>       0.16666667      -0.16666667       0.08333333 </v>
    <v>       0.25000000      -0.16666667       0.08333333 </v>
    <v>       0.16666667      -0.08333333       0.08333333 </v>
    <v>       0.00000000       0.00000000       0.16666667 </v>
    <v>       0.08333333       0.00000000       0.16666667 </v>
    <v>       0.16666667      -0.00000000       0.16666667 </v>
    <v>       0.25000000       0.00000000       0.16666667 </v>
    <v>       0.33333333       0.00000000       0.16666667 </v>
    <v>       0.41666667       0.00000000       0.16666667 </v>
    <v>       0.50000000      -0.00000000       0.16666667 </v>
    <v>      -0.41666667      -0.00000000       0.16666667 </v>
    <v>      -0.33333333      -0.00000000       0.16666667 </v>
    <v>      -0.25000000      -0.00000000       0.16666667 </v>
    <v>      -0.16666667      -0.00000000       0.16666667 </v>
    <v>      -0.08333333       0.00000000       0.16666667 </v>
    <v>      -0.00000000       0.08333333       0.16666667 </v>
    <v>       0.08333333       0.08333333       0.16666667 </v>
    <v>       0.25000000       0.08333333       0.16666667 </v>
    <v>       0.33333333       0.08333333       0.16666667 </v>
    <v>       0.41666667       0.08333333       0.16666667 </v>
    <v>       0.50000000       0.08333333       0.16666667 </v>
    <v>      -0.41666667       0.08333333       0.16666667 </v>
    <v>      -0.33333333       0.08333333       0.16666667 </v>
    <v>      -0.25000000       0.08333333       0.16666667 </v>
    <v>      -0.16666667       0.08333333       0.16666667 </v>
    <v>      -0.08333333       0.08333333       0.16666667 </v>
    <v>       0.00000000       0.16666667       0.16666667 </v>
    <v>       0.25000000       0.16666667       0.16666667 </v>
    <v>       0.33333333       0.16666667       0.16666667 </v>
    <v>       0.41666667       0.16666667       0.16666667 </v>
    <v>       0.50000000       0.16666667       0.16666667 </v>
    <v>      -0.41666667       0.16666667       0.16666667 </v>
    <v>      -0.33333333       0.16666667       0.16666667 </v>
    <v>      -0.25000000       0.16666667       0.16666667 </v>
    <v>      -0.16666667       0.16666667       0.16666667 </v>
    <v>      -0.08333333       0.16666667       0.16666667 </v>
    <v>       0.25000000       0.25000000       0.16666667 </v>
    <v>       0.33333333       0.25000000       0.16666667 </v>
    <v>       0.41666667       0.25000000       0.16666667 </v>
    <v>       0.50000000       0.25000000       0.16666667 </v>
    <v>      -0.41666667       0.25000000       0.16666667 </v>
    <v>      -0.33333333       0.25000000       0.16666667 </v>
    <v>      -0.25000000       0.25000000       0.16666667 </v>
    <v>      -0.16666667       0.25000000       0.16666667 </v>
    <v>      -0.08333333       0.25000000       0.16666667 </v>
    <v>       0.25000000       0.33333333       0.16666667 </v>
    <v>       0.33333333       0.33333333       0.16666667 </v>
    <v>       0.41666667       0.33333333       0.16666667 </v>
    <v>       0.50000000       0.33333333       0.16666667 </v>
    <v>      -0.41666667       0.33333333       0.16666667 </v>
    <v>      -0.33333333       0.33333333       0.16666667 </v>
    <v>      -0.25000000       0.33333333       0.16666667 </v>
    <v>      -0.16666667       0.33333333       0.16666667 </v>
    <v>       0.25000000       0.41666667       0.16666667 </v>
    <v>       0.33333333       0.41666667       0.16666667 </v>
    <v>       0.41666667       0.41666667       0.16666667 </v>
    <v>       0.50000000       0.41666667       0.16666667 </v>
    <v>      -0.41666667       0.41666667       0.16666667 </v>
    <v>      -0.33333333       0.41666667       0.16666667 </v>
    <v>      -0.25000000       0.41666667       0.16666667 </v>
    <v>       0.25000000       0.50000000       0.16666667 </v>
    <v>       0.33333333       0.50000000       0.16666667 </v>
    <v>       0.41666667       0.50000000       0.16666667 </v>
    <v>       0.50000000       0.50000000       0.16666667 </v>
    <v>      -0.41666667       0.50000000       0.16666667 </v>
    <v>      -0.33333333       0.50000000       0.16666667 </v>
    <v>       0.25000000      -0.41666667       0.16666667 </v>
    <v>       0.33333333      -0.41666667       0.16666667 </v>
    <v>       0.41666667      -0.41666667       0.16666667 </v>
    <v>       0.50000000      -0.41666667       0.16666667 </v>
    <v>      -0.41666667      -0.41666667       0.16666667 </v>
    <v>       0.25000000      -0.33333333       0.16666667 </v>
    <v>       0.33333333      -0.33333333       0.16666667 </v>
    <v>       0.41666667      -0.33333333       0.16666667 </v>
    <v>       0.50000000      -0.33333333       0.16666667 </v>
    <v>       0.25000000      -0.25000000       0.16666667 </v>
    <v>       0.33333333      -0.25000000       0.16666667 </v>
    <v>       0.41666667      -0.25000000       0.16666667 </v>
    <v>       0.25000000      -0.16666667       0.16666667 </v>
    <v>       0.33333333      -0.16666667       0.16666667 </v>
    <v>       0.25000000      -0.08333333       0.16666667 </v>
    <v>       0.00000000       0.00000000       0.25000000 </v>
    <v>       0.08333333       0.00000000       0.25000000 </v>
    <v>       0.16666667      -0.00000000       0.25000000 </v>
    <v>       0.25000000       0.00000000       0.25000000 </v>
    <v>       0.33333333       0.00000000       0.25000000 </v>
    <v>       0.41666667      -0.00000000       0.25000000 </v>
    <v>       0.50000000       0.00000000       0.25000000 </v>
    <v>      -0.41666667       0.00000000       0.25000000 </v>
    <v>      -0.33333333      -0.00000000       0.25000000 </v>
    <v>      -0.25000000       0.00000000       0.25000000 </v>
    <v>      -0.16666667      -0.00000000       0.25000000 </v>
    <v>      -0.08333333       0.00000000       0.25000000 </v>
    <v>      -0.00000000       0.08333333       0.25000000 </v>
    <v>       0.08333333       0.08333333       0.25000000 </v>
    <v>       0.16666667       0.08333333       0.25000000 </v>
    <v>       0.33333333       0.08333333       0.25000000 </v>
    <v>       0.41666667       0.08333333       0.25000000 </v>
    <v>       0.50000000       0.08333333       0.25000000 </v>
    <v>      -0.41666667       0.08333333       0.25000000 </v>
    <v>      -0.33333333       0.08333333       0.25000000 </v>
    <v>      -0.25000000       0.08333333       0.25000000 </v>
    <v>      -0.16666667       0.08333333       0.25000000 </v>
    <v>      -0.08333333       0.08333333       0.25000000 </v>
    <v>       0.00000000       0.16666667       0.25000000 </v>
[...]
       <r>    8.1198    0.0000 </r>
       <r>    8.3621    0.0000 </r>
       <r>    9.2998    0.0000 </r>
       <r>   11.7904    0.0000 </r>
       <r>   12.2258    0.0000 </r>
      </set>
      <set comment="kpoint 158">
       <r>  -37.4215    1.0000 </r>
       <r>  -18.4942    1.0000 </r>
       <r>  -18.4532    1.0000 </r>
       <r>  -18.4504    1.0000 </r>
       <r>   -8.8268    1.0000 </r>
       <r>   -0.1066    1.0000 </r>
       <r>    1.2654    1.0000 </r>
       <r>    1.2870    1.0000 </r>
       <r>    4.8659    0.0000 </r>
       <r>    7.3945    0.0000 </r>
       <r>    7.9005    0.0000 </r>
       <r>    8.1875    0.0000 </r>
       <r>    8.3247    0.0000 </r>
       <r>    8.5014    0.0000 </r>
       <r>   11.8734    0.0000 </r>
       <r>   12.6654    0.0000 </r>
      </set>
      <set comment="kpoint 159">
       <r>  -37.4216    1.0000 </r>
       <r>  -18.4953    1.0000 </r>
       <r>  -18.4502    1.0000 </r>
       <r>  -18.4502    1.0000 </r>
       <r>   -8.8504    1.0000 </r>
       <r>   -0.1372    1.0000 </r>
       <r>    1.4704    1.0000 </r>
       <r>    1.4704    1.0000 </r>
       <r>    4.4946    0.0000 </r>
       <r>    7.3218    0.0000 </r>
       <r>    7.4093    0.0000 </r>
       <r>    8.3307    0.0000 </r>
       <r>    8.3307    0.0000 </r>
       <r>    8.5151    0.0000 </r>
       <r>   12.2703    0.0000 </r>
       <r>   13.0384    0.0000 </r>
      </set>
      <set comment="kpoint 160">
       <r>  -37.4212    1.0000 </r>
       <r>  -18.4967    1.0000 </r>
       <r>  -18.4550    1.0000 </r>
       <r>  -18.4507    1.0000 </r>
       <r>   -8.8247    1.0000 </r>
       <r>   -0.1073    1.0000 </r>
       <r>    1.2562    1.0000 </r>
       <r>    1.4184    1.0000 </r>
       <r>    4.6221    0.0000 </r>
       <r>    7.4713    0.0000 </r>
       <r>    7.5712    0.0000 </r>
       <r>    8.2960    0.0000 </r>
       <r>    8.3201    0.0000 </r>
       <r>    8.3660    0.0000 </r>
       <r>   12.2048    0.0000 </r>
       <r>   12.8849    0.0000 </r>
      </set>
      <set comment="kpoint 161">
       <r>  -37.4211    1.0000 </r>
       <r>  -18.4927    1.0000 </r>
       <r>  -18.4649    1.0000 </r>
       <r>  -18.4482    1.0000 </r>
       <r>   -8.7919    1.0000 </r>
       <r>   -0.0113    1.0000 </r>
       <r>    0.8079    1.0000 </r>
       <r>    1.3437    1.0000 </r>
       <r>    5.0563    0.0000 </r>
       <r>    7.7930    0.0000 </r>
       <r>    7.9633    0.0000 </r>
       <r>    8.2177    0.0000 </r>
       <r>    8.2257    0.0000 </r>
       <r>    8.3411    0.0000 </r>
       <r>   11.9352    0.0000 </r>
       <r>   12.4294    0.0000 </r>
      </set>
      <set comment="kpoint 162">
       <r>  -37.4210    1.0000 </r>
       <r>  -18.4958    1.0000 </r>
       <r>  -18.4554    1.0000 </r>
       <r>  -18.4538    1.0000 </r>
       <r>   -8.8106    1.0000 </r>
       <r>   -0.0696    1.0000 </r>
       <r>    1.2264    1.0000 </r>
       <r>    1.2322    1.0000 </r>
       <r>    4.7903    0.0000 </r>
       <r>    7.4081    0.0000 </r>
       <r>    7.8743    0.0000 </r>
       <r>    8.2123    0.0000 </r>
       <r>    8.3090    0.0000 </r>
       <r>    8.3593    0.0000 </r>
       <r>   12.1451    0.0000 </r>
       <r>   12.7652    0.0000 </r>
      </set>
      <set comment="kpoint 163">
       <r>  -37.4210    1.0000 </r>
       <r>  -18.4989    1.0000 </r>
       <r>  -18.4523    1.0000 </r>
       <r>  -18.4523    1.0000 </r>
       <r>   -8.8316    1.0000 </r>
       <r>   -0.1286    1.0000 </r>
       <r>    1.4370    1.0000 </r>
       <r>    1.4370    1.0000 </r>
       <r>    4.4123    0.0000 </r>
       <r>    7.3527    0.0000 </r>
       <r>    7.3787    0.0000 </r>
       <r>    8.3326    0.0000 </r>
       <r>    8.3580    0.0000 </r>
       <r>    8.3580    0.0000 </r>
       <r>   12.4014    0.0000 </r>
       <r>   13.0654    0.0000 </r>
      </set>
     </set>
    </set>
   </array>
  </eigenvalues>
  <separator name="orbital magnetization" >
   <v name="MAGDIPOLOUT">      0.00000000      0.00000000      0.00000000</v>
  </separator>
  <dos>
   <i name="efermi">      2.52091460 </i>
   <total>
    <array>
     <dimension dim="1">gridpoints</dimension>
     <dimension dim="2">spin</dimension>
     <field>energy</field>
     <field>total</field>
     <field>integrated</field>
     <set>
      <set comment="spin 1">
       <r>   -40.0299     0.0000     0.0000 </r>
       <r>   -39.8392     0.0000     0.0000 </r>
       <r>   -39.6485     0.0000     0.0000 </r>
       <r>   -39.4578     0.0000     0.0000 </r>
       <r>   -39.2671     0.0000     0.0000 </r>
       <r>   -39.0764     0.0000     0.0000 </r>
       <r>   -38.8857     0.0000     0.0000 </r>
       <r>   -38.6950     0.0000     0.0000 </r>
       <r>   -38.5042     0.0000     0.0000 </r>
       <r>   -38.3135     0.0000     0.0000 </r>
       <r>   -38.1228     0.0000     0.0000 </r>
       <r>   -37.9321     0.0000     0.0000 </r>
       <r>   -37.7414     0.0000     0.0000 </r>
       <r>   -37.5507     0.0000     0.0000 </r>
       <r>   -37.3600    10.4875     2.0000 </r>
       <r>   -37.1693     0.0000     2.0000 </r>
       <r>   -36.9786     0.0000     2.0000 </r>
       <r>   -36.7879     0.0000     2.0000 </r>
       <r>   -36.5972     0.0000     2.0000 </r>
       <r>   -36.4065     0.0000     2.0000 </r>
       <r>   -36.2158     0.0000     2.0000 </r>
       <r>   -36.0251     0.0000     2.0000 </r>
       <r>   -35.8344     0.0000     2.0000 </r>
       <r>   -35.6437     0.0000     2.0000 </r>
       <r>   -35.4530     0.0000     2.0000 </r>
       <r>   -35.2623     0.0000     2.0000 </r>
       <r>   -35.0716     0.0000     2.0000 </r>
       <r>   -34.8809     0.0000     2.0000 </r>
       <r>   -34.6902     0.0000     2.0000 </r>
       <r>   -34.4995     0.0000     2.0000 </r>
       <r>   -34.3088     0.0000     2.0000 </r>
       <r>   -34.1181     0.0000     2.0000 </r>
       <r>   -33.9274     0.0000     2.0000 </r>
       <r>   -33.7367     0.0000     2.0000 </r>
       <r>   -33.5459     0.0000     2.0000 </r>
       <r>   -33.3552     0.0000     2.0000 </r>
       <r>   -33.1645     0.0000     2.0000 </r>
       <r>   -32.9738     0.0000     2.0000 </r>
       <r>   -32.7831     0.0000     2.0000 </r>
       <r>   -32.5924     0.0000     2.0000 </r>
       <r>   -32.4017     0.0000     2.0000 </r>
       <r>   -32.2110     0.0000     2.0000 </r>
       <r>   -32.0203     0.0000     2.0000 </r>
       <r>   -31.8296     0.0000     2.0000 </r>
       <r>   -31.6389     0.0000     2.0000 </r>
       <r>   -31.4482     0.0000     2.0000 </r>
       <r>   -31.2575     0.0000     2.0000 </r>
       <r>   -31.0668     0.0000     2.0000 </r>
       <r>   -30.8761     0.0000     2.0000 </r>
       <r>   -30.6854     0.0000     2.0000 </r>
       <r>   -30.4947     0.0000     2.0000 </r>
       <r>   -30.3040     0.0000     2.0000 </r>
       <r>   -30.1133     0.0000     2.0000 </r>
       <r>   -29.9226     0.0000     2.0000 </r>
       <r>   -29.7319     0.0000     2.0000 </r>
       <r>   -29.5412     0.0000     2.0000 </r>
       <r>   -29.3505     0.0000     2.0000 </r>
       <r>   -29.1598     0.0000     2.0000 </r>
       <r>   -28.9691     0.0000     2.0000 </r>
       <r>   -28.7784     0.0000     2.0000 </r>
       <r>   -28.5876     0.0000     2.0000 </r>
       <r>   -28.3969     0.0000     2.0000 </r>
       <r>   -28.2062     0.0000     2.0000 </r>
       <r>   -28.0155     0.0000     2.0000 </r>
       <r>   -27.8248     0.0000     2.0000 </r>
       <r>   -27.6341     0.0000     2.0000 </r>
       <r>   -27.4434     0.0000     2.0000 </r>
       <r>   -27.2527     0.0000     2.0000 </r>
       <r>   -27.0620     0.0000     2.0000 </r>
       <r>   -26.8713     0.0000     2.0000 </r>
       <r>   -26.6806     0.0000     2.0000 </r>
       <r>   -26.4899     0.0000     2.0000 </r>
       <r>   -26.2992     0.0000     2.0000 </r>
       <r>   -26.1085     0.0000     2.0000 </r>
       <r>   -25.9178     0.0000     2.0000 </r>
       <r>   -25.7271     0.0000     2.0000 </r>
       <r>   -25.5364     0.0000     2.0000 </r>
       <r>   -25.3457     0.0000     2.0000 </r>
       <r>   -25.1550     0.0000     2.0000 </r>
       <r>   -24.9643     0.0000     2.0000 </r>
       <r>   -24.7736     0.0000     2.0000 </r>
       <r>   -24.5829     0.0000     2.0000 </r>
       <r>   -24.3922     0.0000     2.0000 </r>
       <r>   -24.2015     0.0000     2.0000 </r>
       <r>   -24.0108     0.0000     2.0000 </r>
       <r>   -23.8201     0.0000     2.0000 </r>
       <r>   -23.6293     0.0000     2.0000 </r>
       <r>   -23.4386     0.0000     2.0000 </r>
       <r>   -23.2479     0.0000     2.0000 </r>
       <r>   -23.0572     0.0000     2.0000 </r>
       <r>   -22.8665     0.0000     2.0000 </r>
       <r>   -22.6758     0.0000     2.0000 </r>
       <r>   -22.4851     0.0000     2.0000 </r>
       <r>   -22.2944     0.0000     2.0000 </r>
       <r>   -22.1037     0.0000     2.0000 </r>
       <r>   -21.9130     0.0000     2.0000 </r>
       <r>   -21.7223     0.0000     2.0000 </r>
       <r>   -21.5316     0.0000     2.0000 </r>
       <r>   -21.3409     0.0000     2.0000 </r>
       <r>   -21.1502     0.0000     2.0000 </r>
       <r>   -20.9595     0.0000     2.0000 </r>
       <r>   -20.7688     0.0000     2.0000 </r>
       <r>   -20.5781     0.0000     2.0000 </r>
       <r>   -20.3874     0.0000     2.0000 </r>
       <r>   -20.1967     0.0000     2.0000 </r>
       <r>   -20.0060     0.0000     2.0000 </r>
       <r>   -19.8153     0.0000     2.0000 </r>
       <r>   -19.6246     0.0000     2.0000 </r>
       <r>   -19.4339     0.0000     2.0000 </r>
       <r>   -19.2432     0.0000     2.0000 </r>
       <r>   -19.0525     0.0000     2.0000 </r>
       <r>   -18.8618     0.0000     2.0000 </r>
       <r>   -18.6710     0.0000     2.0000 </r>
       <r>   -18.4803     8.6425     3.6482 </r>
       <r>   -18.2896     0.0000     8.0000 </r>
       <r>   -18.0989     0.0000     8.0000 </r>
       <r>   -17.9082     0.0000     8.0000 </r>
       <r>   -17.7175     0.0000     8.0000 </r>
       <r>   -17.5268     0.0000     8.0000 </r>
       <r>   -17.3361     0.0000     8.0000 </r>
       <r>   -17.1454     0.0000     8.0000 </r>
       <r>   -16.9547     0.0000     8.0000 </r>
       <r>   -16.7640     0.0000     8.0000 </r>
       <r>   -16.5733     0.0000     8.0000 </r>
       <r>   -16.3826     0.0000     8.0000 </r>
       <r>   -16.1919     0.0000     8.0000 </r>
       <r>   -16.0012     0.0000     8.0000 </r>
       <r>   -15.8105     0.0000     8.0000 </r>
       <r>   -15.6198     0.0000     8.0000 </r>
       <r>   -15.4291     0.0000     8.0000 </r>
       <r>   -15.2384     0.0000     8.0000 </r>
       <r>   -15.0477     0.0000     8.0000 </r>
       <r>   -14.8570     0.0000     8.0000 </r>
       <r>   -14.6663     0.0000     8.0000 </r>
       <r>   -14.4756     0.0000     8.0000 </r>
       <r>   -14.2849     0.0000     8.0000 </r>
       <r>   -14.0942     0.0000     8.0000 </r>
       <r>   -13.9035     0.0000     8.0000 </r>
       <r>   -13.7127     0.0000     8.0000 </r>
       <r>   -13.5220     0.0000     8.0000 </r>
       <r>   -13.3313     0.0000     8.0000 </r>
       <r>   -13.1406     0.0000     8.0000 </r>
       <r>   -12.9499     0.0000     8.0000 </r>
       <r>   -12.7592     0.0000     8.0000 </r>
       <r>   -12.5685     0.0000     8.0000 </r>
       <r>   -12.3778     0.0000     8.0000 </r>
       <r>   -12.1871     0.0000     8.0000 </r>
       <r>   -11.9964     0.0000     8.0000 </r>
       <r>   -11.8057     0.0000     8.0000 </r>
       <r>   -11.6150     0.0000     8.0000 </r>
       <r>   -11.4243     0.0000     8.0000 </r>
       <r>   -11.2336     0.0000     8.0000 </r>
       <r>   -11.0429     0.0000     8.0000 </r>
       <r>   -10.8522     0.0000     8.0000 </r>
       <r>   -10.6615     0.0000     8.0000 </r>
       <r>   -10.4708     0.0000     8.0000 </r>
       <r>   -10.2801     0.0000     8.0000 </r>
       <r>   -10.0894     0.0000     8.0000 </r>
       <r>    -9.8987     0.0000     8.0000 </r>
       <r>    -9.7080     0.0000     8.0000 </r>
       <r>    -9.5173     0.0000     8.0000 </r>
       <r>    -9.3266     0.0907     8.0173 </r>
       <r>    -9.1359     0.3279     8.1308 </r>
       <r>    -8.9452     0.9765     8.4027 </r>
       <r>    -8.7544     4.0174     9.5057 </r>
       <r>    -8.5637     0.0000    10.0000 </r>
       <r>    -8.3730     0.0000    10.0000 </r>
       <r>    -8.1823     0.0000    10.0000 </r>
       <r>    -7.9916     0.0000    10.0000 </r>
       <r>    -7.8009     0.0000    10.0000 </r>
       <r>    -7.6102     0.0000    10.0000 </r>
       <r>    -7.4195     0.0000    10.0000 </r>
       <r>    -7.2288     0.0000    10.0000 </r>
       <r>    -7.0381     0.0000    10.0000 </r>
       <r>    -6.8474     0.0000    10.0000 </r>
       <r>    -6.6567     0.0000    10.0000 </r>
       <r>    -6.4660     0.0000    10.0000 </r>
       <r>    -6.2753     0.0000    10.0000 </r>
       <r>    -6.0846     0.0000    10.0000 </r>
       <r>    -5.8939     0.0000    10.0000 </r>
       <r>    -5.7032     0.0000    10.0000 </r>
       <r>    -5.5125     0.0000    10.0000 </r>
       <r>    -5.3218     0.0000    10.0000 </r>
       <r>    -5.1311     0.0000    10.0000 </r>
       <r>    -4.9404     0.0000    10.0000 </r>
       <r>    -4.7497     0.0000    10.0000 </r>
       <r>    -4.5590     0.0000    10.0000 </r>
       <r>    -4.3683     0.0000    10.0000 </r>
       <r>    -4.1776     0.0000    10.0000 </r>
       <r>    -3.9869     0.0000    10.0000 </r>
       <r>    -3.7962     0.0000    10.0000 </r>
       <r>    -3.6054     0.0000    10.0000 </r>
       <r>    -3.4147     0.0000    10.0000 </r>
       <r>    -3.2240     0.0000    10.0000 </r>
       <r>    -3.0333     0.0000    10.0000 </r>
       <r>    -2.8426     0.0000    10.0000 </r>
       <r>    -2.6519     0.0000    10.0000 </r>
       <r>    -2.4612     0.0000    10.0000 </r>
       <r>    -2.2705     0.0000    10.0000 </r>
       <r>    -2.0798     0.0000    10.0000 </r>
       <r>    -1.8891     0.0000    10.0000 </r>
       <r>    -1.6984     0.0000    10.0000 </r>
       <r>    -1.5077     0.0000    10.0000 </r>
       <r>    -1.3170     0.0000    10.0000 </r>
       <r>    -1.1263     0.0000    10.0000 </r>
       <r>    -0.9356     0.0000    10.0000 </r>
       <r>    -0.7449     0.2116    10.0450 </r>
       <r>    -0.5542     0.4322    10.1796 </r>
       <r>    -0.3635     0.8740    10.4028 </r>
       <r>    -0.1728     0.6819    10.7365 </r>
       <r>     0.0179     0.7839    11.4608 </r>
       <r>     0.2086     0.5826    11.7211 </r>
       <r>     0.3993     0.3511    11.8505 </r>
       <r>     0.5900     0.5998    12.1155 </r>
       <r>     0.7807     1.0835    12.4578 </r>
       <r>     0.9714     1.4801    12.9570 </r>
       <r>     1.1621     1.5830    13.4836 </r>
       <r>     1.3529     1.1943    14.7243 </r>
       <r>     1.5436     1.1805    15.3721 </r>
       <r>     1.7343     0.2431    15.6239 </r>
       <r>     1.9250     0.1457    15.8391 </r>
       <r>     2.1157     0.2252    15.9515 </r>
       <r>     2.3064     0.1699    15.9965 </r>
       <r>     2.4971     0.0000    16.0000 </r>
       <r>     2.6878     0.0000    16.0000 </r>
       <r>     2.8785     0.0000    16.0000 </r>
       <r>     3.0692     0.0000    16.0000 </r>
       <r>     3.2599     0.0000    16.0000 </r>
       <r>     3.4506     0.0000    16.0000 </r>
       <r>     3.6413     0.0000    16.0000 </r>
       <r>     3.8320     0.0000    16.0000 </r>
       <r>     4.0227     0.0000    16.0000 </r>
       <r>     4.2134     0.0000    16.0000 </r>
       <r>     4.4041     0.0023    16.0004 </r>
       <r>     4.5948     0.0000    16.0104 </r>
       <r>     4.7855     0.1807    16.0727 </r>
       <r>     4.9762     0.0000    16.1146 </r>
       <r>     5.1669     0.1821    16.2187 </r>
       <r>     5.3576     0.1457    16.3021 </r>
       <r>     5.5483     0.0361    16.4201 </r>
       <r>     5.7390     0.0957    16.5507 </r>
       <r>     5.9297     0.7522    16.8008 </r>
       <r>     6.1204     0.2587    17.0169 </r>
       <r>     6.3112     0.5835    17.3185 </r>
       <r>     6.5019     0.8305    17.6595 </r>
       <r>     6.6926     0.4198    17.9701 </r>
       <r>     6.8833     1.3631    18.5343 </r>
       <r>     7.0740     0.1832    18.8115 </r>
       <r>     7.2647     2.2366    19.4485 </r>
       <r>     7.4554     1.7112    20.2083 </r>
       <r>     7.6461     1.7667    20.8126 </r>
       <r>     7.8368     2.3850    21.9976 </r>
       <r>     8.0275     1.7027    22.9786 </r>
       <r>     8.2182     3.4041    24.2082 </r>
       <r>     8.4089     2.4698    25.3773 </r>
       <r>     8.5996     2.1742    25.8822 </r>
       <r>     8.7903     0.6046    26.1593 </r>
       <r>     8.9810     0.2972    26.3553 </r>
       <r>     9.1717     0.5674    26.5179 </r>
       <r>     9.3624     0.3832    26.7606 </r>
       <r>     9.5531     0.2913    27.0741 </r>
       <r>     9.7438     0.2933    27.2967 </r>
       <r>     9.9345     0.7108    27.7328 </r>
       <r>    10.1252     0.8770    27.9311 </r>
       <r>    10.3159     0.1853    27.9937 </r>
       <r>    10.5066     0.1473    28.1693 </r>
       <r>    10.6973     0.1613    28.3109 </r>
       <r>    10.8880     0.6359    28.6791 </r>
       <r>    11.0787     0.4800    29.0638 </r>
       <r>    11.2695     0.2736    29.2813 </r>
       <r>    11.4602     0.7595    29.5893 </r>
       <r>    11.6509     0.7222    29.9988 </r>
       <r>    11.8416     1.2507    30.5418 </r>
       <r>    12.0323     1.2258    31.0115 </r>
       <r>    12.2230     0.7494    31.2922 </r>
       <r>    12.4137     0.5332    31.5658 </r>
       <r>    12.6044     0.4732    31.7384 </r>
       <r>    12.7951     0.4422    31.8505 </r>
       <r>    12.9858     0.0728    31.9213 </r>
       <r>    13.1765     0.0000    31.9317 </r>
       <r>    13.3672     0.0000    31.9317 </r>
       <r>    13.5579     0.2185    31.9734 </r>
       <r>    13.7486     0.0474    31.9824 </r>
       <r>    13.9393     0.0000    31.9826 </r>
       <r>    14.1300     0.0213    31.9867 </r>
       <r>    14.3207     0.0486    31.9988 </r>
       <r>    14.5114     0.0000    31.9988 </r>
       <r>    14.7021     0.0000    32.0000 </r>
       <r>    14.8928     0.0000    32.0000 </r>
       <r>    15.0835     0.0000    32.0000 </r>
       <r>    15.2742     0.0000    32.0000 </r>
       <r>    15.4649     0.0000    32.0000 </r>
       <r>    15.6556     0.0000    32.0000 </r>
       <r>    15.8463     0.0000    32.0000 </r>
       <r>    16.0370     0.0000    32.0000 </r>
       <r>    16.2278     0.0000    32.0000 </r>
       <r>    16.4185     0.0000    32.0000 </r>
       <r>    16.6092     0.0000    32.0000 </r>
       <r>    16.7999     0.0000    32.0000 </r>
       <r>    16.9906     0.0000    32.0000 </r>
       <r>    17.1813     0.0000    32.0000 </r>
      </set>
     </set>
    </array>
   </total>
  </dos>
 </calculation>
 <structure name="finalpos" >
  <crystal>
   <varray name="basis" >
    <v>      -2.97023788       0.00000000       2.97023788 </v>
    <v>       0.00000000       2.97023788       2.97023788 </v>
    <v>      -2.97023788       2.97023788       0.00000000 </v>
   </varray>
   <i name="volume">     52.40873675 </i>
   <varray name="rec_basis" >
    <v>      -0.16833669      -0.16833669       0.16833669 </v>
    <v>       0.16833669       0.16833669       0.16833669 </v>
    <v>      -0.16833669       0.16833669      -0.16833669 </v>
   </varray>
  </crystal>
  <varray name="positions" >
   <v>       0.00000000       0.00000000       0.00000000 </v>
   <v>       0.49999996       0.50000004       0.49999996 </v>
  </varray>
 </structure>
</modeling>
