
     Program PWSCF v.7.1 starts on  8Apr2024 at 15:13:47 

     This program is part of the open-source Quantum ESPRESSO suite
     for quantum simulation of materials; please cite
         "P. Giannozzi et al., J. Phys.:Condens. Matter 21 395502 (2009);
         "P. Giannozzi et al., J. Phys.:Condens. Matter 29 465901 (2017);
         "P. Giannozzi et al., J. Chem. Phys. 152 154105 (2020);
          URL http://www.quantum-espresso.org", 
     in publications or presentations arising from this work. More details at
     http://www.quantum-espresso.org/quote

     Parallel version (MPI), running on    16 processors

     MPI processes distributed on     1 nodes
     222308 MiB available memory on the printing compute node when the environment starts
 
     Reading input from pw_mp-23037_scf_k3000_E65.in
Warning: card &CELL ignored
Warning: card / ignored

     Current dimensions of program PWSCF are:
     Max number of different atomic species (ntypx) = 10
     Max number of k-points (npk) =  40000
     Max angular momentum in pseudopotentials (lmaxx) =  4
 
     R & G space division:  proc/nbgrp/npool/nimage =      16
     Subspace diagonalization in iterative solution of the eigenvalue problem:
     a serial algorithm will be used

 
     Parallelization info
     --------------------
     sticks:   dense  smooth     PW     G-vecs:    dense   smooth      PW
     Min         149     149     42                 5477     5477     824
     Max         150     150     43                 5480     5480     827
     Sum        2385    2385    673                87655    87655   13205
 
     Using Slab Decomposition
 


     bravais-lattice index     =            1
     lattice parameter (alat)  =      10.7334  a.u.
     unit-cell volume          =    1236.5336 (a.u.)^3
     number of atoms/cell      =            5
     number of atomic types    =            3
     number of electrons       =        44.00
     number of Kohn-Sham states=           44
     kinetic-energy cutoff     =      65.0000  Ry
     charge density cutoff     =     260.0000  Ry
     scf convergence threshold =      1.0E-10
     mixing beta               =       0.7000
     number of iterations used =            8  plain     mixing
     Exchange-correlation= PBE
                           (   1   4   3   4   0   0   0)

     celldm(1)=  10.733350  celldm(2)=   0.000000  celldm(3)=   0.000000
     celldm(4)=   0.000000  celldm(5)=   0.000000  celldm(6)=   0.000000

     crystal axes: (cart. coord. in units of alat)
               a(1) = (   1.000000   0.000000   0.000000 )  
               a(2) = (   0.000000   1.000000   0.000000 )  
               a(3) = (   0.000000   0.000000   1.000000 )  

     reciprocal axes: (cart. coord. in units 2 pi/alat)
               b(1) = (  1.000000  0.000000  0.000000 )  
               b(2) = (  0.000000  1.000000  0.000000 )  
               b(3) = (  0.000000  0.000000  1.000000 )  


     PseudoPot. # 1 for Cl read from file:
     /usr/scratch4/magr4826/Promotion/Python/Code/devEb/pseudo/SG15/Cl.upf
     MD5 check sum: 0f993535b366f580ecbcdacce103c843
     Pseudo is Norm-conserving, Zval =  7.0
     Generated using ONCVPSP code by D. R. Hamann
     Using radial grid of  602 points,  4 beta functions with: 
                l(1) =   0
                l(2) =   0
                l(3) =   1
                l(4) =   1

     PseudoPot. # 2 for Cs read from file:
     /usr/scratch4/magr4826/Promotion/Python/Code/devEb/pseudo/SG15/Cs.upf
     MD5 check sum: 74aa1fd125ef9ec93322f365f25225f6
     Pseudo is Norm-conserving, Zval =  9.0
     Generated using ONCVPSP code by D. R. Hamann
     Using radial grid of  602 points,  6 beta functions with: 
                l(1) =   0
                l(2) =   0
                l(3) =   1
                l(4) =   1
                l(5) =   2
                l(6) =   2

     PseudoPot. # 3 for Pb read from file:
     /usr/scratch4/magr4826/Promotion/Python/Code/devEb/pseudo/SG15/Pb.upf
     MD5 check sum: 7f27c247474026287e0dbe0f3167d60b
     Pseudo is Norm-conserving, Zval = 14.0
     Generated using ONCVPSP code by D. R. Hamann
     Using radial grid of  602 points,  8 beta functions with: 
                l(1) =   0
                l(2) =   0
                l(3) =   1
                l(4) =   1
                l(5) =   2
                l(6) =   2
                l(7) =   3
                l(8) =   3

     atomic species   valence    mass     pseudopotential
        Cl             7.00    35.45300     Cl( 1.00)
        Cs             9.00   132.90550     Cs( 1.00)
        Pb            14.00   207.20000     Pb( 1.00)

     48 Sym. Ops., with inversion, found



   Cartesian axes

     site n.     atom                  positions (alat units)
         1           Cs  tau(   1) = (   0.0000000   0.0000000   0.0000000  )
         2           Pb  tau(   2) = (   0.5000000   0.5000000   0.5000000  )
         3           Cl  tau(   3) = (   0.0000000   0.5000000   0.5000000  )
         4           Cl  tau(   4) = (   0.5000000   0.0000000   0.5000000  )
         5           Cl  tau(   5) = (   0.5000000   0.5000000   0.0000000  )

     number of k points=    35  Gaussian smearing, width (Ry)=  0.0005
                       cart. coord. in units 2pi/alat
        k(    1) = (   0.0000000   0.0000000   0.0000000), wk =   0.0039062
        k(    2) = (   0.0000000   0.0000000   0.1250000), wk =   0.0234375
        k(    3) = (   0.0000000   0.0000000   0.2500000), wk =   0.0234375
        k(    4) = (   0.0000000   0.0000000   0.3750000), wk =   0.0234375
        k(    5) = (   0.0000000   0.0000000  -0.5000000), wk =   0.0117188
        k(    6) = (   0.0000000   0.1250000   0.1250000), wk =   0.0468750
        k(    7) = (   0.0000000   0.1250000   0.2500000), wk =   0.0937500
        k(    8) = (   0.0000000   0.1250000   0.3750000), wk =   0.0937500
        k(    9) = (   0.0000000   0.1250000  -0.5000000), wk =   0.0468750
        k(   10) = (   0.0000000   0.2500000   0.2500000), wk =   0.0468750
        k(   11) = (   0.0000000   0.2500000   0.3750000), wk =   0.0937500
        k(   12) = (   0.0000000   0.2500000  -0.5000000), wk =   0.0468750
        k(   13) = (   0.0000000   0.3750000   0.3750000), wk =   0.0468750
        k(   14) = (   0.0000000   0.3750000  -0.5000000), wk =   0.0468750
        k(   15) = (   0.0000000  -0.5000000  -0.5000000), wk =   0.0117188
        k(   16) = (   0.1250000   0.1250000   0.1250000), wk =   0.0312500
        k(   17) = (   0.1250000   0.1250000   0.2500000), wk =   0.0937500
        k(   18) = (   0.1250000   0.1250000   0.3750000), wk =   0.0937500
        k(   19) = (   0.1250000   0.1250000  -0.5000000), wk =   0.0468750
        k(   20) = (   0.1250000   0.2500000   0.2500000), wk =   0.0937500
        k(   21) = (   0.1250000   0.2500000   0.3750000), wk =   0.1875000
        k(   22) = (   0.1250000   0.2500000  -0.5000000), wk =   0.0937500
        k(   23) = (   0.1250000   0.3750000   0.3750000), wk =   0.0937500
        k(   24) = (   0.1250000   0.3750000  -0.5000000), wk =   0.0937500
        k(   25) = (   0.1250000  -0.5000000  -0.5000000), wk =   0.0234375
        k(   26) = (   0.2500000   0.2500000   0.2500000), wk =   0.0312500
        k(   27) = (   0.2500000   0.2500000   0.3750000), wk =   0.0937500
        k(   28) = (   0.2500000   0.2500000  -0.5000000), wk =   0.0468750
        k(   29) = (   0.2500000   0.3750000   0.3750000), wk =   0.0937500
        k(   30) = (   0.2500000   0.3750000  -0.5000000), wk =   0.0937500
        k(   31) = (   0.2500000  -0.5000000  -0.5000000), wk =   0.0234375
        k(   32) = (   0.3750000   0.3750000   0.3750000), wk =   0.0312500
        k(   33) = (   0.3750000   0.3750000  -0.5000000), wk =   0.0468750
        k(   34) = (   0.3750000  -0.5000000  -0.5000000), wk =   0.0234375
        k(   35) = (  -0.5000000  -0.5000000  -0.5000000), wk =   0.0039062

     Dense  grid:    87655 G-vectors     FFT dimensions: (  60,  60,  60)

     Estimated max dynamical RAM per process >      31.16 MB

     Estimated total dynamical RAM >     498.61 MB

     Initial potential from superposition of free atoms

     starting charge      43.4937, renormalised to      44.0000
     Starting wfcs are random

     total cpu time spent up to now is        0.9 secs

     Self-consistent Calculation

     iteration #  1     ecut=    65.00 Ry     beta= 0.70
     ParO style diagonalization
     ethr =  5.00E-06,  avg # of iterations = 24.5

     total cpu time spent up to now is       12.2 secs

     total energy              =    -244.33780243 Ry
     estimated scf accuracy    <       0.21845989 Ry

     iteration #  2     ecut=    65.00 Ry     beta= 0.70
     ParO style diagonalization
     ethr =  4.96E-04,  avg # of iterations =  5.7

     total cpu time spent up to now is       14.8 secs

     total energy              =    -244.39811802 Ry
     estimated scf accuracy    <       0.08654903 Ry

     iteration #  3     ecut=    65.00 Ry     beta= 0.70
     ParO style diagonalization
     ethr =  1.97E-04,  avg # of iterations =  5.8

     total cpu time spent up to now is       19.1 secs

     total energy              =    -244.41791088 Ry
     estimated scf accuracy    <       0.00127023 Ry

     iteration #  4     ecut=    65.00 Ry     beta= 0.70
     ParO style diagonalization
     ethr =  2.89E-06,  avg # of iterations =  5.4

     total cpu time spent up to now is       21.8 secs

     total energy              =    -244.41813693 Ry
     estimated scf accuracy    <       0.00003268 Ry

     iteration #  5     ecut=    65.00 Ry     beta= 0.70
     ParO style diagonalization
     ethr =  7.43E-08,  avg # of iterations =  6.2

     total cpu time spent up to now is       25.3 secs

     total energy              =    -244.41814335 Ry
     estimated scf accuracy    <       0.00000127 Ry

     iteration #  6     ecut=    65.00 Ry     beta= 0.70
     ParO style diagonalization
     ethr =  2.89E-09,  avg # of iterations =  7.2

     total cpu time spent up to now is       28.5 secs

     total energy              =    -244.41814372 Ry
     estimated scf accuracy    <       0.00000006 Ry

     iteration #  7     ecut=    65.00 Ry     beta= 0.70
     ParO style diagonalization
     ethr =  1.27E-10,  avg # of iterations =  7.0

     total cpu time spent up to now is       31.9 secs

     total energy              =    -244.41814373 Ry
     estimated scf accuracy    <          1.2E-09 Ry

     iteration #  8     ecut=    65.00 Ry     beta= 0.70
     ParO style diagonalization
     ethr =  2.64E-12,  avg # of iterations =  7.3

     total cpu time spent up to now is       35.4 secs

     End of self-consistent calculation

          k = 0.0000 0.0000 0.0000 ( 11019 PWs)   bands (ev):

   -17.4398 -12.9101 -12.9101 -12.7228 -12.7228 -12.7228 -11.0474 -10.2923
   -10.2923  -4.2298  -4.2298  -4.2298  -2.7927  -0.5658  -0.5658  -0.5658
     1.3947   1.3947   1.3947   1.4818   1.4818   1.4818   7.2807   8.3097
     8.3097   9.2212   9.2212   9.2212   9.8241   9.8241   9.8241  12.3032
    12.3032  12.3032  14.3163  14.3163  14.3163  14.7203  14.7203  15.5432
    16.4811  16.4811  16.4811  16.6377

          k = 0.0000 0.0000 0.1250 ( 10959 PWs)   bands (ev):

   -17.4396 -12.9101 -12.8983 -12.7230 -12.7230 -12.7228 -11.0305 -10.3299
   -10.2920  -4.2284  -4.2273  -4.2273  -2.9802  -0.5552  -0.5552  -0.2437
     1.3792   1.3813   1.3813   1.4675   1.4675   1.4788   7.4206   8.4060
     8.4140   9.2259   9.2259   9.2711   9.4203   9.8812   9.8812  12.0803
    12.3092  12.3092  13.7314  14.2837  14.2837  14.3959  14.7122  15.8542
    15.8891  16.2875  16.2875  16.7136

          k = 0.0000 0.0000 0.2500 ( 10936 PWs)   bands (ev):

   -17.4390 -12.9100 -12.8695 -12.7234 -12.7234 -12.7228 -10.9785 -10.4325
   -10.2914  -4.2251  -4.2213  -4.2213  -3.3126  -0.5293  -0.5293   0.3942
     1.3424   1.3478   1.3478   1.4340   1.4340   1.5475   7.7270   8.4589
     8.6877   8.7726   9.1954   9.1954   9.4115  10.1126  10.1126  11.6095
    12.2099  12.2099  12.6515  13.6752  14.2885  14.2885  14.4767  15.2938
    15.9540  15.9540  16.5025  16.5461

          k = 0.0000 0.0000 0.3750 ( 10964 PWs)   bands (ev):

   -17.4384 -12.9100 -12.8400 -12.7238 -12.7238 -12.7228 -10.8928 -10.5695
   -10.2907  -4.2218  -4.2153  -4.2153  -3.5595  -0.5024  -0.5024   0.7883
     1.3065   1.3127   1.3127   1.4015   1.4015   1.8973   7.2670   8.4233
     9.0045   9.1373   9.1373   9.1747   9.6002  10.5039  10.5039  11.1620
    11.5792  11.8892  11.8892  13.0115  13.8837  14.4355  14.4355  15.2637
    15.6844  15.6844  16.3081  16.9376

          k = 0.0000 0.0000-0.5000 ( 10892 PWs)   bands (ev):

   -17.4381 -12.9099 -12.8275 -12.7240 -12.7240 -12.7228 -10.8195 -10.6644
   -10.2905  -4.2204  -4.2128  -4.2128  -3.6469  -0.4909  -0.4909   0.8614
     1.2919   1.2977   1.2977   1.3884   1.3884   2.1801   6.8364   8.6115
     9.1105   9.1105   9.1541   9.5252   9.7069  10.7833  10.7833  10.9615
    10.9911  11.6209  11.6209  12.7399  13.6033  14.5472  14.5472  15.3198
    15.5663  15.5663  16.1874  17.0404

          k = 0.0000 0.1250 0.1250 ( 10937 PWs)   bands (ev):

   -17.4393 -12.9042 -12.8923 -12.7232 -12.7230 -12.7230 -11.0141 -10.3470
   -10.3112  -4.2316  -4.2249  -4.2222  -3.1488  -0.5438  -0.3733  -0.1134
     1.3104   1.3684   1.4073   1.4520   1.4591   1.4991   7.5492   8.4958
     8.4989   9.1141   9.1945   9.2876   9.3512   9.8054   9.9242  11.8983
    12.2383  12.4170  13.6687  13.8103  14.1163  14.2991  14.5920  15.8556
    15.8985  16.1504  16.2401  16.8484

          k = 0.0000 0.1250 0.2500 ( 10947 PWs)   bands (ev):

   -17.4387 -12.9020 -12.8653 -12.7236 -12.7234 -12.7230 -10.9639 -10.4390
   -10.3181  -4.2313  -4.2192  -4.2176  -3.4594  -0.5155  -0.2826   0.4276
     1.2318   1.3359   1.4016   1.4153   1.4773   1.5726   7.8063   8.3914
     8.7160   8.8516   9.0335   9.1423   9.5001  10.0756  10.1057  11.5850
    11.9205  12.3941  12.8300  13.6869  13.7849  14.0272  14.6841  15.1023
    15.8097  15.8580  16.7976  16.8272

          k = 0.0000 0.1250 0.3750 ( 10958 PWs)   bands (ev):

   -17.4381 -12.9016 -12.8357 -12.7240 -12.7238 -12.7230 -10.8808 -10.5714
   -10.3185  -4.2275  -4.2166  -4.2134  -3.6960  -0.4860  -0.2439   0.7750
     1.1940   1.3015   1.3799   1.3896   1.4650   1.9389   7.2066   8.4947
     8.8073   9.0785   9.0971   9.2445   9.6739  10.3669  10.4415  11.3151
    11.3726  12.0372  12.0791  13.0824  13.7904  14.2684  14.3329  15.1389
    15.5902  15.8021  16.5104  16.5565

          k = 0.0000 0.1250-0.5000 ( 10938 PWs)   bands (ev):

   -17.4379 -12.9015 -12.8231 -12.7242 -12.7240 -12.7230 -10.8085 -10.6647
   -10.3184  -4.2243  -4.2178  -4.2110  -3.7806  -0.4735  -0.2291   0.8304
     1.1882   1.2866   1.3656   1.3848   1.4545   2.2270   6.7678   8.7294
     8.7560   9.0501   9.2356   9.5203   9.7694  10.4610  10.6755  10.8375
    11.5020  11.6422  11.7875  12.8231  13.7524  14.0997  14.4653  15.4549
    15.5191  15.6792  16.3547  16.3906

          k = 0.0000 0.2500 0.2500 ( 10949 PWs)   bands (ev):

   -17.4382 -12.8904 -12.8468 -12.7240 -12.7234 -12.7234 -10.9190 -10.4788
   -10.3691  -4.2369  -4.2180  -4.2140  -3.7424  -0.4811   0.1409   0.5744
     1.1297   1.3065   1.3701   1.4006   1.5839   1.6889   7.8918   8.0197
     8.5260   9.0048   9.0414   9.1494   9.6771  10.1488  10.1853  11.4791
    11.5373  12.7553  12.8063  13.1562  13.5131  13.6105  14.8142  15.0831
    15.3571  15.6867  16.5761  16.7078

          k = 0.0000 0.2500 0.3750 ( 10928 PWs)   bands (ev):

   -17.4376 -12.8861 -12.8201 -12.7244 -12.7238 -12.7234 -10.8438 -10.5800
   -10.3903  -4.2372  -4.2236  -4.2088  -3.9655  -0.4450   0.3160   0.7383
     1.1265   1.2746   1.3261   1.3827   1.6111   2.1038   7.0612   7.8989
     8.8101   8.9491   9.2387   9.4934   9.8471  10.2362  10.2776  11.1059
    11.5786  12.1612  12.5791  12.9621  13.2807  13.8460  14.5061  15.3537
    15.4446  15.6392  16.0505  16.7241

          k = 0.0000 0.2500-0.5000 ( 10950 PWs)   bands (ev):

   -17.4374 -12.8851 -12.8080 -12.7246 -12.7240 -12.7234 -10.7744 -10.6654
   -10.3941  -4.2335  -4.2297  -4.2066  -4.0464  -0.4295   0.3578   0.7520
     1.1604   1.2601   1.3087   1.3697   1.6158   2.3963   6.6059   7.8644
     8.9124   9.0536   9.4599   9.4697   9.9274  10.2640  10.6149  10.6180
    11.7035  11.9195  12.2890  12.7711  13.3255  14.1866  14.2112  15.2132
    15.8200  15.8982  16.1909  16.2873

          k = 0.0000 0.3750 0.3750 ( 10924 PWs)   bands (ev):

   -17.4371 -12.8769 -12.7972 -12.7248 -12.7238 -12.7238 -10.7810 -10.6111
   -10.4667  -4.2433  -4.2343  -4.2042  -4.1818  -0.4014   0.6961   0.7721
     1.1261   1.2470   1.2708   1.3560   1.7073   2.4683   6.8852   6.9632
     8.8329   9.1281   9.4135   9.9606   9.9983  10.0222  10.1956  11.0476
    11.7120  11.8194  12.7457  12.8301  13.2881  13.4427  14.6390  15.2719
    15.5893  15.6716  15.9249  15.9918

          k = 0.0000 0.3750-0.5000 ( 10942 PWs)   bands (ev):

   -17.4369 -12.8745 -12.7860 -12.7250 -12.7240 -12.7238 -10.7173 -10.6660
   -10.4943  -4.2620  -4.2420  -4.2414  -4.2023  -0.3825   0.6786   0.9028
     1.1709   1.2338   1.2488   1.3257   1.7360   2.7315   6.4487   6.8698
     8.7881   9.3642   9.4398   9.8228  10.0973  10.1892  10.5269  10.7003
    11.5747  11.7873  12.6238  12.7465  13.1539  13.8768  14.5047  14.9803
    15.5291  15.7409  16.0225  16.5167

          k = 0.0000-0.5000-0.5000 ( 10968 PWs)   bands (ev):

   -17.4367 -12.8715 -12.7753 -12.7252 -12.7240 -12.7240 -10.6663 -10.6663
   -10.5635  -4.3403  -4.2463  -4.2463  -4.2005  -0.3621   0.6503   1.1789
     1.1789   1.2230   1.2230   1.2271   1.7808   2.9751   6.3848   6.3848
     8.7404   9.3203   9.6093  10.0332  10.1716  10.1716  10.7608  10.7608
    11.0117  11.8336  12.5677  12.5677  13.7147  13.7147  14.4843  14.8003
    15.2503  15.4453  16.2690  17.1795

          k = 0.1250 0.1250 0.1250 ( 10939 PWs)   bands (ev):

   -17.4391 -12.8922 -12.8922 -12.7232 -12.7232 -12.7232 -10.9984 -10.3466
   -10.3466  -4.2302  -4.2302  -4.2159  -3.3038  -0.3616  -0.3616   0.0013
     1.2969   1.2969   1.4206   1.4488   1.4941   1.4941   7.6636   8.5626
     8.5626   9.0549   9.0965   9.0965   9.6310   9.6310   9.9643  11.7375
    12.3825  12.3825  13.4025  13.7360  13.7360  14.3949  14.3949  15.6912
    15.9497  15.9497  16.4746  16.7807

          k = 0.1250 0.1250 0.2500 ( 10955 PWs)   bands (ev):

   -17.4385 -12.8922 -12.8627 -12.7236 -12.7236 -12.7231 -10.9500 -10.4432
   -10.3458  -4.2325  -4.2268  -4.2111  -3.5974  -0.3325  -0.2166   0.4602
     1.2039   1.2625   1.4310   1.4580   1.4928   1.5830   7.8526   8.3254
     8.6697   8.8861   9.0107   9.0252   9.6294  10.0142  10.1425  11.4797
    12.1351  12.2092  12.9126  13.5318  13.6285  13.8364  14.6981  15.0435
    15.7852  15.7861  16.5069  16.9387

          k = 0.1250 0.1250 0.3750 ( 10943 PWs)   bands (ev):

   -17.4379 -12.8921 -12.8325 -12.7240 -12.7240 -12.7231 -10.8696 -10.5729
   -10.3450  -4.2304  -4.2234  -4.2107  -3.8257  -0.3020  -0.1607   0.7661
     1.1325   1.2696   1.4018   1.4429   1.4934   1.9733   7.1404   8.5157
     8.6482   8.8433   9.1958   9.2993   9.7717  10.3587  10.3840  11.1554
    11.6078  11.9159  12.2451  13.2338  13.6473  14.0661  14.3158  15.1573
    15.5308  15.7348  16.3017  16.5376

          k = 0.1250 0.1250-0.5000 ( 10928 PWs)   bands (ev):

   -17.4377 -12.8921 -12.8197 -12.7242 -12.7242 -12.7231 -10.7984 -10.6648
   -10.3447  -4.2282  -4.2219  -4.2118  -3.9080  -0.2889  -0.1411   0.8139
     1.1056   1.2975   1.3673   1.4354   1.4917   2.2692   6.6967   8.6204
     8.7110   8.8187   9.3167   9.5408   9.8442  10.5365  10.5485  10.7072
    11.6639  11.7624  11.8104  12.9953  13.8165  13.8673  14.3886  15.4184
    15.4515  15.8354  15.9897  16.1829

          k = 0.1250 0.2500 0.2500 ( 10950 PWs)   bands (ev):

   -17.4380 -12.8778 -12.8468 -12.7240 -12.7236 -12.7236 -10.9072 -10.4783
   -10.3981  -4.2379  -4.2287  -4.2092  -3.8686  -0.2550   0.1555   0.5923
     1.1162   1.2087   1.4341   1.4864   1.5804   1.6914   7.8625   7.9209
     8.4311   8.7998   9.1380   9.1931   9.8249  10.0990  10.2449  11.2800
    11.8636  12.4653  12.8967  13.0712  13.2732  13.8016  14.7699  14.8466
    15.5593  15.7859  16.1356  16.7712

          k = 0.1250 0.2500 0.3750 ( 10930 PWs)   bands (ev):

   -17.4374 -12.8739 -12.8193 -12.7244 -12.7240 -12.7236 -10.8349 -10.5804
   -10.4140  -4.2397  -4.2306  -4.2110  -4.0855  -0.2140   0.3403   0.7421
     1.0650   1.1972   1.4099   1.4732   1.6129   2.1291   6.9861   7.8107
     8.4809   8.9045   9.3630   9.4931   9.9814  10.2300  10.3176  11.0287
    11.7499  12.0806  12.4619  13.1342  13.3130  13.8172  14.3626  15.3826
    15.5059  15.5880  16.0141  16.4740

          k = 0.1250 0.2500-0.5000 ( 10934 PWs)   bands (ev):

   -17.4372 -12.8733 -12.8068 -12.7246 -12.7242 -12.7236 -10.7673 -10.6652
   -10.4161  -4.2377  -4.2336  -4.2120  -4.1648  -0.1970   0.3864   0.7606
     1.0526   1.2186   1.3911   1.4619   1.6209   2.4314   6.5301   7.7711
     8.4748   9.0673   9.5450   9.5533  10.0151  10.2530  10.5123  10.7208
    11.7913  11.9238  12.1772  13.1157  13.2748  14.0487  14.2338  15.2613
    15.7200  15.7708  15.9881  16.2725

          k = 0.1250 0.3750 0.3750 ( 10944 PWs)   bands (ev):

   -17.4369 -12.8637 -12.7972 -12.7248 -12.7240 -12.7240 -10.7756 -10.6104
   -10.4862  -4.2981  -4.2467  -4.2387  -4.2114  -0.1641   0.7139   0.7802
     1.0400   1.1547   1.3970   1.4621   1.7081   2.4976   6.8035   6.8855
     8.3575   9.1737   9.5349   9.7876  10.0108  10.2043  10.2557  11.0440
    11.7917  11.8687  12.6974  12.7376  13.4815  13.6289  14.3385  15.4798
    15.6313  15.6932  15.9369  15.9928

          k = 0.1250 0.3750-0.5000 ( 10954 PWs)   bands (ev):

   -17.4367 -12.8613 -12.7860 -12.7250 -12.7242 -12.7240 -10.7144 -10.6655
   -10.5107  -4.3756  -4.2466  -4.2456  -4.2118  -0.1432   0.7023   0.8977
     1.0434   1.1713   1.3909   1.4403   1.7375   2.7672   6.3692   6.7886
     8.3087   9.3947   9.5415   9.8318  10.0535  10.0842  10.5458  10.9195
    11.5482  11.9495  12.5408  12.7451  13.4291  14.0747  14.1198  15.1388
    15.6225  15.6992  16.1138  16.6296

          k = 0.1250-0.5000-0.5000 ( 10940 PWs)   bands (ev):

   -17.4365 -12.8580 -12.7753 -12.7252 -12.7242 -12.7242 -10.6656 -10.6656
   -10.5771  -4.4531  -4.2505  -4.2505  -4.2117  -0.1205   0.6789   1.0436
     1.0436   1.2278   1.3905   1.3905   1.7822   3.0157   6.3038   6.3038
     8.2473   9.5279   9.5872   9.9862   9.9943   9.9943  10.9564  11.0107
    11.0107  11.9752  12.5777  12.5777  13.9786  13.9842  13.9842  14.7768
    15.4610  15.6485  16.3475  16.9552

          k = 0.2500 0.2500 0.2500 ( 10891 PWs)   bands (ev):

   -17.4374 -12.8467 -12.8467 -12.7240 -12.7240 -12.7240 -10.8704 -10.4771
   -10.4771  -4.2404  -4.2404  -4.2123  -4.1225   0.1930   0.1930   0.6568
     1.0861   1.0861   1.5649   1.5649   1.5844   1.8044   7.7251   7.7251
     7.7987   8.7816   9.3457   9.3457  10.0809  10.0809  10.3265  11.1019
    12.1816  12.1816  12.8900  12.9045  12.9045  14.4197  14.4294  14.4294
    15.7690  15.8838  15.8838  16.9461

          k = 0.2500 0.2500 0.3750 ( 10937 PWs)   bands (ev):

   -17.4369 -12.8467 -12.8146 -12.7244 -12.7244 -12.7240 -10.8072 -10.5838
   -10.4759  -4.3333  -4.2463  -4.2430  -4.2184   0.2343   0.4653   0.7501
     0.9949   1.0900   1.5552   1.5600   1.6362   2.2651   6.8145   7.5663
     7.6886   8.9821   9.5456   9.5877  10.1597  10.1657  10.2744  11.0595
    11.9331  12.0793  12.5063  12.9776  13.3244  14.0058  14.2449  15.1396
    15.5730  15.9172  15.9685  16.6654

          k = 0.2500 0.2500-0.5000 ( 10932 PWs)   bands (ev):

   -17.4367 -12.8466 -12.8010 -12.7246 -12.7246 -12.7240 -10.7448 -10.6647
   -10.4754  -4.4099  -4.2470  -4.2440  -4.2239   0.2529   0.5361   0.7706
     0.9604   1.1220   1.5305   1.5563   1.6544   2.5770   6.3527   7.5077
     7.6488   9.1352   9.5934   9.7720  10.0524  10.0731  10.4489  11.0142
    11.7514  12.0937  12.3389  13.0561  13.5397  13.7916  14.3416  15.4266
    15.5310  15.8741  16.0259  16.3640

          k = 0.2500 0.3750 0.3750 ( 10961 PWs)   bands (ev):

   -17.4364 -12.8310 -12.7972 -12.7248 -12.7244 -12.7244 -10.7585 -10.6089
   -10.5387  -4.5379  -4.2547  -4.2513  -4.2294   0.3799   0.7558   0.8035
     0.9547   1.0468   1.5778   1.5998   1.7112   2.6281   6.6163   6.7046
     7.4748   9.1402   9.6900   9.6939  10.0012  10.1109  10.4114  11.2432
    11.8316  12.1066  12.6818  12.7398  13.6207  13.7350  14.4905  15.1723
    15.6410  16.0770  16.2562  16.4819

          k = 0.2500 0.3750-0.5000 ( 10932 PWs)   bands (ev):

   -17.4362 -12.8286 -12.7855 -12.7250 -12.7246 -12.7244 -10.7050 -10.6642
   -10.5536  -4.6141  -4.2568  -4.2557  -4.2344   0.4120   0.7587   0.8853
     0.9330   1.1113   1.5754   1.5925   1.7419   2.9055   6.1816   6.6001
     7.4122   9.2733   9.6052   9.8517   9.8735  10.0443  10.6184  11.3032
    11.6339  12.1614  12.6237  12.7887  13.5936  13.9344  14.5197  15.1155
    15.8390  16.0293  16.3150  16.4683

          k = 0.2500-0.5000-0.5000 ( 10964 PWs)   bands (ev):

   -17.4361 -12.8247 -12.7752 -12.7252 -12.7246 -12.7246 -10.6640 -10.6640
   -10.6110  -4.6902  -4.2608  -4.2608  -4.2383   0.4490   0.7481   0.9328
     0.9328   1.2294   1.5819   1.5819   1.7856   3.1614   6.1121   6.1121
     7.3434   9.3803   9.6213   9.7500   9.7500  10.1399  10.8329  11.4281
    11.4281  12.1616  12.7250  12.7250  13.5132  14.4478  14.5900  14.5900
    16.1625  16.1719  16.2071  16.3762

          k = 0.3750 0.3750 0.3750 ( 10957 PWs)   bands (ev):

   -17.4360 -12.7971 -12.7971 -12.7249 -12.7249 -12.7248 -10.7267 -10.6074
   -10.6074  -4.7404  -4.2628  -4.2628  -4.2479   0.7948   0.8394   0.8394
     0.9620   0.9620   1.6894   1.6894   1.7282   2.9500   6.4405   6.4405
     6.6126   9.1462   9.6717   9.6717   9.7376  10.3966  10.3966  11.5313
    12.0076  12.0076  12.8145  12.8145  13.4740  13.9686  15.1243  15.1243
    15.4678  16.1710  16.2878  16.2878

          k = 0.3750 0.3750-0.5000 ( 10954 PWs)   bands (ev):

   -17.4358 -12.7971 -12.7827 -12.7250 -12.7250 -12.7249 -10.6869 -10.6629
   -10.6068  -4.8162  -4.2668  -4.2661  -4.2562   0.8089   0.8715   0.8743
     0.9115   1.1213   1.7013   1.7083   1.7564   3.2119   5.9988   6.3703
     6.4966   9.1818   9.5665   9.6651   9.6726  10.3622  10.6267  11.6443
    11.8228  12.1157  12.8592  12.9116  13.3429  14.2852  14.9868  15.4517
    15.5859  15.8025  16.1943  16.3234

          k = 0.3750-0.5000-0.5000 ( 10980 PWs)   bands (ev):

   -17.4356 -12.7900 -12.7752 -12.7252 -12.7250 -12.7250 -10.6623 -10.6623
   -10.6464  -4.8920  -4.2710  -4.2710  -4.2645   0.8176   0.8677   0.8677
     1.0077   1.2311   1.7323   1.7323   1.7890   3.4643   5.9240   5.9240
     6.3675   9.1533   9.5621   9.5801   9.5801  10.4699  10.7207  11.7921
    11.7921  12.0938  12.9904  12.9904  13.2269  14.5910  15.2106  15.2106
    15.7242  15.7836  15.9792  15.9792

          k =-0.5000-0.5000-0.5000 ( 11056 PWs)   bands (ev):

   -17.4354 -12.7752 -12.7752 -12.7252 -12.7252 -12.7252 -10.6616 -10.6616
   -10.6616  -4.9680  -4.2752  -4.2752  -4.2752   0.8465   0.8465   0.8465
     1.2317   1.2317   1.7904   1.7904   1.7904   3.7188   5.8466   5.8466
     5.8466   9.0654   9.5196   9.5196   9.5196  10.6770  10.6770  11.9504
    11.9504  11.9504  13.1305  13.1305  13.1305  14.8253  15.4845  15.4845
    15.4845  15.6289  15.6289  15.6289

     the Fermi energy is     4.2129 ev

!    total energy              =    -244.41814373 Ry
     estimated scf accuracy    <          2.2E-11 Ry
     smearing contrib. (-TS)   =      -0.00000000 Ry
     internal energy E=F+TS    =    -244.41814373 Ry

     The total energy is F=E-TS. E is the sum of the following terms:
     one-electron contribution =     -99.28410302 Ry
     hartree contribution      =      65.44379401 Ry
     xc contribution           =     -37.94164815 Ry
     ewald contribution        =    -172.63618658 Ry

     convergence has been achieved in   8 iterations

     Writing all to output data dir out/mp-23037.save/
 
     init_run     :      0.59s CPU      0.72s WALL (       1 calls)
     electrons    :     30.09s CPU     34.54s WALL (       1 calls)

     Called by init_run:
     wfcinit      :      0.37s CPU      0.39s WALL (       1 calls)
     potinit      :      0.13s CPU      0.15s WALL (       1 calls)
     hinit0       :      0.01s CPU      0.09s WALL (       1 calls)

     Called by electrons:
     c_bands      :     28.83s CPU     33.24s WALL (       8 calls)
     sum_band     :      1.22s CPU      1.24s WALL (       8 calls)
     v_of_rho     :      0.08s CPU      0.09s WALL (       9 calls)
     mix_rho      :      0.01s CPU      0.01s WALL (       8 calls)

     Called by c_bands:
     init_us_2    :      0.13s CPU      0.14s WALL (     595 calls)
     init_us_2:cp :      0.13s CPU      0.14s WALL (     595 calls)
     paro_k       :     28.03s CPU     28.82s WALL (     280 calls)

     Called by paro_*:
     h_psi        :     20.32s CPU     20.88s WALL (    7143 calls)
     g_psi        :      0.26s CPU      0.27s WALL (  119870 calls)

     Called by h_psi:
     h_psi:calbec :      1.23s CPU      1.27s WALL (    7143 calls)
     vloc_psi     :     18.22s CPU     18.73s WALL (    7143 calls)
     add_vuspsi   :      0.75s CPU      0.77s WALL (    7143 calls)

     General routines
     calbec       :      1.22s CPU      1.26s WALL (    7143 calls)
     fft          :      0.08s CPU      0.16s WALL (      89 calls)
     ffts         :      0.00s CPU      0.00s WALL (       8 calls)
     fftw         :     17.60s CPU     18.08s WALL (  218810 calls)
 
     Parallel routines
 
     PWSCF        :     30.92s CPU     35.98s WALL

 
   This run was terminated on:  15:14:23   8Apr2024            

=------------------------------------------------------------------------------=
   JOB DONE.
=------------------------------------------------------------------------------=
