<?xml version="1.0" encoding="ISO-8859-1"?>
<modeling>
 <generator>
  <i name="program" type="string">vasp </i>
  <i name="version" type="string">5.4.4.18Apr17-6-g9f103f2a35  </i>
  <i name="subversion" type="string">(build Aug 24 2017 11:22:49) complex            parallel </i>
  <i name="platform" type="string">LinuxIFC </i>
  <i name="date" type="string">2023 12 25 </i>
  <i name="time" type="string">13:07:54 </i>
 </generator>
 <incar>
  <i type="string" name="PREC">accurate</i>
  <i type="string" name="ALGO"> Normal</i>
  <i type="int" name="NELM">   100</i>
  <i type="int" name="IBRION">     8</i>
  <i name="EDIFF">      0.00000001</i>
  <i name="SYMPREC">      0.00000001</i>
  <i name="ENCUT">    520.00000000</i>
  <i type="logical" name="LREAL"> F  </i>
  <i type="int" name="ISMEAR">     0</i>
  <i name="SIGMA">      0.01000000</i>
  <i type="logical" name="LWAVE"> F  </i>
  <v type="int" name="KPOINT_BSE">    -1     0     0     0</v>
  <i type="int" name="NELM">   100</i>
  <i type="logical" name="LPEAD"> T  </i>
  <i type="logical" name="LEPSILON"> T  </i>
 </incar>
 <structure name="primitive_cell" >
  <crystal>
   <varray name="basis" >
    <v>      -3.24646740       0.00000000       3.24646740 </v>
    <v>       0.00000000       3.24646740       3.24646740 </v>
    <v>      -3.24646740       3.24646740       0.00000000 </v>
   </varray>
   <i name="volume">     68.43261448 </i>
   <varray name="rec_basis" >
    <v>      -0.15401356      -0.15401356       0.15401356 </v>
    <v>       0.15401356       0.15401356       0.15401356 </v>
    <v>      -0.15401356       0.15401356      -0.15401356 </v>
   </varray>
  </crystal>
  <varray name="positions" >
   <v>       0.00000000       0.00000000       0.00000000 </v>
  </varray>
 </structure>
 <varray name="primitive_index" >
  <v type="int" >        1 </v>
 </varray>
 <kpoints>
  <generation param="Gamma">
   <v type="int" name="divisions">      14       14       14 </v>
   <v name="usershift">      0.00000000       0.00000000       0.00000000 </v>
   <v name="genvec1">      0.07142857       0.00000000       0.00000000 </v>
   <v name="genvec2">      0.00000000       0.07142857      -0.00000000 </v>
   <v name="genvec3">     -0.00000000      -0.00000000       0.07142857 </v>
   <v name="shift">      0.00000000       0.00000000       0.00000000 </v>
  </generation>
  <varray name="kpointlist" >
   <v>       0.00000000       0.00000000       0.00000000 </v>
   <v>       0.07142857       0.00000000       0.00000000 </v>
   <v>       0.14285714       0.00000000       0.00000000 </v>
   <v>       0.21428571       0.00000000      -0.00000000 </v>
   <v>       0.28571429      -0.00000000      -0.00000000 </v>
   <v>       0.35714286      -0.00000000       0.00000000 </v>
   <v>       0.42857143       0.00000000      -0.00000000 </v>
   <v>       0.50000000       0.00000000       0.00000000 </v>
   <v>       0.07142857       0.07142857      -0.00000000 </v>
   <v>       0.14285714       0.07142857      -0.00000000 </v>
   <v>       0.21428571       0.07142857      -0.00000000 </v>
   <v>       0.28571429       0.07142857      -0.00000000 </v>
   <v>       0.35714286       0.07142857       0.00000000 </v>
   <v>       0.42857143       0.07142857       0.00000000 </v>
   <v>       0.50000000       0.07142857      -0.00000000 </v>
   <v>      -0.42857143       0.07142857      -0.00000000 </v>
   <v>      -0.35714286       0.07142857       0.00000000 </v>
   <v>      -0.28571429       0.07142857      -0.00000000 </v>
   <v>      -0.21428571       0.07142857       0.00000000 </v>
   <v>      -0.14285714       0.07142857      -0.00000000 </v>
   <v>      -0.07142857       0.07142857      -0.00000000 </v>
   <v>       0.14285714       0.14285714      -0.00000000 </v>
   <v>       0.21428571       0.14285714      -0.00000000 </v>
   <v>       0.28571429       0.14285714      -0.00000000 </v>
   <v>       0.35714286       0.14285714      -0.00000000 </v>
   <v>       0.42857143       0.14285714      -0.00000000 </v>
   <v>       0.50000000       0.14285714      -0.00000000 </v>
   <v>      -0.42857143       0.14285714       0.00000000 </v>
   <v>      -0.35714286       0.14285714      -0.00000000 </v>
   <v>      -0.28571429       0.14285714      -0.00000000 </v>
   <v>      -0.21428571       0.14285714      -0.00000000 </v>
   <v>      -0.14285714       0.14285714       0.00000000 </v>
   <v>       0.21428571       0.21428571      -0.00000000 </v>
   <v>       0.28571429       0.21428571      -0.00000000 </v>
   <v>       0.35714286       0.21428571      -0.00000000 </v>
   <v>       0.42857143       0.21428571      -0.00000000 </v>
   <v>       0.50000000       0.21428571       0.00000000 </v>
   <v>      -0.42857143       0.21428571      -0.00000000 </v>
   <v>      -0.35714286       0.21428571       0.00000000 </v>
   <v>      -0.28571429       0.21428571      -0.00000000 </v>
   <v>      -0.21428571       0.21428571      -0.00000000 </v>
   <v>       0.28571429       0.28571429      -0.00000000 </v>
   <v>       0.35714286       0.28571429       0.00000000 </v>
   <v>       0.42857143       0.28571429       0.00000000 </v>
   <v>       0.50000000       0.28571429      -0.00000000 </v>
   <v>      -0.42857143       0.28571429      -0.00000000 </v>
   <v>      -0.35714286       0.28571429       0.00000000 </v>
   <v>      -0.28571429       0.28571429       0.00000000 </v>
   <v>       0.35714286       0.35714286      -0.00000000 </v>
   <v>       0.42857143       0.35714286       0.00000000 </v>
   <v>       0.50000000       0.35714286      -0.00000000 </v>
   <v>      -0.42857143       0.35714286       0.00000000 </v>
   <v>      -0.35714286       0.35714286      -0.00000000 </v>
   <v>       0.42857143       0.42857143      -0.00000000 </v>
   <v>       0.50000000       0.42857143      -0.00000000 </v>
   <v>      -0.42857143       0.42857143      -0.00000000 </v>
   <v>       0.50000000       0.50000000      -0.00000000 </v>
   <v>       0.21428571       0.14285714       0.07142857 </v>
   <v>       0.28571429       0.14285714       0.07142857 </v>
   <v>       0.35714286       0.14285714       0.07142857 </v>
   <v>       0.42857143       0.14285714       0.07142857 </v>
   <v>       0.50000000       0.14285714       0.07142857 </v>
   <v>      -0.42857143       0.14285714       0.07142857 </v>
   <v>       0.28571429       0.21428571       0.07142857 </v>
   <v>       0.35714286       0.21428571       0.07142857 </v>
   <v>       0.42857143       0.21428571       0.07142857 </v>
   <v>       0.50000000       0.21428571       0.07142857 </v>
   <v>      -0.42857143       0.21428571       0.07142857 </v>
   <v>      -0.35714286       0.21428571       0.07142857 </v>
   <v>      -0.28571429       0.21428571       0.07142857 </v>
   <v>      -0.21428571       0.21428571       0.07142857 </v>
   <v>      -0.14285714       0.21428571       0.07142857 </v>
   <v>       0.35714286       0.28571429       0.07142857 </v>
   <v>       0.42857143       0.28571429       0.07142857 </v>
   <v>       0.50000000       0.28571429       0.07142857 </v>
   <v>      -0.42857143       0.28571429       0.07142857 </v>
   <v>      -0.35714286       0.28571429       0.07142857 </v>
   <v>      -0.28571429       0.28571429       0.07142857 </v>
   <v>      -0.21428571       0.28571429       0.07142857 </v>
   <v>       0.42857143       0.35714286       0.07142857 </v>
   <v>       0.50000000       0.35714286       0.07142857 </v>
   <v>      -0.42857143       0.35714286       0.07142857 </v>
   <v>      -0.35714286       0.35714286       0.07142857 </v>
   <v>      -0.28571429       0.35714286       0.07142857 </v>
   <v>       0.50000000       0.42857143       0.07142857 </v>
   <v>      -0.42857143       0.42857143       0.07142857 </v>
   <v>      -0.35714286       0.42857143       0.07142857 </v>
   <v>      -0.42857143       0.50000000       0.07142857 </v>
   <v>       0.42857143       0.28571429       0.14285714 </v>
   <v>       0.50000000       0.28571429       0.14285714 </v>
   <v>      -0.42857143       0.28571429       0.14285714 </v>
   <v>      -0.35714286       0.28571429       0.14285714 </v>
   <v>       0.50000000       0.35714286       0.14285714 </v>
   <v>      -0.42857143       0.35714286       0.14285714 </v>
   <v>      -0.35714286       0.35714286       0.14285714 </v>
   <v>      -0.28571429       0.35714286       0.14285714 </v>
   <v>      -0.21428571       0.35714286       0.14285714 </v>
   <v>      -0.42857143       0.42857143       0.14285714 </v>
   <v>      -0.35714286       0.42857143       0.14285714 </v>
   <v>      -0.28571429       0.42857143       0.14285714 </v>
   <v>      -0.35714286       0.50000000       0.14285714 </v>
   <v>      -0.35714286       0.42857143       0.21428571 </v>
   <v>      -0.28571429       0.42857143       0.21428571 </v>
   <v>      -0.28571429       0.50000000       0.21428571 </v>
  </varray>
  <varray name="weights" >
   <v>       0.00036443 </v>
   <v>       0.00291545 </v>
   <v>       0.00291545 </v>
   <v>       0.00291545 </v>
   <v>       0.00291545 </v>
   <v>       0.00291545 </v>
   <v>       0.00291545 </v>
   <v>       0.00145773 </v>
   <v>       0.00218659 </v>
   <v>       0.00874636 </v>
   <v>       0.00874636 </v>
   <v>       0.00874636 </v>
   <v>       0.00874636 </v>
   <v>       0.00874636 </v>
   <v>       0.00874636 </v>
   <v>       0.00874636 </v>
   <v>       0.00874636 </v>
   <v>       0.00874636 </v>
   <v>       0.00874636 </v>
   <v>       0.00874636 </v>
   <v>       0.00437318 </v>
   <v>       0.00218659 </v>
   <v>       0.00874636 </v>
   <v>       0.00874636 </v>
   <v>       0.00874636 </v>
   <v>       0.00874636 </v>
   <v>       0.00874636 </v>
   <v>       0.00874636 </v>
   <v>       0.00874636 </v>
   <v>       0.00874636 </v>
   <v>       0.00874636 </v>
   <v>       0.00437318 </v>
   <v>       0.00218659 </v>
   <v>       0.00874636 </v>
   <v>       0.00874636 </v>
   <v>       0.00874636 </v>
   <v>       0.00874636 </v>
   <v>       0.00874636 </v>
   <v>       0.00874636 </v>
   <v>       0.00874636 </v>
   <v>       0.00437318 </v>
   <v>       0.00218659 </v>
   <v>       0.00874636 </v>
   <v>       0.00874636 </v>
   <v>       0.00874636 </v>
   <v>       0.00874636 </v>
   <v>       0.00874636 </v>
   <v>       0.00437318 </v>
   <v>       0.00218659 </v>
   <v>       0.00874636 </v>
   <v>       0.00874636 </v>
   <v>       0.00874636 </v>
   <v>       0.00437318 </v>
   <v>       0.00218659 </v>
   <v>       0.00874636 </v>
   <v>       0.00437318 </v>
   <v>       0.00109329 </v>
   <v>       0.00874636 </v>
   <v>       0.01749271 </v>
   <v>       0.01749271 </v>
   <v>       0.01749271 </v>
   <v>       0.01749271 </v>
   <v>       0.00874636 </v>
   <v>       0.00874636 </v>
   <v>       0.01749271 </v>
   <v>       0.01749271 </v>
   <v>       0.01749271 </v>
   <v>       0.01749271 </v>
   <v>       0.01749271 </v>
   <v>       0.01749271 </v>
   <v>       0.01749271 </v>
   <v>       0.00874636 </v>
   <v>       0.00874636 </v>
   <v>       0.01749271 </v>
   <v>       0.01749271 </v>
   <v>       0.01749271 </v>
   <v>       0.01749271 </v>
   <v>       0.01749271 </v>
   <v>       0.00874636 </v>
   <v>       0.00874636 </v>
   <v>       0.01749271 </v>
   <v>       0.01749271 </v>
   <v>       0.01749271 </v>
   <v>       0.00874636 </v>
   <v>       0.00874636 </v>
   <v>       0.01749271 </v>
   <v>       0.00874636 </v>
   <v>       0.00437318 </v>
   <v>       0.00874636 </v>
   <v>       0.01749271 </v>
   <v>       0.01749271 </v>
   <v>       0.00874636 </v>
   <v>       0.00874636 </v>
   <v>       0.01749271 </v>
   <v>       0.01749271 </v>
   <v>       0.01749271 </v>
   <v>       0.00874636 </v>
   <v>       0.00874636 </v>
   <v>       0.01749271 </v>
   <v>       0.00874636 </v>
   <v>       0.00437318 </v>
   <v>       0.00874636 </v>
   <v>       0.00874636 </v>
   <v>       0.00437318 </v>
  </varray>
 </kpoints>
 <parameters>
  <separator name="general" >
   <i type="string" name="SYSTEM">unknown system</i>
   <i type="logical" name="LCOMPAT"> F  </i>
  </separator>
  <separator name="electronic" >
   <i type="string" name="PREC">accura</i>
   <i name="ENMAX">    520.00000000</i>
   <i name="ENAUG">    218.46900000</i>
   <i name="EDIFF">      0.00000001</i>
   <i type="int" name="IALGO">    38</i>
   <i type="int" name="IWAVPR">    11</i>
   <i type="int" name="NBANDS">     8</i>
   <i name="NELECT">      8.00000000</i>
   <i type="int" name="TURBO">     0</i>
   <i type="int" name="IRESTART">     0</i>
   <i type="int" name="NREBOOT">     0</i>
   <i type="int" name="NMIN">     0</i>
   <i name="EREF">      0.00000000</i>
   <separator name="electronic smearing" >
    <i type="int" name="ISMEAR">     0</i>
    <i name="SIGMA">      0.01000000</i>
    <i name="KSPACING">      0.50000000</i>
    <i type="logical" name="KGAMMA"> T  </i>
   </separator>
   <separator name="electronic projectors" >
    <i type="logical" name="LREAL"> F  </i>
    <v name="ROPT">      0.00000000</v>
    <i type="int" name="LMAXPAW">  -100</i>
    <i type="int" name="LMAXMIX">     2</i>
    <i type="logical" name="NLSPLINE"> F  </i>
   </separator>
   <separator name="electronic startup" >
    <i type="int" name="ISTART">     0</i>
    <i type="int" name="ICHARG">     2</i>
    <i type="int" name="INIWAV">     1</i>
   </separator>
   <separator name="electronic spin" >
    <i type="int" name="ISPIN">     1</i>
    <i type="logical" name="LNONCOLLINEAR"> F  </i>
    <v name="MAGMOM">      1.00000000</v>
    <i name="NUPDOWN">     -1.00000000</i>
    <i type="logical" name="LSORBIT"> F  </i>
    <v name="SAXIS">      0.00000000      0.00000000      1.00000000</v>
    <i type="logical" name="LSPIRAL"> F  </i>
    <v name="QSPIRAL">      0.00000000      0.00000000      0.00000000</v>
    <i type="logical" name="LZEROZ"> F  </i>
   </separator>
   <separator name="electronic exchange-correlation" >
    <i type="logical" name="LASPH"> F  </i>
    <i type="logical" name="LMETAGGA"> F  </i>
   </separator>
   <separator name="electronic convergence" >
    <i type="int" name="NELM">   100</i>
    <i type="int" name="NELMDL">    -5</i>
    <i type="int" name="NELMIN">     2</i>
    <i name="ENINI">    520.00000000</i>
    <separator name="electronic convergence detail" >
     <i type="logical" name="LDIAG"> T  </i>
     <i type="logical" name="LSUBROT"> F  </i>
     <i name="WEIMIN">      0.00100000</i>
     <i name="EBREAK">      0.00000000</i>
     <i name="DEPER">      0.30000000</i>
     <i type="int" name="NRMM">     4</i>
     <i name="TIME">      0.40000000</i>
    </separator>
   </separator>
   <separator name="electronic mixer" >
    <i name="AMIX">      0.40000000</i>
    <i name="BMIX">      1.00000000</i>
    <i name="AMIN">      0.10000000</i>
    <i name="AMIX_MAG">      1.60000000</i>
    <i name="BMIX_MAG">      1.00000000</i>
    <separator name="electronic mixer details" >
     <i type="int" name="IMIX">     4</i>
     <i type="logical" name="MIXFIRST"> F  </i>
     <i type="int" name="MAXMIX">   -45</i>
     <i name="WC">    100.00000000</i>
     <i type="int" name="INIMIX">     1</i>
     <i type="int" name="MIXPRE">     1</i>
     <i type="int" name="MREMOVE">     5</i>
    </separator>
   </separator>
   <separator name="electronic dipolcorrection" >
    <i type="logical" name="LDIPOL"> F  </i>
    <i type="logical" name="LMONO"> F  </i>
    <i type="int" name="IDIPOL">     0</i>
    <i name="EPSILON">      1.00000000</i>
    <v name="DIPOL">   -100.00000000   -100.00000000   -100.00000000</v>
    <i name="EFIELD">      0.00000000</i>
   </separator>
  </separator>
  <separator name="grids" >
   <i type="int" name="NGX">    36</i>
   <i type="int" name="NGY">    36</i>
   <i type="int" name="NGZ">    36</i>
   <i type="int" name="NGXF">    72</i>
   <i type="int" name="NGYF">    72</i>
   <i type="int" name="NGZF">    72</i>
   <i type="logical" name="ADDGRID"> F  </i>
  </separator>
  <separator name="ionic" >
   <i type="int" name="NSW">     1</i>
   <i type="int" name="IBRION">     8</i>
   <i type="int" name="MDALGO">     0</i>
   <i type="int" name="ISIF">     2</i>
   <i name="PSTRESS">      0.00000000</i>
   <i name="EDIFFG">      0.00000010</i>
   <i type="int" name="NFREE">     0</i>
   <i name="POTIM">      0.50000000</i>
   <i name="SMASS">     -3.00000000</i>
   <i name="SCALEE">      1.00000000</i>
  </separator>
  <separator name="ionic md" >
   <i name="TEBEG">      0.00010000</i>
   <i name="TEEND">      0.00010000</i>
   <i type="int" name="NBLOCK">     1</i>
   <i type="int" name="KBLOCK">     1</i>
   <i type="int" name="NPACO">   256</i>
   <i name="APACO">     16.00000000</i>
  </separator>
  <separator name="symmetry" >
   <i type="int" name="ISYM">     2</i>
   <i name="SYMPREC">      0.00000001</i>
  </separator>
  <separator name="dos" >
   <i type="int" name="LORBIT">     0</i>
   <v name="RWIGS">     -1.00000000</v>
   <i type="int" name="NEDOS">   301</i>
   <i name="EMIN">     10.00000000</i>
   <i name="EMAX">    -10.00000000</i>
   <i name="EFERMI">      0.00000000</i>
  </separator>
  <separator name="writing" >
   <i type="int" name="NWRITE">     2</i>
   <i type="logical" name="LWAVE"> F  </i>
   <i type="logical" name="LDOWNSAMPLE"> F  </i>
   <i type="logical" name="LCHARG"> T  </i>
   <i type="logical" name="LPARD"> F  </i>
   <i type="logical" name="LVTOT"> F  </i>
   <i type="logical" name="LVHAR"> F  </i>
   <i type="logical" name="LELF"> F  </i>
   <i type="logical" name="LOPTICS"> F  </i>
   <v name="STM">      0.00000000      0.00000000      0.00000000      0.00000000      0.00000000      0.00000000      0.00000000</v>
  </separator>
  <separator name="performance" >
   <i type="int" name="NPAR">     8</i>
   <i type="int" name="NSIM">     4</i>
   <i type="int" name="NBLK">    -1</i>
   <i type="logical" name="LPLANE"> T  </i>
   <i type="logical" name="LSCALAPACK"> T  </i>
   <i type="logical" name="LSCAAWARE"> F  </i>
   <i type="logical" name="LSCALU"> F  </i>
   <i type="logical" name="LASYNC"> F  </i>
   <i type="logical" name="LORBITALREAL"> F  </i>
  </separator>
  <separator name="miscellaneous" >
   <i type="int" name="IDIOT">     3</i>
   <i type="int" name="ISPECIAL">     0</i>
   <i type="logical" name="LMUSIC"> F  </i>
   <v name="POMASS">    131.29400000</v>
   <v name="DARWINR">      0.00000000</v>
   <v name="DARWINV">      1.00000000</v>
   <i type="logical" name="LCORR"> T  </i>
  </separator>
  <i type="logical" name="GGA_COMPAT"> T  </i>
  <i type="logical" name="LBERRY"> F  </i>
  <i type="int" name="ICORELEVEL">     0</i>
  <i type="logical" name="LDAU"> F  </i>
  <i type="int" name="I_CONSTRAINED_M">     0</i>
  <separator name="electronic exchange-correlation" >
   <i type="string" name="GGA">--</i>
   <i type="int" name="VOSKOWN">     0</i>
   <i type="logical" name="LHFCALC"> F  </i>
   <i type="string" name="PRECFOCK"></i>
   <i type="logical" name="LSYMGRAD"> F  </i>
   <i type="logical" name="LHFONE"> F  </i>
   <i type="logical" name="LRHFCALC"> F  </i>
   <i type="logical" name="LTHOMAS"> F  </i>
   <i type="logical" name="LMODELHF"> F  </i>
   <i name="ENCUT4O">     -1.00000000</i>
   <i type="int" name="EXXOEP">     0</i>
   <i type="int" name="FOURORBIT">     0</i>
   <i name="AEXX">      0.00000000</i>
   <i name="HFALPHA">      0.00000000</i>
   <i name="MCALPHA">      0.00000000</i>
   <i name="ALDAX">      1.00000000</i>
   <i name="AGGAX">      1.00000000</i>
   <i name="ALDAC">      1.00000000</i>
   <i name="AGGAC">      1.00000000</i>
   <i type="int" name="NKREDX">     1</i>
   <i type="int" name="NKREDY">     1</i>
   <i type="int" name="NKREDZ">     1</i>
   <i type="logical" name="SHIFTRED"> F  </i>
   <i type="logical" name="ODDONLY"> F  </i>
   <i type="logical" name="EVENONLY"> F  </i>
   <i type="int" name="LMAXFOCK">     0</i>
   <i type="int" name="NMAXFOCKAE">     0</i>
   <i type="logical" name="LFOCKAEDFT"> F  </i>
   <i name="HFSCREEN">      0.00000000</i>
   <i name="HFSCREENC">      0.00000000</i>
   <i type="int" name="NBANDSGWLOW">     0</i>
  </separator>
  <separator name="vdW DFT" >
   <i type="logical" name="LUSE_VDW"> F  </i>
   <i name="Zab_VDW">     -0.84910000</i>
   <i name="PARAM1">      0.12340000</i>
   <i name="PARAM2">      1.00000000</i>
   <i name="PARAM3">      0.00000000</i>
  </separator>
  <separator name="model GW" >
   <i type="int" name="MODEL_GW">     0</i>
   <i name="MODEL_EPS0">     41.05956869</i>
   <i name="MODEL_ALPHA">      1.00000000</i>
  </separator>
  <separator name="linear response parameters" >
   <i type="logical" name="LEPSILON"> T  </i>
   <i type="logical" name="LRPA"> F  </i>
   <i type="logical" name="LNABLA"> F  </i>
   <i type="logical" name="LVEL"> F  </i>
   <i type="int" name="KINTER">     0</i>
   <i name="CSHIFT">      0.10000000</i>
   <i name="OMEGAMAX">     -1.00000000</i>
   <i name="DEG_THRESHOLD">      0.00200000</i>
   <i name="RTIME">     -0.10000000</i>
   <i name="WPLASMAI">      0.00000000</i>
   <v name="DFIELD">      0.00000000      0.00000000      0.00000000</v>
   <v name="WPLASMA">      0.00000000      0.00000000      0.00000000      0.00000000      0.00000000      0.00000000      0.00000000      0.00000000      0.00000000</v>
  </separator>
  <separator name="orbital magnetization" >
   <i type="logical" name="NUCIND"> F  </i>
   <v name="MAGPOS">      0.00000000      0.00000000      0.00000000</v>
   <i type="logical" name="LNICSALL"> T  </i>
   <i type="logical" name="ORBITALMAG"> F  </i>
   <i type="logical" name="LMAGBLOCH"> F  </i>
   <i type="logical" name="LCHIMAG"> F  </i>
   <i type="logical" name="LGAUGE"> T  </i>
   <i type="int" name="MAGATOM">     0</i>
   <v name="MAGDIPOL">      0.00000000      0.00000000      0.00000000</v>
   <v name="AVECCONST">      0.00000000      0.00000000      0.00000000</v>
  </separator>
  <separator name="response functions" >
   <i type="logical" name="LADDER"> F  </i>
   <i type="logical" name="LRPAFORCE"> F  </i>
   <i type="logical" name="LFXC"> F  </i>
   <i type="logical" name="LHARTREE"> T  </i>
   <i type="int" name="IBSE">     0</i>
   <v type="int" name="KPOINT">    -1     0     0     0</v>
   <i type="logical" name="LTCTE"> F  </i>
   <i type="logical" name="LTETE"> F  </i>
   <i type="logical" name="LTRIPLET"> F  </i>
   <i type="logical" name="LFXCEPS"> F  </i>
   <i type="logical" name="LFXHEG"> F  </i>
   <i type="int" name="NATURALO">     2</i>
   <i type="logical" name="L2ORDER"> F  </i>
   <i type="logical" name="LMP2LT"> F  </i>
   <i type="logical" name="LUSEW"> F  </i>
   <i name="ENCUTGW">     -2.00000000</i>
   <i name="ENCUTGWSOFT">     -2.00000000</i>
   <i name="ENCUTLF">     -1.00000000</i>
   <i type="int" name="LMAXMP2">    -1</i>
   <i name="SCISSOR">      0.00000000</i>
   <i type="int" name="NOMEGA">     0</i>
   <i type="int" name="NOMEGAR">     0</i>
   <i type="int" name="NBANDSGW">    -1</i>
   <i type="int" name="NBANDSO">    -1</i>
   <i type="int" name="NBANDSV">    -1</i>
   <i type="int" name="NELM">   100</i>
   <i type="int" name="NELMHF">     1</i>
   <i type="int" name="DIM">     3</i>
   <i type="int" name="ANTIRES">     0</i>
   <i name="OMEGAMAX">    -30.00000000</i>
   <i name="OMEGAMIN">    -30.00000000</i>
   <i name="OMEGATL">   -200.00000000</i>
   <i type="int" name="OMEGAGRID">   140</i>
   <i name="CSHIFT">     -0.10000000</i>
   <i type="logical" name="SELFENERGY"> F  </i>
   <i type="logical" name="LSPECTRAL"> F  </i>
   <i type="logical" name="LSPECTRALGW"> F  </i>
   <i type="logical" name="LSINGLES"> F  </i>
   <i type="logical" name="LFERMIGW"> F  </i>
   <i type="logical" name="ODDONLYGW"> F  </i>
   <i type="logical" name="EVENONLYGW"> F  </i>
   <i type="int" name="NKREDLFX">     1</i>
   <i type="int" name="NKREDLFY">     1</i>
   <i type="int" name="NKREDLFZ">     1</i>
   <i type="int" name="MAXMEM">  2800</i>
   <i type="int" name="TELESCOPE">     0</i>
   <i type="int" name="TAUPAR">     1</i>
   <i type="int" name="OMEGAPAR">    -1</i>
   <i name="LAMBDA">      1.00000000</i>
  </separator>
  <separator name="External order field" >
   <i name="OFIELD_KAPPA">      0.00000000</i>
   <v name="OFIELD_K">      0.00000000      0.00000000      0.00000000</v>
   <i name="OFIELD_Q6_NEAR">      0.00000000</i>
   <i name="OFIELD_Q6_FAR">      0.00000000</i>
   <i name="OFIELD_A">      0.00000000</i>
  </separator>
 </parameters>
 <atominfo>
  <atoms>       1 </atoms>
  <types>       1 </types>
  <array name="atoms" >
   <dimension dim="1">ion</dimension>
   <field type="string">element</field>
   <field type="int">atomtype</field>
   <set>
    <rc><c>Xe</c><c>   1</c></rc>
   </set>
  </array>
  <array name="atomtypes" >
   <dimension dim="1">type</dimension>
   <field type="int">atomspertype</field>
   <field type="string">element</field>
   <field>mass</field>
   <field>valence</field>
   <field type="string">pseudopotential</field>
   <set>
    <rc><c>   1</c><c>Xe</c><c>    131.29400000</c><c>      8.00000000</c><c>  PAW_PBE Xe 07Sep2000                  </c></rc>
   </set>
  </array>
 </atominfo>
 <structure name="initialpos" >
  <crystal>
   <varray name="basis" >
    <v>      -3.24646740       0.00000000       3.24646740 </v>
    <v>       0.00000000       3.24646740       3.24646740 </v>
    <v>      -3.24646740       3.24646740       0.00000000 </v>
   </varray>
   <i name="volume">     68.43261448 </i>
   <varray name="rec_basis" >
    <v>      -0.15401356      -0.15401356       0.15401356 </v>
    <v>       0.15401356       0.15401356       0.15401356 </v>
    <v>      -0.15401356       0.15401356      -0.15401356 </v>
   </varray>
  </crystal>
  <varray name="positions" >
   <v>       0.00000000       0.00000000       0.00000000 </v>
  </varray>
 </structure>
 <calculation>
  <scstep>
   <time name="dav">    0.45    0.45</time>
   <time name="total">    0.49    0.50</time>
   <energy>
    <i name="alphaZ">     35.00687294 </i>
    <i name="ewald">   -325.38032264 </i>
    <i name="hartreedc">    -75.51404954 </i>
    <i name="XCdc">    -23.71404085 </i>
    <i name="pawpsdc">    379.96477650 </i>
    <i name="pawaedc">   -340.65282128 </i>
    <i name="eentropy">     -0.00004212 </i>
    <i name="bandstr">    -41.21779129 </i>
    <i name="atom">    429.51503049 </i>
    <i name="e_fr_energy">     38.00761221 </i>
    <i name="e_wo_entrp">     38.00765433 </i>
    <i name="e_0_energy">     38.00763327 </i>
   </energy>
  </scstep>
  <scstep>
   <time name="dav">    0.52    0.52</time>
   <time name="total">    0.52    0.52</time>
   <energy>
    <i name="e_fr_energy">      2.37636306 </i>
    <i name="e_wo_entrp">      2.37636306 </i>
    <i name="e_0_energy">      2.37636306 </i>
   </energy>
  </scstep>
  <scstep>
   <time name="dav">    0.51    0.51</time>
   <time name="total">    0.51    0.51</time>
   <energy>
    <i name="e_fr_energy">     -0.00352383 </i>
    <i name="e_wo_entrp">     -0.00352383 </i>
    <i name="e_0_energy">     -0.00352383 </i>
   </energy>
  </scstep>
  <scstep>
   <time name="dav">    0.60    0.60</time>
   <time name="total">    0.60    0.60</time>
   <energy>
    <i name="e_fr_energy">     -0.02611920 </i>
    <i name="e_wo_entrp">     -0.02611920 </i>
    <i name="e_0_energy">     -0.02611920 </i>
   </energy>
  </scstep>
  <scstep>
   <time name="dav">    0.51    0.52</time>
   <time name="total">    0.59    0.59</time>
   <energy>
    <i name="e_fr_energy">     -0.02624002 </i>
    <i name="e_wo_entrp">     -0.02624002 </i>
    <i name="e_0_energy">     -0.02624002 </i>
   </energy>
  </scstep>
  <scstep>
   <time name="dav">    0.60    0.60</time>
   <time name="total">    0.69    0.69</time>
   <energy>
    <i name="e_fr_energy">     -0.02626258 </i>
    <i name="e_wo_entrp">     -0.02626258 </i>
    <i name="e_0_energy">     -0.02626258 </i>
   </energy>
  </scstep>
  <scstep>
   <time name="dav">    0.49    0.49</time>
   <time name="total">    0.58    0.58</time>
   <energy>
    <i name="e_fr_energy">     -0.02627280 </i>
    <i name="e_wo_entrp">     -0.02627280 </i>
    <i name="e_0_energy">     -0.02627280 </i>
   </energy>
  </scstep>
  <scstep>
   <time name="dav">    0.54    0.54</time>
   <time name="total">    0.63    0.63</time>
   <energy>
    <i name="e_fr_energy">     -0.02627276 </i>
    <i name="e_wo_entrp">     -0.02627276 </i>
    <i name="e_0_energy">     -0.02627276 </i>
   </energy>
  </scstep>
  <scstep>
   <time name="dav">    0.60    0.60</time>
   <time name="total">    0.69    0.69</time>
   <energy>
    <i name="e_fr_energy">     -0.02627283 </i>
    <i name="e_wo_entrp">     -0.02627283 </i>
    <i name="e_0_energy">     -0.02627283 </i>
   </energy>
  </scstep>
  <scstep>
   <time name="dav">    0.49    0.49</time>
   <time name="total">    0.59    0.59</time>
   <energy>
    <i name="e_fr_energy">     -0.02627299 </i>
    <i name="e_wo_entrp">     -0.02627299 </i>
    <i name="e_0_energy">     -0.02627299 </i>
   </energy>
  </scstep>
  <scstep>
   <time name="dav">    0.40    0.40</time>
   <time name="total">    0.42    0.42</time>
   <energy>
    <i name="alphaZ">     35.00687294 </i>
    <i name="ewald">   -325.38032264 </i>
    <i name="hartreedc">    -75.53515269 </i>
    <i name="XCdc">    -23.71500576 </i>
    <i name="pawpsdc">    379.70496328 </i>
    <i name="pawaedc">   -340.39361330 </i>
    <i name="eentropy">     -0.00000000 </i>
    <i name="bandstr">    -79.22904531 </i>
    <i name="atom">    429.51503049 </i>
    <i name="e_fr_energy">     -0.02627298 </i>
    <i name="e_wo_entrp">     -0.02627298 </i>
    <i name="e_0_energy">     -0.02627298 </i>
   </energy>
  </scstep>
  <structure>
   <crystal>
    <varray name="basis" >
     <v>      -3.24646740       0.00000000       3.24646740 </v>
     <v>       0.00000000       3.24646740       3.24646740 </v>
     <v>      -3.24646740       3.24646740       0.00000000 </v>
    </varray>
    <i name="volume">     68.43261448 </i>
    <varray name="rec_basis" >
     <v>      -0.15401356      -0.15401356       0.15401356 </v>
     <v>       0.15401356       0.15401356       0.15401356 </v>
     <v>      -0.15401356       0.15401356      -0.15401356 </v>
    </varray>
   </crystal>
   <varray name="positions" >
    <v>       0.00000000       0.00000000       0.00000000 </v>
   </varray>
  </structure>
  <varray name="forces" >
   <v>      -0.00000000      -0.00000000      -0.00000000 </v>
  </varray>
  <varray name="stress" >
   <v>       3.16595794      -0.00000000       0.00000000 </v>
   <v>      -0.00000000       3.16595794      -0.00000000 </v>
   <v>      -0.00000000      -0.00000000       3.16595794 </v>
  </varray>
  <energy>
   <i name="e_fr_energy">     -0.02627298 </i>
   <i name="e_wo_entrp">     -0.02627298 </i>
   <i name="e_0_energy">     -0.00000000 </i>
  </energy>
  <scstep>
   <time name="total">    0.70    0.70</time>
   <energy>
    <i name="e_fr_energy">     -0.13837610 </i>
    <i name="e_wo_entrp">     -0.13837610 </i>
    <i name="e_0_energy">     -0.13837610 </i>
   </energy>
  </scstep>
  <scstep>
   <time name="total">    0.76    0.76</time>
   <energy>
    <i name="e_fr_energy">     -0.27576733 </i>
    <i name="e_wo_entrp">     -0.27576733 </i>
    <i name="e_0_energy">     -0.27576733 </i>
   </energy>
  </scstep>
  <scstep>
   <time name="total">    0.75    0.75</time>
   <energy>
    <i name="e_fr_energy">     -0.27582759 </i>
    <i name="e_wo_entrp">     -0.27582759 </i>
    <i name="e_0_energy">     -0.27582759 </i>
   </energy>
  </scstep>
  <scstep>
   <time name="total">    0.76    0.76</time>
   <energy>
    <i name="e_fr_energy">     -0.27582883 </i>
    <i name="e_wo_entrp">     -0.27582883 </i>
    <i name="e_0_energy">     -0.27582883 </i>
   </energy>
  </scstep>
  <scstep>
   <time name="total">    0.73    0.73</time>
   <energy>
    <i name="e_fr_energy">     -0.27582884 </i>
    <i name="e_wo_entrp">     -0.27582884 </i>
    <i name="e_0_energy">     -0.27582884 </i>
   </energy>
  </scstep>
  <scstep>
   <time name="total">    0.68    0.68</time>
   <energy>
    <i name="e_fr_energy">     -0.13382687 </i>
    <i name="e_wo_entrp">     -0.13382687 </i>
    <i name="e_0_energy">     -0.13382687 </i>
   </energy>
  </scstep>
  <scstep>
   <time name="total">    0.76    0.76</time>
   <energy>
    <i name="e_fr_energy">     -0.26795487 </i>
    <i name="e_wo_entrp">     -0.26795487 </i>
    <i name="e_0_energy">     -0.26795487 </i>
   </energy>
  </scstep>
  <scstep>
   <time name="total">    0.74    0.74</time>
   <energy>
    <i name="e_fr_energy">     -0.26803357 </i>
    <i name="e_wo_entrp">     -0.26803357 </i>
    <i name="e_0_energy">     -0.26803357 </i>
   </energy>
  </scstep>
  <scstep>
   <time name="total">    0.76    0.76</time>
   <energy>
    <i name="e_fr_energy">     -0.26803447 </i>
    <i name="e_wo_entrp">     -0.26803447 </i>
    <i name="e_0_energy">     -0.26803447 </i>
   </energy>
  </scstep>
  <scstep>
   <time name="total">    0.68    0.68</time>
   <energy>
    <i name="e_fr_energy">     -0.26803448 </i>
    <i name="e_wo_entrp">     -0.26803448 </i>
    <i name="e_0_energy">     -0.26803448 </i>
   </energy>
  </scstep>
  <scstep>
   <time name="total">    0.63    0.63</time>
   <energy>
    <i name="e_fr_energy">     -0.12304139 </i>
    <i name="e_wo_entrp">     -0.12304139 </i>
    <i name="e_0_energy">     -0.12304139 </i>
   </energy>
  </scstep>
  <scstep>
   <time name="total">    0.76    0.76</time>
   <energy>
    <i name="e_fr_energy">     -0.21753555 </i>
    <i name="e_wo_entrp">     -0.21753555 </i>
    <i name="e_0_energy">     -0.21753555 </i>
   </energy>
  </scstep>
  <scstep>
   <time name="total">    0.74    0.74</time>
   <energy>
    <i name="e_fr_energy">     -0.21759670 </i>
    <i name="e_wo_entrp">     -0.21759670 </i>
    <i name="e_0_energy">     -0.21759670 </i>
   </energy>
  </scstep>
  <scstep>
   <time name="total">    0.74    0.74</time>
   <energy>
    <i name="e_fr_energy">     -0.21759724 </i>
    <i name="e_wo_entrp">     -0.21759724 </i>
    <i name="e_0_energy">     -0.21759724 </i>
   </energy>
  </scstep>
  <scstep>
   <time name="total">    0.62    0.62</time>
   <energy>
    <i name="e_fr_energy">     -0.21759725 </i>
    <i name="e_wo_entrp">     -0.21759725 </i>
    <i name="e_0_energy">     -0.21759725 </i>
   </energy>
  </scstep>
  <varray name="epsilon_rpa" >
   <v>       2.34232947      -0.00000000       0.00000000 </v>
   <v>      -0.00000000       2.34232947      -0.00000000 </v>
   <v>       0.00000000      -0.00000000       2.34232947 </v>
  </varray>
  <kpoints>
   <generation param="Gamma">
    <v type="int" name="divisions">      14       14       14 </v>
    <v name="usershift">      0.00000000       0.00000000       0.00000000 </v>
    <v name="genvec1">      0.07142857       0.00000000       0.00000000 </v>
    <v name="genvec2">      0.00000000       0.07142857      -0.00000000 </v>
    <v name="genvec3">     -0.00000000      -0.00000000       0.07142857 </v>
    <v name="shift">      0.00000000       0.00000000       0.00000000 </v>
   </generation>
   <varray name="kpointlist" >
    <v>       0.00000000       0.00000000       0.00000000 </v>
    <v>       0.07142857       0.00000000       0.00000000 </v>
    <v>       0.14285714       0.00000000       0.00000000 </v>
    <v>       0.21428571       0.00000000      -0.00000000 </v>
    <v>       0.28571429      -0.00000000      -0.00000000 </v>
    <v>       0.35714286      -0.00000000       0.00000000 </v>
    <v>       0.42857143       0.00000000      -0.00000000 </v>
    <v>       0.50000000       0.00000000       0.00000000 </v>
    <v>       0.07142857       0.07142857      -0.00000000 </v>
    <v>       0.14285714       0.07142857      -0.00000000 </v>
    <v>       0.21428571       0.07142857      -0.00000000 </v>
    <v>       0.28571429       0.07142857      -0.00000000 </v>
    <v>       0.35714286       0.07142857       0.00000000 </v>
    <v>       0.42857143       0.07142857       0.00000000 </v>
    <v>       0.50000000       0.07142857      -0.00000000 </v>
    <v>      -0.42857143       0.07142857      -0.00000000 </v>
    <v>      -0.35714286       0.07142857       0.00000000 </v>
    <v>      -0.28571429       0.07142857      -0.00000000 </v>
    <v>      -0.21428571       0.07142857       0.00000000 </v>
    <v>      -0.14285714       0.07142857      -0.00000000 </v>
    <v>      -0.07142857       0.07142857      -0.00000000 </v>
    <v>       0.14285714       0.14285714      -0.00000000 </v>
    <v>       0.21428571       0.14285714      -0.00000000 </v>
    <v>       0.28571429       0.14285714      -0.00000000 </v>
    <v>       0.35714286       0.14285714      -0.00000000 </v>
    <v>       0.42857143       0.14285714      -0.00000000 </v>
    <v>       0.50000000       0.14285714      -0.00000000 </v>
    <v>      -0.42857143       0.14285714       0.00000000 </v>
    <v>      -0.35714286       0.14285714      -0.00000000 </v>
    <v>      -0.28571429       0.14285714      -0.00000000 </v>
    <v>      -0.21428571       0.14285714      -0.00000000 </v>
    <v>      -0.14285714       0.14285714       0.00000000 </v>
    <v>       0.21428571       0.21428571      -0.00000000 </v>
    <v>       0.28571429       0.21428571      -0.00000000 </v>
    <v>       0.35714286       0.21428571      -0.00000000 </v>
    <v>       0.42857143       0.21428571      -0.00000000 </v>
    <v>       0.50000000       0.21428571       0.00000000 </v>
    <v>      -0.42857143       0.21428571      -0.00000000 </v>
    <v>      -0.35714286       0.21428571       0.00000000 </v>
    <v>      -0.28571429       0.21428571      -0.00000000 </v>
    <v>      -0.21428571       0.21428571      -0.00000000 </v>
    <v>       0.28571429       0.28571429      -0.00000000 </v>
    <v>       0.35714286       0.28571429       0.00000000 </v>
    <v>       0.42857143       0.28571429       0.00000000 </v>
    <v>       0.50000000       0.28571429      -0.00000000 </v>
    <v>      -0.42857143       0.28571429      -0.00000000 </v>
    <v>      -0.35714286       0.28571429       0.00000000 </v>
    <v>      -0.28571429       0.28571429       0.00000000 </v>
    <v>       0.35714286       0.35714286      -0.00000000 </v>
    <v>       0.42857143       0.35714286       0.00000000 </v>
    <v>       0.50000000       0.35714286      -0.00000000 </v>
    <v>      -0.42857143       0.35714286       0.00000000 </v>
    <v>      -0.35714286       0.35714286      -0.00000000 </v>
    <v>       0.42857143       0.42857143      -0.00000000 </v>
    <v>       0.50000000       0.42857143      -0.00000000 </v>
    <v>      -0.42857143       0.42857143      -0.00000000 </v>
    <v>       0.50000000       0.50000000      -0.00000000 </v>
    <v>       0.07142857       0.00000000       0.07142857 </v>
    <v>       0.14285714       0.00000000       0.07142857 </v>
    <v>       0.21428571       0.00000000       0.07142857 </v>
    <v>       0.28571429       0.00000000       0.07142857 </v>
    <v>       0.35714286       0.00000000       0.07142857 </v>
    <v>       0.42857143       0.00000000       0.07142857 </v>
    <v>       0.50000000       0.00000000       0.07142857 </v>
    <v>      -0.42857143      -0.00000000       0.07142857 </v>
    <v>      -0.35714286       0.00000000       0.07142857 </v>
    <v>      -0.28571429      -0.00000000       0.07142857 </v>
    <v>      -0.21428571       0.00000000       0.07142857 </v>
    <v>      -0.14285714      -0.00000000       0.07142857 </v>
    <v>      -0.07142857      -0.00000000       0.07142857 </v>
    <v>       0.21428571       0.14285714       0.07142857 </v>
    <v>       0.28571429       0.14285714       0.07142857 </v>
    <v>       0.35714286       0.14285714       0.07142857 </v>
    <v>       0.42857143       0.14285714       0.07142857 </v>
    <v>       0.50000000       0.14285714       0.07142857 </v>
    <v>      -0.42857143       0.14285714       0.07142857 </v>
    <v>       0.14285714       0.21428571       0.07142857 </v>
    <v>       0.28571429       0.21428571       0.07142857 </v>
    <v>       0.35714286       0.21428571       0.07142857 </v>
    <v>       0.42857143       0.21428571       0.07142857 </v>
    <v>       0.50000000       0.21428571       0.07142857 </v>
    <v>      -0.42857143       0.21428571       0.07142857 </v>
    <v>      -0.35714286       0.21428571       0.07142857 </v>
    <v>      -0.28571429       0.21428571       0.07142857 </v>
    <v>      -0.21428571       0.21428571       0.07142857 </v>
    <v>      -0.14285714       0.21428571       0.07142857 </v>
    <v>       0.14285714       0.28571429       0.07142857 </v>
    <v>       0.21428571       0.28571429       0.07142857 </v>
    <v>       0.35714286       0.28571429       0.07142857 </v>
    <v>       0.42857143       0.28571429       0.07142857 </v>
    <v>       0.50000000       0.28571429       0.07142857 </v>
    <v>      -0.42857143       0.28571429       0.07142857 </v>
    <v>      -0.35714286       0.28571429       0.07142857 </v>
    <v>      -0.28571429       0.28571429       0.07142857 </v>
    <v>      -0.21428571       0.28571429       0.07142857 </v>
    <v>       0.14285714       0.35714286       0.07142857 </v>
    <v>       0.21428571       0.35714286       0.07142857 </v>
    <v>       0.28571429       0.35714286       0.07142857 </v>
    <v>       0.42857143       0.35714286       0.07142857 </v>
    <v>       0.50000000       0.35714286       0.07142857 </v>
    <v>      -0.42857143       0.35714286       0.07142857 </v>
    <v>      -0.35714286       0.35714286       0.07142857 </v>
    <v>      -0.28571429       0.35714286       0.07142857 </v>
    <v>       0.14285714       0.42857143       0.07142857 </v>
    <v>       0.21428571       0.42857143       0.07142857 </v>
    <v>       0.28571429       0.42857143       0.07142857 </v>
    <v>       0.35714286       0.42857143       0.07142857 </v>
    <v>       0.50000000       0.42857143       0.07142857 </v>
    <v>      -0.42857143       0.42857143       0.07142857 </v>
    <v>      -0.35714286       0.42857143       0.07142857 </v>
    <v>       0.14285714       0.50000000       0.07142857 </v>
    <v>       0.21428571       0.50000000       0.07142857 </v>
    <v>       0.28571429       0.50000000       0.07142857 </v>
    <v>       0.35714286       0.50000000       0.07142857 </v>
    <v>       0.42857143       0.50000000       0.07142857 </v>
    <v>      -0.42857143       0.50000000       0.07142857 </v>
    <v>       0.14285714      -0.42857143       0.07142857 </v>
    <v>       0.21428571      -0.42857143       0.07142857 </v>
    <v>       0.28571429      -0.42857143       0.07142857 </v>
    <v>       0.35714286      -0.42857143       0.07142857 </v>
    <v>       0.42857143      -0.42857143       0.07142857 </v>
    <v>       0.50000000      -0.42857143       0.07142857 </v>
    <v>       0.14285714      -0.35714286       0.07142857 </v>
    <v>       0.21428571      -0.35714286       0.07142857 </v>
    <v>       0.28571429      -0.35714286       0.07142857 </v>
    <v>       0.35714286      -0.35714286       0.07142857 </v>
    <v>       0.42857143      -0.35714286       0.07142857 </v>
    <v>       0.14285714      -0.28571429       0.07142857 </v>
    <v>       0.21428571      -0.28571429       0.07142857 </v>
    <v>       0.28571429      -0.28571429       0.07142857 </v>
    <v>       0.35714286      -0.28571429       0.07142857 </v>
    <v>       0.14285714      -0.21428571       0.07142857 </v>
    <v>       0.21428571      -0.21428571       0.07142857 </v>
    <v>       0.28571429      -0.21428571       0.07142857 </v>
    <v>       0.14285714      -0.14285714       0.07142857 </v>
    <v>       0.21428571      -0.14285714       0.07142857 </v>
    <v>       0.14285714      -0.07142857       0.07142857 </v>
    <v>       0.14285714       0.00000000       0.14285714 </v>
    <v>       0.21428571       0.00000000       0.14285714 </v>
    <v>       0.28571429       0.00000000       0.14285714 </v>
    <v>       0.35714286       0.00000000       0.14285714 </v>
    <v>       0.42857143      -0.00000000       0.14285714 </v>
    <v>       0.50000000       0.00000000       0.14285714 </v>
    <v>      -0.42857143       0.00000000       0.14285714 </v>
    <v>      -0.35714286      -0.00000000       0.14285714 </v>
    <v>      -0.28571429      -0.00000000       0.14285714 </v>
    <v>      -0.21428571      -0.00000000       0.14285714 </v>
    <v>      -0.14285714       0.00000000       0.14285714 </v>
    <v>       0.42857143       0.28571429       0.14285714 </v>
    <v>       0.50000000       0.28571429       0.14285714 </v>
    <v>      -0.42857143       0.28571429       0.14285714 </v>
    <v>      -0.35714286       0.28571429       0.14285714 </v>
    <v>       0.21428571       0.35714286       0.14285714 </v>
    <v>       0.50000000       0.35714286       0.14285714 </v>
    <v>      -0.42857143       0.35714286       0.14285714 </v>
    <v>      -0.35714286       0.35714286       0.14285714 </v>
    <v>      -0.28571429       0.35714286       0.14285714 </v>
    <v>      -0.21428571       0.35714286       0.14285714 </v>
    <v>       0.21428571       0.42857143       0.14285714 </v>
    <v>       0.28571429       0.42857143       0.14285714 </v>
    <v>      -0.42857143       0.42857143       0.14285714 </v>
    <v>      -0.35714286       0.42857143       0.14285714 </v>
    <v>      -0.28571429       0.42857143       0.14285714 </v>
    <v>       0.21428571       0.50000000       0.14285714 </v>
    <v>       0.28571429       0.50000000       0.14285714 </v>
    <v>       0.35714286       0.50000000       0.14285714 </v>
    <v>      -0.35714286       0.50000000       0.14285714 </v>
    <v>       0.21428571      -0.42857143       0.14285714 </v>
    <v>       0.28571429      -0.42857143       0.14285714 </v>
    <v>       0.35714286      -0.42857143       0.14285714 </v>
    <v>       0.42857143      -0.42857143       0.14285714 </v>
    <v>       0.21428571      -0.35714286       0.14285714 </v>
    <v>       0.28571429      -0.35714286       0.14285714 </v>
    <v>       0.35714286      -0.35714286       0.14285714 </v>
    <v>       0.42857143      -0.35714286       0.14285714 </v>
    <v>       0.50000000      -0.35714286       0.14285714 </v>
    <v>       0.21428571      -0.28571429       0.14285714 </v>
    <v>       0.28571429      -0.28571429       0.14285714 </v>
    <v>       0.35714286      -0.28571429       0.14285714 </v>
    <v>       0.42857143      -0.28571429       0.14285714 </v>
    <v>       0.21428571      -0.21428571       0.14285714 </v>
    <v>       0.28571429      -0.21428571       0.14285714 </v>
    <v>       0.35714286      -0.21428571       0.14285714 </v>
    <v>       0.21428571      -0.14285714       0.14285714 </v>
    <v>       0.28571429      -0.14285714       0.14285714 </v>
    <v>       0.21428571      -0.07142857       0.14285714 </v>
    <v>       0.21428571      -0.00000000       0.21428571 </v>
    <v>       0.28571429      -0.00000000       0.21428571 </v>
    <v>       0.35714286       0.00000000       0.21428571 </v>
    <v>       0.42857143      -0.00000000       0.21428571 </v>
    <v>       0.50000000       0.00000000       0.21428571 </v>
    <v>      -0.42857143      -0.00000000       0.21428571 </v>
    <v>      -0.35714286       0.00000000       0.21428571 </v>
    <v>      -0.28571429      -0.00000000       0.21428571 </v>
    <v>      -0.21428571      -0.00000000       0.21428571 </v>
    <v>      -0.35714286       0.42857143       0.21428571 </v>
    <v>      -0.28571429       0.42857143       0.21428571 </v>
    <v>       0.28571429       0.50000000       0.21428571 </v>
    <v>      -0.28571429       0.50000000       0.21428571 </v>
    <v>       0.28571429      -0.42857143       0.21428571 </v>
    <v>       0.35714286      -0.42857143       0.21428571 </v>
    <v>       0.28571429      -0.35714286       0.21428571 </v>
    <v>       0.35714286      -0.35714286       0.21428571 </v>
    <v>       0.42857143      -0.35714286       0.21428571 </v>
    <v>       0.28571429      -0.28571429       0.21428571 </v>
    <v>       0.35714286      -0.28571429       0.21428571 </v>
    <v>       0.42857143      -0.28571429       0.21428571 </v>
    <v>       0.50000000      -0.28571429       0.21428571 </v>
    <v>       0.28571429      -0.21428571       0.21428571 </v>
    <v>       0.35714286      -0.21428571       0.21428571 </v>
    <v>       0.42857143      -0.21428571       0.21428571 </v>
    <v>       0.28571429      -0.14285714       0.21428571 </v>
    <v>       0.35714286      -0.14285714       0.21428571 </v>
    <v>       0.28571429      -0.07142857       0.21428571 </v>
    <v>       0.28571429      -0.00000000       0.28571429 </v>
    <v>       0.35714286      -0.00000000       0.28571429 </v>
    <v>       0.42857143       0.00000000       0.28571429 </v>
    <v>       0.50000000       0.00000000       0.28571429 </v>
    <v>      -0.42857143      -0.00000000       0.28571429 </v>
    <v>      -0.35714286      -0.00000000       0.28571429 </v>
    <v>      -0.28571429       0.00000000       0.28571429 </v>
    <v>       0.35714286      -0.35714286       0.28571429 </v>
    <v>       0.35714286      -0.28571429       0.28571429 </v>
    <v>       0.42857143      -0.28571429       0.28571429 </v>
    <v>       0.35714286      -0.21428571       0.28571429 </v>
    <v>       0.42857143      -0.21428571       0.28571429 </v>
    <v>       0.50000000      -0.21428571       0.28571429 </v>
    <v>       0.35714286      -0.14285714       0.28571429 </v>
    <v>       0.42857143      -0.14285714       0.28571429 </v>
    <v>       0.35714286      -0.07142857       0.28571429 </v>
    <v>       0.35714286       0.00000000       0.35714286 </v>
    <v>       0.42857143      -0.00000000       0.35714286 </v>
    <v>       0.50000000      -0.00000000       0.35714286 </v>
    <v>      -0.42857143       0.00000000       0.35714286 </v>
    <v>      -0.35714286      -0.00000000       0.35714286 </v>
    <v>       0.42857143      -0.21428571       0.35714286 </v>
    <v>       0.42857143      -0.14285714       0.35714286 </v>
    <v>       0.50000000      -0.14285714       0.35714286 </v>
    <v>       0.42857143      -0.07142857       0.35714286 </v>
    <v>       0.42857143      -0.00000000       0.42857143 </v>
    <v>       0.50000000      -0.00000000       0.42857143 </v>
    <v>      -0.42857143      -0.00000000       0.42857143 </v>
    <v>       0.50000000      -0.07142857       0.42857143 </v>
    <v>       0.50000000       0.00000000       0.50000000 </v>
   </varray>
   <varray name="weights" >
    <v>       0.00036443 </v>
    <v>       0.00291545 </v>
    <v>       0.00291545 </v>
    <v>       0.00291545 </v>
    <v>       0.00291545 </v>
    <v>       0.00291545 </v>
    <v>       0.00291545 </v>
    <v>       0.00145773 </v>
    <v>       0.00145773 </v>
    <v>       0.00583090 </v>
    <v>       0.00583090 </v>
    <v>       0.00583090 </v>
    <v>       0.00583090 </v>
    <v>       0.00583090 </v>
    <v>       0.00583090 </v>
    <v>       0.00583090 </v>
    <v>       0.00583090 </v>
    <v>       0.00583090 </v>
    <v>       0.00583090 </v>
    <v>       0.00583090 </v>
    <v>       0.00291545 </v>
    <v>       0.00145773 </v>
    <v>       0.00583090 </v>
    <v>       0.00583090 </v>
    <v>       0.00583090 </v>
    <v>       0.00583090 </v>
    <v>       0.00583090 </v>
    <v>       0.00583090 </v>
    <v>       0.00583090 </v>
    <v>       0.00583090 </v>
    <v>       0.00583090 </v>
    <v>       0.00291545 </v>
    <v>       0.00145773 </v>
    <v>       0.00583090 </v>
    <v>       0.00583090 </v>
    <v>       0.00583090 </v>
    <v>       0.00583090 </v>
    <v>       0.00583090 </v>
    <v>       0.00583090 </v>
    <v>       0.00583090 </v>
    <v>       0.00291545 </v>
    <v>       0.00145773 </v>
    <v>       0.00583090 </v>
    <v>       0.00583090 </v>
    <v>       0.00583090 </v>
    <v>       0.00583090 </v>
    <v>       0.00583090 </v>
    <v>       0.00291545 </v>
    <v>       0.00145773 </v>
    <v>       0.00583090 </v>
    <v>       0.00583090 </v>
    <v>       0.00583090 </v>
    <v>       0.00291545 </v>
    <v>       0.00145773 </v>
    <v>       0.00583090 </v>
    <v>       0.00291545 </v>
    <v>       0.00072886 </v>
    <v>       0.00072886 </v>
    <v>       0.00291545 </v>
    <v>       0.00291545 </v>
    <v>       0.00291545 </v>
    <v>       0.00291545 </v>
    <v>       0.00291545 </v>
    <v>       0.00291545 </v>
    <v>       0.00291545 </v>
    <v>       0.00291545 </v>
    <v>       0.00291545 </v>
    <v>       0.00291545 </v>
    <v>       0.00291545 </v>
    <v>       0.00145773 </v>
    <v>       0.00291545 </v>
    <v>       0.00583090 </v>
    <v>       0.00583090 </v>
    <v>       0.00583090 </v>
    <v>       0.00583090 </v>
    <v>       0.00291545 </v>
    <v>       0.00291545 </v>
    <v>       0.00291545 </v>
    <v>       0.00583090 </v>
    <v>       0.00583090 </v>
    <v>       0.00583090 </v>
    <v>       0.00583090 </v>
    <v>       0.00583090 </v>
    <v>       0.00583090 </v>
    <v>       0.00583090 </v>
    <v>       0.00291545 </v>
    <v>       0.00583090 </v>
    <v>       0.00291545 </v>
    <v>       0.00291545 </v>
    <v>       0.00583090 </v>
    <v>       0.00583090 </v>
    <v>       0.00583090 </v>
    <v>       0.00583090 </v>
    <v>       0.00583090 </v>
    <v>       0.00291545 </v>
    <v>       0.00583090 </v>
    <v>       0.00583090 </v>
    <v>       0.00291545 </v>
    <v>       0.00291545 </v>
    <v>       0.00583090 </v>
    <v>       0.00583090 </v>
    <v>       0.00583090 </v>
    <v>       0.00291545 </v>
    <v>       0.00583090 </v>
    <v>       0.00583090 </v>
    <v>       0.00583090 </v>
    <v>       0.00291545 </v>
    <v>       0.00291545 </v>
    <v>       0.00583090 </v>
    <v>       0.00291545 </v>
    <v>       0.00583090 </v>
    <v>       0.00583090 </v>
    <v>       0.00583090 </v>
    <v>       0.00583090 </v>
    <v>       0.00291545 </v>
    <v>       0.00145773 </v>
    <v>       0.00583090 </v>
    <v>       0.00583090 </v>
    <v>       0.00583090 </v>
    <v>       0.00583090 </v>
    <v>       0.00583090 </v>
    <v>       0.00145773 </v>
    <v>       0.00583090 </v>
    <v>       0.00583090 </v>
    <v>       0.00583090 </v>
    <v>       0.00583090 </v>
    <v>       0.00291545 </v>
    <v>       0.00583090 </v>
    <v>       0.00583090 </v>
    <v>       0.00583090 </v>
    <v>       0.00291545 </v>
    <v>       0.00583090 </v>
    <v>       0.00583090 </v>
    <v>       0.00291545 </v>
    <v>       0.00583090 </v>
    <v>       0.00291545 </v>
    <v>       0.00291545 </v>
    <v>       0.00072886 </v>
    <v>       0.00291545 </v>
    <v>       0.00291545 </v>
    <v>       0.00291545 </v>
    <v>       0.00291545 </v>
    <v>       0.00291545 </v>
    <v>       0.00291545 </v>
    <v>       0.00291545 </v>
    <v>       0.00291545 </v>
    <v>       0.00291545 </v>
    <v>       0.00145773 </v>
    <v>       0.00291545 </v>
    <v>       0.00583090 </v>
    <v>       0.00583090 </v>
    <v>       0.00291545 </v>
    <v>       0.00291545 </v>
    <v>       0.00291545 </v>
    <v>       0.00583090 </v>
    <v>       0.00583090 </v>
    <v>       0.00583090 </v>
    <v>       0.00291545 </v>
    <v>       0.00583090 </v>
    <v>       0.00291545 </v>
    <v>       0.00291545 </v>
    <v>       0.00583090 </v>
    <v>       0.00291545 </v>
    <v>       0.00583090 </v>
    <v>       0.00583090 </v>
    <v>       0.00291545 </v>
    <v>       0.00145773 </v>
    <v>       0.00583090 </v>
    <v>       0.00583090 </v>
    <v>       0.00583090 </v>
    <v>       0.00291545 </v>
    <v>       0.00583090 </v>
    <v>       0.00583090 </v>
    <v>       0.00583090 </v>
    <v>       0.00583090 </v>
    <v>       0.00145773 </v>
    <v>       0.00583090 </v>
    <v>       0.00583090 </v>
    <v>       0.00583090 </v>
    <v>       0.00291545 </v>
    <v>       0.00583090 </v>
    <v>       0.00583090 </v>
    <v>       0.00291545 </v>
    <v>       0.00583090 </v>
    <v>       0.00291545 </v>
    <v>       0.00291545 </v>
    <v>       0.00072886 </v>
    <v>       0.00291545 </v>
    <v>       0.00291545 </v>
    <v>       0.00291545 </v>
    <v>       0.00291545 </v>
    <v>       0.00291545 </v>
    <v>       0.00291545 </v>
    <v>       0.00291545 </v>
    <v>       0.00145773 </v>
    <v>       0.00291545 </v>
    <v>       0.00291545 </v>
    <v>       0.00291545 </v>
    <v>       0.00145773 </v>
    <v>       0.00583090 </v>
    <v>       0.00291545 </v>
    <v>       0.00583090 </v>
    <v>       0.00583090 </v>
    <v>       0.00291545 </v>
    <v>       0.00583090 </v>
    <v>       0.00583090 </v>
    <v>       0.00583090 </v>
    <v>       0.00145773 </v>
    <v>       0.00583090 </v>
    <v>       0.00583090 </v>
    <v>       0.00291545 </v>
    <v>       0.00583090 </v>
    <v>       0.00291545 </v>
    <v>       0.00291545 </v>
    <v>       0.00072886 </v>
    <v>       0.00291545 </v>
    <v>       0.00291545 </v>
    <v>       0.00291545 </v>
    <v>       0.00291545 </v>
    <v>       0.00291545 </v>
    <v>       0.00145773 </v>
    <v>       0.00291545 </v>
    <v>       0.00583090 </v>
    <v>       0.00291545 </v>
    <v>       0.00583090 </v>
    <v>       0.00583090 </v>
    <v>       0.00145773 </v>
    <v>       0.00583090 </v>
    <v>       0.00291545 </v>
    <v>       0.00291545 </v>
    <v>       0.00072886 </v>
    <v>       0.00291545 </v>
    <v>       0.00291545 </v>
    <v>       0.00291545 </v>
    <v>       0.00145773 </v>
    <v>       0.00291545 </v>
    <v>       0.00583090 </v>
    <v>       0.00145773 </v>
    <v>       0.00291545 </v>
    <v>       0.00072886 </v>
    <v>       0.00291545 </v>
    <v>       0.00145773 </v>
    <v>       0.00145773 </v>
    <v>       0.00036443 </v>
   </varray>
  </kpoints>
  <scstep>
   <time name="total">    1.50    1.50</time>
   <energy>
    <i name="e_fr_energy">     -0.13151382 </i>
    <i name="e_wo_entrp">     -0.13151382 </i>
    <i name="e_0_energy">     -0.13151382 </i>
   </energy>
  </scstep>
  <scstep>
   <time name="total">    2.00    2.00</time>
   <energy>
    <i name="e_fr_energy">     -0.25375260 </i>
    <i name="e_wo_entrp">     -0.25375260 </i>
    <i name="e_0_energy">     -0.25375260 </i>
   </energy>
  </scstep>
  <scstep>
   <time name="total">    1.97    1.97</time>
   <energy>
    <i name="e_fr_energy">     -0.21137494 </i>
    <i name="e_wo_entrp">     -0.21137494 </i>
    <i name="e_0_energy">     -0.21137494 </i>
   </energy>
  </scstep>
  <scstep>
   <time name="total">    2.56    2.56</time>
   <energy>
    <i name="e_fr_energy">     -0.21758385 </i>
    <i name="e_wo_entrp">     -0.21758385 </i>
    <i name="e_0_energy">     -0.21758385 </i>
   </energy>
  </scstep>
  <scstep>
   <time name="total">    2.09    2.09</time>
   <energy>
    <i name="e_fr_energy">     -0.23106320 </i>
    <i name="e_wo_entrp">     -0.23106320 </i>
    <i name="e_0_energy">     -0.23106320 </i>
   </energy>
  </scstep>
  <scstep>
   <time name="total">    2.29    2.29</time>
   <energy>
    <i name="e_fr_energy">     -0.23072155 </i>
    <i name="e_wo_entrp">     -0.23072155 </i>
    <i name="e_0_energy">     -0.23072155 </i>
   </energy>
  </scstep>
  <scstep>
   <time name="total">    2.16    2.16</time>
   <energy>
    <i name="e_fr_energy">     -0.23123332 </i>
    <i name="e_wo_entrp">     -0.23123332 </i>
    <i name="e_0_energy">     -0.23123332 </i>
   </energy>
  </scstep>
  <scstep>
   <time name="total">    2.40    2.40</time>
   <energy>
    <i name="e_fr_energy">     -0.23127884 </i>
    <i name="e_wo_entrp">     -0.23127884 </i>
    <i name="e_0_energy">     -0.23127884 </i>
   </energy>
  </scstep>
  <scstep>
   <time name="total">    2.39    2.39</time>
   <energy>
    <i name="e_fr_energy">     -0.23125640 </i>
    <i name="e_wo_entrp">     -0.23125640 </i>
    <i name="e_0_energy">     -0.23125640 </i>
   </energy>
  </scstep>
  <scstep>
   <time name="total">    2.50    2.50</time>
   <energy>
    <i name="e_fr_energy">     -0.23125036 </i>
    <i name="e_wo_entrp">     -0.23125036 </i>
    <i name="e_0_energy">     -0.23125036 </i>
   </energy>
  </scstep>
  <scstep>
   <time name="total">    2.46    2.46</time>
   <energy>
    <i name="e_fr_energy">     -0.23125125 </i>
    <i name="e_wo_entrp">     -0.23125125 </i>
    <i name="e_0_energy">     -0.23125125 </i>
   </energy>
  </scstep>
  <kpoints>
   <generation param="Gamma">
    <v type="int" name="divisions">      14       14       14 </v>
    <v name="usershift">      0.00000000       0.00000000       0.00000000 </v>
    <v name="genvec1">      0.07142857       0.00000000       0.00000000 </v>
    <v name="genvec2">      0.00000000       0.07142857      -0.00000000 </v>
    <v name="genvec3">     -0.00000000      -0.00000000       0.07142857 </v>
    <v name="shift">      0.00000000       0.00000000       0.00000000 </v>
   </generation>
   <varray name="kpointlist" >
    <v>       0.00000000       0.00000000       0.00000000 </v>
    <v>       0.07142857       0.00000000       0.00000000 </v>
    <v>       0.14285714       0.00000000       0.00000000 </v>
    <v>       0.21428571       0.00000000      -0.00000000 </v>
    <v>       0.28571429      -0.00000000      -0.00000000 </v>
    <v>       0.35714286      -0.00000000       0.00000000 </v>
    <v>       0.42857143       0.00000000      -0.00000000 </v>
    <v>       0.50000000       0.00000000       0.00000000 </v>
    <v>       0.07142857       0.07142857      -0.00000000 </v>
    <v>       0.14285714       0.07142857      -0.00000000 </v>
    <v>       0.21428571       0.07142857      -0.00000000 </v>
    <v>       0.28571429       0.07142857      -0.00000000 </v>
    <v>       0.35714286       0.07142857       0.00000000 </v>
    <v>       0.42857143       0.07142857       0.00000000 </v>
    <v>       0.50000000       0.07142857      -0.00000000 </v>
    <v>      -0.42857143       0.07142857      -0.00000000 </v>
    <v>      -0.35714286       0.07142857       0.00000000 </v>
    <v>      -0.28571429       0.07142857      -0.00000000 </v>
    <v>      -0.21428571       0.07142857       0.00000000 </v>
    <v>      -0.14285714       0.07142857      -0.00000000 </v>
    <v>      -0.07142857       0.07142857      -0.00000000 </v>
    <v>       0.14285714       0.14285714      -0.00000000 </v>
    <v>       0.21428571       0.14285714      -0.00000000 </v>
    <v>       0.28571429       0.14285714      -0.00000000 </v>
    <v>       0.35714286       0.14285714      -0.00000000 </v>
    <v>       0.42857143       0.14285714      -0.00000000 </v>
    <v>       0.50000000       0.14285714      -0.00000000 </v>
    <v>      -0.42857143       0.14285714       0.00000000 </v>
    <v>      -0.35714286       0.14285714      -0.00000000 </v>
    <v>      -0.28571429       0.14285714      -0.00000000 </v>
    <v>      -0.21428571       0.14285714      -0.00000000 </v>
    <v>      -0.14285714       0.14285714       0.00000000 </v>
    <v>       0.21428571       0.21428571      -0.00000000 </v>
    <v>       0.28571429       0.21428571      -0.00000000 </v>
    <v>       0.35714286       0.21428571      -0.00000000 </v>
    <v>       0.42857143       0.21428571      -0.00000000 </v>
    <v>       0.50000000       0.21428571       0.00000000 </v>
    <v>      -0.42857143       0.21428571      -0.00000000 </v>
    <v>      -0.35714286       0.21428571       0.00000000 </v>
    <v>      -0.28571429       0.21428571      -0.00000000 </v>
    <v>      -0.21428571       0.21428571      -0.00000000 </v>
    <v>       0.28571429       0.28571429      -0.00000000 </v>
    <v>       0.35714286       0.28571429       0.00000000 </v>
    <v>       0.42857143       0.28571429       0.00000000 </v>
    <v>       0.50000000       0.28571429      -0.00000000 </v>
    <v>      -0.42857143       0.28571429      -0.00000000 </v>
    <v>      -0.35714286       0.28571429       0.00000000 </v>
    <v>      -0.28571429       0.28571429       0.00000000 </v>
    <v>       0.35714286       0.35714286      -0.00000000 </v>
    <v>       0.42857143       0.35714286       0.00000000 </v>
    <v>       0.50000000       0.35714286      -0.00000000 </v>
    <v>      -0.42857143       0.35714286       0.00000000 </v>
    <v>      -0.35714286       0.35714286      -0.00000000 </v>
    <v>       0.42857143       0.42857143      -0.00000000 </v>
    <v>       0.50000000       0.42857143      -0.00000000 </v>
    <v>      -0.42857143       0.42857143      -0.00000000 </v>
    <v>       0.50000000       0.50000000      -0.00000000 </v>
    <v>      -0.00000000       0.07142857       0.07142857 </v>
    <v>       0.14285714       0.07142857       0.07142857 </v>
    <v>       0.21428571       0.07142857       0.07142857 </v>
    <v>       0.28571429       0.07142857       0.07142857 </v>
    <v>       0.35714286       0.07142857       0.07142857 </v>
    <v>       0.42857143       0.07142857       0.07142857 </v>
    <v>       0.50000000       0.07142857       0.07142857 </v>
    <v>      -0.42857143       0.07142857       0.07142857 </v>
    <v>      -0.35714286       0.07142857       0.07142857 </v>
    <v>      -0.28571429       0.07142857       0.07142857 </v>
    <v>      -0.21428571       0.07142857       0.07142857 </v>
    <v>      -0.14285714       0.07142857       0.07142857 </v>
    <v>      -0.07142857       0.07142857       0.07142857 </v>
    <v>       0.21428571       0.14285714       0.07142857 </v>
    <v>       0.28571429       0.14285714       0.07142857 </v>
    <v>       0.35714286       0.14285714       0.07142857 </v>
    <v>       0.42857143       0.14285714       0.07142857 </v>
    <v>       0.50000000       0.14285714       0.07142857 </v>
    <v>      -0.42857143       0.14285714       0.07142857 </v>
    <v>      -0.35714286       0.14285714       0.07142857 </v>
    <v>      -0.28571429       0.14285714       0.07142857 </v>
    <v>      -0.21428571       0.14285714       0.07142857 </v>
    <v>      -0.14285714       0.14285714       0.07142857 </v>
    <v>      -0.07142857       0.14285714       0.07142857 </v>
    <v>       0.14285714       0.21428571       0.07142857 </v>
    <v>       0.28571429       0.21428571       0.07142857 </v>
    <v>       0.35714286       0.21428571       0.07142857 </v>
    <v>       0.42857143       0.21428571       0.07142857 </v>
    <v>       0.50000000       0.21428571       0.07142857 </v>
    <v>      -0.42857143       0.21428571       0.07142857 </v>
    <v>      -0.35714286       0.21428571       0.07142857 </v>
    <v>      -0.28571429       0.21428571       0.07142857 </v>
    <v>      -0.21428571       0.21428571       0.07142857 </v>
    <v>      -0.14285714       0.21428571       0.07142857 </v>
    <v>       0.14285714       0.28571429       0.07142857 </v>
    <v>       0.21428571       0.28571429       0.07142857 </v>
    <v>       0.35714286       0.28571429       0.07142857 </v>
    <v>       0.42857143       0.28571429       0.07142857 </v>
    <v>       0.50000000       0.28571429       0.07142857 </v>
    <v>      -0.42857143       0.28571429       0.07142857 </v>
    <v>      -0.35714286       0.28571429       0.07142857 </v>
    <v>      -0.28571429       0.28571429       0.07142857 </v>
    <v>      -0.21428571       0.28571429       0.07142857 </v>
    <v>       0.14285714       0.35714286       0.07142857 </v>
    <v>       0.21428571       0.35714286       0.07142857 </v>
    <v>       0.28571429       0.35714286       0.07142857 </v>
    <v>       0.42857143       0.35714286       0.07142857 </v>
    <v>       0.50000000       0.35714286       0.07142857 </v>
    <v>      -0.42857143       0.35714286       0.07142857 </v>
    <v>      -0.35714286       0.35714286       0.07142857 </v>
    <v>      -0.28571429       0.35714286       0.07142857 </v>
    <v>       0.14285714       0.42857143       0.07142857 </v>
    <v>       0.21428571       0.42857143       0.07142857 </v>
    <v>       0.28571429       0.42857143       0.07142857 </v>
    <v>       0.35714286       0.42857143       0.07142857 </v>
    <v>       0.50000000       0.42857143       0.07142857 </v>
    <v>      -0.42857143       0.42857143       0.07142857 </v>
    <v>      -0.35714286       0.42857143       0.07142857 </v>
    <v>       0.14285714       0.50000000       0.07142857 </v>
    <v>       0.21428571       0.50000000       0.07142857 </v>
    <v>       0.28571429       0.50000000       0.07142857 </v>
    <v>       0.35714286       0.50000000       0.07142857 </v>
    <v>       0.42857143       0.50000000       0.07142857 </v>
    <v>      -0.42857143       0.50000000       0.07142857 </v>
    <v>       0.14285714      -0.42857143       0.07142857 </v>
    <v>       0.21428571      -0.42857143       0.07142857 </v>
    <v>       0.28571429      -0.42857143       0.07142857 </v>
    <v>       0.35714286      -0.42857143       0.07142857 </v>
    <v>       0.42857143      -0.42857143       0.07142857 </v>
    <v>       0.50000000      -0.42857143       0.07142857 </v>
    <v>       0.21428571      -0.35714286       0.07142857 </v>
    <v>       0.28571429      -0.35714286       0.07142857 </v>
    <v>       0.35714286      -0.35714286       0.07142857 </v>
    <v>       0.42857143      -0.35714286       0.07142857 </v>
    <v>       0.21428571      -0.28571429       0.07142857 </v>
    <v>       0.28571429      -0.28571429       0.07142857 </v>
    <v>       0.35714286      -0.28571429       0.07142857 </v>
    <v>       0.21428571      -0.21428571       0.07142857 </v>
    <v>       0.28571429      -0.21428571       0.07142857 </v>
    <v>       0.21428571      -0.14285714       0.07142857 </v>
    <v>      -0.00000000       0.14285714       0.14285714 </v>
    <v>       0.28571429       0.14285714       0.14285714 </v>
    <v>       0.35714286       0.14285714       0.14285714 </v>
    <v>       0.42857143       0.14285714       0.14285714 </v>
    <v>       0.50000000       0.14285714       0.14285714 </v>
    <v>      -0.42857143       0.14285714       0.14285714 </v>
    <v>      -0.35714286       0.14285714       0.14285714 </v>
    <v>      -0.28571429       0.14285714       0.14285714 </v>
    <v>      -0.21428571       0.14285714       0.14285714 </v>
    <v>      -0.14285714       0.14285714       0.14285714 </v>
    <v>      -0.07142857       0.14285714       0.14285714 </v>
    <v>       0.35714286       0.21428571       0.14285714 </v>
    <v>       0.42857143       0.21428571       0.14285714 </v>
    <v>       0.50000000       0.21428571       0.14285714 </v>
    <v>      -0.42857143       0.21428571       0.14285714 </v>
    <v>      -0.35714286       0.21428571       0.14285714 </v>
    <v>      -0.28571429       0.21428571       0.14285714 </v>
    <v>      -0.21428571       0.21428571       0.14285714 </v>
    <v>      -0.14285714       0.21428571       0.14285714 </v>
    <v>      -0.07142857       0.21428571       0.14285714 </v>
    <v>       0.42857143       0.28571429       0.14285714 </v>
    <v>       0.50000000       0.28571429       0.14285714 </v>
    <v>      -0.42857143       0.28571429       0.14285714 </v>
    <v>      -0.35714286       0.28571429       0.14285714 </v>
    <v>      -0.28571429       0.28571429       0.14285714 </v>
    <v>      -0.21428571       0.28571429       0.14285714 </v>
    <v>      -0.14285714       0.28571429       0.14285714 </v>
    <v>       0.50000000       0.35714286       0.14285714 </v>
    <v>      -0.42857143       0.35714286       0.14285714 </v>
    <v>      -0.35714286       0.35714286       0.14285714 </v>
    <v>      -0.28571429       0.35714286       0.14285714 </v>
    <v>      -0.21428571       0.35714286       0.14285714 </v>
    <v>       0.28571429       0.42857143       0.14285714 </v>
    <v>      -0.42857143       0.42857143       0.14285714 </v>
    <v>      -0.35714286       0.42857143       0.14285714 </v>
    <v>      -0.28571429       0.42857143       0.14285714 </v>
    <v>       0.28571429       0.50000000       0.14285714 </v>
    <v>       0.35714286       0.50000000       0.14285714 </v>
    <v>      -0.35714286       0.50000000       0.14285714 </v>
    <v>       0.28571429      -0.42857143       0.14285714 </v>
    <v>       0.35714286      -0.42857143       0.14285714 </v>
    <v>       0.42857143      -0.42857143       0.14285714 </v>
    <v>       0.28571429      -0.35714286       0.14285714 </v>
    <v>       0.35714286      -0.35714286       0.14285714 </v>
    <v>       0.42857143      -0.35714286       0.14285714 </v>
    <v>       0.50000000      -0.35714286       0.14285714 </v>
    <v>       0.35714286      -0.28571429       0.14285714 </v>
    <v>       0.42857143      -0.28571429       0.14285714 </v>
    <v>       0.35714286      -0.21428571       0.14285714 </v>
    <v>      -0.00000000       0.21428571       0.21428571 </v>
    <v>       0.42857143       0.21428571       0.21428571 </v>
    <v>       0.50000000       0.21428571       0.21428571 </v>
    <v>      -0.42857143       0.21428571       0.21428571 </v>
    <v>      -0.35714286       0.21428571       0.21428571 </v>
    <v>      -0.28571429       0.21428571       0.21428571 </v>
    <v>      -0.21428571       0.21428571       0.21428571 </v>
    <v>      -0.14285714       0.21428571       0.21428571 </v>
    <v>      -0.07142857       0.21428571       0.21428571 </v>
    <v>       0.50000000       0.28571429       0.21428571 </v>
    <v>      -0.42857143       0.28571429       0.21428571 </v>
    <v>      -0.35714286       0.28571429       0.21428571 </v>
    <v>      -0.28571429       0.28571429       0.21428571 </v>
    <v>      -0.21428571       0.28571429       0.21428571 </v>
    <v>      -0.14285714       0.28571429       0.21428571 </v>
    <v>      -0.07142857       0.28571429       0.21428571 </v>
    <v>      -0.42857143       0.35714286       0.21428571 </v>
    <v>      -0.35714286       0.35714286       0.21428571 </v>
    <v>      -0.28571429       0.35714286       0.21428571 </v>
    <v>      -0.21428571       0.35714286       0.21428571 </v>
    <v>      -0.14285714       0.35714286       0.21428571 </v>
    <v>      -0.35714286       0.42857143       0.21428571 </v>
    <v>      -0.28571429       0.42857143       0.21428571 </v>
    <v>      -0.21428571       0.42857143       0.21428571 </v>
    <v>      -0.28571429       0.50000000       0.21428571 </v>
    <v>       0.42857143      -0.35714286       0.21428571 </v>
    <v>       0.42857143      -0.28571429       0.21428571 </v>
    <v>       0.50000000      -0.28571429       0.21428571 </v>
    <v>      -0.00000000       0.28571429       0.28571429 </v>
    <v>      -0.42857143       0.28571429       0.28571429 </v>
    <v>      -0.35714286       0.28571429       0.28571429 </v>
    <v>      -0.28571429       0.28571429       0.28571429 </v>
    <v>      -0.21428571       0.28571429       0.28571429 </v>
    <v>      -0.14285714       0.28571429       0.28571429 </v>
    <v>      -0.07142857       0.28571429       0.28571429 </v>
    <v>      -0.35714286       0.35714286       0.28571429 </v>
    <v>      -0.28571429       0.35714286       0.28571429 </v>
    <v>      -0.21428571       0.35714286       0.28571429 </v>
    <v>      -0.14285714       0.35714286       0.28571429 </v>
    <v>      -0.07142857       0.35714286       0.28571429 </v>
    <v>      -0.28571429       0.42857143       0.28571429 </v>
    <v>      -0.21428571       0.42857143       0.28571429 </v>
    <v>      -0.14285714       0.42857143       0.28571429 </v>
    <v>      -0.21428571       0.50000000       0.28571429 </v>
    <v>      -0.00000000       0.35714286       0.35714286 </v>
    <v>      -0.28571429       0.35714286       0.35714286 </v>
    <v>      -0.21428571       0.35714286       0.35714286 </v>
    <v>      -0.14285714       0.35714286       0.35714286 </v>
    <v>      -0.07142857       0.35714286       0.35714286 </v>
    <v>      -0.21428571       0.42857143       0.35714286 </v>
    <v>      -0.14285714       0.42857143       0.35714286 </v>
    <v>      -0.07142857       0.42857143       0.35714286 </v>
    <v>      -0.14285714       0.50000000       0.35714286 </v>
    <v>      -0.00000000       0.42857143       0.42857143 </v>
    <v>      -0.14285714       0.42857143       0.42857143 </v>
    <v>      -0.07142857       0.42857143       0.42857143 </v>
    <v>      -0.07142857       0.50000000       0.42857143 </v>
    <v>      -0.00000000       0.50000000       0.50000000 </v>
   </varray>
   <varray name="weights" >
    <v>       0.00036443 </v>
    <v>       0.00291545 </v>
    <v>       0.00291545 </v>
    <v>       0.00291545 </v>
    <v>       0.00291545 </v>
    <v>       0.00291545 </v>
    <v>       0.00291545 </v>
    <v>       0.00145773 </v>
    <v>       0.00145773 </v>
    <v>       0.00583090 </v>
    <v>       0.00583090 </v>
    <v>       0.00583090 </v>
    <v>       0.00583090 </v>
    <v>       0.00583090 </v>
    <v>       0.00583090 </v>
    <v>       0.00583090 </v>
    <v>       0.00583090 </v>
    <v>       0.00583090 </v>
    <v>       0.00583090 </v>
    <v>       0.00583090 </v>
    <v>       0.00291545 </v>
    <v>       0.00145773 </v>
    <v>       0.00583090 </v>
    <v>       0.00583090 </v>
    <v>       0.00583090 </v>
    <v>       0.00583090 </v>
    <v>       0.00583090 </v>
    <v>       0.00583090 </v>
    <v>       0.00583090 </v>
    <v>       0.00583090 </v>
    <v>       0.00583090 </v>
    <v>       0.00291545 </v>
    <v>       0.00145773 </v>
    <v>       0.00583090 </v>
    <v>       0.00583090 </v>
    <v>       0.00583090 </v>
    <v>       0.00583090 </v>
    <v>       0.00583090 </v>
    <v>       0.00583090 </v>
    <v>       0.00583090 </v>
    <v>       0.00291545 </v>
    <v>       0.00145773 </v>
    <v>       0.00583090 </v>
    <v>       0.00583090 </v>
    <v>       0.00583090 </v>
    <v>       0.00583090 </v>
    <v>       0.00583090 </v>
    <v>       0.00291545 </v>
    <v>       0.00145773 </v>
    <v>       0.00583090 </v>
    <v>       0.00583090 </v>
    <v>       0.00583090 </v>
    <v>       0.00291545 </v>
    <v>       0.00145773 </v>
    <v>       0.00583090 </v>
    <v>       0.00291545 </v>
    <v>       0.00072886 </v>
    <v>       0.00072886 </v>
    <v>       0.00145773 </v>
    <v>       0.00291545 </v>
    <v>       0.00291545 </v>
    <v>       0.00291545 </v>
    <v>       0.00291545 </v>
    <v>       0.00291545 </v>
    <v>       0.00291545 </v>
    <v>       0.00291545 </v>
    <v>       0.00291545 </v>
    <v>       0.00291545 </v>
    <v>       0.00291545 </v>
    <v>       0.00291545 </v>
    <v>       0.00291545 </v>
    <v>       0.00583090 </v>
    <v>       0.00583090 </v>
    <v>       0.00583090 </v>
    <v>       0.00583090 </v>
    <v>       0.00583090 </v>
    <v>       0.00583090 </v>
    <v>       0.00583090 </v>
    <v>       0.00583090 </v>
    <v>       0.00583090 </v>
    <v>       0.00291545 </v>
    <v>       0.00291545 </v>
    <v>       0.00291545 </v>
    <v>       0.00583090 </v>
    <v>       0.00583090 </v>
    <v>       0.00583090 </v>
    <v>       0.00583090 </v>
    <v>       0.00583090 </v>
    <v>       0.00583090 </v>
    <v>       0.00583090 </v>
    <v>       0.00291545 </v>
    <v>       0.00583090 </v>
    <v>       0.00291545 </v>
    <v>       0.00291545 </v>
    <v>       0.00583090 </v>
    <v>       0.00583090 </v>
    <v>       0.00583090 </v>
[...]
      <set comment="kpoint 93">
       <r>  -18.5099    1.0000 </r>
       <r>   -7.4409    1.0000 </r>
       <r>   -6.9986    1.0000 </r>
       <r>   -6.8344    1.0000 </r>
       <r>    1.8984    0.0000 </r>
       <r>    2.7493    0.0000 </r>
       <r>    3.5053    0.0000 </r>
       <r>    5.6900    0.0000 </r>
      </set>
      <set comment="kpoint 94">
       <r>  -18.4971    1.0000 </r>
       <r>   -7.4491    1.0000 </r>
       <r>   -7.0944    1.0000 </r>
       <r>   -6.8690    1.0000 </r>
       <r>    2.0774    0.0000 </r>
       <r>    2.8689    0.0000 </r>
       <r>    3.4875    0.0000 </r>
       <r>    5.4285    0.0000 </r>
      </set>
      <set comment="kpoint 95">
       <r>  -18.4911    1.0000 </r>
       <r>   -7.4254    1.0000 </r>
       <r>   -7.1775    1.0000 </r>
       <r>   -6.8771    1.0000 </r>
       <r>    2.2393    0.0000 </r>
       <r>    2.8801    0.0000 </r>
       <r>    3.6488    0.0000 </r>
       <r>    5.0681    0.0000 </r>
      </set>
      <set comment="kpoint 96">
       <r>  -18.4932    1.0000 </r>
       <r>   -7.4021    1.0000 </r>
       <r>   -7.2053    1.0000 </r>
       <r>   -6.8538    1.0000 </r>
       <r>    2.3950    0.0000 </r>
       <r>    2.8465    0.0000 </r>
       <r>    3.5302    0.0000 </r>
       <r>    5.0455    0.0000 </r>
      </set>
      <set comment="kpoint 97">
       <r>  -18.5030    1.0000 </r>
       <r>   -7.4183    1.0000 </r>
       <r>   -7.1307    1.0000 </r>
       <r>   -6.8093    1.0000 </r>
       <r>    2.3986    0.0000 </r>
       <r>    2.9116    0.0000 </r>
       <r>    3.1960    0.0000 </r>
       <r>    5.2444    0.0000 </r>
      </set>
      <set comment="kpoint 98">
       <r>  -18.4902    1.0000 </r>
       <r>   -7.4828    1.0000 </r>
       <r>   -7.0590    1.0000 </r>
       <r>   -6.9269    1.0000 </r>
       <r>    1.7597    0.0000 </r>
       <r>    2.6053    0.0000 </r>
       <r>    4.0552    0.0000 </r>
       <r>    5.7425    0.0000 </r>
      </set>
      <set comment="kpoint 99">
       <r>  -18.4852    1.0000 </r>
       <r>   -7.4330    1.0000 </r>
       <r>   -7.1615    1.0000 </r>
       <r>   -6.9386    1.0000 </r>
       <r>    1.9359    0.0000 </r>
       <r>    2.8240    0.0000 </r>
       <r>    3.9877    0.0000 </r>
       <r>    5.1619    0.0000 </r>
      </set>
      <set comment="kpoint 100">
       <r>  -18.4863    1.0000 </r>
       <r>   -7.3427    1.0000 </r>
       <r>   -7.2810    1.0000 </r>
       <r>   -6.9083    1.0000 </r>
       <r>    2.1535    0.0000 </r>
       <r>    3.0025    0.0000 </r>
       <r>    3.7546    0.0000 </r>
       <r>    4.8884    0.0000 </r>
      </set>
      <set comment="kpoint 101">
       <r>  -18.4832    1.0000 </r>
       <r>   -7.4935    1.0000 </r>
       <r>   -7.0802    1.0000 </r>
       <r>   -6.9634    1.0000 </r>
       <r>    1.6838    0.0000 </r>
       <r>    2.5557    0.0000 </r>
       <r>    4.4563    0.0000 </r>
       <r>    5.5156    0.0000 </r>
      </set>
      <set comment="kpoint 102">
       <r>  -18.4882    1.0000 </r>
       <r>   -7.3916    1.0000 </r>
       <r>   -7.1978    1.0000 </r>
       <r>   -6.9225    1.0000 </r>
       <r>    2.1820    0.0000 </r>
       <r>    3.1300    0.0000 </r>
       <r>    3.3989    0.0000 </r>
       <r>    5.0195    0.0000 </r>
      </set>
      <set comment="kpoint 103">
       <r>  -18.4851    1.0000 </r>
       <r>   -7.3339    1.0000 </r>
       <r>   -7.2685    1.0000 </r>
       <r>   -6.9456    1.0000 </r>
       <r>    2.2095    0.0000 </r>
       <r>    3.2388    0.0000 </r>
       <r>    3.4766    0.0000 </r>
       <r>    4.7070    0.0000 </r>
      </set>
      <set comment="kpoint 104">
       <r>  -18.4830    1.0000 </r>
       <r>   -7.3684    1.0000 </r>
       <r>   -7.2213    1.0000 </r>
       <r>   -6.9767    1.0000 </r>
       <r>    2.0858    0.0000 </r>
       <r>    3.1044    0.0000 </r>
       <r>    3.7709    0.0000 </r>
       <r>    4.6685    0.0000 </r>
      </set>
     </set>
    </set>
   </array>
  </eigenvalues>
  <separator name="orbital magnetization" >
   <v name="MAGDIPOLOUT">      0.00000000      0.00000000      0.00000000</v>
  </separator>
  <dos>
   <i name="efermi">     -6.44713140 </i>
   <total>
    <array>
     <dimension dim="1">gridpoints</dimension>
     <dimension dim="2">spin</dimension>
     <field>energy</field>
     <field>total</field>
     <field>integrated</field>
     <set>
      <set comment="spin 1">
       <r>   -19.9804     0.0000     0.0000 </r>
       <r>   -19.8832     0.0000     0.0000 </r>
       <r>   -19.7861     0.0000     0.0000 </r>
       <r>   -19.6889     0.0000     0.0000 </r>
       <r>   -19.5917     0.0000     0.0000 </r>
       <r>   -19.4945     0.0000     0.0000 </r>
       <r>   -19.3973     0.0000     0.0000 </r>
       <r>   -19.3001     0.0000     0.0000 </r>
       <r>   -19.2029     0.0000     0.0000 </r>
       <r>   -19.1057     0.0000     0.0000 </r>
       <r>   -19.0086     0.0000     0.0000 </r>
       <r>   -18.9114     0.0000     0.0000 </r>
       <r>   -18.8142     0.0000     0.0000 </r>
       <r>   -18.7170     0.0000     0.0000 </r>
       <r>   -18.6198     0.6217     0.0604 </r>
       <r>   -18.5226     7.5961     0.8614 </r>
       <r>   -18.4254     7.5322     2.0000 </r>
       <r>   -18.3283     0.0000     2.0000 </r>
       <r>   -18.2311     0.0000     2.0000 </r>
       <r>   -18.1339     0.0000     2.0000 </r>
       <r>   -18.0367     0.0000     2.0000 </r>
       <r>   -17.9395     0.0000     2.0000 </r>
       <r>   -17.8423     0.0000     2.0000 </r>
       <r>   -17.7451     0.0000     2.0000 </r>
       <r>   -17.6479     0.0000     2.0000 </r>
       <r>   -17.5508     0.0000     2.0000 </r>
       <r>   -17.4536     0.0000     2.0000 </r>
       <r>   -17.3564     0.0000     2.0000 </r>
       <r>   -17.2592     0.0000     2.0000 </r>
       <r>   -17.1620     0.0000     2.0000 </r>
       <r>   -17.0648     0.0000     2.0000 </r>
       <r>   -16.9676     0.0000     2.0000 </r>
       <r>   -16.8704     0.0000     2.0000 </r>
       <r>   -16.7733     0.0000     2.0000 </r>
       <r>   -16.6761     0.0000     2.0000 </r>
       <r>   -16.5789     0.0000     2.0000 </r>
       <r>   -16.4817     0.0000     2.0000 </r>
       <r>   -16.3845     0.0000     2.0000 </r>
       <r>   -16.2873     0.0000     2.0000 </r>
       <r>   -16.1901     0.0000     2.0000 </r>
       <r>   -16.0929     0.0000     2.0000 </r>
       <r>   -15.9958     0.0000     2.0000 </r>
       <r>   -15.8986     0.0000     2.0000 </r>
       <r>   -15.8014     0.0000     2.0000 </r>
       <r>   -15.7042     0.0000     2.0000 </r>
       <r>   -15.6070     0.0000     2.0000 </r>
       <r>   -15.5098     0.0000     2.0000 </r>
       <r>   -15.4126     0.0000     2.0000 </r>
       <r>   -15.3155     0.0000     2.0000 </r>
       <r>   -15.2183     0.0000     2.0000 </r>
       <r>   -15.1211     0.0000     2.0000 </r>
       <r>   -15.0239     0.0000     2.0000 </r>
       <r>   -14.9267     0.0000     2.0000 </r>
       <r>   -14.8295     0.0000     2.0000 </r>
       <r>   -14.7323     0.0000     2.0000 </r>
       <r>   -14.6351     0.0000     2.0000 </r>
       <r>   -14.5380     0.0000     2.0000 </r>
       <r>   -14.4408     0.0000     2.0000 </r>
       <r>   -14.3436     0.0000     2.0000 </r>
       <r>   -14.2464     0.0000     2.0000 </r>
       <r>   -14.1492     0.0000     2.0000 </r>
       <r>   -14.0520     0.0000     2.0000 </r>
       <r>   -13.9548     0.0000     2.0000 </r>
       <r>   -13.8576     0.0000     2.0000 </r>
       <r>   -13.7605     0.0000     2.0000 </r>
       <r>   -13.6633     0.0000     2.0000 </r>
       <r>   -13.5661     0.0000     2.0000 </r>
       <r>   -13.4689     0.0000     2.0000 </r>
       <r>   -13.3717     0.0000     2.0000 </r>
       <r>   -13.2745     0.0000     2.0000 </r>
       <r>   -13.1773     0.0000     2.0000 </r>
       <r>   -13.0801     0.0000     2.0000 </r>
       <r>   -12.9830     0.0000     2.0000 </r>
       <r>   -12.8858     0.0000     2.0000 </r>
       <r>   -12.7886     0.0000     2.0000 </r>
       <r>   -12.6914     0.0000     2.0000 </r>
       <r>   -12.5942     0.0000     2.0000 </r>
       <r>   -12.4970     0.0000     2.0000 </r>
       <r>   -12.3998     0.0000     2.0000 </r>
       <r>   -12.3027     0.0000     2.0000 </r>
       <r>   -12.2055     0.0000     2.0000 </r>
       <r>   -12.1083     0.0000     2.0000 </r>
       <r>   -12.0111     0.0000     2.0000 </r>
       <r>   -11.9139     0.0000     2.0000 </r>
       <r>   -11.8167     0.0000     2.0000 </r>
       <r>   -11.7195     0.0000     2.0000 </r>
       <r>   -11.6223     0.0000     2.0000 </r>
       <r>   -11.5252     0.0000     2.0000 </r>
       <r>   -11.4280     0.0000     2.0000 </r>
       <r>   -11.3308     0.0000     2.0000 </r>
       <r>   -11.2336     0.0000     2.0000 </r>
       <r>   -11.1364     0.0000     2.0000 </r>
       <r>   -11.0392     0.0000     2.0000 </r>
       <r>   -10.9420     0.0000     2.0000 </r>
       <r>   -10.8448     0.0000     2.0000 </r>
       <r>   -10.7477     0.0000     2.0000 </r>
       <r>   -10.6505     0.0000     2.0000 </r>
       <r>   -10.5533     0.0000     2.0000 </r>
       <r>   -10.4561     0.0000     2.0000 </r>
       <r>   -10.3589     0.0000     2.0000 </r>
       <r>   -10.2617     0.0000     2.0000 </r>
       <r>   -10.1645     0.0000     2.0000 </r>
       <r>   -10.0674     0.0000     2.0000 </r>
       <r>    -9.9702     0.0000     2.0000 </r>
       <r>    -9.8730     0.0000     2.0000 </r>
       <r>    -9.7758     0.0000     2.0000 </r>
       <r>    -9.6786     0.0000     2.0000 </r>
       <r>    -9.5814     0.0000     2.0000 </r>
       <r>    -9.4842     0.0000     2.0000 </r>
       <r>    -9.3870     0.0000     2.0000 </r>
       <r>    -9.2899     0.0000     2.0000 </r>
       <r>    -9.1927     0.0000     2.0000 </r>
       <r>    -9.0955     0.0000     2.0000 </r>
       <r>    -8.9983     0.0000     2.0000 </r>
       <r>    -8.9011     0.0000     2.0000 </r>
       <r>    -8.8039     0.0000     2.0000 </r>
       <r>    -8.7067     0.0000     2.0000 </r>
       <r>    -8.6095     0.0000     2.0000 </r>
       <r>    -8.5124     0.0000     2.0000 </r>
       <r>    -8.4152     0.0000     2.0000 </r>
       <r>    -8.3180     0.0000     2.0000 </r>
       <r>    -8.2208     0.0000     2.0000 </r>
       <r>    -8.1236     0.0000     2.0000 </r>
       <r>    -8.0264     0.0000     2.0000 </r>
       <r>    -7.9292     0.0000     2.0000 </r>
       <r>    -7.8320     0.0000     2.0000 </r>
       <r>    -7.7349     0.0000     2.0000 </r>
       <r>    -7.6377     0.6223     2.0605 </r>
       <r>    -7.5405     2.5771     2.3292 </r>
       <r>    -7.4433     5.5583     2.9928 </r>
       <r>    -7.3461     4.2575     3.5503 </r>
       <r>    -7.2489     1.6164     3.7657 </r>
       <r>    -7.1517     2.8897     4.0660 </r>
       <r>    -7.0546     3.1420     4.4227 </r>
       <r>    -6.9574     3.2652     4.8167 </r>
       <r>    -6.8602     7.4576     5.6312 </r>
       <r>    -6.7630     7.0848     6.4737 </r>
       <r>    -6.6658     7.5464     7.4033 </r>
       <r>    -6.5686     4.1182     7.9274 </r>
       <r>    -6.4714     0.2325     8.0000 </r>
       <r>    -6.3742     0.0000     8.0000 </r>
       <r>    -6.2771     0.0000     8.0000 </r>
       <r>    -6.1799     0.0000     8.0000 </r>
       <r>    -6.0827     0.0000     8.0000 </r>
       <r>    -5.9855     0.0000     8.0000 </r>
       <r>    -5.8883     0.0000     8.0000 </r>
       <r>    -5.7911     0.0000     8.0000 </r>
       <r>    -5.6939     0.0000     8.0000 </r>
       <r>    -5.5967     0.0000     8.0000 </r>
       <r>    -5.4996     0.0000     8.0000 </r>
       <r>    -5.4024     0.0000     8.0000 </r>
       <r>    -5.3052     0.0000     8.0000 </r>
       <r>    -5.2080     0.0000     8.0000 </r>
       <r>    -5.1108     0.0000     8.0000 </r>
       <r>    -5.0136     0.0000     8.0000 </r>
       <r>    -4.9164     0.0000     8.0000 </r>
       <r>    -4.8192     0.0000     8.0000 </r>
       <r>    -4.7221     0.0000     8.0000 </r>
       <r>    -4.6249     0.0000     8.0000 </r>
       <r>    -4.5277     0.0000     8.0000 </r>
       <r>    -4.4305     0.0000     8.0000 </r>
       <r>    -4.3333     0.0000     8.0000 </r>
       <r>    -4.2361     0.0000     8.0000 </r>
       <r>    -4.1389     0.0000     8.0000 </r>
       <r>    -4.0418     0.0000     8.0000 </r>
       <r>    -3.9446     0.0000     8.0000 </r>
       <r>    -3.8474     0.0000     8.0000 </r>
       <r>    -3.7502     0.0000     8.0000 </r>
       <r>    -3.6530     0.0000     8.0000 </r>
       <r>    -3.5558     0.0000     8.0000 </r>
       <r>    -3.4586     0.0000     8.0000 </r>
       <r>    -3.3614     0.0000     8.0000 </r>
       <r>    -3.2643     0.0000     8.0000 </r>
       <r>    -3.1671     0.0000     8.0000 </r>
       <r>    -3.0699     0.0000     8.0000 </r>
       <r>    -2.9727     0.0000     8.0000 </r>
       <r>    -2.8755     0.0000     8.0000 </r>
       <r>    -2.7783     0.0000     8.0000 </r>
       <r>    -2.6811     0.0000     8.0000 </r>
       <r>    -2.5839     0.0000     8.0000 </r>
       <r>    -2.4868     0.0000     8.0000 </r>
       <r>    -2.3896     0.0000     8.0000 </r>
       <r>    -2.2924     0.0000     8.0000 </r>
       <r>    -2.1952     0.0000     8.0000 </r>
       <r>    -2.0980     0.0000     8.0000 </r>
       <r>    -2.0008     0.0000     8.0000 </r>
       <r>    -1.9036     0.0000     8.0000 </r>
       <r>    -1.8064     0.0000     8.0000 </r>
       <r>    -1.7093     0.0000     8.0000 </r>
       <r>    -1.6121     0.0000     8.0000 </r>
       <r>    -1.5149     0.0000     8.0000 </r>
       <r>    -1.4177     0.0000     8.0000 </r>
       <r>    -1.3205     0.0000     8.0000 </r>
       <r>    -1.2233     0.0000     8.0000 </r>
       <r>    -1.1261     0.0000     8.0000 </r>
       <r>    -1.0290     0.0000     8.0000 </r>
       <r>    -0.9318     0.0000     8.0000 </r>
       <r>    -0.8346     0.0000     8.0000 </r>
       <r>    -0.7374     0.0000     8.0000 </r>
       <r>    -0.6402     0.0000     8.0000 </r>
       <r>    -0.5430     0.0000     8.0000 </r>
       <r>    -0.4458     0.0000     8.0000 </r>
       <r>    -0.3486     0.0000     8.0000 </r>
       <r>    -0.2515     0.0075     8.0007 </r>
       <r>    -0.1543     0.1039     8.0108 </r>
       <r>    -0.0571     0.0000     8.0109 </r>
       <r>     0.0401     0.0900     8.0197 </r>
       <r>     0.1373     0.2393     8.0429 </r>
       <r>     0.2345     0.0000     8.0430 </r>
       <r>     0.3317     0.0450     8.0474 </r>
       <r>     0.4289     0.3599     8.0824 </r>
       <r>     0.5260     0.1798     8.0998 </r>
       <r>     0.6232     0.2123     8.1205 </r>
       <r>     0.7204     0.0000     8.1232 </r>
       <r>     0.8176     0.3317     8.1554 </r>
       <r>     0.9148     0.0450     8.1888 </r>
       <r>     1.0120     0.4200     8.2296 </r>
       <r>     1.1092     0.1799     8.2471 </r>
       <r>     1.2064     0.4866     8.2944 </r>
       <r>     1.3035     1.0064     8.3996 </r>
       <r>     1.4007     1.0322     8.5099 </r>
       <r>     1.4979     0.8787     8.6335 </r>
       <r>     1.5951     1.0798     8.7668 </r>
       <r>     1.6923     2.0348     8.9645 </r>
       <r>     1.7895     1.3367     9.1591 </r>
       <r>     1.8867     0.3800     9.2061 </r>
       <r>     1.9838     1.0074     9.3894 </r>
       <r>     2.0810     1.6581     9.5666 </r>
       <r>     2.1782     0.7413     9.7331 </r>
       <r>     2.2754     0.9713     9.8561 </r>
       <r>     2.3726     1.0731     9.9709 </r>
       <r>     2.4698     1.7089    10.1509 </r>
       <r>     2.5670     0.8032    10.2289 </r>
       <r>     2.6642     0.7615    10.3036 </r>
       <r>     2.7613     1.9680    10.5302 </r>
       <r>     2.8585     2.8767    10.8109 </r>
       <r>     2.9557     1.8133    11.0400 </r>
       <r>     3.0529     1.1987    11.2076 </r>
       <r>     3.1501     1.0263    11.3308 </r>
       <r>     3.2473     1.7750    11.5041 </r>
       <r>     3.3445     1.7702    11.6787 </r>
       <r>     3.4417     1.4345    11.8471 </r>
       <r>     3.5388     2.5859    12.1165 </r>
       <r>     3.6360     2.8091    12.3978 </r>
       <r>     3.7332     1.1170    12.5583 </r>
       <r>     3.8304     2.2478    12.7965 </r>
       <r>     3.9276     0.9439    12.9585 </r>
       <r>     4.0248     2.6506    13.2410 </r>
       <r>     4.1220     2.3504    13.4873 </r>
       <r>     4.2192     1.1765    13.6165 </r>
       <r>     4.3163     1.1780    13.7449 </r>
       <r>     4.4135     1.1626    13.8776 </r>
       <r>     4.5107     1.5906    14.0438 </r>
       <r>     4.6079     1.4894    14.2497 </r>
       <r>     4.7051     1.6702    14.4655 </r>
       <r>     4.8023     1.3034    14.6310 </r>
       <r>     4.8995     1.3757    14.8043 </r>
       <r>     4.9966     0.7751    14.9164 </r>
       <r>     5.0938     1.9622    15.1718 </r>
       <r>     5.1910     1.8185    15.3502 </r>
       <r>     5.2882     0.5951    15.4106 </r>
       <r>     5.3854     1.2278    15.5443 </r>
       <r>     5.4826     0.3600    15.5824 </r>
       <r>     5.5798     0.4298    15.6241 </r>
       <r>     5.6770     0.7938    15.7207 </r>
       <r>     5.7741     0.2260    15.7618 </r>
       <r>     5.8713     0.1790    15.7792 </r>
       <r>     5.9685     0.1800    15.7966 </r>
       <r>     6.0657     0.5400    15.8491 </r>
       <r>     6.1629     0.3570    15.8838 </r>
       <r>     6.2601     0.1798    15.9016 </r>
       <r>     6.3573     0.1796    15.9191 </r>
       <r>     6.4545     0.0387    15.9229 </r>
       <r>     6.5516     0.0075    15.9242 </r>
       <r>     6.6488     0.2457    15.9648 </r>
       <r>     6.7460     0.0809    15.9751 </r>
       <r>     6.8432     0.0000    15.9759 </r>
       <r>     6.9404     0.0000    15.9759 </r>
       <r>     7.0376     0.0000    15.9759 </r>
       <r>     7.1348     0.0000    15.9759 </r>
       <r>     7.2320     0.1800    15.9934 </r>
       <r>     7.3291     0.0450    15.9978 </r>
       <r>     7.4263     0.0000    15.9978 </r>
       <r>     7.5235     0.0000    15.9978 </r>
       <r>     7.6207     0.0000    15.9978 </r>
       <r>     7.7179     0.0000    15.9978 </r>
       <r>     7.8151     0.0000    15.9978 </r>
       <r>     7.9123     0.0225    16.0000 </r>
       <r>     8.0094     0.0000    16.0000 </r>
       <r>     8.1066     0.0000    16.0000 </r>
       <r>     8.2038     0.0000    16.0000 </r>
       <r>     8.3010     0.0000    16.0000 </r>
       <r>     8.3982     0.0000    16.0000 </r>
       <r>     8.4954     0.0000    16.0000 </r>
       <r>     8.5926     0.0000    16.0000 </r>
       <r>     8.6898     0.0000    16.0000 </r>
       <r>     8.7869     0.0000    16.0000 </r>
       <r>     8.8841     0.0000    16.0000 </r>
       <r>     8.9813     0.0000    16.0000 </r>
       <r>     9.0785     0.0000    16.0000 </r>
       <r>     9.1757     0.0000    16.0000 </r>
      </set>
     </set>
    </array>
   </total>
  </dos>
 </calculation>
 <structure name="finalpos" >
  <crystal>
   <varray name="basis" >
    <v>      -3.24646740       0.00000000       3.24646740 </v>
    <v>       0.00000000       3.24646740       3.24646740 </v>
    <v>      -3.24646740       3.24646740       0.00000000 </v>
   </varray>
   <i name="volume">     68.43261448 </i>
   <varray name="rec_basis" >
    <v>      -0.15401356      -0.15401356       0.15401356 </v>
    <v>       0.15401356       0.15401356       0.15401356 </v>
    <v>      -0.15401356       0.15401356      -0.15401356 </v>
   </varray>
  </crystal>
  <varray name="positions" >
   <v>       0.00000000       0.00000000       0.00000000 </v>
  </varray>
 </structure>
</modeling>
