<?xml version="1.0" encoding="ISO-8859-1"?>
<modeling>
 <generator>
  <i name="program" type="string">vasp </i>
  <i name="version" type="string">5.4.4.18Apr17-6-g9f103f2a35  </i>
  <i name="subversion" type="string">(build Aug 24 2017 11:22:49) complex            parallel </i>
  <i name="platform" type="string">LinuxIFC </i>
  <i name="date" type="string">2023 12 25 </i>
  <i name="time" type="string">13:07:53 </i>
 </generator>
 <incar>
  <i type="string" name="PREC">accurate</i>
  <i type="string" name="ALGO"> Normal</i>
  <i type="int" name="NELM">   100</i>
  <i type="int" name="IBRION">     8</i>
  <i name="EDIFF">      0.00000001</i>
  <i name="SYMPREC">      0.00000001</i>
  <i name="ENCUT">    520.00000000</i>
  <i type="logical" name="LREAL"> F  </i>
  <i type="int" name="ISMEAR">     0</i>
  <i name="SIGMA">      0.01000000</i>
  <i type="logical" name="LWAVE"> F  </i>
  <v type="int" name="KPOINT_BSE">    -1     0     0     0</v>
  <i type="int" name="NELM">   100</i>
  <i type="logical" name="LPEAD"> T  </i>
  <i type="logical" name="LEPSILON"> T  </i>
 </incar>
 <structure name="primitive_cell" >
  <crystal>
   <varray name="basis" >
    <v>       4.54802613       0.00000000       0.00000000 </v>
    <v>       0.00000000       7.67151129       0.00000000 </v>
    <v>       0.00000000       0.00000000       9.17110896 </v>
   </varray>
   <i name="volume">    319.98213577 </i>
   <varray name="rec_basis" >
    <v>       0.21987561       0.00000000       0.00000000 </v>
    <v>       0.00000000       0.13035241       0.00000000 </v>
    <v>       0.00000000       0.00000000       0.10903807 </v>
   </varray>
  </crystal>
  <varray name="positions" >
   <v>       0.25000002       0.26365271      -0.09055395 </v>
   <v>       0.25000002       0.48276903       0.15764770 </v>
   <v>      -0.24999994       0.14146136       0.07737339 </v>
   <v>      -0.24999994      -0.48276895      -0.15764763 </v>
   <v>       0.25000002      -0.14146128      -0.07737331 </v>
   <v>       0.25000002       0.35853868      -0.42262658 </v>
   <v>      -0.24999994       0.01723101      -0.34235226 </v>
   <v>       0.25000002      -0.01723093       0.34235234 </v>
   <v>      -0.24999994      -0.26365263       0.09055403 </v>
   <v>       0.25000002      -0.23634725      -0.40944593 </v>
   <v>      -0.24999994       0.23634733       0.40944601 </v>
   <v>      -0.24999994      -0.35853860       0.42262665 </v>
  </varray>
 </structure>
 <varray name="primitive_index" >
  <v type="int" >        1 </v>
  <v type="int" >        5 </v>
  <v type="int" >       11 </v>
  <v type="int" >        6 </v>
  <v type="int" >       12 </v>
  <v type="int" >       10 </v>
  <v type="int" >        8 </v>
  <v type="int" >        7 </v>
  <v type="int" >        2 </v>
  <v type="int" >        3 </v>
  <v type="int" >        4 </v>
  <v type="int" >        9 </v>
 </varray>
 <kpoints>
  <generation param="Gamma">
   <v type="int" name="divisions">      10        6        4 </v>
   <v name="usershift">      0.00000000       0.00000000       0.00000000 </v>
   <v name="genvec1">      0.10000000       0.00000000       0.00000000 </v>
   <v name="genvec2">      0.00000000       0.16666667       0.00000000 </v>
   <v name="genvec3">      0.00000000       0.00000000       0.25000000 </v>
   <v name="shift">      0.00000000       0.00000000       0.00000000 </v>
  </generation>
  <varray name="kpointlist" >
   <v>       0.00000000       0.00000000       0.00000000 </v>
   <v>       0.10000000       0.00000000       0.00000000 </v>
   <v>       0.20000000       0.00000000       0.00000000 </v>
   <v>       0.30000000       0.00000000       0.00000000 </v>
   <v>       0.40000000       0.00000000       0.00000000 </v>
   <v>       0.50000000       0.00000000       0.00000000 </v>
   <v>       0.00000000       0.16666667       0.00000000 </v>
   <v>       0.10000000       0.16666667       0.00000000 </v>
   <v>       0.20000000       0.16666667       0.00000000 </v>
   <v>       0.30000000       0.16666667       0.00000000 </v>
   <v>       0.40000000       0.16666667       0.00000000 </v>
   <v>       0.50000000       0.16666667       0.00000000 </v>
   <v>      -0.40000000       0.16666667       0.00000000 </v>
   <v>      -0.30000000       0.16666667       0.00000000 </v>
   <v>      -0.20000000       0.16666667       0.00000000 </v>
   <v>      -0.10000000       0.16666667       0.00000000 </v>
   <v>       0.00000000       0.33333333       0.00000000 </v>
   <v>       0.10000000       0.33333333       0.00000000 </v>
   <v>       0.20000000       0.33333333       0.00000000 </v>
   <v>       0.30000000       0.33333333       0.00000000 </v>
   <v>       0.40000000       0.33333333       0.00000000 </v>
   <v>       0.50000000       0.33333333       0.00000000 </v>
   <v>      -0.40000000       0.33333333       0.00000000 </v>
   <v>      -0.30000000       0.33333333       0.00000000 </v>
   <v>      -0.20000000       0.33333333       0.00000000 </v>
   <v>      -0.10000000       0.33333333       0.00000000 </v>
   <v>       0.00000000       0.50000000       0.00000000 </v>
   <v>       0.10000000       0.50000000       0.00000000 </v>
   <v>       0.20000000       0.50000000       0.00000000 </v>
   <v>       0.30000000       0.50000000       0.00000000 </v>
   <v>       0.40000000       0.50000000       0.00000000 </v>
   <v>       0.50000000       0.50000000       0.00000000 </v>
   <v>       0.00000000       0.00000000       0.25000000 </v>
   <v>       0.10000000       0.00000000       0.25000000 </v>
   <v>       0.20000000       0.00000000       0.25000000 </v>
   <v>       0.30000000       0.00000000       0.25000000 </v>
   <v>       0.40000000       0.00000000       0.25000000 </v>
   <v>       0.50000000       0.00000000       0.25000000 </v>
   <v>      -0.40000000       0.00000000       0.25000000 </v>
   <v>      -0.30000000       0.00000000       0.25000000 </v>
   <v>      -0.20000000       0.00000000       0.25000000 </v>
   <v>      -0.10000000       0.00000000       0.25000000 </v>
   <v>       0.00000000       0.16666667       0.25000000 </v>
   <v>       0.10000000       0.16666667       0.25000000 </v>
   <v>       0.20000000       0.16666667       0.25000000 </v>
   <v>       0.30000000       0.16666667       0.25000000 </v>
   <v>       0.40000000       0.16666667       0.25000000 </v>
   <v>       0.50000000       0.16666667       0.25000000 </v>
   <v>      -0.40000000       0.16666667       0.25000000 </v>
   <v>      -0.30000000       0.16666667       0.25000000 </v>
   <v>      -0.20000000       0.16666667       0.25000000 </v>
   <v>      -0.10000000       0.16666667       0.25000000 </v>
   <v>       0.00000000       0.33333333       0.25000000 </v>
   <v>       0.10000000       0.33333333       0.25000000 </v>
   <v>       0.20000000       0.33333333       0.25000000 </v>
   <v>       0.30000000       0.33333333       0.25000000 </v>
   <v>       0.40000000       0.33333333       0.25000000 </v>
   <v>       0.50000000       0.33333333       0.25000000 </v>
   <v>      -0.40000000       0.33333333       0.25000000 </v>
   <v>      -0.30000000       0.33333333       0.25000000 </v>
   <v>      -0.20000000       0.33333333       0.25000000 </v>
   <v>      -0.10000000       0.33333333       0.25000000 </v>
   <v>       0.00000000       0.50000000       0.25000000 </v>
   <v>       0.10000000       0.50000000       0.25000000 </v>
   <v>       0.20000000       0.50000000       0.25000000 </v>
   <v>       0.30000000       0.50000000       0.25000000 </v>
   <v>       0.40000000       0.50000000       0.25000000 </v>
   <v>       0.50000000       0.50000000       0.25000000 </v>
   <v>      -0.40000000       0.50000000       0.25000000 </v>
   <v>      -0.30000000       0.50000000       0.25000000 </v>
   <v>      -0.20000000       0.50000000       0.25000000 </v>
   <v>      -0.10000000       0.50000000       0.25000000 </v>
   <v>       0.00000000      -0.33333333       0.25000000 </v>
   <v>       0.10000000      -0.33333333       0.25000000 </v>
   <v>       0.20000000      -0.33333333       0.25000000 </v>
   <v>       0.30000000      -0.33333333       0.25000000 </v>
   <v>       0.40000000      -0.33333333       0.25000000 </v>
   <v>       0.50000000      -0.33333333       0.25000000 </v>
   <v>      -0.40000000      -0.33333333       0.25000000 </v>
   <v>      -0.30000000      -0.33333333       0.25000000 </v>
   <v>      -0.20000000      -0.33333333       0.25000000 </v>
   <v>      -0.10000000      -0.33333333       0.25000000 </v>
   <v>       0.00000000      -0.16666667       0.25000000 </v>
   <v>       0.10000000      -0.16666667       0.25000000 </v>
   <v>       0.20000000      -0.16666667       0.25000000 </v>
   <v>       0.30000000      -0.16666667       0.25000000 </v>
   <v>       0.40000000      -0.16666667       0.25000000 </v>
   <v>       0.50000000      -0.16666667       0.25000000 </v>
   <v>      -0.40000000      -0.16666667       0.25000000 </v>
   <v>      -0.30000000      -0.16666667       0.25000000 </v>
   <v>      -0.20000000      -0.16666667       0.25000000 </v>
   <v>      -0.10000000      -0.16666667       0.25000000 </v>
   <v>       0.00000000       0.00000000       0.50000000 </v>
   <v>       0.10000000       0.00000000       0.50000000 </v>
   <v>       0.20000000       0.00000000       0.50000000 </v>
   <v>       0.30000000       0.00000000       0.50000000 </v>
   <v>       0.40000000       0.00000000       0.50000000 </v>
   <v>       0.50000000       0.00000000       0.50000000 </v>
   <v>       0.00000000       0.16666667       0.50000000 </v>
   <v>       0.10000000       0.16666667       0.50000000 </v>
   <v>       0.20000000       0.16666667       0.50000000 </v>
   <v>       0.30000000       0.16666667       0.50000000 </v>
   <v>       0.40000000       0.16666667       0.50000000 </v>
   <v>       0.50000000       0.16666667       0.50000000 </v>
   <v>      -0.40000000       0.16666667       0.50000000 </v>
   <v>      -0.30000000       0.16666667       0.50000000 </v>
   <v>      -0.20000000       0.16666667       0.50000000 </v>
   <v>      -0.10000000       0.16666667       0.50000000 </v>
   <v>       0.00000000       0.33333333       0.50000000 </v>
   <v>       0.10000000       0.33333333       0.50000000 </v>
   <v>       0.20000000       0.33333333       0.50000000 </v>
   <v>       0.30000000       0.33333333       0.50000000 </v>
   <v>       0.40000000       0.33333333       0.50000000 </v>
   <v>       0.50000000       0.33333333       0.50000000 </v>
   <v>      -0.40000000       0.33333333       0.50000000 </v>
   <v>      -0.30000000       0.33333333       0.50000000 </v>
   <v>      -0.20000000       0.33333333       0.50000000 </v>
   <v>      -0.10000000       0.33333333       0.50000000 </v>
   <v>       0.00000000       0.50000000       0.50000000 </v>
   <v>       0.10000000       0.50000000       0.50000000 </v>
   <v>       0.20000000       0.50000000       0.50000000 </v>
   <v>       0.30000000       0.50000000       0.50000000 </v>
   <v>       0.40000000       0.50000000       0.50000000 </v>
   <v>       0.50000000       0.50000000       0.50000000 </v>
  </varray>
  <varray name="weights" >
   <v>       0.00416667 </v>
   <v>       0.00833333 </v>
   <v>       0.00833333 </v>
   <v>       0.00833333 </v>
   <v>       0.00833333 </v>
   <v>       0.00416667 </v>
   <v>       0.00833333 </v>
   <v>       0.00833333 </v>
   <v>       0.00833333 </v>
   <v>       0.00833333 </v>
   <v>       0.00833333 </v>
   <v>       0.00833333 </v>
   <v>       0.00833333 </v>
   <v>       0.00833333 </v>
   <v>       0.00833333 </v>
   <v>       0.00833333 </v>
   <v>       0.00833333 </v>
   <v>       0.00833333 </v>
   <v>       0.00833333 </v>
   <v>       0.00833333 </v>
   <v>       0.00833333 </v>
   <v>       0.00833333 </v>
   <v>       0.00833333 </v>
   <v>       0.00833333 </v>
   <v>       0.00833333 </v>
   <v>       0.00833333 </v>
   <v>       0.00416667 </v>
   <v>       0.00833333 </v>
   <v>       0.00833333 </v>
   <v>       0.00833333 </v>
   <v>       0.00833333 </v>
   <v>       0.00416667 </v>
   <v>       0.00833333 </v>
   <v>       0.00833333 </v>
   <v>       0.00833333 </v>
   <v>       0.00833333 </v>
   <v>       0.00833333 </v>
   <v>       0.00833333 </v>
   <v>       0.00833333 </v>
   <v>       0.00833333 </v>
   <v>       0.00833333 </v>
   <v>       0.00833333 </v>
   <v>       0.00833333 </v>
   <v>       0.00833333 </v>
   <v>       0.00833333 </v>
   <v>       0.00833333 </v>
   <v>       0.00833333 </v>
   <v>       0.00833333 </v>
   <v>       0.00833333 </v>
   <v>       0.00833333 </v>
   <v>       0.00833333 </v>
   <v>       0.00833333 </v>
   <v>       0.00833333 </v>
   <v>       0.00833333 </v>
   <v>       0.00833333 </v>
   <v>       0.00833333 </v>
   <v>       0.00833333 </v>
   <v>       0.00833333 </v>
   <v>       0.00833333 </v>
   <v>       0.00833333 </v>
   <v>       0.00833333 </v>
   <v>       0.00833333 </v>
   <v>       0.00833333 </v>
   <v>       0.00833333 </v>
   <v>       0.00833333 </v>
   <v>       0.00833333 </v>
   <v>       0.00833333 </v>
   <v>       0.00833333 </v>
   <v>       0.00833333 </v>
   <v>       0.00833333 </v>
   <v>       0.00833333 </v>
   <v>       0.00833333 </v>
   <v>       0.00833333 </v>
   <v>       0.00833333 </v>
   <v>       0.00833333 </v>
   <v>       0.00833333 </v>
   <v>       0.00833333 </v>
   <v>       0.00833333 </v>
   <v>       0.00833333 </v>
   <v>       0.00833333 </v>
   <v>       0.00833333 </v>
   <v>       0.00833333 </v>
   <v>       0.00833333 </v>
   <v>       0.00833333 </v>
   <v>       0.00833333 </v>
   <v>       0.00833333 </v>
   <v>       0.00833333 </v>
   <v>       0.00833333 </v>
   <v>       0.00833333 </v>
   <v>       0.00833333 </v>
   <v>       0.00833333 </v>
   <v>       0.00833333 </v>
   <v>       0.00416667 </v>
   <v>       0.00833333 </v>
   <v>       0.00833333 </v>
   <v>       0.00833333 </v>
   <v>       0.00833333 </v>
   <v>       0.00416667 </v>
   <v>       0.00833333 </v>
   <v>       0.00833333 </v>
   <v>       0.00833333 </v>
   <v>       0.00833333 </v>
   <v>       0.00833333 </v>
   <v>       0.00833333 </v>
   <v>       0.00833333 </v>
   <v>       0.00833333 </v>
   <v>       0.00833333 </v>
   <v>       0.00833333 </v>
   <v>       0.00833333 </v>
   <v>       0.00833333 </v>
   <v>       0.00833333 </v>
   <v>       0.00833333 </v>
   <v>       0.00833333 </v>
   <v>       0.00833333 </v>
   <v>       0.00833333 </v>
   <v>       0.00833333 </v>
   <v>       0.00833333 </v>
   <v>       0.00833333 </v>
   <v>       0.00416667 </v>
   <v>       0.00833333 </v>
   <v>       0.00833333 </v>
   <v>       0.00833333 </v>
   <v>       0.00833333 </v>
   <v>       0.00416667 </v>
  </varray>
 </kpoints>
 <parameters>
  <separator name="general" >
   <i type="string" name="SYSTEM">unknown system</i>
   <i type="logical" name="LCOMPAT"> F  </i>
  </separator>
  <separator name="electronic" >
   <i type="string" name="PREC">accura</i>
   <i name="ENMAX">    520.00000000</i>
   <i name="ENAUG">    391.91400000</i>
   <i name="EDIFF">      0.00000001</i>
   <i type="int" name="IALGO">    38</i>
   <i type="int" name="IWAVPR">    11</i>
   <i type="int" name="NBANDS">    72</i>
   <i name="NELECT">    112.00000000</i>
   <i type="int" name="TURBO">     0</i>
   <i type="int" name="IRESTART">     0</i>
   <i type="int" name="NREBOOT">     0</i>
   <i type="int" name="NMIN">     0</i>
   <i name="EREF">      0.00000000</i>
   <separator name="electronic smearing" >
    <i type="int" name="ISMEAR">     0</i>
    <i name="SIGMA">      0.01000000</i>
    <i name="KSPACING">      0.50000000</i>
    <i type="logical" name="KGAMMA"> T  </i>
   </separator>
   <separator name="electronic projectors" >
    <i type="logical" name="LREAL"> F  </i>
    <v name="ROPT">      0.00000000      0.00000000</v>
    <i type="int" name="LMAXPAW">  -100</i>
    <i type="int" name="LMAXMIX">     2</i>
    <i type="logical" name="NLSPLINE"> F  </i>
   </separator>
   <separator name="electronic startup" >
    <i type="int" name="ISTART">     0</i>
    <i type="int" name="ICHARG">     2</i>
    <i type="int" name="INIWAV">     1</i>
   </separator>
   <separator name="electronic spin" >
    <i type="int" name="ISPIN">     1</i>
    <i type="logical" name="LNONCOLLINEAR"> F  </i>
    <v name="MAGMOM">      1.00000000      1.00000000      1.00000000      1.00000000      1.00000000      1.00000000      1.00000000      1.00000000      1.00000000      1.00000000      1.00000000      1.00000000</v>
    <i name="NUPDOWN">     -1.00000000</i>
    <i type="logical" name="LSORBIT"> F  </i>
    <v name="SAXIS">      0.00000000      0.00000000      1.00000000</v>
    <i type="logical" name="LSPIRAL"> F  </i>
    <v name="QSPIRAL">      0.00000000      0.00000000      0.00000000</v>
    <i type="logical" name="LZEROZ"> F  </i>
   </separator>
   <separator name="electronic exchange-correlation" >
    <i type="logical" name="LASPH"> F  </i>
    <i type="logical" name="LMETAGGA"> F  </i>
   </separator>
   <separator name="electronic convergence" >
    <i type="int" name="NELM">   100</i>
    <i type="int" name="NELMDL">    -5</i>
    <i type="int" name="NELMIN">     2</i>
    <i name="ENINI">    520.00000000</i>
    <separator name="electronic convergence detail" >
     <i type="logical" name="LDIAG"> T  </i>
     <i type="logical" name="LSUBROT"> F  </i>
     <i name="WEIMIN">      0.00100000</i>
     <i name="EBREAK">      0.00000000</i>
     <i name="DEPER">      0.30000000</i>
     <i type="int" name="NRMM">     4</i>
     <i name="TIME">      0.40000000</i>
    </separator>
   </separator>
   <separator name="electronic mixer" >
    <i name="AMIX">      0.40000000</i>
    <i name="BMIX">      1.00000000</i>
    <i name="AMIN">      0.10000000</i>
    <i name="AMIX_MAG">      1.60000000</i>
    <i name="BMIX_MAG">      1.00000000</i>
    <separator name="electronic mixer details" >
     <i type="int" name="IMIX">     4</i>
     <i type="logical" name="MIXFIRST"> F  </i>
     <i type="int" name="MAXMIX">   -45</i>
     <i name="WC">    100.00000000</i>
     <i type="int" name="INIMIX">     1</i>
     <i type="int" name="MIXPRE">     1</i>
     <i type="int" name="MREMOVE">     5</i>
    </separator>
   </separator>
   <separator name="electronic dipolcorrection" >
    <i type="logical" name="LDIPOL"> F  </i>
    <i type="logical" name="LMONO"> F  </i>
    <i type="int" name="IDIPOL">     0</i>
    <i name="EPSILON">      1.00000000</i>
    <v name="DIPOL">   -100.00000000   -100.00000000   -100.00000000</v>
    <i name="EFIELD">      0.00000000</i>
   </separator>
  </separator>
  <separator name="grids" >
   <i type="int" name="NGX">    36</i>
   <i type="int" name="NGY">    60</i>
   <i type="int" name="NGZ">    70</i>
   <i type="int" name="NGXF">    72</i>
   <i type="int" name="NGYF">   120</i>
   <i type="int" name="NGZF">   140</i>
   <i type="logical" name="ADDGRID"> F  </i>
  </separator>
  <separator name="ionic" >
   <i type="int" name="NSW">     1</i>
   <i type="int" name="IBRION">     8</i>
   <i type="int" name="MDALGO">     0</i>
   <i type="int" name="ISIF">     2</i>
   <i name="PSTRESS">      0.00000000</i>
   <i name="EDIFFG">      0.00000010</i>
   <i type="int" name="NFREE">     0</i>
   <i name="POTIM">      0.50000000</i>
   <i name="SMASS">     -3.00000000</i>
   <i name="SCALEE">      1.00000000</i>
  </separator>
  <separator name="ionic md" >
   <i name="TEBEG">      0.00010000</i>
   <i name="TEEND">      0.00010000</i>
   <i type="int" name="NBLOCK">     1</i>
   <i type="int" name="KBLOCK">     1</i>
   <i type="int" name="NPACO">   256</i>
   <i name="APACO">     16.00000000</i>
  </separator>
  <separator name="symmetry" >
   <i type="int" name="ISYM">     2</i>
   <i name="SYMPREC">      0.00000001</i>
  </separator>
  <separator name="dos" >
   <i type="int" name="LORBIT">     0</i>
   <v name="RWIGS">     -1.00000000     -1.00000000</v>
   <i type="int" name="NEDOS">   301</i>
   <i name="EMIN">     10.00000000</i>
   <i name="EMAX">    -10.00000000</i>
   <i name="EFERMI">      0.00000000</i>
  </separator>
  <separator name="writing" >
   <i type="int" name="NWRITE">     2</i>
   <i type="logical" name="LWAVE"> F  </i>
   <i type="logical" name="LDOWNSAMPLE"> F  </i>
   <i type="logical" name="LCHARG"> T  </i>
   <i type="logical" name="LPARD"> F  </i>
   <i type="logical" name="LVTOT"> F  </i>
   <i type="logical" name="LVHAR"> F  </i>
   <i type="logical" name="LELF"> F  </i>
   <i type="logical" name="LOPTICS"> F  </i>
   <v name="STM">      0.00000000      0.00000000      0.00000000      0.00000000      0.00000000      0.00000000      0.00000000</v>
  </separator>
  <separator name="performance" >
   <i type="int" name="NPAR">     8</i>
   <i type="int" name="NSIM">     4</i>
   <i type="int" name="NBLK">    -1</i>
   <i type="logical" name="LPLANE"> T  </i>
   <i type="logical" name="LSCALAPACK"> T  </i>
   <i type="logical" name="LSCAAWARE"> F  </i>
   <i type="logical" name="LSCALU"> F  </i>
   <i type="logical" name="LASYNC"> F  </i>
   <i type="logical" name="LORBITALREAL"> F  </i>
  </separator>
  <separator name="miscellaneous" >
   <i type="int" name="IDIOT">     3</i>
   <i type="int" name="ISPECIAL">     0</i>
   <i type="logical" name="LMUSIC"> F  </i>
   <v name="POMASS">    207.20000000     35.45300000</v>
   <v name="DARWINR">      0.00000000      0.00000000</v>
   <v name="DARWINV">      1.00000000      1.00000000</v>
   <i type="logical" name="LCORR"> T  </i>
  </separator>
  <i type="logical" name="GGA_COMPAT"> T  </i>
  <i type="logical" name="LBERRY"> F  </i>
  <i type="int" name="ICORELEVEL">     0</i>
  <i type="logical" name="LDAU"> F  </i>
  <i type="int" name="I_CONSTRAINED_M">     0</i>
  <separator name="electronic exchange-correlation" >
   <i type="string" name="GGA">--</i>
   <i type="int" name="VOSKOWN">     0</i>
   <i type="logical" name="LHFCALC"> F  </i>
   <i type="string" name="PRECFOCK"></i>
   <i type="logical" name="LSYMGRAD"> F  </i>
   <i type="logical" name="LHFONE"> F  </i>
   <i type="logical" name="LRHFCALC"> F  </i>
   <i type="logical" name="LTHOMAS"> F  </i>
   <i type="logical" name="LMODELHF"> F  </i>
   <i name="ENCUT4O">     -1.00000000</i>
   <i type="int" name="EXXOEP">     0</i>
   <i type="int" name="FOURORBIT">     0</i>
   <i name="AEXX">      0.00000000</i>
   <i name="HFALPHA">      0.00000000</i>
   <i name="MCALPHA">      0.00000000</i>
   <i name="ALDAX">      1.00000000</i>
   <i name="AGGAX">      1.00000000</i>
   <i name="ALDAC">      1.00000000</i>
   <i name="AGGAC">      1.00000000</i>
   <i type="int" name="NKREDX">     1</i>
   <i type="int" name="NKREDY">     1</i>
   <i type="int" name="NKREDZ">     1</i>
   <i type="logical" name="SHIFTRED"> F  </i>
   <i type="logical" name="ODDONLY"> F  </i>
   <i type="logical" name="EVENONLY"> F  </i>
   <i type="int" name="LMAXFOCK">     0</i>
   <i type="int" name="NMAXFOCKAE">     0</i>
   <i type="logical" name="LFOCKAEDFT"> F  </i>
   <i name="HFSCREEN">      0.00000000</i>
   <i name="HFSCREENC">      0.00000000</i>
   <i type="int" name="NBANDSGWLOW">     0</i>
  </separator>
  <separator name="vdW DFT" >
   <i type="logical" name="LUSE_VDW"> F  </i>
   <i name="Zab_VDW">     -0.84910000</i>
   <i name="PARAM1">      0.12340000</i>
   <i name="PARAM2">      1.00000000</i>
   <i name="PARAM3">      0.00000000</i>
  </separator>
  <separator name="model GW" >
   <i type="int" name="MODEL_GW">     0</i>
   <i name="MODEL_EPS0">     15.99910679</i>
   <i name="MODEL_ALPHA">      1.00000000</i>
  </separator>
  <separator name="linear response parameters" >
   <i type="logical" name="LEPSILON"> T  </i>
   <i type="logical" name="LRPA"> F  </i>
   <i type="logical" name="LNABLA"> F  </i>
   <i type="logical" name="LVEL"> F  </i>
   <i type="int" name="KINTER">     0</i>
   <i name="CSHIFT">      0.10000000</i>
   <i name="OMEGAMAX">     -1.00000000</i>
   <i name="DEG_THRESHOLD">      0.00200000</i>
   <i name="RTIME">     -0.10000000</i>
   <i name="WPLASMAI">      0.00000000</i>
   <v name="DFIELD">      0.00000000      0.00000000      0.00000000</v>
   <v name="WPLASMA">      0.00000000      0.00000000      0.00000000      0.00000000      0.00000000      0.00000000      0.00000000      0.00000000      0.00000000</v>
  </separator>
  <separator name="orbital magnetization" >
   <i type="logical" name="NUCIND"> F  </i>
   <v name="MAGPOS">      0.00000000      0.00000000      0.00000000</v>
   <i type="logical" name="LNICSALL"> T  </i>
   <i type="logical" name="ORBITALMAG"> F  </i>
   <i type="logical" name="LMAGBLOCH"> F  </i>
   <i type="logical" name="LCHIMAG"> F  </i>
   <i type="logical" name="LGAUGE"> T  </i>
   <i type="int" name="MAGATOM">     0</i>
   <v name="MAGDIPOL">      0.00000000      0.00000000      0.00000000</v>
   <v name="AVECCONST">      0.00000000      0.00000000      0.00000000</v>
  </separator>
  <separator name="response functions" >
   <i type="logical" name="LADDER"> F  </i>
   <i type="logical" name="LRPAFORCE"> F  </i>
   <i type="logical" name="LFXC"> F  </i>
   <i type="logical" name="LHARTREE"> T  </i>
   <i type="int" name="IBSE">     0</i>
   <v type="int" name="KPOINT">    -1     0     0     0</v>
   <i type="logical" name="LTCTE"> F  </i>
   <i type="logical" name="LTETE"> F  </i>
   <i type="logical" name="LTRIPLET"> F  </i>
   <i type="logical" name="LFXCEPS"> F  </i>
   <i type="logical" name="LFXHEG"> F  </i>
   <i type="int" name="NATURALO">     2</i>
   <i type="logical" name="L2ORDER"> F  </i>
   <i type="logical" name="LMP2LT"> F  </i>
   <i type="logical" name="LUSEW"> F  </i>
   <i name="ENCUTGW">     -2.00000000</i>
   <i name="ENCUTGWSOFT">     -2.00000000</i>
   <i name="ENCUTLF">     -1.00000000</i>
   <i type="int" name="LMAXMP2">    -1</i>
   <i name="SCISSOR">      0.00000000</i>
   <i type="int" name="NOMEGA">     0</i>
   <i type="int" name="NOMEGAR">     0</i>
   <i type="int" name="NBANDSGW">    -1</i>
   <i type="int" name="NBANDSO">    -1</i>
   <i type="int" name="NBANDSV">    -1</i>
   <i type="int" name="NELM">   100</i>
   <i type="int" name="NELMHF">     1</i>
   <i type="int" name="DIM">     3</i>
   <i type="int" name="ANTIRES">     0</i>
   <i name="OMEGAMAX">    -30.00000000</i>
   <i name="OMEGAMIN">    -30.00000000</i>
   <i name="OMEGATL">   -200.00000000</i>
   <i type="int" name="OMEGAGRID">   140</i>
   <i name="CSHIFT">     -0.10000000</i>
   <i type="logical" name="SELFENERGY"> F  </i>
   <i type="logical" name="LSPECTRAL"> F  </i>
   <i type="logical" name="LSPECTRALGW"> F  </i>
   <i type="logical" name="LSINGLES"> F  </i>
   <i type="logical" name="LFERMIGW"> F  </i>
   <i type="logical" name="ODDONLYGW"> F  </i>
   <i type="logical" name="EVENONLYGW"> F  </i>
   <i type="int" name="NKREDLFX">     1</i>
   <i type="int" name="NKREDLFY">     1</i>
   <i type="int" name="NKREDLFZ">     1</i>
   <i type="int" name="MAXMEM">  2800</i>
   <i type="int" name="TELESCOPE">     0</i>
   <i type="int" name="TAUPAR">     1</i>
   <i type="int" name="OMEGAPAR">    -1</i>
   <i name="LAMBDA">      1.00000000</i>
  </separator>
  <separator name="External order field" >
   <i name="OFIELD_KAPPA">      0.00000000</i>
   <v name="OFIELD_K">      0.00000000      0.00000000      0.00000000</v>
   <i name="OFIELD_Q6_NEAR">      0.00000000</i>
   <i name="OFIELD_Q6_FAR">      0.00000000</i>
   <i name="OFIELD_A">      0.00000000</i>
  </separator>
 </parameters>
 <atominfo>
  <atoms>      12 </atoms>
  <types>       2 </types>
  <array name="atoms" >
   <dimension dim="1">ion</dimension>
   <field type="string">element</field>
   <field type="int">atomtype</field>
   <set>
    <rc><c>Pb</c><c>   1</c></rc>
    <rc><c>Pb</c><c>   1</c></rc>
    <rc><c>Pb</c><c>   1</c></rc>
    <rc><c>Pb</c><c>   1</c></rc>
    <rc><c>Cl</c><c>   2</c></rc>
    <rc><c>Cl</c><c>   2</c></rc>
    <rc><c>Cl</c><c>   2</c></rc>
    <rc><c>Cl</c><c>   2</c></rc>
    <rc><c>Cl</c><c>   2</c></rc>
    <rc><c>Cl</c><c>   2</c></rc>
    <rc><c>Cl</c><c>   2</c></rc>
    <rc><c>Cl</c><c>   2</c></rc>
   </set>
  </array>
  <array name="atomtypes" >
   <dimension dim="1">type</dimension>
   <field type="int">atomspertype</field>
   <field type="string">element</field>
   <field>mass</field>
   <field>valence</field>
   <field type="string">pseudopotential</field>
   <set>
    <rc><c>   4</c><c>Pb</c><c>    207.20000000</c><c>     14.00000000</c><c>  PAW_PBE Pb_d 06Sep2000                </c></rc>
    <rc><c>   8</c><c>Cl</c><c>     35.45300000</c><c>      7.00000000</c><c>  PAW_PBE Cl 06Sep2000                  </c></rc>
   </set>
  </array>
 </atominfo>
 <structure name="initialpos" >
  <crystal>
   <varray name="basis" >
    <v>       4.54802613       0.00000000       0.00000000 </v>
    <v>       0.00000000       7.67151129       0.00000000 </v>
    <v>       0.00000000       0.00000000       9.17110896 </v>
   </varray>
   <i name="volume">    319.98213577 </i>
   <varray name="rec_basis" >
    <v>       0.21987561       0.00000000       0.00000000 </v>
    <v>       0.00000000       0.13035241       0.00000000 </v>
    <v>       0.00000000       0.00000000       0.10903807 </v>
   </varray>
  </crystal>
  <varray name="positions" >
   <v>       0.25000002       0.26365271       0.90944605 </v>
   <v>       0.75000006       0.73634737       0.09055403 </v>
   <v>       0.25000002       0.76365275       0.59055407 </v>
   <v>       0.75000006       0.23634733       0.40944601 </v>
   <v>       0.25000002       0.48276903       0.15764770 </v>
   <v>       0.75000006       0.51723105       0.84235237 </v>
   <v>       0.25000002       0.98276907       0.34235234 </v>
   <v>       0.75000006       0.01723101       0.65764774 </v>
   <v>       0.75000006       0.64146140       0.42262665 </v>
   <v>       0.25000002       0.35853868       0.57737342 </v>
   <v>       0.75000006       0.14146136       0.07737339 </v>
   <v>       0.25000002       0.85853872       0.92262669 </v>
  </varray>
 </structure>
 <calculation>
  <scstep>
   <time name="dav">   25.54   25.55</time>
   <time name="total">   25.66   25.96</time>
   <energy>
    <i name="alphaZ">    248.56230777 </i>
    <i name="ewald">  -7583.10257181 </i>
    <i name="hartreedc">  -2316.92886598 </i>
    <i name="XCdc">    310.72960245 </i>
    <i name="pawpsdc">   8343.84573111 </i>
    <i name="pawaedc">  -8278.08022598 </i>
    <i name="eentropy">     -0.00018186 </i>
    <i name="bandstr">    690.02330899 </i>
    <i name="atom">   9924.24751339 </i>
    <i name="e_fr_energy">   1339.29661808 </i>
    <i name="e_wo_entrp">   1339.29679993 </i>
    <i name="e_0_energy">   1339.29670901 </i>
   </energy>
  </scstep>
  <scstep>
   <time name="dav">   26.29   26.30</time>
   <time name="total">   26.29   26.31</time>
   <energy>
    <i name="e_fr_energy">    196.56639939 </i>
    <i name="e_wo_entrp">    196.56648136 </i>
    <i name="e_0_energy">    196.56644037 </i>
   </energy>
  </scstep>
  <scstep>
   <time name="dav">   31.33   31.35</time>
   <time name="total">   31.33   31.35</time>
   <energy>
    <i name="e_fr_energy">    -29.89510372 </i>
    <i name="e_wo_entrp">    -29.89510372 </i>
    <i name="e_0_energy">    -29.89510372 </i>
   </energy>
  </scstep>
  <scstep>
   <time name="dav">   29.55   29.58</time>
   <time name="total">   29.55   29.58</time>
   <energy>
    <i name="e_fr_energy">    -44.73823297 </i>
    <i name="e_wo_entrp">    -44.73823297 </i>
    <i name="e_0_energy">    -44.73823297 </i>
   </energy>
  </scstep>
  <scstep>
   <time name="dav">   29.14   29.16</time>
   <time name="total">   30.87   30.88</time>
   <energy>
    <i name="e_fr_energy">    -45.36481778 </i>
    <i name="e_wo_entrp">    -45.36481778 </i>
    <i name="e_0_energy">    -45.36481778 </i>
   </energy>
  </scstep>
  <scstep>
   <time name="dav">   34.42   34.44</time>
   <time name="total">   36.23   36.25</time>
   <energy>
    <i name="e_fr_energy">    -42.82680144 </i>
    <i name="e_wo_entrp">    -42.82680144 </i>
    <i name="e_0_energy">    -42.82680144 </i>
   </energy>
  </scstep>
  <scstep>
   <time name="dav">   32.77   32.78</time>
   <time name="total">   34.57   34.59</time>
   <energy>
    <i name="e_fr_energy">    -42.72616319 </i>
    <i name="e_wo_entrp">    -42.72616319 </i>
    <i name="e_0_energy">    -42.72616319 </i>
   </energy>
  </scstep>
  <scstep>
   <time name="dav">   32.72   32.74</time>
   <time name="total">   34.55   34.57</time>
   <energy>
    <i name="e_fr_energy">    -42.76476836 </i>
    <i name="e_wo_entrp">    -42.76476836 </i>
    <i name="e_0_energy">    -42.76476836 </i>
   </energy>
  </scstep>
  <scstep>
   <time name="dav">   32.50   32.52</time>
   <time name="total">   34.29   34.31</time>
   <energy>
    <i name="e_fr_energy">    -42.73814713 </i>
    <i name="e_wo_entrp">    -42.73814713 </i>
    <i name="e_0_energy">    -42.73814713 </i>
   </energy>
  </scstep>
  <scstep>
   <time name="dav">   27.79   27.81</time>
   <time name="total">   29.58   29.60</time>
   <energy>
    <i name="e_fr_energy">    -42.73978765 </i>
    <i name="e_wo_entrp">    -42.73978765 </i>
    <i name="e_0_energy">    -42.73978765 </i>
   </energy>
  </scstep>
  <scstep>
   <time name="dav">   32.10   32.12</time>
   <time name="total">   33.90   33.92</time>
   <energy>
    <i name="e_fr_energy">    -42.74029702 </i>
    <i name="e_wo_entrp">    -42.74029702 </i>
    <i name="e_0_energy">    -42.74029702 </i>
   </energy>
  </scstep>
  <scstep>
   <time name="dav">   30.67   30.69</time>
   <time name="total">   32.47   32.48</time>
   <energy>
    <i name="e_fr_energy">    -42.74030326 </i>
    <i name="e_wo_entrp">    -42.74030326 </i>
    <i name="e_0_energy">    -42.74030326 </i>
   </energy>
  </scstep>
  <scstep>
   <time name="dav">   29.61   29.62</time>
   <time name="total">   31.44   31.45</time>
   <energy>
    <i name="e_fr_energy">    -42.74030892 </i>
    <i name="e_wo_entrp">    -42.74030892 </i>
    <i name="e_0_energy">    -42.74030892 </i>
   </energy>
  </scstep>
  <scstep>
   <time name="dav">   31.11   31.12</time>
   <time name="total">   32.94   32.96</time>
   <energy>
    <i name="e_fr_energy">    -42.74030875 </i>
    <i name="e_wo_entrp">    -42.74030875 </i>
    <i name="e_0_energy">    -42.74030875 </i>
   </energy>
  </scstep>
  <scstep>
   <time name="dav">   29.32   29.34</time>
   <time name="total">   31.15   31.17</time>
   <energy>
    <i name="e_fr_energy">    -42.74030880 </i>
    <i name="e_wo_entrp">    -42.74030880 </i>
    <i name="e_0_energy">    -42.74030880 </i>
   </energy>
  </scstep>
  <scstep>
   <time name="dav">   25.21   25.24</time>
   <time name="total">   27.03   27.06</time>
   <energy>
    <i name="e_fr_energy">    -42.74030865 </i>
    <i name="e_wo_entrp">    -42.74030865 </i>
    <i name="e_0_energy">    -42.74030865 </i>
   </energy>
  </scstep>
  <scstep>
   <time name="dav">   20.69   20.70</time>
   <time name="total">   22.51   22.53</time>
   <energy>
    <i name="e_fr_energy">    -42.74030861 </i>
    <i name="e_wo_entrp">    -42.74030861 </i>
    <i name="e_0_energy">    -42.74030861 </i>
   </energy>
  </scstep>
  <scstep>
   <time name="dav">   19.44   19.46</time>
   <time name="total">   21.24   21.26</time>
   <energy>
    <i name="e_fr_energy">    -42.74030865 </i>
    <i name="e_wo_entrp">    -42.74030865 </i>
    <i name="e_0_energy">    -42.74030865 </i>
   </energy>
  </scstep>
  <scstep>
   <time name="dav">   19.41   19.43</time>
   <time name="total">   19.49   19.50</time>
   <energy>
    <i name="alphaZ">    248.56230777 </i>
    <i name="ewald">  -7583.10257181 </i>
    <i name="hartreedc">  -2330.34758907 </i>
    <i name="XCdc">    314.01221287 </i>
    <i name="pawpsdc">   9369.89629140 </i>
    <i name="pawaedc">  -9296.94483462 </i>
    <i name="eentropy">     -0.00000000 </i>
    <i name="bandstr">   -689.06363858 </i>
    <i name="atom">   9924.24751339 </i>
    <i name="e_fr_energy">    -42.74030865 </i>
    <i name="e_wo_entrp">    -42.74030865 </i>
    <i name="e_0_energy">    -42.74030865 </i>
   </energy>
  </scstep>
  <structure>
   <crystal>
    <varray name="basis" >
     <v>       4.54802613       0.00000000       0.00000000 </v>
     <v>       0.00000000       7.67151129       0.00000000 </v>
     <v>       0.00000000       0.00000000       9.17110896 </v>
    </varray>
    <i name="volume">    319.98213577 </i>
    <varray name="rec_basis" >
     <v>       0.21987561       0.00000000       0.00000000 </v>
     <v>       0.00000000       0.13035241       0.00000000 </v>
     <v>       0.00000000       0.00000000       0.10903807 </v>
    </varray>
   </crystal>
   <varray name="positions" >
    <v>       0.25000002       0.26365271       0.90944605 </v>
    <v>       0.75000006       0.73634737       0.09055403 </v>
    <v>       0.25000002       0.76365275       0.59055407 </v>
    <v>       0.75000006       0.23634733       0.40944601 </v>
    <v>       0.25000002       0.48276903       0.15764770 </v>
    <v>       0.75000006       0.51723105       0.84235237 </v>
    <v>       0.25000002       0.98276907       0.34235234 </v>
    <v>       0.75000006       0.01723101       0.65764774 </v>
    <v>       0.75000006       0.64146140       0.42262665 </v>
    <v>       0.25000002       0.35853868       0.57737342 </v>
    <v>       0.75000006       0.14146136       0.07737339 </v>
    <v>       0.25000002       0.85853872       0.92262669 </v>
   </varray>
  </structure>
  <varray name="forces" >
   <v>       0.00000017       0.00433563      -0.03213800 </v>
   <v>      -0.00000017      -0.00433563       0.03213800 </v>
   <v>       0.00000021       0.00433399       0.03213519 </v>
   <v>      -0.00000021      -0.00433399      -0.03213519 </v>
   <v>       0.00000028       0.02380226       0.03489434 </v>
   <v>      -0.00000028      -0.02380226      -0.03489434 </v>
   <v>       0.00000028       0.02380170      -0.03489275 </v>
   <v>      -0.00000028      -0.02380170       0.03489275 </v>
   <v>      -0.00000040      -0.00730715      -0.04584071 </v>
   <v>       0.00000040       0.00730715       0.04584071 </v>
   <v>      -0.00000039      -0.00730668       0.04584182 </v>
   <v>       0.00000039       0.00730668      -0.04584182 </v>
  </varray>
  <varray name="stress" >
   <v>      11.96280994       0.00000101       0.00000027 </v>
   <v>       0.00000110      11.50350558       0.00000628 </v>
   <v>       0.00000036       0.00000622      12.30452183 </v>
  </varray>
  <energy>
   <i name="e_fr_energy">    -42.74030865 </i>
   <i name="e_wo_entrp">    -42.74030865 </i>
   <i name="e_0_energy">     -0.00000000 </i>
  </energy>
  <scstep>
   <time name="total">   34.81   34.82</time>
   <energy>
    <i name="e_fr_energy">     -3.70809551 </i>
    <i name="e_wo_entrp">     -3.70809551 </i>
    <i name="e_0_energy">     -3.70809551 </i>
   </energy>
  </scstep>
  <scstep>
   <time name="total">   30.63   30.64</time>
   <energy>
    <i name="e_fr_energy">     -3.95697206 </i>
    <i name="e_wo_entrp">     -3.95697206 </i>
    <i name="e_0_energy">     -3.95697206 </i>
   </energy>
  </scstep>
  <scstep>
   <time name="total">   32.36   32.37</time>
   <energy>
    <i name="e_fr_energy">     -3.95966108 </i>
    <i name="e_wo_entrp">     -3.95966108 </i>
    <i name="e_0_energy">     -3.95966108 </i>
   </energy>
  </scstep>
  <scstep>
   <time name="total">   31.07   31.08</time>
   <energy>
    <i name="e_fr_energy">     -3.96000193 </i>
    <i name="e_wo_entrp">     -3.96000193 </i>
    <i name="e_0_energy">     -3.96000193 </i>
   </energy>
  </scstep>
  <scstep>
   <time name="total">   32.22   32.23</time>
   <energy>
    <i name="e_fr_energy">     -3.96001637 </i>
    <i name="e_wo_entrp">     -3.96001637 </i>
    <i name="e_0_energy">     -3.96001637 </i>
   </energy>
  </scstep>
  <scstep>
   <time name="total">   35.70   35.71</time>
   <energy>
    <i name="e_fr_energy">     -3.96001841 </i>
    <i name="e_wo_entrp">     -3.96001841 </i>
    <i name="e_0_energy">     -3.96001841 </i>
   </energy>
  </scstep>
  <scstep>
   <time name="total">   37.75   37.76</time>
   <energy>
    <i name="e_fr_energy">     -3.96001844 </i>
    <i name="e_wo_entrp">     -3.96001844 </i>
    <i name="e_0_energy">     -3.96001844 </i>
   </energy>
  </scstep>
  <scstep>
   <time name="total">   37.84   37.85</time>
   <energy>
    <i name="e_fr_energy">     -3.96001844 </i>
    <i name="e_wo_entrp">     -3.96001844 </i>
    <i name="e_0_energy">     -3.96001844 </i>
   </energy>
  </scstep>
  <scstep>
   <time name="total">   37.81   37.82</time>
   <energy>
    <i name="e_fr_energy">     -3.96001844 </i>
    <i name="e_wo_entrp">     -3.96001844 </i>
    <i name="e_0_energy">     -3.96001844 </i>
   </energy>
  </scstep>
  <scstep>
   <time name="total">   37.83   37.84</time>
   <energy>
    <i name="e_fr_energy">     -3.96001844 </i>
    <i name="e_wo_entrp">     -3.96001844 </i>
    <i name="e_0_energy">     -3.96001844 </i>
   </energy>
  </scstep>
  <scstep>
   <time name="total">   37.88   37.89</time>
   <energy>
    <i name="e_fr_energy">     -3.96001844 </i>
    <i name="e_wo_entrp">     -3.96001844 </i>
    <i name="e_0_energy">     -3.96001844 </i>
   </energy>
  </scstep>
  <scstep>
   <time name="total">   37.50   37.51</time>
   <energy>
    <i name="e_fr_energy">     -3.96001844 </i>
    <i name="e_wo_entrp">     -3.96001844 </i>
    <i name="e_0_energy">     -3.96001844 </i>
   </energy>
  </scstep>
  <scstep>
   <time name="total">   37.75   37.76</time>
   <energy>
    <i name="e_fr_energy">     -3.96001844 </i>
    <i name="e_wo_entrp">     -3.96001844 </i>
    <i name="e_0_energy">     -3.96001844 </i>
   </energy>
  </scstep>
  <scstep>
   <time name="total">   37.73   37.74</time>
   <energy>
    <i name="e_fr_energy">     -3.96001844 </i>
    <i name="e_wo_entrp">     -3.96001844 </i>
    <i name="e_0_energy">     -3.96001844 </i>
   </energy>
  </scstep>
  <scstep>
   <time name="total">   34.93   34.94</time>
   <energy>
    <i name="e_fr_energy">     -3.57310575 </i>
    <i name="e_wo_entrp">     -3.57310575 </i>
    <i name="e_0_energy">     -3.57310575 </i>
   </energy>
  </scstep>
  <scstep>
   <time name="total">   30.56   30.57</time>
   <energy>
    <i name="e_fr_energy">     -3.82273040 </i>
    <i name="e_wo_entrp">     -3.82273040 </i>
    <i name="e_0_energy">     -3.82273040 </i>
   </energy>
  </scstep>
  <scstep>
   <time name="total">   32.55   32.56</time>
   <energy>
    <i name="e_fr_energy">     -3.82507893 </i>
    <i name="e_wo_entrp">     -3.82507893 </i>
    <i name="e_0_energy">     -3.82507893 </i>
   </energy>
  </scstep>
  <scstep>
   <time name="total">   31.17   31.18</time>
   <energy>
    <i name="e_fr_energy">     -3.82545281 </i>
    <i name="e_wo_entrp">     -3.82545281 </i>
    <i name="e_0_energy">     -3.82545281 </i>
   </energy>
  </scstep>
  <scstep>
   <time name="total">   32.14   32.15</time>
   <energy>
    <i name="e_fr_energy">     -3.82546591 </i>
    <i name="e_wo_entrp">     -3.82546591 </i>
    <i name="e_0_energy">     -3.82546591 </i>
   </energy>
  </scstep>
  <scstep>
   <time name="total">   35.50   35.51</time>
   <energy>
    <i name="e_fr_energy">     -3.82546848 </i>
    <i name="e_wo_entrp">     -3.82546848 </i>
    <i name="e_0_energy">     -3.82546848 </i>
   </energy>
  </scstep>
  <scstep>
   <time name="total">   37.91   37.92</time>
   <energy>
    <i name="e_fr_energy">     -3.82546849 </i>
    <i name="e_wo_entrp">     -3.82546849 </i>
    <i name="e_0_energy">     -3.82546849 </i>
   </energy>
  </scstep>
  <scstep>
   <time name="total">   37.14   37.15</time>
   <energy>
    <i name="e_fr_energy">     -3.82546851 </i>
    <i name="e_wo_entrp">     -3.82546851 </i>
    <i name="e_0_energy">     -3.82546851 </i>
   </energy>
  </scstep>
  <scstep>
   <time name="total">   37.26   37.27</time>
   <energy>
    <i name="e_fr_energy">     -3.82546850 </i>
    <i name="e_wo_entrp">     -3.82546850 </i>
    <i name="e_0_energy">     -3.82546850 </i>
   </energy>
  </scstep>
  <scstep>
   <time name="total">   37.32   37.33</time>
   <energy>
    <i name="e_fr_energy">     -3.82546850 </i>
    <i name="e_wo_entrp">     -3.82546850 </i>
    <i name="e_0_energy">     -3.82546850 </i>
   </energy>
  </scstep>
  <scstep>
   <time name="total">   37.45   37.46</time>
   <energy>
    <i name="e_fr_energy">     -3.82546850 </i>
    <i name="e_wo_entrp">     -3.82546850 </i>
    <i name="e_0_energy">     -3.82546850 </i>
   </energy>
  </scstep>
  <scstep>
   <time name="total">   37.31   37.32</time>
   <energy>
    <i name="e_fr_energy">     -3.82546850 </i>
    <i name="e_wo_entrp">     -3.82546850 </i>
    <i name="e_0_energy">     -3.82546850 </i>
   </energy>
  </scstep>
  <scstep>
   <time name="total">   37.35   37.36</time>
   <energy>
    <i name="e_fr_energy">     -3.82546850 </i>
    <i name="e_wo_entrp">     -3.82546850 </i>
    <i name="e_0_energy">     -3.82546850 </i>
   </energy>
  </scstep>
  <scstep>
   <time name="total">   37.33   37.34</time>
   <energy>
    <i name="e_fr_energy">     -3.82546850 </i>
    <i name="e_wo_entrp">     -3.82546850 </i>
    <i name="e_0_energy">     -3.82546850 </i>
   </energy>
  </scstep>
  <scstep>
   <time name="total">   34.83   34.84</time>
   <energy>
    <i name="e_fr_energy">     -3.55475014 </i>
    <i name="e_wo_entrp">     -3.55475014 </i>
    <i name="e_0_energy">     -3.55475014 </i>
   </energy>
  </scstep>
  <scstep>
   <time name="total">   30.57   30.58</time>
   <energy>
    <i name="e_fr_energy">     -3.79884801 </i>
    <i name="e_wo_entrp">     -3.79884801 </i>
    <i name="e_0_energy">     -3.79884801 </i>
   </energy>
  </scstep>
  <scstep>
   <time name="total">   32.52   32.52</time>
   <energy>
    <i name="e_fr_energy">     -3.80125529 </i>
    <i name="e_wo_entrp">     -3.80125529 </i>
    <i name="e_0_energy">     -3.80125529 </i>
   </energy>
  </scstep>
  <scstep>
   <time name="total">   30.98   30.99</time>
   <energy>
    <i name="e_fr_energy">     -3.80159699 </i>
    <i name="e_wo_entrp">     -3.80159699 </i>
    <i name="e_0_energy">     -3.80159699 </i>
   </energy>
  </scstep>
  <scstep>
   <time name="total">   32.09   32.10</time>
   <energy>
    <i name="e_fr_energy">     -3.80161053 </i>
    <i name="e_wo_entrp">     -3.80161053 </i>
    <i name="e_0_energy">     -3.80161053 </i>
   </energy>
  </scstep>
  <scstep>
   <time name="total">   35.95   35.96</time>
   <energy>
    <i name="e_fr_energy">     -3.80161297 </i>
    <i name="e_wo_entrp">     -3.80161297 </i>
    <i name="e_0_energy">     -3.80161297 </i>
   </energy>
  </scstep>
  <scstep>
   <time name="total">   38.05   38.06</time>
   <energy>
    <i name="e_fr_energy">     -3.80161299 </i>
    <i name="e_wo_entrp">     -3.80161299 </i>
    <i name="e_0_energy">     -3.80161299 </i>
   </energy>
  </scstep>
  <scstep>
   <time name="total">   37.90   37.91</time>
   <energy>
    <i name="e_fr_energy">     -3.80161300 </i>
    <i name="e_wo_entrp">     -3.80161300 </i>
    <i name="e_0_energy">     -3.80161300 </i>
   </energy>
  </scstep>
  <scstep>
   <time name="total">   37.96   37.97</time>
   <energy>
    <i name="e_fr_energy">     -3.80161300 </i>
    <i name="e_wo_entrp">     -3.80161300 </i>
    <i name="e_0_energy">     -3.80161300 </i>
   </energy>
  </scstep>
  <scstep>
   <time name="total">   38.02   38.03</time>
   <energy>
    <i name="e_fr_energy">     -3.80161300 </i>
    <i name="e_wo_entrp">     -3.80161300 </i>
    <i name="e_0_energy">     -3.80161300 </i>
   </energy>
  </scstep>
  <scstep>
   <time name="total">   37.69   37.70</time>
   <energy>
    <i name="e_fr_energy">     -3.80161300 </i>
    <i name="e_wo_entrp">     -3.80161300 </i>
    <i name="e_0_energy">     -3.80161300 </i>
   </energy>
  </scstep>
  <scstep>
   <time name="total">   37.65   37.66</time>
   <energy>
    <i name="e_fr_energy">     -3.80161300 </i>
    <i name="e_wo_entrp">     -3.80161300 </i>
    <i name="e_0_energy">     -3.80161300 </i>
   </energy>
  </scstep>
  <scstep>
   <time name="total">   37.91   37.92</time>
   <energy>
    <i name="e_fr_energy">     -3.80161300 </i>
    <i name="e_wo_entrp">     -3.80161300 </i>
    <i name="e_0_energy">     -3.80161300 </i>
   </energy>
  </scstep>
  <scstep>
   <time name="total">   38.17   38.18</time>
   <energy>
    <i name="e_fr_energy">     -3.80161300 </i>
    <i name="e_wo_entrp">     -3.80161300 </i>
    <i name="e_0_energy">     -3.80161300 </i>
   </energy>
  </scstep>
  <varray name="epsilon_rpa" >
   <v>       5.47885906       0.00000046      -0.00000075 </v>
   <v>       0.00000047       5.32668004       0.00000023 </v>
   <v>      -0.00000006      -0.00000138       5.29969704 </v>
  </varray>
  <kpoints>
   <generation param="Gamma">
    <v type="int" name="divisions">      10        6        4 </v>
    <v name="usershift">      0.00000000       0.00000000       0.00000000 </v>
    <v name="genvec1">      0.10000000       0.00000000       0.00000000 </v>
    <v name="genvec2">      0.00000000       0.16666667       0.00000000 </v>
    <v name="genvec3">      0.00000000       0.00000000       0.25000000 </v>
    <v name="shift">      0.00000000       0.00000000       0.00000000 </v>
   </generation>
   <varray name="kpointlist" >
    <v>       0.00000000       0.00000000       0.00000000 </v>
    <v>       0.10000000       0.00000000       0.00000000 </v>
    <v>       0.20000000       0.00000000       0.00000000 </v>
    <v>       0.30000000       0.00000000       0.00000000 </v>
    <v>       0.40000000       0.00000000       0.00000000 </v>
    <v>       0.50000000       0.00000000       0.00000000 </v>
    <v>       0.00000000       0.16666667       0.00000000 </v>
    <v>       0.10000000       0.16666667       0.00000000 </v>
    <v>       0.20000000       0.16666667       0.00000000 </v>
    <v>       0.30000000       0.16666667       0.00000000 </v>
    <v>       0.40000000       0.16666667       0.00000000 </v>
    <v>       0.50000000       0.16666667       0.00000000 </v>
    <v>      -0.40000000       0.16666667       0.00000000 </v>
    <v>      -0.30000000       0.16666667       0.00000000 </v>
    <v>      -0.20000000       0.16666667       0.00000000 </v>
    <v>      -0.10000000       0.16666667       0.00000000 </v>
    <v>       0.00000000       0.33333333       0.00000000 </v>
    <v>       0.10000000       0.33333333       0.00000000 </v>
    <v>       0.20000000       0.33333333       0.00000000 </v>
    <v>       0.30000000       0.33333333       0.00000000 </v>
    <v>       0.40000000       0.33333333       0.00000000 </v>
    <v>       0.50000000       0.33333333       0.00000000 </v>
    <v>      -0.40000000       0.33333333       0.00000000 </v>
    <v>      -0.30000000       0.33333333       0.00000000 </v>
    <v>      -0.20000000       0.33333333       0.00000000 </v>
    <v>      -0.10000000       0.33333333       0.00000000 </v>
    <v>       0.00000000       0.50000000       0.00000000 </v>
    <v>       0.10000000       0.50000000       0.00000000 </v>
    <v>       0.20000000       0.50000000       0.00000000 </v>
    <v>       0.30000000       0.50000000       0.00000000 </v>
    <v>       0.40000000       0.50000000       0.00000000 </v>
    <v>       0.50000000       0.50000000       0.00000000 </v>
    <v>       0.00000000       0.00000000       0.25000000 </v>
    <v>       0.10000000       0.00000000       0.25000000 </v>
    <v>       0.20000000       0.00000000       0.25000000 </v>
    <v>       0.30000000       0.00000000       0.25000000 </v>
    <v>       0.40000000       0.00000000       0.25000000 </v>
    <v>       0.50000000       0.00000000       0.25000000 </v>
    <v>      -0.40000000       0.00000000       0.25000000 </v>
    <v>      -0.30000000       0.00000000       0.25000000 </v>
    <v>      -0.20000000       0.00000000       0.25000000 </v>
    <v>      -0.10000000       0.00000000       0.25000000 </v>
    <v>       0.00000000       0.16666667       0.25000000 </v>
    <v>       0.10000000       0.16666667       0.25000000 </v>
    <v>       0.20000000       0.16666667       0.25000000 </v>
    <v>       0.30000000       0.16666667       0.25000000 </v>
    <v>       0.40000000       0.16666667       0.25000000 </v>
    <v>       0.50000000       0.16666667       0.25000000 </v>
    <v>      -0.40000000       0.16666667       0.25000000 </v>
    <v>      -0.30000000       0.16666667       0.25000000 </v>
    <v>      -0.20000000       0.16666667       0.25000000 </v>
    <v>      -0.10000000       0.16666667       0.25000000 </v>
    <v>       0.00000000       0.33333333       0.25000000 </v>
    <v>       0.10000000       0.33333333       0.25000000 </v>
    <v>       0.20000000       0.33333333       0.25000000 </v>
    <v>       0.30000000       0.33333333       0.25000000 </v>
    <v>       0.40000000       0.33333333       0.25000000 </v>
    <v>       0.50000000       0.33333333       0.25000000 </v>
    <v>      -0.40000000       0.33333333       0.25000000 </v>
    <v>      -0.30000000       0.33333333       0.25000000 </v>
    <v>      -0.20000000       0.33333333       0.25000000 </v>
    <v>      -0.10000000       0.33333333       0.25000000 </v>
    <v>       0.00000000       0.50000000       0.25000000 </v>
    <v>       0.10000000       0.50000000       0.25000000 </v>
    <v>       0.20000000       0.50000000       0.25000000 </v>
    <v>       0.30000000       0.50000000       0.25000000 </v>
    <v>       0.40000000       0.50000000       0.25000000 </v>
    <v>       0.50000000       0.50000000       0.25000000 </v>
    <v>      -0.40000000       0.50000000       0.25000000 </v>
    <v>      -0.30000000       0.50000000       0.25000000 </v>
    <v>      -0.20000000       0.50000000       0.25000000 </v>
    <v>      -0.10000000       0.50000000       0.25000000 </v>
    <v>       0.00000000      -0.33333333       0.25000000 </v>
    <v>       0.10000000      -0.33333333       0.25000000 </v>
    <v>       0.20000000      -0.33333333       0.25000000 </v>
    <v>       0.30000000      -0.33333333       0.25000000 </v>
    <v>       0.40000000      -0.33333333       0.25000000 </v>
    <v>       0.50000000      -0.33333333       0.25000000 </v>
    <v>      -0.40000000      -0.33333333       0.25000000 </v>
    <v>      -0.30000000      -0.33333333       0.25000000 </v>
    <v>      -0.20000000      -0.33333333       0.25000000 </v>
    <v>      -0.10000000      -0.33333333       0.25000000 </v>
    <v>       0.00000000      -0.16666667       0.25000000 </v>
    <v>       0.10000000      -0.16666667       0.25000000 </v>
    <v>       0.20000000      -0.16666667       0.25000000 </v>
    <v>       0.30000000      -0.16666667       0.25000000 </v>
    <v>       0.40000000      -0.16666667       0.25000000 </v>
    <v>       0.50000000      -0.16666667       0.25000000 </v>
    <v>      -0.40000000      -0.16666667       0.25000000 </v>
    <v>      -0.30000000      -0.16666667       0.25000000 </v>
    <v>      -0.20000000      -0.16666667       0.25000000 </v>
    <v>      -0.10000000      -0.16666667       0.25000000 </v>
    <v>       0.00000000       0.00000000       0.50000000 </v>
    <v>       0.10000000       0.00000000       0.50000000 </v>
    <v>       0.20000000       0.00000000       0.50000000 </v>
    <v>       0.30000000       0.00000000       0.50000000 </v>
    <v>       0.40000000       0.00000000       0.50000000 </v>
    <v>       0.50000000       0.00000000       0.50000000 </v>
    <v>       0.00000000       0.16666667       0.50000000 </v>
    <v>       0.10000000       0.16666667       0.50000000 </v>
    <v>       0.20000000       0.16666667       0.50000000 </v>
    <v>       0.30000000       0.16666667       0.50000000 </v>
    <v>       0.40000000       0.16666667       0.50000000 </v>
    <v>       0.50000000       0.16666667       0.50000000 </v>
    <v>      -0.40000000       0.16666667       0.50000000 </v>
    <v>      -0.30000000       0.16666667       0.50000000 </v>
    <v>      -0.20000000       0.16666667       0.50000000 </v>
    <v>      -0.10000000       0.16666667       0.50000000 </v>
    <v>       0.00000000       0.33333333       0.50000000 </v>
    <v>       0.10000000       0.33333333       0.50000000 </v>
    <v>       0.20000000       0.33333333       0.50000000 </v>
    <v>       0.30000000       0.33333333       0.50000000 </v>
    <v>       0.40000000       0.33333333       0.50000000 </v>
    <v>       0.50000000       0.33333333       0.50000000 </v>
    <v>      -0.40000000       0.33333333       0.50000000 </v>
    <v>      -0.30000000       0.33333333       0.50000000 </v>
    <v>      -0.20000000       0.33333333       0.50000000 </v>
    <v>      -0.10000000       0.33333333       0.50000000 </v>
    <v>       0.00000000       0.50000000       0.50000000 </v>
    <v>       0.10000000       0.50000000       0.50000000 </v>
    <v>       0.20000000       0.50000000       0.50000000 </v>
    <v>       0.30000000       0.50000000       0.50000000 </v>
    <v>       0.40000000       0.50000000       0.50000000 </v>
    <v>       0.50000000       0.50000000       0.50000000 </v>
   </varray>
   <varray name="weights" >
    <v>       0.00416667 </v>
    <v>       0.00833333 </v>
    <v>       0.00833333 </v>
    <v>       0.00833333 </v>
    <v>       0.00833333 </v>
    <v>       0.00416667 </v>
    <v>       0.00833333 </v>
    <v>       0.00833333 </v>
    <v>       0.00833333 </v>
    <v>       0.00833333 </v>
    <v>       0.00833333 </v>
    <v>       0.00833333 </v>
    <v>       0.00833333 </v>
    <v>       0.00833333 </v>
    <v>       0.00833333 </v>
    <v>       0.00833333 </v>
    <v>       0.00833333 </v>
    <v>       0.00833333 </v>
    <v>       0.00833333 </v>
    <v>       0.00833333 </v>
    <v>       0.00833333 </v>
    <v>       0.00833333 </v>
    <v>       0.00833333 </v>
    <v>       0.00833333 </v>
    <v>       0.00833333 </v>
    <v>       0.00833333 </v>
    <v>       0.00416667 </v>
    <v>       0.00833333 </v>
    <v>       0.00833333 </v>
    <v>       0.00833333 </v>
    <v>       0.00833333 </v>
    <v>       0.00416667 </v>
    <v>       0.00833333 </v>
    <v>       0.00833333 </v>
    <v>       0.00833333 </v>
    <v>       0.00833333 </v>
    <v>       0.00833333 </v>
    <v>       0.00833333 </v>
    <v>       0.00833333 </v>
    <v>       0.00833333 </v>
    <v>       0.00833333 </v>
    <v>       0.00833333 </v>
    <v>       0.00833333 </v>
    <v>       0.00833333 </v>
    <v>       0.00833333 </v>
    <v>       0.00833333 </v>
    <v>       0.00833333 </v>
    <v>       0.00833333 </v>
    <v>       0.00833333 </v>
    <v>       0.00833333 </v>
    <v>       0.00833333 </v>
    <v>       0.00833333 </v>
    <v>       0.00833333 </v>
    <v>       0.00833333 </v>
    <v>       0.00833333 </v>
    <v>       0.00833333 </v>
    <v>       0.00833333 </v>
    <v>       0.00833333 </v>
    <v>       0.00833333 </v>
    <v>       0.00833333 </v>
    <v>       0.00833333 </v>
    <v>       0.00833333 </v>
    <v>       0.00833333 </v>
    <v>       0.00833333 </v>
    <v>       0.00833333 </v>
    <v>       0.00833333 </v>
    <v>       0.00833333 </v>
    <v>       0.00833333 </v>
    <v>       0.00833333 </v>
    <v>       0.00833333 </v>
    <v>       0.00833333 </v>
    <v>       0.00833333 </v>
    <v>       0.00833333 </v>
    <v>       0.00833333 </v>
    <v>       0.00833333 </v>
    <v>       0.00833333 </v>
    <v>       0.00833333 </v>
    <v>       0.00833333 </v>
    <v>       0.00833333 </v>
    <v>       0.00833333 </v>
    <v>       0.00833333 </v>
    <v>       0.00833333 </v>
    <v>       0.00833333 </v>
    <v>       0.00833333 </v>
    <v>       0.00833333 </v>
    <v>       0.00833333 </v>
    <v>       0.00833333 </v>
    <v>       0.00833333 </v>
    <v>       0.00833333 </v>
    <v>       0.00833333 </v>
    <v>       0.00833333 </v>
    <v>       0.00833333 </v>
    <v>       0.00416667 </v>
    <v>       0.00833333 </v>
    <v>       0.00833333 </v>
    <v>       0.00833333 </v>
    <v>       0.00833333 </v>
    <v>       0.00416667 </v>
    <v>       0.00833333 </v>
    <v>       0.00833333 </v>
    <v>       0.00833333 </v>
    <v>       0.00833333 </v>
    <v>       0.00833333 </v>
    <v>       0.00833333 </v>
    <v>       0.00833333 </v>
    <v>       0.00833333 </v>
    <v>       0.00833333 </v>
    <v>       0.00833333 </v>
    <v>       0.00833333 </v>
    <v>       0.00833333 </v>
    <v>       0.00833333 </v>
    <v>       0.00833333 </v>
    <v>       0.00833333 </v>
    <v>       0.00833333 </v>
    <v>       0.00833333 </v>
    <v>       0.00833333 </v>
    <v>       0.00833333 </v>
    <v>       0.00833333 </v>
    <v>       0.00416667 </v>
    <v>       0.00833333 </v>
    <v>       0.00833333 </v>
    <v>       0.00833333 </v>
    <v>       0.00833333 </v>
    <v>       0.00416667 </v>
   </varray>
  </kpoints>
  <scstep>
   <time name="total">   34.73   34.74</time>
   <energy>
    <i name="e_fr_energy">     -3.70809551 </i>
    <i name="e_wo_entrp">     -3.70809551 </i>
    <i name="e_0_energy">     -3.70809551 </i>
   </energy>
  </scstep>
  <scstep>
   <time name="total">   34.07   34.08</time>
   <energy>
    <i name="e_fr_energy">     -3.95697206 </i>
    <i name="e_wo_entrp">     -3.95697206 </i>
    <i name="e_0_energy">     -3.95697206 </i>
   </energy>
  </scstep>
  <scstep>
   <time name="total">   38.80   38.81</time>
   <energy>
    <i name="e_fr_energy">     -3.68704154 </i>
    <i name="e_wo_entrp">     -3.68704154 </i>
    <i name="e_0_energy">     -3.68704154 </i>
   </energy>
  </scstep>
  <scstep>
   <time name="total">   42.99   43.00</time>
   <energy>
    <i name="e_fr_energy">     -3.80645002 </i>
    <i name="e_wo_entrp">     -3.80645002 </i>
    <i name="e_0_energy">     -3.80645002 </i>
   </energy>
  </scstep>
  <scstep>
   <time name="total">   40.68   40.69</time>
   <energy>
    <i name="e_fr_energy">     -3.89764608 </i>
    <i name="e_wo_entrp">     -3.89764608 </i>
    <i name="e_0_energy">     -3.89764608 </i>
   </energy>
  </scstep>
  <scstep>
   <time name="total">   44.24   44.25</time>
   <energy>
    <i name="e_fr_energy">     -3.90089659 </i>
    <i name="e_wo_entrp">     -3.90089659 </i>
    <i name="e_0_energy">     -3.90089659 </i>
   </energy>
  </scstep>
  <scstep>
   <time name="total">   48.94   48.95</time>
   <energy>
    <i name="e_fr_energy">     -3.90630502 </i>
    <i name="e_wo_entrp">     -3.90630502 </i>
    <i name="e_0_energy">     -3.90630502 </i>
   </energy>
  </scstep>
  <scstep>
   <time name="total">   48.88   48.90</time>
   <energy>
    <i name="e_fr_energy">     -3.90595852 </i>
    <i name="e_wo_entrp">     -3.90595852 </i>
    <i name="e_0_energy">     -3.90595852 </i>
   </energy>
  </scstep>
  <scstep>
   <time name="total">   48.09   48.11</time>
   <energy>
    <i name="e_fr_energy">     -3.90629217 </i>
    <i name="e_wo_entrp">     -3.90629217 </i>
    <i name="e_0_energy">     -3.90629217 </i>
   </energy>
  </scstep>
  <scstep>
   <time name="total">   49.85   49.86</time>
   <energy>
    <i name="e_fr_energy">     -3.90605885 </i>
    <i name="e_wo_entrp">     -3.90605885 </i>
    <i name="e_0_energy">     -3.90605885 </i>
   </energy>
  </scstep>
  <scstep>
   <time name="total">   50.34   50.35</time>
   <energy>
    <i name="e_fr_energy">     -3.90636771 </i>
    <i name="e_wo_entrp">     -3.90636771 </i>
    <i name="e_0_energy">     -3.90636771 </i>
   </energy>
  </scstep>
  <scstep>
   <time name="total">   50.84   50.85</time>
   <energy>
    <i name="e_fr_energy">     -3.90608108 </i>
    <i name="e_wo_entrp">     -3.90608108 </i>
    <i name="e_0_energy">     -3.90608108 </i>
   </energy>
  </scstep>
  <scstep>
   <time name="total">   52.60   52.62</time>
   <energy>
    <i name="e_fr_energy">     -3.90633253 </i>
    <i name="e_wo_entrp">     -3.90633253 </i>
    <i name="e_0_energy">     -3.90633253 </i>
   </energy>
  </scstep>
  <scstep>
   <time name="total">   52.13   52.15</time>
   <energy>
    <i name="e_fr_energy">     -3.90606834 </i>
    <i name="e_wo_entrp">     -3.90606834 </i>
    <i name="e_0_energy">     -3.90606834 </i>
   </energy>
  </scstep>
  <scstep>
   <time name="total">   51.83   51.84</time>
   <energy>
    <i name="e_fr_energy">     -3.90632822 </i>
    <i name="e_wo_entrp">     -3.90632822 </i>
    <i name="e_0_energy">     -3.90632822 </i>
   </energy>
  </scstep>
  <scstep>
   <time name="total">   51.33   51.35</time>
   <energy>
    <i name="e_fr_energy">     -3.90606744 </i>
    <i name="e_wo_entrp">     -3.90606744 </i>
    <i name="e_0_energy">     -3.90606744 </i>
   </energy>
  </scstep>
  <scstep>
   <time name="total">   51.14   51.15</time>
   <energy>
    <i name="e_fr_energy">     -3.90632361 </i>
    <i name="e_wo_entrp">     -3.90632361 </i>
    <i name="e_0_energy">     -3.90632361 </i>
   </energy>
  </scstep>
  <scstep>
   <time name="total">   51.48   51.50</time>
   <energy>
    <i name="e_fr_energy">     -3.90606584 </i>
    <i name="e_wo_entrp">     -3.90606584 </i>
    <i name="e_0_energy">     -3.90606584 </i>
   </energy>
  </scstep>
  <kpoints>
   <generation param="Gamma">
    <v type="int" name="divisions">      10        6        4 </v>
    <v name="usershift">      0.00000000       0.00000000       0.00000000 </v>
    <v name="genvec1">      0.10000000       0.00000000       0.00000000 </v>
    <v name="genvec2">      0.00000000       0.16666667       0.00000000 </v>
    <v name="genvec3">      0.00000000       0.00000000       0.25000000 </v>
    <v name="shift">      0.00000000       0.00000000       0.00000000 </v>
   </generation>
   <varray name="kpointlist" >
    <v>       0.00000000       0.00000000       0.00000000 </v>
    <v>       0.10000000       0.00000000       0.00000000 </v>
    <v>       0.20000000       0.00000000       0.00000000 </v>
    <v>       0.30000000       0.00000000       0.00000000 </v>
    <v>       0.40000000       0.00000000       0.00000000 </v>
    <v>       0.50000000       0.00000000       0.00000000 </v>
    <v>       0.00000000       0.16666667       0.00000000 </v>
    <v>       0.10000000       0.16666667       0.00000000 </v>
    <v>       0.20000000       0.16666667       0.00000000 </v>
    <v>       0.30000000       0.16666667       0.00000000 </v>
    <v>       0.40000000       0.16666667       0.00000000 </v>
    <v>       0.50000000       0.16666667       0.00000000 </v>
    <v>      -0.40000000       0.16666667       0.00000000 </v>
    <v>      -0.30000000       0.16666667       0.00000000 </v>
    <v>      -0.20000000       0.16666667       0.00000000 </v>
    <v>      -0.10000000       0.16666667       0.00000000 </v>
    <v>       0.00000000       0.33333333       0.00000000 </v>
    <v>       0.10000000       0.33333333       0.00000000 </v>
    <v>       0.20000000       0.33333333       0.00000000 </v>
    <v>       0.30000000       0.33333333       0.00000000 </v>
    <v>       0.40000000       0.33333333       0.00000000 </v>
    <v>       0.50000000       0.33333333       0.00000000 </v>
    <v>      -0.40000000       0.33333333       0.00000000 </v>
    <v>      -0.30000000       0.33333333       0.00000000 </v>
    <v>      -0.20000000       0.33333333       0.00000000 </v>
    <v>      -0.10000000       0.33333333       0.00000000 </v>
    <v>       0.00000000       0.50000000       0.00000000 </v>
    <v>       0.10000000       0.50000000       0.00000000 </v>
    <v>       0.20000000       0.50000000       0.00000000 </v>
    <v>       0.30000000       0.50000000       0.00000000 </v>
    <v>       0.40000000       0.50000000       0.00000000 </v>
    <v>       0.50000000       0.50000000       0.00000000 </v>
    <v>       0.00000000       0.00000000       0.25000000 </v>
    <v>       0.10000000       0.00000000       0.25000000 </v>
    <v>       0.20000000       0.00000000       0.25000000 </v>
    <v>       0.30000000       0.00000000       0.25000000 </v>
    <v>       0.40000000       0.00000000       0.25000000 </v>
    <v>       0.50000000       0.00000000       0.25000000 </v>
    <v>      -0.40000000       0.00000000       0.25000000 </v>
    <v>      -0.30000000       0.00000000       0.25000000 </v>
    <v>      -0.20000000       0.00000000       0.25000000 </v>
    <v>      -0.10000000       0.00000000       0.25000000 </v>
    <v>       0.00000000       0.16666667       0.25000000 </v>
    <v>       0.10000000       0.16666667       0.25000000 </v>
    <v>       0.20000000       0.16666667       0.25000000 </v>
    <v>       0.30000000       0.16666667       0.25000000 </v>
    <v>       0.40000000       0.16666667       0.25000000 </v>
    <v>       0.50000000       0.16666667       0.25000000 </v>
    <v>      -0.40000000       0.16666667       0.25000000 </v>
    <v>      -0.30000000       0.16666667       0.25000000 </v>
    <v>      -0.20000000       0.16666667       0.25000000 </v>
    <v>      -0.10000000       0.16666667       0.25000000 </v>
    <v>       0.00000000       0.33333333       0.25000000 </v>
    <v>       0.10000000       0.33333333       0.25000000 </v>
    <v>       0.20000000       0.33333333       0.25000000 </v>
    <v>       0.30000000       0.33333333       0.25000000 </v>
    <v>       0.40000000       0.33333333       0.25000000 </v>
    <v>       0.50000000       0.33333333       0.25000000 </v>
    <v>      -0.40000000       0.33333333       0.25000000 </v>
    <v>      -0.30000000       0.33333333       0.25000000 </v>
    <v>      -0.20000000       0.33333333       0.25000000 </v>
    <v>      -0.10000000       0.33333333       0.25000000 </v>
    <v>       0.00000000       0.50000000       0.25000000 </v>
    <v>       0.10000000       0.50000000       0.25000000 </v>
    <v>       0.20000000       0.50000000       0.25000000 </v>
    <v>       0.30000000       0.50000000       0.25000000 </v>
    <v>       0.40000000       0.50000000       0.25000000 </v>
    <v>       0.50000000       0.50000000       0.25000000 </v>
    <v>      -0.40000000       0.50000000       0.25000000 </v>
    <v>      -0.30000000       0.50000000       0.25000000 </v>
    <v>      -0.20000000       0.50000000       0.25000000 </v>
    <v>      -0.10000000       0.50000000       0.25000000 </v>
    <v>       0.00000000      -0.33333333       0.25000000 </v>
    <v>       0.10000000      -0.33333333       0.25000000 </v>
    <v>       0.20000000      -0.33333333       0.25000000 </v>
    <v>       0.30000000      -0.33333333       0.25000000 </v>
    <v>       0.40000000      -0.33333333       0.25000000 </v>
    <v>       0.50000000      -0.33333333       0.25000000 </v>
    <v>      -0.40000000      -0.33333333       0.25000000 </v>
    <v>      -0.30000000      -0.33333333       0.25000000 </v>
    <v>      -0.20000000      -0.33333333       0.25000000 </v>
    <v>      -0.10000000      -0.33333333       0.25000000 </v>
    <v>       0.00000000      -0.16666667       0.25000000 </v>
    <v>       0.10000000      -0.16666667       0.25000000 </v>
    <v>       0.20000000      -0.16666667       0.25000000 </v>
    <v>       0.30000000      -0.16666667       0.25000000 </v>
    <v>       0.40000000      -0.16666667       0.25000000 </v>
    <v>       0.50000000      -0.16666667       0.25000000 </v>
    <v>      -0.40000000      -0.16666667       0.25000000 </v>
    <v>      -0.30000000      -0.16666667       0.25000000 </v>
    <v>      -0.20000000      -0.16666667       0.25000000 </v>
    <v>      -0.10000000      -0.16666667       0.25000000 </v>
    <v>       0.00000000       0.00000000       0.50000000 </v>
    <v>       0.10000000       0.00000000       0.50000000 </v>
    <v>       0.20000000       0.00000000       0.50000000 </v>
    <v>       0.30000000       0.00000000       0.50000000 </v>
    <v>       0.40000000       0.00000000       0.50000000 </v>
    <v>       0.50000000       0.00000000       0.50000000 </v>
    <v>       0.00000000       0.16666667       0.50000000 </v>
    <v>       0.10000000       0.16666667       0.50000000 </v>
    <v>       0.20000000       0.16666667       0.50000000 </v>
    <v>       0.30000000       0.16666667       0.50000000 </v>
    <v>       0.40000000       0.16666667       0.50000000 </v>
    <v>       0.50000000       0.16666667       0.50000000 </v>
    <v>      -0.40000000       0.16666667       0.50000000 </v>
    <v>      -0.30000000       0.16666667       0.50000000 </v>
    <v>      -0.20000000       0.16666667       0.50000000 </v>
    <v>      -0.10000000       0.16666667       0.50000000 </v>
    <v>       0.00000000       0.33333333       0.50000000 </v>
    <v>       0.10000000       0.33333333       0.50000000 </v>
    <v>       0.20000000       0.33333333       0.50000000 </v>
    <v>       0.30000000       0.33333333       0.50000000 </v>
    <v>       0.40000000       0.33333333       0.50000000 </v>
    <v>       0.50000000       0.33333333       0.50000000 </v>
    <v>      -0.40000000       0.33333333       0.50000000 </v>
    <v>      -0.30000000       0.33333333       0.50000000 </v>
    <v>      -0.20000000       0.33333333       0.50000000 </v>
    <v>      -0.10000000       0.33333333       0.50000000 </v>
    <v>       0.00000000       0.50000000       0.50000000 </v>
    <v>       0.10000000       0.50000000       0.50000000 </v>
    <v>       0.20000000       0.50000000       0.50000000 </v>
    <v>       0.30000000       0.50000000       0.50000000 </v>
    <v>       0.40000000       0.50000000       0.50000000 </v>
    <v>       0.50000000       0.50000000       0.50000000 </v>
   </varray>
   <varray name="weights" >
    <v>       0.00416667 </v>
    <v>       0.00833333 </v>
    <v>       0.00833333 </v>
    <v>       0.00833333 </v>
    <v>       0.00833333 </v>
    <v>       0.00416667 </v>
    <v>       0.00833333 </v>
    <v>       0.00833333 </v>
    <v>       0.00833333 </v>
    <v>       0.00833333 </v>
    <v>       0.00833333 </v>
    <v>       0.00833333 </v>
    <v>       0.00833333 </v>
    <v>       0.00833333 </v>
    <v>       0.00833333 </v>
    <v>       0.00833333 </v>
    <v>       0.00833333 </v>
    <v>       0.00833333 </v>
    <v>       0.00833333 </v>
    <v>       0.00833333 </v>
    <v>       0.00833333 </v>
    <v>       0.00833333 </v>
    <v>       0.00833333 </v>
    <v>       0.00833333 </v>
    <v>       0.00833333 </v>
    <v>       0.00833333 </v>
    <v>       0.00416667 </v>
    <v>       0.00833333 </v>
    <v>       0.00833333 </v>
    <v>       0.00833333 </v>
    <v>       0.00833333 </v>
    <v>       0.00416667 </v>
    <v>       0.00833333 </v>
    <v>       0.00833333 </v>
    <v>       0.00833333 </v>
    <v>       0.00833333 </v>
    <v>       0.00833333 </v>
    <v>       0.00833333 </v>
    <v>       0.00833333 </v>
    <v>       0.00833333 </v>
    <v>       0.00833333 </v>
    <v>       0.00833333 </v>
    <v>       0.00833333 </v>
    <v>       0.00833333 </v>
    <v>       0.00833333 </v>
    <v>       0.00833333 </v>
    <v>       0.00833333 </v>
    <v>       0.00833333 </v>
    <v>       0.00833333 </v>
    <v>       0.00833333 </v>
    <v>       0.00833333 </v>
    <v>       0.00833333 </v>
    <v>       0.00833333 </v>
    <v>       0.00833333 </v>
    <v>       0.00833333 </v>
    <v>       0.00833333 </v>
    <v>       0.00833333 </v>
    <v>       0.00833333 </v>
    <v>       0.00833333 </v>
    <v>       0.00833333 </v>
    <v>       0.00833333 </v>
    <v>       0.00833333 </v>
    <v>       0.00833333 </v>
    <v>       0.00833333 </v>
    <v>       0.00833333 </v>
    <v>       0.00833333 </v>
    <v>       0.00833333 </v>
    <v>       0.00833333 </v>
    <v>       0.00833333 </v>
    <v>       0.00833333 </v>
    <v>       0.00833333 </v>
    <v>       0.00833333 </v>
    <v>       0.00833333 </v>
    <v>       0.00833333 </v>
    <v>       0.00833333 </v>
    <v>       0.00833333 </v>
    <v>       0.00833333 </v>
    <v>       0.00833333 </v>
    <v>       0.00833333 </v>
    <v>       0.00833333 </v>
    <v>       0.00833333 </v>
    <v>       0.00833333 </v>
    <v>       0.00833333 </v>
    <v>       0.00833333 </v>
    <v>       0.00833333 </v>
    <v>       0.00833333 </v>
    <v>       0.00833333 </v>
    <v>       0.00833333 </v>
    <v>       0.00833333 </v>
    <v>       0.00833333 </v>
    <v>       0.00833333 </v>
    <v>       0.00833333 </v>
    <v>       0.00416667 </v>
    <v>       0.00833333 </v>
    <v>       0.00833333 </v>
    <v>       0.00833333 </v>
    <v>       0.00833333 </v>
    <v>       0.00416667 </v>
    <v>       0.00833333 </v>
    <v>       0.00833333 </v>
    <v>       0.00833333 </v>
    <v>       0.00833333 </v>
    <v>       0.00833333 </v>
    <v>       0.00833333 </v>
    <v>       0.00833333 </v>
    <v>       0.00833333 </v>
    <v>       0.00833333 </v>
    <v>       0.00833333 </v>
    <v>       0.00833333 </v>
    <v>       0.00833333 </v>
    <v>       0.00833333 </v>
    <v>       0.00833333 </v>
    <v>       0.00833333 </v>
    <v>       0.00833333 </v>
    <v>       0.00833333 </v>
    <v>       0.00833333 </v>
    <v>       0.00833333 </v>
    <v>       0.00833333 </v>
    <v>       0.00416667 </v>
    <v>       0.00833333 </v>
    <v>       0.00833333 </v>
    <v>       0.00833333 </v>
    <v>       0.00833333 </v>
    <v>       0.00416667 </v>
   </varray>
  </kpoints>
  <scstep>
   <time name="total">   34.92   34.93</time>
   <energy>
    <i name="e_fr_energy">     -3.57310575 </i>
    <i name="e_wo_entrp">     -3.57310575 </i>
    <i name="e_0_energy">     -3.57310575 </i>
   </energy>
  </scstep>
  <scstep>
   <time name="total">   33.92   33.93</time>
   <energy>
    <i name="e_fr_energy">     -3.82273040 </i>
    <i name="e_wo_entrp">     -3.82273040 </i>
    <i name="e_0_energy">     -3.82273040 </i>
   </energy>
  </scstep>
  <scstep>
   <time name="total">   39.89   39.90</time>
   <energy>
    <i name="e_fr_energy">     -3.52965535 </i>
    <i name="e_wo_entrp">     -3.52965535 </i>
    <i name="e_0_energy">     -3.52965535 </i>
   </energy>
  </scstep>
  <scstep>
   <time name="total">   42.80   42.81</time>
   <energy>
    <i name="e_fr_energy">     -3.64596921 </i>
    <i name="e_wo_entrp">     -3.64596921 </i>
    <i name="e_0_energy">     -3.64596921 </i>
   </energy>
  </scstep>
  <scstep>
   <time name="total">   43.26   43.27</time>
   <energy>
    <i name="e_fr_energy">     -3.72620362 </i>
    <i name="e_wo_entrp">     -3.72620362 </i>
    <i name="e_0_energy">     -3.72620362 </i>
   </energy>
  </scstep>
  <scstep>
   <time name="total">   46.14   46.15</time>
   <energy>
    <i name="e_fr_energy">     -3.74896245 </i>
    <i name="e_wo_entrp">     -3.74896245 </i>
    <i name="e_0_energy">     -3.74896245 </i>
   </energy>
  </scstep>
  <scstep>
   <time name="total">   46.81   46.82</time>
   <energy>
    <i name="e_fr_energy">     -3.75262472 </i>
    <i name="e_wo_entrp">     -3.75262472 </i>
    <i name="e_0_energy">     -3.75262472 </i>
   </energy>
  </scstep>
  <scstep>
   <time name="total">   47.75   47.76</time>
   <energy>
    <i name="e_fr_energy">     -3.75513833 </i>
    <i name="e_wo_entrp">     -3.75513833 </i>
    <i name="e_0_energy">     -3.75513833 </i>
   </energy>
  </scstep>
  <scstep>
   <time name="total">   47.88   47.89</time>
   <energy>
    <i name="e_fr_energy">     -3.75642955 </i>
    <i name="e_wo_entrp">     -3.75642955 </i>
    <i name="e_0_energy">     -3.75642955 </i>
   </energy>
  </scstep>
[...]
       <r>    2.0200    1.0000 </r>
       <r>    2.0200    1.0000 </r>
       <r>    6.6336    0.0000 </r>
       <r>    6.6336    0.0000 </r>
       <r>    6.7412    0.0000 </r>
       <r>    6.7412    0.0000 </r>
       <r>    7.5729    0.0000 </r>
       <r>    7.5729    0.0000 </r>
       <r>    7.6125    0.0000 </r>
       <r>    7.6125    0.0000 </r>
       <r>    8.0194    0.0000 </r>
       <r>    8.0194    0.0000 </r>
       <r>    8.0409    0.0000 </r>
       <r>    8.0409    0.0000 </r>
       <r>   11.6852    0.0000 </r>
       <r>   11.6852    0.0000 </r>
       <r>   11.7548    0.0000 </r>
       <r>   11.7548    0.0000 </r>
      </set>
      <set comment="kpoint 124">
       <r>  -13.1476    1.0000 </r>
       <r>  -13.1476    1.0000 </r>
       <r>  -13.1476    1.0000 </r>
       <r>  -13.1476    1.0000 </r>
       <r>  -13.0866    1.0000 </r>
       <r>  -13.0866    1.0000 </r>
       <r>  -13.0866    1.0000 </r>
       <r>  -13.0866    1.0000 </r>
       <r>  -13.0479    1.0000 </r>
       <r>  -13.0479    1.0000 </r>
       <r>  -13.0479    1.0000 </r>
       <r>  -13.0479    1.0000 </r>
       <r>  -13.0421    1.0000 </r>
       <r>  -13.0421    1.0000 </r>
       <r>  -13.0421    1.0000 </r>
       <r>  -13.0421    1.0000 </r>
       <r>  -13.0321    1.0000 </r>
       <r>  -13.0321    1.0000 </r>
       <r>  -13.0321    1.0000 </r>
       <r>  -13.0321    1.0000 </r>
       <r>  -10.9472    1.0000 </r>
       <r>  -10.9472    1.0000 </r>
       <r>  -10.9472    1.0000 </r>
       <r>  -10.9472    1.0000 </r>
       <r>  -10.7187    1.0000 </r>
       <r>  -10.7187    1.0000 </r>
       <r>  -10.7187    1.0000 </r>
       <r>  -10.7187    1.0000 </r>
       <r>   -4.3402    1.0000 </r>
       <r>   -4.3402    1.0000 </r>
       <r>   -4.3402    1.0000 </r>
       <r>   -4.3402    1.0000 </r>
       <r>   -0.5940    1.0000 </r>
       <r>   -0.5940    1.0000 </r>
       <r>   -0.5940    1.0000 </r>
       <r>   -0.5940    1.0000 </r>
       <r>    0.1034    1.0000 </r>
       <r>    0.1034    1.0000 </r>
       <r>    0.1034    1.0000 </r>
       <r>    0.1034    1.0000 </r>
       <r>    0.3580    1.0000 </r>
       <r>    0.3580    1.0000 </r>
       <r>    0.3580    1.0000 </r>
       <r>    0.3580    1.0000 </r>
       <r>    1.4179    1.0000 </r>
       <r>    1.4179    1.0000 </r>
       <r>    1.4179    1.0000 </r>
       <r>    1.4179    1.0000 </r>
       <r>    1.5813    1.0000 </r>
       <r>    1.5813    1.0000 </r>
       <r>    1.5813    1.0000 </r>
       <r>    1.5813    1.0000 </r>
       <r>    1.9369    1.0000 </r>
       <r>    1.9369    1.0000 </r>
       <r>    1.9369    1.0000 </r>
       <r>    1.9369    1.0000 </r>
       <r>    6.6830    0.0000 </r>
       <r>    6.6830    0.0000 </r>
       <r>    6.6830    0.0000 </r>
       <r>    6.6830    0.0000 </r>
       <r>    7.6415    0.0000 </r>
       <r>    7.6415    0.0000 </r>
       <r>    7.6415    0.0000 </r>
       <r>    7.6415    0.0000 </r>
       <r>    8.1233    0.0000 </r>
       <r>    8.1233    0.0000 </r>
       <r>    8.1233    0.0000 </r>
       <r>    8.1233    0.0000 </r>
       <r>   11.9053    0.0000 </r>
       <r>   11.9054    0.0000 </r>
       <r>   11.9055    0.0000 </r>
       <r>   11.9238    0.0000 </r>
      </set>
     </set>
    </set>
   </array>
  </eigenvalues>
  <separator name="orbital magnetization" >
   <v name="MAGDIPOLOUT">      0.00000000      0.00000000      0.00000000</v>
  </separator>
  <dos>
   <i name="efermi">      2.23071578 </i>
   <total>
    <array>
     <dimension dim="1">gridpoints</dimension>
     <dimension dim="2">spin</dimension>
     <field>energy</field>
     <field>total</field>
     <field>integrated</field>
     <set>
      <set comment="spin 1">
       <r>   -14.4258     0.0000     0.0000 </r>
       <r>   -14.3325     0.0000     0.0000 </r>
       <r>   -14.2392     0.0000     0.0000 </r>
       <r>   -14.1459     0.0000     0.0000 </r>
       <r>   -14.0526     0.0000     0.0000 </r>
       <r>   -13.9593     0.0000     0.0000 </r>
       <r>   -13.8660     0.0000     0.0000 </r>
       <r>   -13.7726     0.0000     0.0000 </r>
       <r>   -13.6793     0.0000     0.0000 </r>
       <r>   -13.5860     0.0000     0.0000 </r>
       <r>   -13.4927     0.0000     0.0000 </r>
       <r>   -13.3994     0.0000     0.0000 </r>
       <r>   -13.3061     0.0000     0.0000 </r>
       <r>   -13.2128     0.0000     0.0000 </r>
       <r>   -13.1194    64.6981     6.0372 </r>
       <r>   -13.0261   331.6026    38.9056 </r>
       <r>   -12.9328     0.0000    40.0000 </r>
       <r>   -12.8395     0.0000    40.0000 </r>
       <r>   -12.7462     0.0000    40.0000 </r>
       <r>   -12.6529     0.0000    40.0000 </r>
       <r>   -12.5596     0.0000    40.0000 </r>
       <r>   -12.4662     0.0000    40.0000 </r>
       <r>   -12.3729     0.0000    40.0000 </r>
       <r>   -12.2796     0.0000    40.0000 </r>
       <r>   -12.1863     0.0000    40.0000 </r>
       <r>   -12.0930     0.0000    40.0000 </r>
       <r>   -11.9997     0.0000    40.0000 </r>
       <r>   -11.9064     0.0000    40.0000 </r>
       <r>   -11.8130     0.0000    40.0000 </r>
       <r>   -11.7197     0.0000    40.0000 </r>
       <r>   -11.6264     0.1688    40.0157 </r>
       <r>   -11.5331     2.1671    40.2441 </r>
       <r>   -11.4398     4.3454    40.6638 </r>
       <r>   -11.3465     5.5285    41.1913 </r>
       <r>   -11.2532     6.4854    41.8970 </r>
       <r>   -11.1598     8.7309    42.8655 </r>
       <r>   -11.0665     9.0555    43.8792 </r>
       <r>   -10.9732    14.7111    45.4895 </r>
       <r>   -10.8799    16.0990    47.1866 </r>
       <r>   -10.7866     7.6689    48.1185 </r>
       <r>   -10.6933    29.0058    50.9316 </r>
       <r>   -10.6000    29.9700    54.5309 </r>
       <r>   -10.5067    12.0742    55.9877 </r>
       <r>   -10.4133     0.0000    56.0000 </r>
       <r>   -10.3200     0.0000    56.0000 </r>
       <r>   -10.2267     0.0000    56.0000 </r>
       <r>   -10.1334     0.0000    56.0000 </r>
       <r>   -10.0401     0.0000    56.0000 </r>
       <r>    -9.9468     0.0000    56.0000 </r>
       <r>    -9.8535     0.0000    56.0000 </r>
       <r>    -9.7601     0.0000    56.0000 </r>
       <r>    -9.6668     0.0000    56.0000 </r>
       <r>    -9.5735     0.0000    56.0000 </r>
       <r>    -9.4802     0.0000    56.0000 </r>
       <r>    -9.3869     0.0000    56.0000 </r>
       <r>    -9.2936     0.0000    56.0000 </r>
       <r>    -9.2003     0.0000    56.0000 </r>
       <r>    -9.1069     0.0000    56.0000 </r>
       <r>    -9.0136     0.0000    56.0000 </r>
       <r>    -8.9203     0.0000    56.0000 </r>
       <r>    -8.8270     0.0000    56.0000 </r>
       <r>    -8.7337     0.0000    56.0000 </r>
       <r>    -8.6404     0.0000    56.0000 </r>
       <r>    -8.5471     0.0000    56.0000 </r>
       <r>    -8.4537     0.0000    56.0000 </r>
       <r>    -8.3604     0.0000    56.0000 </r>
       <r>    -8.2671     0.0000    56.0000 </r>
       <r>    -8.1738     0.0000    56.0000 </r>
       <r>    -8.0805     0.0000    56.0000 </r>
       <r>    -7.9872     0.0000    56.0000 </r>
       <r>    -7.8939     0.0000    56.0000 </r>
       <r>    -7.8005     0.0000    56.0000 </r>
       <r>    -7.7072     0.0000    56.0000 </r>
       <r>    -7.6139     0.0000    56.0000 </r>
       <r>    -7.5206     0.0000    56.0000 </r>
       <r>    -7.4273     0.0000    56.0000 </r>
       <r>    -7.3340     0.0000    56.0000 </r>
       <r>    -7.2407     0.0000    56.0000 </r>
       <r>    -7.1473     0.0000    56.0000 </r>
       <r>    -7.0540     0.0000    56.0000 </r>
       <r>    -6.9607     0.0000    56.0000 </r>
       <r>    -6.8674     0.0000    56.0000 </r>
       <r>    -6.7741     0.0000    56.0000 </r>
       <r>    -6.6808     0.0000    56.0000 </r>
       <r>    -6.5875     0.0000    56.0000 </r>
       <r>    -6.4941     0.0000    56.0000 </r>
       <r>    -6.4008     0.0000    56.0000 </r>
       <r>    -6.3075     0.0000    56.0000 </r>
       <r>    -6.2142     0.0000    56.0000 </r>
       <r>    -6.1209     0.0000    56.0000 </r>
       <r>    -6.0276     0.0000    56.0000 </r>
       <r>    -5.9343     0.0000    56.0000 </r>
       <r>    -5.8409     0.0000    56.0000 </r>
       <r>    -5.7476     0.0000    56.0000 </r>
       <r>    -5.6543     0.0000    56.0000 </r>
       <r>    -5.5610     0.0000    56.0000 </r>
       <r>    -5.4677     0.0000    56.0000 </r>
       <r>    -5.3744     0.0000    56.0000 </r>
       <r>    -5.2811     0.0000    56.0000 </r>
       <r>    -5.1878     0.0000    56.0000 </r>
       <r>    -5.0944     0.0000    56.0000 </r>
       <r>    -5.0011     0.0000    56.0000 </r>
       <r>    -4.9078     0.0000    56.0000 </r>
       <r>    -4.8145     0.0000    56.0000 </r>
       <r>    -4.7212     0.0000    56.0000 </r>
       <r>    -4.6279     0.0000    56.0000 </r>
       <r>    -4.5346     2.6790    56.2500 </r>
       <r>    -4.4412     6.4499    57.0102 </r>
       <r>    -4.3479    13.7679    58.4109 </r>
       <r>    -4.2546    10.5574    59.7602 </r>
       <r>    -4.1613     9.2278    60.7232 </r>
       <r>    -4.0680     7.6425    61.5643 </r>
       <r>    -3.9747     5.4430    62.1586 </r>
       <r>    -3.8814     4.5412    62.5990 </r>
       <r>    -3.7880     3.0103    62.9230 </r>
       <r>    -3.6947     3.3760    63.2735 </r>
       <r>    -3.6014     1.0722    63.3917 </r>
       <r>    -3.5081     2.3499    63.6110 </r>
       <r>    -3.4148     1.0720    63.7417 </r>
       <r>    -3.3215     1.0712    63.8417 </r>
       <r>    -3.2282     1.0715    63.9416 </r>
       <r>    -3.1348     0.5345    63.9917 </r>
       <r>    -3.0415     0.0893    64.0000 </r>
       <r>    -2.9482     0.0000    64.0000 </r>
       <r>    -2.8549     0.0000    64.0000 </r>
       <r>    -2.7616     0.0000    64.0000 </r>
       <r>    -2.6683     0.0000    64.0000 </r>
       <r>    -2.5750     0.0000    64.0000 </r>
       <r>    -2.4816     0.0000    64.0000 </r>
       <r>    -2.3883     0.0000    64.0000 </r>
       <r>    -2.2950     0.0000    64.0000 </r>
       <r>    -2.2017     0.0000    64.0000 </r>
       <r>    -2.1084     0.0000    64.0000 </r>
       <r>    -2.0151     0.0000    64.0000 </r>
       <r>    -1.9218     0.0000    64.0000 </r>
       <r>    -1.8284     0.0000    64.0000 </r>
       <r>    -1.7351     0.0000    64.0000 </r>
       <r>    -1.6418     0.0000    64.0000 </r>
       <r>    -1.5485     0.0000    64.0000 </r>
       <r>    -1.4552     0.0000    64.0000 </r>
       <r>    -1.3619     0.0000    64.0000 </r>
       <r>    -1.2686     0.0000    64.0000 </r>
       <r>    -1.1752     0.0000    64.0000 </r>
       <r>    -1.0819     0.0000    64.0000 </r>
       <r>    -0.9886     0.0005    64.0000 </r>
       <r>    -0.8953     1.3486    64.1259 </r>
       <r>    -0.8020     3.8768    64.5118 </r>
       <r>    -0.7087     7.4899    65.2831 </r>
       <r>    -0.6154    11.4948    66.6731 </r>
       <r>    -0.5220    12.2578    67.9445 </r>
       <r>    -0.4287    13.1047    69.3479 </r>
       <r>    -0.3354    15.6979    70.9744 </r>
       <r>    -0.2421    10.7099    72.2256 </r>
       <r>    -0.1488     6.3850    73.0051 </r>
       <r>    -0.0555    12.3313    74.2425 </r>
       <r>     0.0378    10.1064    75.3034 </r>
       <r>     0.1311    12.1005    76.5467 </r>
       <r>     0.2245     9.4777    77.6230 </r>
       <r>     0.3178     8.5073    78.5117 </r>
       <r>     0.4111     9.4836    79.7529 </r>
       <r>     0.5044     7.8096    80.6303 </r>
       <r>     0.5977    14.5013    82.1625 </r>
       <r>     0.6910    12.5419    83.5376 </r>
       <r>     0.7843     8.3041    84.5596 </r>
       <r>     0.8777     9.2525    85.4641 </r>
       <r>     0.9710    10.0428    86.5457 </r>
       <r>     1.0643    11.3301    87.7169 </r>
       <r>     1.1576    12.9587    89.2426 </r>
       <r>     1.2509    18.5697    91.2261 </r>
       <r>     1.3442    20.3744    93.5621 </r>
       <r>     1.4375    22.0487    96.1095 </r>
       <r>     1.5309    29.2684    99.0929 </r>
       <r>     1.6242    26.3819   101.8553 </r>
       <r>     1.7175    17.6209   103.8237 </r>
       <r>     1.8108     7.6607   104.7578 </r>
       <r>     1.9041    12.1652   106.2119 </r>
       <r>     1.9974    19.2209   108.3115 </r>
       <r>     2.0907    25.5596   110.8962 </r>
       <r>     2.1841     9.1551   111.9890 </r>
       <r>     2.2774     0.0000   112.0000 </r>
       <r>     2.3707     0.0000   112.0000 </r>
       <r>     2.4640     0.0000   112.0000 </r>
       <r>     2.5573     0.0000   112.0000 </r>
       <r>     2.6506     0.0000   112.0000 </r>
       <r>     2.7439     0.0000   112.0000 </r>
       <r>     2.8373     0.0000   112.0000 </r>
       <r>     2.9306     0.0000   112.0000 </r>
       <r>     3.0239     0.0000   112.0000 </r>
       <r>     3.1172     0.0000   112.0000 </r>
       <r>     3.2105     0.0000   112.0000 </r>
       <r>     3.3038     0.0000   112.0000 </r>
       <r>     3.3971     0.0000   112.0000 </r>
       <r>     3.4905     0.0000   112.0000 </r>
       <r>     3.5838     0.0000   112.0000 </r>
       <r>     3.6771     0.0000   112.0000 </r>
       <r>     3.7704     0.0000   112.0000 </r>
       <r>     3.8637     0.0000   112.0000 </r>
       <r>     3.9570     0.0000   112.0000 </r>
       <r>     4.0503     0.0000   112.0000 </r>
       <r>     4.1437     0.0000   112.0000 </r>
       <r>     4.2370     0.0000   112.0000 </r>
       <r>     4.3303     0.0000   112.0000 </r>
       <r>     4.4236     0.0000   112.0000 </r>
       <r>     4.5169     0.0000   112.0000 </r>
       <r>     4.6102     0.0000   112.0000 </r>
       <r>     4.7035     0.0000   112.0000 </r>
       <r>     4.7969     0.0000   112.0000 </r>
       <r>     4.8902     0.0000   112.0000 </r>
       <r>     4.9835     0.0000   112.0000 </r>
       <r>     5.0768     0.0000   112.0000 </r>
       <r>     5.1701     0.0000   112.0000 </r>
       <r>     5.2634     0.0000   112.0000 </r>
       <r>     5.3567     0.0000   112.0000 </r>
       <r>     5.4501     0.0000   112.0000 </r>
       <r>     5.5434     0.0000   112.0000 </r>
       <r>     5.6367     0.0000   112.0000 </r>
       <r>     5.7300     0.0000   112.0000 </r>
       <r>     5.8233     0.0000   112.0000 </r>
       <r>     5.9166     0.0000   112.0000 </r>
       <r>     6.0099     0.0000   112.0000 </r>
       <r>     6.1032     1.2307   112.1148 </r>
       <r>     6.1966     4.5176   112.5390 </r>
       <r>     6.2899     8.1716   113.3626 </r>
       <r>     6.3832     8.3865   114.2661 </r>
       <r>     6.4765     8.1212   115.1166 </r>
       <r>     6.5698     4.2585   115.6808 </r>
       <r>     6.6631     8.9651   116.5628 </r>
       <r>     6.7564     8.1848   117.4734 </r>
       <r>     6.8498     8.8843   118.3068 </r>
       <r>     6.9431    11.0626   119.4661 </r>
       <r>     7.0364    10.0255   120.5865 </r>
       <r>     7.1297    10.0158   121.6869 </r>
       <r>     7.2230    10.9821   122.9249 </r>
       <r>     7.3163    11.8138   124.0608 </r>
       <r>     7.4096    12.3720   125.4134 </r>
       <r>     7.5030    12.9870   126.8213 </r>
       <r>     7.5963    13.4851   128.2168 </r>
       <r>     7.6896    13.3581   129.6483 </r>
       <r>     7.7829    11.0032   130.8440 </r>
       <r>     7.8762     8.2083   131.7328 </r>
       <r>     7.9695    10.0259   132.8527 </r>
       <r>     8.0628    10.0443   133.9382 </r>
       <r>     8.1562     6.4695   134.5966 </r>
       <r>     8.2495     5.0306   135.2444 </r>
       <r>     8.3428     2.6974   135.5767 </r>
       <r>     8.4361     1.7418   135.8709 </r>
       <r>     8.5294     0.7996   135.9746 </r>
       <r>     8.6227     0.1786   136.0000 </r>
       <r>     8.7160     0.0000   136.0000 </r>
       <r>     8.8094     0.0000   136.0000 </r>
       <r>     8.9027     0.0000   136.0000 </r>
       <r>     8.9960     0.0000   136.0000 </r>
       <r>     9.0893     0.0000   136.0000 </r>
       <r>     9.1826     0.0000   136.0000 </r>
       <r>     9.2759     0.0000   136.0000 </r>
       <r>     9.3692     0.0000   136.0000 </r>
       <r>     9.4626     0.0000   136.0000 </r>
       <r>     9.5559     0.0000   136.0000 </r>
       <r>     9.6492     0.0000   136.0000 </r>
       <r>     9.7425     0.0000   136.0000 </r>
       <r>     9.8358     0.0000   136.0000 </r>
       <r>     9.9291     0.0000   136.0000 </r>
       <r>    10.0224     0.0172   136.0016 </r>
       <r>    10.1158     0.0321   136.0113 </r>
       <r>    10.2091     0.3388   136.0566 </r>
       <r>    10.3024     0.8849   136.1409 </r>
       <r>    10.3957     0.5820   136.2126 </r>
       <r>    10.4890     0.3572   136.2583 </r>
       <r>    10.5823     1.0655   136.3578 </r>
       <r>    10.6756     1.6461   136.5453 </r>
       <r>    10.7690     1.2492   136.6916 </r>
       <r>    10.8623     0.7369   136.7604 </r>
       <r>    10.9556     1.6577   136.9797 </r>
       <r>    11.0489     2.3894   137.2480 </r>
       <r>    11.1422     4.4217   137.6631 </r>
       <r>    11.2355     4.9745   138.2475 </r>
       <r>    11.3288     5.0716   138.7399 </r>
       <r>    11.4221     6.0068   139.4455 </r>
       <r>    11.5155     7.6123   140.3190 </r>
       <r>    11.6088     9.3264   141.3956 </r>
       <r>    11.7021     6.8649   142.1495 </r>
       <r>    11.7954     8.0371   143.1004 </r>
       <r>    11.8887     3.4091   143.6184 </r>
       <r>    11.9820     1.2769   143.7694 </r>
       <r>    12.0753     1.0821   143.9014 </r>
       <r>    12.1687     0.5235   143.9667 </r>
       <r>    12.2620     0.1942   143.9848 </r>
       <r>    12.3553     0.0893   144.0000 </r>
       <r>    12.4486     0.0000   144.0000 </r>
       <r>    12.5419     0.0000   144.0000 </r>
       <r>    12.6352     0.0000   144.0000 </r>
       <r>    12.7285     0.0000   144.0000 </r>
       <r>    12.8219     0.0000   144.0000 </r>
       <r>    12.9152     0.0000   144.0000 </r>
       <r>    13.0085     0.0000   144.0000 </r>
       <r>    13.1018     0.0000   144.0000 </r>
       <r>    13.1951     0.0000   144.0000 </r>
       <r>    13.2884     0.0000   144.0000 </r>
       <r>    13.3817     0.0000   144.0000 </r>
       <r>    13.4751     0.0000   144.0000 </r>
       <r>    13.5684     0.0000   144.0000 </r>
      </set>
     </set>
    </array>
   </total>
  </dos>
 </calculation>
 <structure name="finalpos" >
  <crystal>
   <varray name="basis" >
    <v>       4.54802613       0.00000000       0.00000000 </v>
    <v>       0.00000000       7.67151129       0.00000000 </v>
    <v>       0.00000000       0.00000000       9.17110896 </v>
   </varray>
   <i name="volume">    319.98213577 </i>
   <varray name="rec_basis" >
    <v>       0.21987561       0.00000000       0.00000000 </v>
    <v>       0.00000000       0.13035241       0.00000000 </v>
    <v>       0.00000000       0.00000000       0.10903807 </v>
   </varray>
  </crystal>
  <varray name="positions" >
   <v>       0.25000002       0.26365271       0.90944605 </v>
   <v>       0.75000006       0.73634737       0.09055403 </v>
   <v>       0.25000002       0.76365275       0.59055407 </v>
   <v>       0.75000006       0.23634733       0.40944601 </v>
   <v>       0.25000002       0.48276903       0.15764770 </v>
   <v>       0.75000006       0.51723105       0.84235237 </v>
   <v>       0.25000002       0.98276907       0.34235234 </v>
   <v>       0.75000006       0.01723101       0.65764774 </v>
   <v>       0.75000006       0.64146140       0.42262665 </v>
   <v>       0.25000002       0.35853868       0.57737342 </v>
   <v>       0.75000006       0.14146136       0.07737339 </v>
   <v>       0.25000002       0.85853872       0.92262669 </v>
  </varray>
 </structure>
</modeling>
