
     Program PWSCF v.7.1 starts on  3Jan2024 at 14:51:23 

     This program is part of the open-source Quantum ESPRESSO suite
     for quantum simulation of materials; please cite
         "P. Giannozzi et al., J. Phys.:Condens. Matter 21 395502 (2009);
         "P. Giannozzi et al., J. Phys.:Condens. Matter 29 465901 (2017);
         "P. Giannozzi et al., J. Chem. Phys. 152 154105 (2020);
          URL http://www.quantum-espresso.org", 
     in publications or presentations arising from this work. More details at
     http://www.quantum-espresso.org/quote

     Parallel version (MPI), running on     8 processors

     MPI processes distributed on     1 nodes
     123288 MiB available memory on the printing compute node when the environment starts
 
     Reading input from pw_mp-23037_emass_k3000_E130.in
Warning: card &IONS ignored
Warning: card / ignored
Warning: card &CELL ignored
Warning: card / ignored

     Current dimensions of program PWSCF are:
     Max number of different atomic species (ntypx) = 10
     Max number of k-points (npk) =  40000
     Max angular momentum in pseudopotentials (lmaxx) =  4

     Atomic positions and unit cell read from directory:
     out/mp-23037.save/
 
 
     R & G space division:  proc/nbgrp/npool/nimage =       8
     Subspace diagonalization in iterative solution of the eigenvalue problem:
     a serial algorithm will be used

 
     Parallelization info
     --------------------
     sticks:   dense  smooth     PW     G-vecs:    dense   smooth      PW
     Min         594     594    163                30970    30970    4437
     Max         596     596    164                30971    30971    4442
     Sum        4765    4765   1305               247761   247761   35513
 
     Using Slab Decomposition
 


     bravais-lattice index     =            1
     lattice parameter (alat)  =      10.7334  a.u.
     unit-cell volume          =    1236.5336 (a.u.)^3
     number of atoms/cell      =            5
     number of atomic types    =            3
     number of electrons       =        44.00
     number of Kohn-Sham states=           44
     kinetic-energy cutoff     =     130.0000  Ry
     charge density cutoff     =     520.0000  Ry
     Exchange-correlation= PBE
                           (   1   4   3   4   0   0   0)

     celldm(1)=  10.733350  celldm(2)=   0.000000  celldm(3)=   0.000000
     celldm(4)=   0.000000  celldm(5)=   0.000000  celldm(6)=   0.000000

     crystal axes: (cart. coord. in units of alat)
               a(1) = (   1.000000   0.000000   0.000000 )  
               a(2) = (   0.000000   1.000000   0.000000 )  
               a(3) = (   0.000000   0.000000   1.000000 )  

     reciprocal axes: (cart. coord. in units 2 pi/alat)
               b(1) = (  1.000000  0.000000  0.000000 )  
               b(2) = (  0.000000  1.000000  0.000000 )  
               b(3) = (  0.000000  0.000000  1.000000 )  


     PseudoPot. # 1 for Cl read from file:
     /usr/scratch4/magr4985/MG/devEb/pseudo/SG15/Cl.upf
     MD5 check sum: d09d09b0a9f35bc416b5a5b3d9ab34ee
     Pseudo is Norm-conserving, Zval =  7.0
     Generated using ONCVPSP code by D. R. Hamann
     Using radial grid of  602 points,  4 beta functions with: 
                l(1) =   0
                l(2) =   0
                l(3) =   1
                l(4) =   1

     PseudoPot. # 2 for Cs read from file:
     /usr/scratch4/magr4985/MG/devEb/pseudo/SG15/Cs.upf
     MD5 check sum: 1338a448a724a31fb6a2dbac20c1c7e6
     Pseudo is Norm-conserving, Zval =  9.0
     Generated using ONCVPSP code by D. R. Hamann
     Using radial grid of  602 points,  6 beta functions with: 
                l(1) =   0
                l(2) =   0
                l(3) =   1
                l(4) =   1
                l(5) =   2
                l(6) =   2

     PseudoPot. # 3 for Pb read from file:
     /usr/scratch4/magr4985/MG/devEb/pseudo/SG15/Pb.upf
     MD5 check sum: 18da7c9819a8d2a15024df9e07e1e14a
     Pseudo is Norm-conserving, Zval = 14.0
     Generated using ONCVPSP code by D. R. Hamann
     Using radial grid of  602 points,  8 beta functions with: 
                l(1) =   0
                l(2) =   0
                l(3) =   1
                l(4) =   1
                l(5) =   2
                l(6) =   2
                l(7) =   3
                l(8) =   3

     atomic species   valence    mass     pseudopotential
        Cl             7.00    35.45300     Cl( 1.00)
        Cs             9.00   132.90550     Cs( 1.00)
        Pb            14.00   207.20000     Pb( 1.00)

     48 Sym. Ops., with inversion, found



   Cartesian axes

     site n.     atom                  positions (alat units)
         1           Cs  tau(   1) = (   0.0000000   0.0000000   0.0000000  )
         2           Pb  tau(   2) = (   0.5000000   0.5000000   0.5000000  )
         3           Cl  tau(   3) = (   0.0000000   0.5000000   0.5000000  )
         4           Cl  tau(   4) = (   0.5000000   0.0000000   0.5000000  )
         5           Cl  tau(   5) = (   0.5000000   0.5000000   0.0000000  )

     number of k points=     7  Gaussian smearing, width (Ry)=  0.0005
                       cart. coord. in units 2pi/alat
        k(    1) = (  -0.5000000  -0.5000000  -0.5000000), wk =   0.2857143
        k(    2) = (  -0.4900000  -0.5000000  -0.5000000), wk =   0.2857143
        k(    3) = (  -0.5100000  -0.5000000  -0.5000000), wk =   0.2857143
        k(    4) = (  -0.5000000  -0.4900000  -0.5000000), wk =   0.2857143
        k(    5) = (  -0.5000000  -0.5100000  -0.5000000), wk =   0.2857143
        k(    6) = (  -0.5000000  -0.5000000  -0.4900000), wk =   0.2857143
        k(    7) = (  -0.5000000  -0.5000000  -0.5100000), wk =   0.2857143

     Dense  grid:   247761 G-vectors     FFT dimensions: (  80,  80,  80)

     Estimated max dynamical RAM per process >      54.20 MB

     Estimated total dynamical RAM >     433.57 MB

     The potential is recalculated from file :
     out/mp-23037.save/charge-density

     Starting wfcs are random

     Band Structure Calculation
     ParO style diagonalization

     ethr =  5.00E-06,  avg # of iterations = 23.5

     total cpu time spent up to now is       16.3 secs

     End of band structure calculation

          k =-0.5000-0.5000-0.5000 ( 30976 PWs)   bands (ev):

   -17.4354 -12.7752 -12.7752 -12.7252 -12.7252 -12.7252 -10.6616 -10.6616
   -10.6616  -4.9680  -4.2752  -4.2752  -4.2752   0.8462   0.8462   0.8462
     1.2314   1.2314   1.7900   1.7900   1.7900   3.7185   5.8462   5.8462
     5.8462   9.0646   9.5186   9.5186   9.5186  10.6763  10.6763  11.9501
    11.9501  11.9501  13.1272  13.1272  13.1272  14.8251  15.4804  15.4804
    15.4804  15.6289  15.6289  15.6289

          k =-0.4900-0.5000-0.5000 ( 30976 PWs)   bands (ev):

   -17.4354 -12.7753 -12.7752 -12.7252 -12.7252 -12.7252 -10.6616 -10.6616
   -10.6615  -4.9675  -4.2752  -4.2752  -4.2752   0.8460   0.8464   0.8464
     1.2299   1.2314   1.7896   1.7896   1.7900   3.7162   5.8467   5.8467
     5.8502   9.0652   9.5189   9.5190   9.5190  10.6746  10.6766  11.9490
    11.9490  11.9515  13.1261  13.1261  13.1278  14.8225  15.4785  15.4785
    15.4833  15.6294  15.6313  15.6313

          k =-0.5100-0.5000-0.5000 ( 30976 PWs)   bands (ev):

   -17.4354 -12.7753 -12.7752 -12.7252 -12.7252 -12.7252 -10.6616 -10.6616
   -10.6615  -4.9675  -4.2752  -4.2752  -4.2752   0.8460   0.8464   0.8464
     1.2299   1.2314   1.7896   1.7896   1.7900   3.7162   5.8467   5.8467
     5.8502   9.0652   9.5189   9.5190   9.5190  10.6746  10.6766  11.9490
    11.9490  11.9515  13.1261  13.1261  13.1278  14.8225  15.4785  15.4785
    15.4833  15.6294  15.6313  15.6313

          k =-0.5000-0.4900-0.5000 ( 30976 PWs)   bands (ev):

   -17.4354 -12.7753 -12.7752 -12.7252 -12.7252 -12.7252 -10.6616 -10.6616
   -10.6615  -4.9675  -4.2752  -4.2752  -4.2752   0.8460   0.8464   0.8464
     1.2299   1.2314   1.7896   1.7896   1.7900   3.7162   5.8467   5.8467
     5.8502   9.0652   9.5189   9.5190   9.5190  10.6746  10.6766  11.9490
    11.9490  11.9515  13.1261  13.1261  13.1278  14.8225  15.4785  15.4785
    15.4833  15.6294  15.6313  15.6313

          k =-0.5000-0.5100-0.5000 ( 30976 PWs)   bands (ev):

   -17.4354 -12.7753 -12.7752 -12.7252 -12.7252 -12.7252 -10.6616 -10.6616
   -10.6615  -4.9675  -4.2752  -4.2752  -4.2752   0.8460   0.8464   0.8464
     1.2299   1.2314   1.7896   1.7896   1.7900   3.7162   5.8467   5.8467
     5.8502   9.0652   9.5189   9.5190   9.5190  10.6746  10.6766  11.9490
    11.9490  11.9515  13.1261  13.1261  13.1278  14.8225  15.4785  15.4785
    15.4833  15.6294  15.6313  15.6313

          k =-0.5000-0.5000-0.4900 ( 30976 PWs)   bands (ev):

   -17.4354 -12.7753 -12.7752 -12.7252 -12.7252 -12.7252 -10.6616 -10.6616
   -10.6615  -4.9675  -4.2752  -4.2752  -4.2752   0.8460   0.8464   0.8464
     1.2299   1.2314   1.7896   1.7896   1.7900   3.7162   5.8467   5.8467
     5.8502   9.0652   9.5189   9.5190   9.5190  10.6746  10.6766  11.9490
    11.9490  11.9515  13.1261  13.1261  13.1278  14.8225  15.4785  15.4785
    15.4833  15.6294  15.6313  15.6313

          k =-0.5000-0.5000-0.5100 ( 30976 PWs)   bands (ev):

   -17.4354 -12.7753 -12.7752 -12.7252 -12.7252 -12.7252 -10.6616 -10.6616
   -10.6615  -4.9675  -4.2752  -4.2752  -4.2752   0.8460   0.8464   0.8464
     1.2299   1.2314   1.7896   1.7896   1.7900   3.7162   5.8467   5.8467
     5.8502   9.0652   9.5189   9.5190   9.5190  10.6746  10.6766  11.9490
    11.9490  11.9515  13.1261  13.1261  13.1278  14.8225  15.4785  15.4785
    15.4833  15.6294  15.6313  15.6313

     the Fermi energy is     5.3214 ev
     (compare with:     5.3214 eV, computed in scf)

     Writing all to output data dir out/mp-23037.save/
 
     init_run     :      0.18s CPU      0.22s WALL (       1 calls)
     electrons    :     15.74s CPU     15.93s WALL (       1 calls)

     Called by init_run:
     wfcinit      :      0.00s CPU      0.00s WALL (       1 calls)
     potinit      :      0.05s CPU      0.06s WALL (       1 calls)
     hinit0       :      0.04s CPU      0.06s WALL (       1 calls)

     Called by electrons:
     c_bands      :     15.74s CPU     15.93s WALL (       1 calls)
     v_of_rho     :      0.05s CPU      0.05s WALL (       1 calls)

     Called by c_bands:
     init_us_2    :      0.02s CPU      0.02s WALL (       7 calls)
     init_us_2:cp :      0.02s CPU      0.02s WALL (       7 calls)
     paro_k       :     14.93s CPU     15.10s WALL (       7 calls)

     Called by paro_*:
     h_psi        :     10.65s CPU     10.76s WALL (     421 calls)
     g_psi        :      0.20s CPU      0.21s WALL (    8185 calls)

     Called by h_psi:
     h_psi:calbec :      0.73s CPU      0.74s WALL (     421 calls)
     vloc_psi     :      9.14s CPU      9.23s WALL (     421 calls)
     add_vuspsi   :      0.71s CPU      0.71s WALL (     421 calls)

     General routines
     calbec       :      0.73s CPU      0.74s WALL (     421 calls)
     fft          :      0.02s CPU      0.03s WALL (      10 calls)
     fftw         :      8.02s CPU      8.10s WALL (   14158 calls)
 
     Parallel routines
 
     PWSCF        :     16.06s CPU     16.31s WALL

 
   This run was terminated on:  14:51:40   3Jan2024            

=------------------------------------------------------------------------------=
   JOB DONE.
=------------------------------------------------------------------------------=
