
     Program PWSCF v.7.1 starts on  3Jan2024 at 14:46:13 

     This program is part of the open-source Quantum ESPRESSO suite
     for quantum simulation of materials; please cite
         "P. Giannozzi et al., J. Phys.:Condens. Matter 21 395502 (2009);
         "P. Giannozzi et al., J. Phys.:Condens. Matter 29 465901 (2017);
         "P. Giannozzi et al., J. Chem. Phys. 152 154105 (2020);
          URL http://www.quantum-espresso.org", 
     in publications or presentations arising from this work. More details at
     http://www.quantum-espresso.org/quote

     Parallel version (MPI), running on     8 processors

     MPI processes distributed on     1 nodes
     123270 MiB available memory on the printing compute node when the environment starts
 
     Reading input from pw_mp-23037_nscf_k3000_E130.in
Warning: card &IONS ignored
Warning: card / ignored
Warning: card &CELL ignored
Warning: card / ignored

     Current dimensions of program PWSCF are:
     Max number of different atomic species (ntypx) = 10
     Max number of k-points (npk) =  40000
     Max angular momentum in pseudopotentials (lmaxx) =  4

     Atomic positions and unit cell read from directory:
     out/mp-23037.save/
 
 
     R & G space division:  proc/nbgrp/npool/nimage =       8
     Subspace diagonalization in iterative solution of the eigenvalue problem:
     a serial algorithm will be used

 
     Parallelization info
     --------------------
     sticks:   dense  smooth     PW     G-vecs:    dense   smooth      PW
     Min         594     594    163                30970    30970    4409
     Max         596     596    164                30971    30971    4410
     Sum        4765    4765   1305               247761   247761   35273
 
     Using Slab Decomposition
 


     bravais-lattice index     =            1
     lattice parameter (alat)  =      10.7334  a.u.
     unit-cell volume          =    1236.5336 (a.u.)^3
     number of atoms/cell      =            5
     number of atomic types    =            3
     number of electrons       =        44.00
     number of Kohn-Sham states=           44
     kinetic-energy cutoff     =     130.0000  Ry
     charge density cutoff     =     520.0000  Ry
     Exchange-correlation= PBE
                           (   1   4   3   4   0   0   0)

     celldm(1)=  10.733350  celldm(2)=   0.000000  celldm(3)=   0.000000
     celldm(4)=   0.000000  celldm(5)=   0.000000  celldm(6)=   0.000000

     crystal axes: (cart. coord. in units of alat)
               a(1) = (   1.000000   0.000000   0.000000 )  
               a(2) = (   0.000000   1.000000   0.000000 )  
               a(3) = (   0.000000   0.000000   1.000000 )  

     reciprocal axes: (cart. coord. in units 2 pi/alat)
               b(1) = (  1.000000  0.000000  0.000000 )  
               b(2) = (  0.000000  1.000000  0.000000 )  
               b(3) = (  0.000000  0.000000  1.000000 )  


     PseudoPot. # 1 for Cl read from file:
     /usr/scratch4/magr4985/MG/devEb/pseudo/SG15/Cl.upf
     MD5 check sum: d09d09b0a9f35bc416b5a5b3d9ab34ee
     Pseudo is Norm-conserving, Zval =  7.0
     Generated using ONCVPSP code by D. R. Hamann
     Using radial grid of  602 points,  4 beta functions with: 
                l(1) =   0
                l(2) =   0
                l(3) =   1
                l(4) =   1

     PseudoPot. # 2 for Cs read from file:
     /usr/scratch4/magr4985/MG/devEb/pseudo/SG15/Cs.upf
     MD5 check sum: 1338a448a724a31fb6a2dbac20c1c7e6
     Pseudo is Norm-conserving, Zval =  9.0
     Generated using ONCVPSP code by D. R. Hamann
     Using radial grid of  602 points,  6 beta functions with: 
                l(1) =   0
                l(2) =   0
                l(3) =   1
                l(4) =   1
                l(5) =   2
                l(6) =   2

     PseudoPot. # 3 for Pb read from file:
     /usr/scratch4/magr4985/MG/devEb/pseudo/SG15/Pb.upf
     MD5 check sum: 18da7c9819a8d2a15024df9e07e1e14a
     Pseudo is Norm-conserving, Zval = 14.0
     Generated using ONCVPSP code by D. R. Hamann
     Using radial grid of  602 points,  8 beta functions with: 
                l(1) =   0
                l(2) =   0
                l(3) =   1
                l(4) =   1
                l(5) =   2
                l(6) =   2
                l(7) =   3
                l(8) =   3

     atomic species   valence    mass     pseudopotential
        Cl             7.00    35.45300     Cl( 1.00)
        Cs             9.00   132.90550     Cs( 1.00)
        Pb            14.00   207.20000     Pb( 1.00)

     48 Sym. Ops., with inversion, found



   Cartesian axes

     site n.     atom                  positions (alat units)
         1           Cs  tau(   1) = (   0.0000000   0.0000000   0.0000000  )
         2           Pb  tau(   2) = (   0.5000000   0.5000000   0.5000000  )
         3           Cl  tau(   3) = (   0.0000000   0.5000000   0.5000000  )
         4           Cl  tau(   4) = (   0.5000000   0.0000000   0.5000000  )
         5           Cl  tau(   5) = (   0.5000000   0.5000000   0.0000000  )

     number of k points=   165  Gaussian smearing, width (Ry)=  0.0005

     Number of k-points >= 100: set verbosity='high' to print them.

     Dense  grid:   247761 G-vectors     FFT dimensions: (  80,  80,  80)

     Estimated max dynamical RAM per process >      41.57 MB

     Estimated total dynamical RAM >     332.56 MB

     The potential is recalculated from file :
     out/mp-23037.save/charge-density

     Starting wfcs are random

     Band Structure Calculation
     Davidson diagonalization with overlap

     ethr =  5.00E-06,  avg # of iterations = 31.9

     total cpu time spent up to now is      285.9 secs

     End of band structure calculation

     Number of k-points >= 100: set verbosity='high' to print the bands.

     the Fermi energy is     4.2176 ev
     (compare with:     4.2129 eV, computed in scf)

     Writing all to output data dir out/mp-23037.save/
 
     init_run     :      0.22s CPU      0.26s WALL (       1 calls)
     electrons    :    281.47s CPU    285.33s WALL (       1 calls)

     Called by init_run:
     wfcinit      :      0.00s CPU      0.00s WALL (       1 calls)
     potinit      :      0.05s CPU      0.07s WALL (       1 calls)
     hinit0       :      0.04s CPU      0.05s WALL (       1 calls)

     Called by electrons:
     c_bands      :    281.47s CPU    285.33s WALL (       1 calls)
     v_of_rho     :      0.04s CPU      0.05s WALL (       1 calls)

     Called by c_bands:
     init_us_2    :      0.39s CPU      0.45s WALL (     165 calls)
     init_us_2:cp :      0.39s CPU      0.45s WALL (     165 calls)
     cegterg      :    262.55s CPU    265.44s WALL (     338 calls)

     Called by *egterg:
     cdiaghg      :     13.55s CPU     14.08s WALL (    5425 calls)
     h_psi        :    194.05s CPU    196.44s WALL (    5763 calls)
     g_psi        :      2.61s CPU      2.62s WALL (    5260 calls)

     Called by h_psi:
     h_psi:calbec :     12.38s CPU     12.45s WALL (    5763 calls)
     vloc_psi     :    168.76s CPU    170.52s WALL (    5763 calls)
     add_vuspsi   :     11.60s CPU     11.63s WALL (    5763 calls)

     General routines
     calbec       :     12.36s CPU     12.44s WALL (    5763 calls)
     fft          :      0.01s CPU      0.02s WALL (      10 calls)
     fftw         :    147.93s CPU    149.52s WALL (  262858 calls)
     davcio       :      0.11s CPU      1.27s WALL (     330 calls)
 
     Parallel routines
 
     PWSCF        :   4m45.17s CPU   4m52.29s WALL

 
   This run was terminated on:  14:51: 6   3Jan2024            

=------------------------------------------------------------------------------=
   JOB DONE.
=------------------------------------------------------------------------------=
