
     Program PWSCF v.7.1 starts on  8Apr2024 at 15:12:11 

     This program is part of the open-source Quantum ESPRESSO suite
     for quantum simulation of materials; please cite
         "P. Giannozzi et al., J. Phys.:Condens. Matter 21 395502 (2009);
         "P. Giannozzi et al., J. Phys.:Condens. Matter 29 465901 (2017);
         "P. Giannozzi et al., J. Chem. Phys. 152 154105 (2020);
          URL http://www.quantum-espresso.org", 
     in publications or presentations arising from this work. More details at
     http://www.quantum-espresso.org/quote

     Parallel version (MPI), running on    16 processors

     MPI processes distributed on     1 nodes
     244352 MiB available memory on the printing compute node when the environment starts
 
     Reading input from pw_mp-23703_scf_k3000_E65.in
Warning: card &CELL ignored
Warning: card / ignored

     Current dimensions of program PWSCF are:
     Max number of different atomic species (ntypx) = 10
     Max number of k-points (npk) =  40000
     Max angular momentum in pseudopotentials (lmaxx) =  4
 
     K-points division:     npool     =       2
     R & G space division:  proc/nbgrp/npool/nimage =       8
     Subspace diagonalization in iterative solution of the eigenvalue problem:
     a serial algorithm will be used

 
     Parallelization info
     --------------------
     sticks:   dense  smooth     PW     G-vecs:    dense   smooth      PW
     Min          63      63     20                  972      972     175
     Max          64      64     21                  976      976     178
     Sum         511     511    163                 7799     7799    1411
 
     Using Slab Decomposition
 


     bravais-lattice index     =            2
     lattice parameter (alat)  =       7.5915  a.u.
     unit-cell volume          =     109.3754 (a.u.)^3
     number of atoms/cell      =            2
     number of atomic types    =            2
     number of electrons       =         4.00
     number of Kohn-Sham states=            8
     kinetic-energy cutoff     =      65.0000  Ry
     charge density cutoff     =     260.0000  Ry
     scf convergence threshold =      1.0E-10
     mixing beta               =       0.7000
     number of iterations used =            8  plain     mixing
     Exchange-correlation= PBE
                           (   1   4   3   4   0   0   0)

     celldm(1)=   7.591481  celldm(2)=   0.000000  celldm(3)=   0.000000
     celldm(4)=   0.000000  celldm(5)=   0.000000  celldm(6)=   0.000000

     crystal axes: (cart. coord. in units of alat)
               a(1) = (  -0.500000   0.000000   0.500000 )  
               a(2) = (   0.000000   0.500000   0.500000 )  
               a(3) = (  -0.500000   0.500000   0.000000 )  

     reciprocal axes: (cart. coord. in units 2 pi/alat)
               b(1) = ( -1.000000 -1.000000  1.000000 )  
               b(2) = (  1.000000  1.000000  1.000000 )  
               b(3) = ( -1.000000  1.000000 -1.000000 )  


     PseudoPot. # 1 for H  read from file:
     /usr/scratch4/magr4826/Promotion/Python/Code/devEb/pseudo/SG15/H.upf
     MD5 check sum: bf21e08b90ac4ce7d0149ac4e8138190
     Pseudo is Norm-conserving, Zval =  1.0
     Generated using ONCVPSP code by D. R. Hamann
     Using radial grid of  602 points,  2 beta functions with: 
                l(1) =   0
                l(2) =   0

     PseudoPot. # 2 for Li read from file:
     /usr/scratch4/magr4826/Promotion/Python/Code/devEb/pseudo/SG15/Li.upf
     MD5 check sum: c91dd4cee9943b136ac3b62641658f95
     Pseudo is Norm-conserving, Zval =  3.0
     Generated using ONCVPSP code by D. R. Hamann
     Using radial grid of  602 points,  4 beta functions with: 
                l(1) =   0
                l(2) =   0
                l(3) =   1
                l(4) =   1

     atomic species   valence    mass     pseudopotential
        H              1.00     1.00790     H ( 1.00)
        Li             3.00     6.94100     Li( 1.00)

     48 Sym. Ops., with inversion, found



   Cartesian axes

     site n.     atom                  positions (alat units)
         1           Li  tau(   1) = (   0.0000000   0.0000000   0.0000000  )
         2           H   tau(   2) = (  -0.5000000   0.5000000   0.5000000  )

     number of k points=    72  Gaussian smearing, width (Ry)=  0.0005
                       cart. coord. in units 2pi/alat
        k(    1) = (   0.0000000   0.0000000   0.0000000), wk =   0.0011574
        k(    2) = (  -0.0833333   0.0833333  -0.0833333), wk =   0.0092593
        k(    3) = (  -0.1666667   0.1666667  -0.1666667), wk =   0.0092593
        k(    4) = (  -0.2500000   0.2500000  -0.2500000), wk =   0.0092593
        k(    5) = (  -0.3333333   0.3333333  -0.3333333), wk =   0.0092593
        k(    6) = (  -0.4166667   0.4166667  -0.4166667), wk =   0.0092593
        k(    7) = (   0.5000000  -0.5000000   0.5000000), wk =   0.0046296
        k(    8) = (   0.0000000   0.1666667   0.0000000), wk =   0.0069444
        k(    9) = (  -0.0833333   0.2500000  -0.0833333), wk =   0.0277778
        k(   10) = (  -0.1666667   0.3333333  -0.1666667), wk =   0.0277778
        k(   11) = (  -0.2500000   0.4166667  -0.2500000), wk =   0.0277778
        k(   12) = (  -0.3333333   0.5000000  -0.3333333), wk =   0.0277778
        k(   13) = (   0.5833333  -0.4166667   0.5833333), wk =   0.0277778
        k(   14) = (   0.5000000  -0.3333333   0.5000000), wk =   0.0277778
        k(   15) = (   0.4166667  -0.2500000   0.4166667), wk =   0.0277778
        k(   16) = (   0.3333333  -0.1666667   0.3333333), wk =   0.0277778
        k(   17) = (   0.2500000  -0.0833333   0.2500000), wk =   0.0277778
        k(   18) = (   0.1666667  -0.0000000   0.1666667), wk =   0.0138889
        k(   19) = (   0.0000000   0.3333333   0.0000000), wk =   0.0069444
        k(   20) = (  -0.0833333   0.4166667  -0.0833333), wk =   0.0277778
        k(   21) = (  -0.1666667   0.5000000  -0.1666667), wk =   0.0277778
        k(   22) = (  -0.2500000   0.5833333  -0.2500000), wk =   0.0277778
        k(   23) = (   0.6666667  -0.3333333   0.6666667), wk =   0.0277778
        k(   24) = (   0.5833333  -0.2500000   0.5833333), wk =   0.0277778
        k(   25) = (   0.5000000  -0.1666667   0.5000000), wk =   0.0277778
        k(   26) = (   0.4166667  -0.0833333   0.4166667), wk =   0.0277778
        k(   27) = (   0.3333333   0.0000000   0.3333333), wk =   0.0138889
        k(   28) = (   0.0000000   0.5000000   0.0000000), wk =   0.0069444
        k(   29) = (  -0.0833333   0.5833333  -0.0833333), wk =   0.0277778
        k(   30) = (  -0.1666667   0.6666667  -0.1666667), wk =   0.0277778
        k(   31) = (   0.7500000  -0.2500000   0.7500000), wk =   0.0277778
        k(   32) = (   0.6666667  -0.1666667   0.6666667), wk =   0.0277778
        k(   33) = (   0.5833333  -0.0833333   0.5833333), wk =   0.0277778
        k(   34) = (   0.5000000   0.0000000   0.5000000), wk =   0.0138889
        k(   35) = (   0.0000000   0.6666667   0.0000000), wk =   0.0069444
        k(   36) = (  -0.0833333   0.7500000  -0.0833333), wk =   0.0277778
        k(   37) = (   0.8333333  -0.1666667   0.8333333), wk =   0.0277778
        k(   38) = (   0.7500000  -0.0833333   0.7500000), wk =   0.0277778
        k(   39) = (   0.6666667  -0.0000000   0.6666667), wk =   0.0138889
        k(   40) = (   0.0000000   0.8333333   0.0000000), wk =   0.0069444
        k(   41) = (   0.9166667  -0.0833333   0.9166667), wk =   0.0277778
        k(   42) = (   0.8333333   0.0000000   0.8333333), wk =   0.0138889
        k(   43) = (   0.0000000  -1.0000000   0.0000000), wk =   0.0034722
        k(   44) = (  -0.1666667   0.3333333   0.0000000), wk =   0.0277778
        k(   45) = (  -0.2500000   0.4166667  -0.0833333), wk =   0.0555556
        k(   46) = (  -0.3333333   0.5000000  -0.1666667), wk =   0.0555556
        k(   47) = (   0.5833333  -0.4166667   0.7500000), wk =   0.0555556
        k(   48) = (   0.5000000  -0.3333333   0.6666667), wk =   0.0277778
        k(   49) = (  -0.1666667   0.5000000   0.0000000), wk =   0.0277778
        k(   50) = (  -0.2500000   0.5833333  -0.0833333), wk =   0.0555556
        k(   51) = (   0.6666667  -0.3333333   0.8333333), wk =   0.0555556
        k(   52) = (   0.5833333  -0.2500000   0.7500000), wk =   0.0555556
        k(   53) = (   0.5000000  -0.1666667   0.6666667), wk =   0.0555556
        k(   54) = (   0.4166667  -0.0833333   0.5833333), wk =   0.0555556
        k(   55) = (   0.3333333   0.0000000   0.5000000), wk =   0.0277778
        k(   56) = (  -0.1666667   0.6666667  -0.0000000), wk =   0.0277778
        k(   57) = (   0.7500000  -0.2500000   0.9166667), wk =   0.0555556
        k(   58) = (   0.6666667  -0.1666667   0.8333333), wk =   0.0555556
        k(   59) = (   0.5833333  -0.0833333   0.7500000), wk =   0.0555556
        k(   60) = (   0.5000000   0.0000000   0.6666667), wk =   0.0277778
        k(   61) = (   0.8333333  -0.1666667   1.0000000), wk =   0.0277778
        k(   62) = (   0.7500000  -0.0833333   0.9166667), wk =   0.0555556
        k(   63) = (   0.6666667   0.0000000   0.8333333), wk =   0.0277778
        k(   64) = (  -0.1666667  -1.0000000  -0.0000000), wk =   0.0138889
        k(   65) = (   0.6666667  -0.3333333   1.0000000), wk =   0.0277778
        k(   66) = (   0.5833333  -0.2500000   0.9166667), wk =   0.0555556
        k(   67) = (   0.5000000  -0.1666667   0.8333333), wk =   0.0277778
        k(   68) = (   0.6666667  -0.1666667   1.0000000), wk =   0.0277778
        k(   69) = (   0.5833333  -0.0833333   0.9166667), wk =   0.0555556
        k(   70) = (   0.5000000   0.0000000   0.8333333), wk =   0.0277778
        k(   71) = (  -0.3333333  -1.0000000   0.0000000), wk =   0.0138889
        k(   72) = (  -0.5000000  -1.0000000   0.0000000), wk =   0.0069444

     Dense  grid:     7799 G-vectors     FFT dimensions: (  27,  27,  27)

     Estimated max dynamical RAM per process >       2.01 MB

     Estimated total dynamical RAM >      30.29 MB

     Initial potential from superposition of free atoms

     starting charge       3.8851, renormalised to       4.0000
     Starting wfcs are random

     total cpu time spent up to now is        0.2 secs

     Self-consistent Calculation

     iteration #  1     ecut=    65.00 Ry     beta= 0.70
     Davidson diagonalization with overlap
     ethr =  5.00E-06,  avg # of iterations = 13.2

     total cpu time spent up to now is        0.7 secs

     total energy              =     -15.46807920 Ry
     estimated scf accuracy    <       0.06069820 Ry

     iteration #  2     ecut=    65.00 Ry     beta= 0.70
     Davidson diagonalization with overlap
     ethr =  1.52E-03,  avg # of iterations =  1.4

     total cpu time spent up to now is        0.7 secs

     total energy              =     -15.47413900 Ry
     estimated scf accuracy    <       0.00032018 Ry

     iteration #  3     ecut=    65.00 Ry     beta= 0.70
     Davidson diagonalization with overlap
     ethr =  8.00E-06,  avg # of iterations =  3.5

     total cpu time spent up to now is        0.8 secs

     total energy              =     -15.47419792 Ry
     estimated scf accuracy    <       0.00002314 Ry

     iteration #  4     ecut=    65.00 Ry     beta= 0.70
     Davidson diagonalization with overlap
     ethr =  5.79E-07,  avg # of iterations =  2.5

     total cpu time spent up to now is        1.0 secs

     total energy              =     -15.47419974 Ry
     estimated scf accuracy    <       0.00000023 Ry

     iteration #  5     ecut=    65.00 Ry     beta= 0.70
     Davidson diagonalization with overlap
     ethr =  5.80E-09,  avg # of iterations =  4.1

     total cpu time spent up to now is        1.1 secs

     total energy              =     -15.47419978 Ry
     estimated scf accuracy    <          5.3E-09 Ry

     iteration #  6     ecut=    65.00 Ry     beta= 0.70
     Davidson diagonalization with overlap
     ethr =  1.33E-10,  avg # of iterations =  3.8

     total cpu time spent up to now is        1.2 secs

     total energy              =     -15.47419978 Ry
     estimated scf accuracy    <          1.5E-10 Ry

     iteration #  7     ecut=    65.00 Ry     beta= 0.70
     Davidson diagonalization with overlap
     ethr =  3.64E-12,  avg # of iterations =  3.1

     total cpu time spent up to now is        1.3 secs

     End of self-consistent calculation

          k = 0.0000 0.0000 0.0000 (   941 PWs)   bands (ev):

   -43.6314  -4.7816  16.6377  18.4643  18.4643  18.4643  23.1761  23.1761

          k =-0.0833 0.0833-0.0833 (   950 PWs)   bands (ev):

   -43.6284  -4.6589  15.6192  17.6915  18.1806  18.1806  22.5836  23.7821

          k =-0.1667 0.1667-0.1667 (   956 PWs)   bands (ev):

   -43.6201  -4.2968  13.0755  16.5954  17.6486  17.6486  23.0534  24.4110

          k =-0.2500 0.2500-0.2500 (   959 PWs)   bands (ev):

   -43.6088  -3.7187  10.3184  15.6348  17.2246  17.2246  22.7247  22.7247

          k =-0.3333 0.3333-0.3333 (   968 PWs)   bands (ev):

   -43.5975  -2.9923   7.9198  14.8800  17.0266  17.0266  21.1615  21.1615

          k =-0.4167 0.4167-0.4167 (   963 PWs)   bands (ev):

   -43.5893  -2.2935   6.1889  14.4019  17.0316  17.0316  20.0725  20.0725

          k = 0.5000-0.5000 0.5000 (   978 PWs)   bands (ev):

   -43.5862  -1.9761   5.5234  14.2386  17.0808  17.0808  19.6588  19.6588

          k = 0.0000 0.1667 0.0000 (   953 PWs)   bands (ev):

   -43.6274  -4.6167  15.6935  17.2237  17.2237  19.1181  20.9835  24.8507

          k =-0.0833 0.2500-0.0833 (   953 PWs)   bands (ev):

   -43.6209  -4.3302  13.9323  16.1014  16.3613  19.0721  20.9314  24.5143

          k =-0.1667 0.3333-0.1667 (   957 PWs)   bands (ev):

   -43.6106  -3.8151  11.2361  15.0569  15.7629  18.5538  22.1397  23.0897

          k =-0.2500 0.4167-0.2500 (   962 PWs)   bands (ev):

   -43.5994  -3.1191   8.6966  14.1818  15.4857  17.8986  21.8077  23.5954

          k =-0.3333 0.5000-0.3333 (   967 PWs)   bands (ev):

   -43.5901  -2.3716   6.7036  13.5415  15.5468  17.2258  21.3659  22.1912

          k = 0.5833-0.4167 0.5833 (   972 PWs)   bands (ev):

   -43.5853  -1.8739   5.6310  13.1765  15.9404  16.6559  21.1651  21.4869

          k = 0.5000-0.3333 0.5000 (   967 PWs)   bands (ev):

   -43.5863  -1.9885   5.8642  13.0968  16.3161  16.6300  20.5658  22.0980

          k = 0.4167-0.2500 0.4167 (   961 PWs)   bands (ev):

   -43.5928  -2.6176   7.3019  13.2897  16.2874  17.5010  20.4948  23.1226

          k = 0.3333-0.1667 0.3333 (   955 PWs)   bands (ev):

   -43.6031  -3.3711   9.5224  13.7346  16.5905  18.2922  21.1654  24.2637

          k = 0.2500-0.0833 0.2500 (   959 PWs)   bands (ev):

   -43.6144  -4.0146  12.1832  14.4390  17.1562  18.7791  22.6609  23.0167

          k = 0.1667-0.0000 0.1667 (   949 PWs)   bands (ev):

   -43.6236  -4.4548  14.5625  15.7863  17.7440  18.8128  22.3235  23.6932

          k = 0.0000 0.3333 0.0000 (   966 PWs)   bands (ev):

   -43.6164  -4.1142  13.7678  15.2901  15.2901  18.6965  19.0922  25.2256

          k =-0.0833 0.4167-0.0833 (   969 PWs)   bands (ev):

   -43.6080  -3.6584  11.8816  14.0147  14.5330  18.4452  19.1416  25.2589

          k =-0.1667 0.5000-0.1667 (   965 PWs)   bands (ev):

   -43.5978  -2.9955   9.4610  12.7495  14.1230  17.8081  20.7483  25.0055

          k =-0.2500 0.5833-0.2500 (   974 PWs)   bands (ev):

   -43.5886  -2.2187   7.3165  11.7837  14.0726  17.1644  22.6418  25.0208

          k = 0.6667-0.3333 0.6667 (   972 PWs)   bands (ev):

   -43.5828  -1.5724   5.9107  11.1286  14.3847  16.6491  23.8110  23.9540

          k = 0.5833-0.2500 0.5833 (   969 PWs)   bands (ev):

   -43.5821  -1.4745   5.7251  10.7842  15.0545  16.3451  22.9423  24.7519

          k = 0.5000-0.1667 0.5000 (   969 PWs)   bands (ev):

   -43.5865  -2.0130   6.8629  10.7413  16.0631  16.2962  22.4009  25.5614

          k = 0.4167-0.0833 0.4167 (   966 PWs)   bands (ev):

   -43.5950  -2.7889   8.9102  10.9836  16.4974  17.3476  22.1240  24.8616

          k = 0.3333 0.0000 0.3333 (   949 PWs)   bands (ev):

   -43.6052  -3.4973  11.3630  11.6369  16.8590  18.6248  22.0078  23.6089

          k = 0.0000 0.5000 0.0000 (   982 PWs)   bands (ev):

   -43.6016  -3.2546  11.0212  13.6322  13.6322  16.8983  18.3001  27.2202

          k =-0.0833 0.5833-0.0833 (   977 PWs)   bands (ev):

   -43.5933  -2.6257   9.3106  12.1887  13.0881  17.2444  18.2199  28.0115

          k =-0.1667 0.6667-0.1667 (   974 PWs)   bands (ev):

   -43.5851  -1.8386   7.5055  10.6217  12.9108  17.2198  19.7567  28.2822

          k = 0.7500-0.2500 0.7500 (   971 PWs)   bands (ev):

   -43.5794  -1.0865   6.0634   9.5368  13.1038  16.8557  22.1018  26.8778

          k = 0.6667-0.1667 0.6667 (   967 PWs)   bands (ev):

   -43.5776  -0.7970   5.6062   8.8965  13.6659  16.5570  24.6019  25.7879

          k = 0.5833-0.0833 0.5833 (   970 PWs)   bands (ev):

   -43.5802  -1.2349   6.4818   8.6446  14.5899  16.4010  24.8610  26.6427

          k = 0.5000 0.0000 0.5000 (   975 PWs)   bands (ev):

   -43.5866  -2.0251   8.1726   8.8999  15.8516  16.3992  23.7419  26.0879

          k = 0.0000 0.6667 0.0000 (   962 PWs)   bands (ev):

   -43.5870  -2.0253   7.9607  12.4125  12.4125  15.6102  17.9156  30.4376

          k =-0.0833 0.7500-0.0833 (   979 PWs)   bands (ev):

   -43.5807  -1.2454   6.5043  11.0627  12.1063  16.2991  17.9557  31.3916

          k = 0.8333-0.1667 0.8333 (   975 PWs)   bands (ev):

   -43.5760  -0.4475   5.3517   9.4519  12.1735  16.9327  19.2584  30.2031

          k = 0.7500-0.0833 0.7500 (   970 PWs)   bands (ev):

   -43.5742  -0.0610   4.9677   8.3318  12.6140  16.7906  21.7968  28.7909

          k = 0.6667-0.0000 0.6667 (   981 PWs)   bands (ev):

   -43.5757  -0.4481   5.6538   7.8789  13.4238  16.5725  24.6287  27.1282

          k = 0.0000 0.8333 0.0000 (   978 PWs)   bands (ev):

   -43.5764  -0.4882   5.1759  11.6717  11.6717  14.8365  17.8343  34.1364

          k = 0.9167-0.0833 0.9167 (   973 PWs)   bands (ev):

   -43.5734   0.2475   4.2017  10.5279  11.6115  15.8098  17.9228  33.4617

          k = 0.8333 0.0000 0.8333 (   965 PWs)   bands (ev):

   -43.5726   0.4517   4.1328   9.1054  11.9265  16.8370  19.1257  31.4933

          k = 0.0000-1.0000 0.0000 (   982 PWs)   bands (ev):

   -43.5725   0.6279   3.6245  11.4236  11.4236  14.5785  17.8354  35.2744

          k =-0.1667 0.3333 0.0000 (   964 PWs)   bands (ev):

   -43.6134  -3.9616  12.7815  13.7390  16.2745  19.0146  20.7141  23.7762

          k =-0.2500 0.4167-0.0833 (   957 PWs)   bands (ev):

   -43.6032  -3.3709  10.4248  12.5489  15.7554  18.4091  21.7828  23.1395

          k =-0.3333 0.5000-0.1667 (   966 PWs)   bands (ev):

   -43.5930  -2.6234   8.0442  11.9468  15.2848  17.5807  22.2129  24.1998

          k = 0.5833-0.4167 0.7500 (   969 PWs)   bands (ev):

   -43.5855  -1.8956   6.2941  11.5892  15.0478  16.9034  22.1935  24.4899

          k = 0.5000-0.3333 0.6667 (   970 PWs)   bands (ev):

   -43.5827  -1.5601   5.6131  11.4687  14.9931  16.6358  22.2354  24.0988

          k =-0.1667 0.5000 0.0000 (   970 PWs)   bands (ev):

   -43.5996  -3.1193  10.5566  12.0334  14.2669  18.3069  18.9954  25.6947

          k =-0.2500 0.5833-0.0833 (   967 PWs)   bands (ev):

   -43.5904  -2.3889   8.6239  10.6836  13.8486  17.7895  20.5028  25.5683

          k = 0.6667-0.3333 0.8333 (   971 PWs)   bands (ev):

   -43.5830  -1.5969   6.7715   9.9239  13.6560  17.2603  22.4899  25.4899

          k = 0.5833-0.2500 0.7500 (   966 PWs)   bands (ev):

   -43.5793  -1.0708   5.7475   9.4824  13.7789  16.9235  23.8239  25.9285

          k = 0.5000-0.1667 0.6667 (   968 PWs)   bands (ev):

   -43.5802  -1.2242   6.0584   9.3260  14.1695  16.8975  23.8050  26.8552

          k = 0.4167-0.0833 0.5833 (   970 PWs)   bands (ev):

   -43.5856  -1.9168   7.5785   9.4453  14.7319  17.2467  23.4430  24.7647

          k = 0.3333 0.0000 0.5000 (   962 PWs)   bands (ev):

   -43.5940  -2.7099   9.7592   9.9093  15.3407  17.8877  22.5862  23.4391

          k =-0.1667 0.6667-0.0000 (   971 PWs)   bands (ev):

   -43.5859  -1.9212   7.8806  10.7904  12.7595  17.7387  17.9533  28.4940

          k = 0.7500-0.2500 0.9167 (   969 PWs)   bands (ev):

   -43.5795  -1.1029   6.5089   9.3207  12.6063  17.5586  19.6475  28.0813

          k = 0.6667-0.1667 0.8333 (   972 PWs)   bands (ev):

   -43.5758  -0.4516   5.5769   8.3169  12.7580  17.2365  22.0734  27.4472

          k = 0.5833-0.0833 0.7500 (   970 PWs)   bands (ev):

   -43.5757  -0.4515   5.7247   7.7929  13.2216  17.0428  24.5413  26.8880

          k = 0.5000 0.0000 0.6667 (   975 PWs)   bands (ev):

   -43.5793  -1.0995   6.9144   7.8178  13.9315  17.0413  25.2427  25.6015

          k = 0.8333-0.1667 1.0000 (   977 PWs)   bands (ev):

   -43.5760  -0.4466   5.2960  10.0384  11.9224  16.9791  17.8963  31.0322

          k = 0.7500-0.0833 0.9167 (   974 PWs)   bands (ev):

   -43.5733   0.1964   4.6100   8.6992  12.0380  17.4800  19.2730  30.2110

          k = 0.6667 0.0000 0.8333 (   974 PWs)   bands (ev):

   -43.5732   0.1779   4.8936   7.7736  12.4802  17.2577  21.9261  29.0474

          k =-0.1667-1.0000-0.0000 (   962 PWs)   bands (ev):

   -43.5724   0.5701   3.8787   9.7871  11.6544  16.7252  17.9079  32.5458

          k = 0.6667-0.3333 1.0000 (   958 PWs)   bands (ev):

   -43.5831  -1.6088   7.7864   8.6557  13.4753  17.8418  21.3856  25.7599

          k = 0.5833-0.2500 0.9167 (   966 PWs)   bands (ev):

   -43.5777  -0.8275   6.4598   7.8692  13.1661  17.6238  23.1895  25.9710

          k = 0.5000-0.1667 0.8333 (   960 PWs)   bands (ev):

   -43.5757  -0.4549   5.8019   7.7000  13.0559  17.5102  24.4380  26.1788

          k = 0.6667-0.1667 1.0000 (   972 PWs)   bands (ev):

   -43.5752  -0.3208   5.7249   7.8986  12.4419  17.9966  20.6430  27.8137

          k = 0.5833-0.0833 0.9167 (   969 PWs)   bands (ev):

   -43.5732   0.1428   5.4632   6.9373  12.4759  17.9360  22.8264  26.9186

          k = 0.5000 0.0000 0.8333 (   967 PWs)   bands (ev):

   -43.5741  -0.1071   6.1552   6.5588  12.7318  17.8096  24.9107  25.1844

          k =-0.3333-1.0000 0.0000 (   978 PWs)   bands (ev):

   -43.5723   0.4576   4.6396   7.6457  12.1279  18.0891  20.3936  29.4353

          k =-0.5000-1.0000 0.0000 (   952 PWs)   bands (ev):

   -43.5722   0.4036   5.9017   5.9017  12.3722  18.2069  24.6712  24.6712

     the Fermi energy is     0.7609 ev

!    total energy              =     -15.47419978 Ry
     estimated scf accuracy    <          2.6E-13 Ry
     smearing contrib. (-TS)   =      -0.00000000 Ry
     internal energy E=F+TS    =     -15.47419978 Ry

     The total energy is F=E-TS. E is the sum of the following terms:
     one-electron contribution =      -7.62176146 Ry
     hartree contribution      =       3.07533284 Ry
     xc contribution           =      -4.02700684 Ry
     ewald contribution        =      -6.90076433 Ry

     convergence has been achieved in   7 iterations

     Writing all to output data dir out/mp-23703.save/
 
     init_run     :      0.09s CPU      0.10s WALL (       1 calls)
     electrons    :      0.67s CPU      1.33s WALL (       1 calls)

     Called by init_run:
     wfcinit      :      0.07s CPU      0.07s WALL (       1 calls)
     potinit      :      0.01s CPU      0.01s WALL (       1 calls)
     hinit0       :      0.01s CPU      0.02s WALL (       1 calls)

     Called by electrons:
     c_bands      :      0.60s CPU      1.04s WALL (       7 calls)
     sum_band     :      0.06s CPU      0.06s WALL (       7 calls)
     v_of_rho     :      0.01s CPU      0.01s WALL (       8 calls)
     mix_rho      :      0.00s CPU      0.00s WALL (       7 calls)

     Called by c_bands:
     init_us_2    :      0.01s CPU      0.01s WALL (     540 calls)
     init_us_2:cp :      0.01s CPU      0.01s WALL (     540 calls)
     cegterg      :      0.57s CPU      0.61s WALL (     252 calls)

     Called by *egterg:
     cdiaghg      :      0.09s CPU      0.10s WALL (    1375 calls)
     h_psi        :      0.49s CPU      0.52s WALL (    1411 calls)
     g_psi        :      0.00s CPU      0.00s WALL (    1123 calls)

     Called by h_psi:
     h_psi:calbec :      0.01s CPU      0.02s WALL (    1411 calls)
     vloc_psi     :      0.47s CPU      0.50s WALL (    1411 calls)
     add_vuspsi   :      0.01s CPU      0.01s WALL (    1411 calls)

     General routines
     calbec       :      0.01s CPU      0.01s WALL (    1411 calls)
     fft          :      0.01s CPU      0.01s WALL (      79 calls)
     ffts         :      0.00s CPU      0.00s WALL (       7 calls)
     fftw         :      0.48s CPU      0.51s WALL (   17806 calls)
 
     Parallel routines
 
     PWSCF        :      1.03s CPU      1.88s WALL

 
   This run was terminated on:  15:12:13   8Apr2024            

=------------------------------------------------------------------------------=
   JOB DONE.
=------------------------------------------------------------------------------=
