<?xml version="1.0" encoding="ISO-8859-1"?>
<modeling>
 <generator>
  <i name="program" type="string">vasp </i>
  <i name="version" type="string">5.4.4.18Apr17-6-g9f103f2a35  </i>
  <i name="subversion" type="string">(build Aug 24 2017 11:22:49) complex            parallel </i>
  <i name="platform" type="string">LinuxIFC </i>
  <i name="date" type="string">2023 12 25 </i>
  <i name="time" type="string">13:07:12 </i>
 </generator>
 <incar>
  <i type="string" name="PREC">accurate</i>
  <i type="string" name="ALGO"> Normal</i>
  <i type="int" name="NELM">   100</i>
  <i type="int" name="IBRION">     8</i>
  <i name="EDIFF">      0.00000001</i>
  <i name="SYMPREC">      0.00000001</i>
  <i name="ENCUT">    520.00000000</i>
  <i type="logical" name="LREAL"> F  </i>
  <i type="int" name="ISMEAR">     0</i>
  <i name="SIGMA">      0.01000000</i>
  <i type="logical" name="LWAVE"> F  </i>
  <v type="int" name="KPOINT_BSE">    -1     0     0     0</v>
  <i type="int" name="NELM">   100</i>
  <i type="logical" name="LPEAD"> T  </i>
  <i type="logical" name="LEPSILON"> T  </i>
 </incar>
 <structure name="primitive_cell" >
  <crystal>
   <varray name="basis" >
    <v>      -2.28589416       0.00000000       2.28589416 </v>
    <v>       0.00000000       2.28589416       2.28589416 </v>
    <v>      -2.28589416       2.28589416       0.00000000 </v>
   </varray>
   <i name="volume">     23.88902076 </i>
   <varray name="rec_basis" >
    <v>      -0.21873279      -0.21873279       0.21873279 </v>
    <v>       0.21873279       0.21873279       0.21873279 </v>
    <v>      -0.21873279       0.21873279      -0.21873279 </v>
   </varray>
  </crystal>
  <varray name="positions" >
   <v>       0.00000000       0.00000000       0.00000000 </v>
   <v>       0.49999996      -0.49999996       0.49999996 </v>
  </varray>
 </structure>
 <varray name="primitive_index" >
  <v type="int" >        1 </v>
  <v type="int" >        2 </v>
 </varray>
 <kpoints>
  <generation param="Gamma">
   <v type="int" name="divisions">      12       12       12 </v>
   <v name="usershift">      0.00000000       0.00000000       0.00000000 </v>
   <v name="genvec1">      0.08333333      -0.00000000      -0.00000000 </v>
   <v name="genvec2">     -0.00000000       0.08333333       0.00000000 </v>
   <v name="genvec3">      0.00000000       0.00000000       0.08333333 </v>
   <v name="shift">      0.00000000       0.00000000       0.00000000 </v>
  </generation>
  <varray name="kpointlist" >
   <v>       0.00000000       0.00000000       0.00000000 </v>
   <v>       0.08333333      -0.00000000      -0.00000000 </v>
   <v>       0.16666667      -0.00000000      -0.00000000 </v>
   <v>       0.25000000       0.00000000      -0.00000000 </v>
   <v>       0.33333333      -0.00000000      -0.00000000 </v>
   <v>       0.41666667       0.00000000       0.00000000 </v>
   <v>       0.50000000       0.00000000      -0.00000000 </v>
   <v>       0.08333333       0.08333333       0.00000000 </v>
   <v>       0.16666667       0.08333333       0.00000000 </v>
   <v>       0.25000000       0.08333333       0.00000000 </v>
   <v>       0.33333333       0.08333333       0.00000000 </v>
   <v>       0.41666667       0.08333333       0.00000000 </v>
   <v>       0.50000000       0.08333333      -0.00000000 </v>
   <v>      -0.41666667       0.08333333       0.00000000 </v>
   <v>      -0.33333333       0.08333333       0.00000000 </v>
   <v>      -0.25000000       0.08333333       0.00000000 </v>
   <v>      -0.16666667       0.08333333       0.00000000 </v>
   <v>      -0.08333333       0.08333333       0.00000000 </v>
   <v>       0.16666667       0.16666667       0.00000000 </v>
   <v>       0.25000000       0.16666667       0.00000000 </v>
   <v>       0.33333333       0.16666667       0.00000000 </v>
   <v>       0.41666667       0.16666667       0.00000000 </v>
   <v>       0.50000000       0.16666667       0.00000000 </v>
   <v>      -0.41666667       0.16666667       0.00000000 </v>
   <v>      -0.33333333       0.16666667       0.00000000 </v>
   <v>      -0.25000000       0.16666667       0.00000000 </v>
   <v>      -0.16666667       0.16666667       0.00000000 </v>
   <v>       0.25000000       0.25000000       0.00000000 </v>
   <v>       0.33333333       0.25000000       0.00000000 </v>
   <v>       0.41666667       0.25000000       0.00000000 </v>
   <v>       0.50000000       0.25000000       0.00000000 </v>
   <v>      -0.41666667       0.25000000       0.00000000 </v>
   <v>      -0.33333333       0.25000000       0.00000000 </v>
   <v>      -0.25000000       0.25000000      -0.00000000 </v>
   <v>       0.33333333       0.33333333       0.00000000 </v>
   <v>       0.41666667       0.33333333       0.00000000 </v>
   <v>       0.50000000       0.33333333       0.00000000 </v>
   <v>      -0.41666667       0.33333333      -0.00000000 </v>
   <v>      -0.33333333       0.33333333       0.00000000 </v>
   <v>       0.41666667       0.41666667       0.00000000 </v>
   <v>       0.50000000       0.41666667       0.00000000 </v>
   <v>      -0.41666667       0.41666667      -0.00000000 </v>
   <v>       0.50000000       0.50000000       0.00000000 </v>
   <v>       0.08333333       0.00000000       0.08333333 </v>
   <v>       0.16666667      -0.00000000       0.08333333 </v>
   <v>       0.25000000       0.00000000       0.08333333 </v>
   <v>       0.33333333       0.00000000       0.08333333 </v>
   <v>       0.41666667      -0.00000000       0.08333333 </v>
   <v>       0.50000000      -0.00000000       0.08333333 </v>
   <v>      -0.41666667      -0.00000000       0.08333333 </v>
   <v>      -0.33333333       0.00000000       0.08333333 </v>
   <v>      -0.25000000      -0.00000000       0.08333333 </v>
   <v>      -0.16666667       0.00000000       0.08333333 </v>
   <v>      -0.08333333      -0.00000000       0.08333333 </v>
   <v>       0.25000000       0.16666667       0.08333333 </v>
   <v>       0.33333333       0.16666667       0.08333333 </v>
   <v>       0.41666667       0.16666667       0.08333333 </v>
   <v>       0.50000000       0.16666667       0.08333333 </v>
   <v>      -0.41666667       0.16666667       0.08333333 </v>
   <v>       0.16666667       0.25000000       0.08333333 </v>
   <v>       0.33333333       0.25000000       0.08333333 </v>
   <v>       0.41666667       0.25000000       0.08333333 </v>
   <v>       0.50000000       0.25000000       0.08333333 </v>
   <v>      -0.41666667       0.25000000       0.08333333 </v>
   <v>      -0.33333333       0.25000000       0.08333333 </v>
   <v>      -0.25000000       0.25000000       0.08333333 </v>
   <v>      -0.16666667       0.25000000       0.08333333 </v>
   <v>       0.16666667       0.33333333       0.08333333 </v>
   <v>       0.25000000       0.33333333       0.08333333 </v>
   <v>       0.41666667       0.33333333       0.08333333 </v>
   <v>       0.50000000       0.33333333       0.08333333 </v>
   <v>      -0.41666667       0.33333333       0.08333333 </v>
   <v>      -0.33333333       0.33333333       0.08333333 </v>
   <v>      -0.25000000       0.33333333       0.08333333 </v>
   <v>       0.16666667       0.41666667       0.08333333 </v>
   <v>       0.25000000       0.41666667       0.08333333 </v>
   <v>       0.33333333       0.41666667       0.08333333 </v>
   <v>       0.50000000       0.41666667       0.08333333 </v>
   <v>      -0.41666667       0.41666667       0.08333333 </v>
   <v>      -0.33333333       0.41666667       0.08333333 </v>
   <v>       0.16666667       0.50000000       0.08333333 </v>
   <v>       0.25000000       0.50000000       0.08333333 </v>
   <v>       0.33333333       0.50000000       0.08333333 </v>
   <v>       0.41666667       0.50000000       0.08333333 </v>
   <v>      -0.41666667       0.50000000       0.08333333 </v>
   <v>       0.16666667      -0.41666667       0.08333333 </v>
   <v>       0.25000000      -0.41666667       0.08333333 </v>
   <v>       0.33333333      -0.41666667       0.08333333 </v>
   <v>       0.41666667      -0.41666667       0.08333333 </v>
   <v>       0.50000000      -0.41666667       0.08333333 </v>
   <v>       0.16666667      -0.33333333       0.08333333 </v>
   <v>       0.25000000      -0.33333333       0.08333333 </v>
   <v>       0.33333333      -0.33333333       0.08333333 </v>
   <v>       0.41666667      -0.33333333       0.08333333 </v>
   <v>       0.16666667      -0.25000000       0.08333333 </v>
   <v>       0.25000000      -0.25000000       0.08333333 </v>
   <v>       0.33333333      -0.25000000       0.08333333 </v>
   <v>       0.16666667      -0.16666667       0.08333333 </v>
   <v>       0.25000000      -0.16666667       0.08333333 </v>
   <v>       0.16666667      -0.08333333       0.08333333 </v>
   <v>       0.16666667       0.00000000       0.16666667 </v>
   <v>       0.25000000       0.00000000       0.16666667 </v>
   <v>       0.33333333      -0.00000000       0.16666667 </v>
   <v>       0.41666667       0.00000000       0.16666667 </v>
   <v>       0.50000000       0.00000000       0.16666667 </v>
   <v>      -0.41666667       0.00000000       0.16666667 </v>
   <v>      -0.33333333       0.00000000       0.16666667 </v>
   <v>      -0.25000000      -0.00000000       0.16666667 </v>
   <v>      -0.16666667      -0.00000000       0.16666667 </v>
   <v>       0.50000000       0.33333333       0.16666667 </v>
   <v>      -0.41666667       0.33333333       0.16666667 </v>
   <v>      -0.33333333       0.33333333       0.16666667 </v>
   <v>       0.25000000       0.41666667       0.16666667 </v>
   <v>      -0.41666667       0.41666667       0.16666667 </v>
   <v>      -0.33333333       0.41666667       0.16666667 </v>
   <v>      -0.25000000       0.41666667       0.16666667 </v>
   <v>       0.25000000       0.50000000       0.16666667 </v>
   <v>       0.33333333       0.50000000       0.16666667 </v>
   <v>      -0.33333333       0.50000000       0.16666667 </v>
   <v>       0.25000000      -0.41666667       0.16666667 </v>
   <v>       0.33333333      -0.41666667       0.16666667 </v>
   <v>       0.41666667      -0.41666667       0.16666667 </v>
   <v>       0.25000000      -0.33333333       0.16666667 </v>
   <v>       0.33333333      -0.33333333       0.16666667 </v>
   <v>       0.41666667      -0.33333333       0.16666667 </v>
   <v>       0.50000000      -0.33333333       0.16666667 </v>
   <v>       0.25000000      -0.25000000       0.16666667 </v>
   <v>       0.33333333      -0.25000000       0.16666667 </v>
   <v>       0.41666667      -0.25000000       0.16666667 </v>
   <v>       0.25000000      -0.16666667       0.16666667 </v>
   <v>       0.33333333      -0.16666667       0.16666667 </v>
   <v>       0.25000000      -0.08333333       0.16666667 </v>
   <v>       0.25000000       0.00000000       0.25000000 </v>
   <v>       0.33333333       0.00000000       0.25000000 </v>
   <v>       0.41666667       0.00000000       0.25000000 </v>
   <v>       0.50000000       0.00000000       0.25000000 </v>
   <v>      -0.41666667       0.00000000       0.25000000 </v>
   <v>      -0.33333333       0.00000000       0.25000000 </v>
   <v>      -0.25000000      -0.00000000       0.25000000 </v>
   <v>      -0.25000000       0.50000000       0.25000000 </v>
   <v>       0.33333333      -0.41666667       0.25000000 </v>
   <v>       0.33333333      -0.33333333       0.25000000 </v>
   <v>       0.41666667      -0.33333333       0.25000000 </v>
   <v>       0.33333333      -0.25000000       0.25000000 </v>
   <v>       0.41666667      -0.25000000       0.25000000 </v>
   <v>       0.50000000      -0.25000000       0.25000000 </v>
   <v>       0.33333333      -0.16666667       0.25000000 </v>
   <v>       0.41666667      -0.16666667       0.25000000 </v>
   <v>       0.33333333      -0.08333333       0.25000000 </v>
   <v>       0.33333333       0.00000000       0.33333333 </v>
   <v>       0.41666667       0.00000000       0.33333333 </v>
   <v>       0.50000000       0.00000000       0.33333333 </v>
   <v>      -0.41666667      -0.00000000       0.33333333 </v>
   <v>      -0.33333333      -0.00000000       0.33333333 </v>
   <v>       0.41666667      -0.25000000       0.33333333 </v>
   <v>       0.41666667      -0.16666667       0.33333333 </v>
   <v>       0.50000000      -0.16666667       0.33333333 </v>
   <v>       0.41666667      -0.08333333       0.33333333 </v>
   <v>       0.41666667       0.00000000       0.41666667 </v>
   <v>       0.50000000       0.00000000       0.41666667 </v>
   <v>      -0.41666667      -0.00000000       0.41666667 </v>
   <v>       0.50000000      -0.08333333       0.41666667 </v>
   <v>       0.50000000       0.00000000       0.50000000 </v>
  </varray>
  <varray name="weights" >
   <v>       0.00057870 </v>
   <v>       0.00462963 </v>
   <v>       0.00462963 </v>
   <v>       0.00462963 </v>
   <v>       0.00462963 </v>
   <v>       0.00462963 </v>
   <v>       0.00231481 </v>
   <v>       0.00231481 </v>
   <v>       0.00925926 </v>
   <v>       0.00925926 </v>
   <v>       0.00925926 </v>
   <v>       0.00925926 </v>
   <v>       0.00925926 </v>
   <v>       0.00925926 </v>
   <v>       0.00925926 </v>
   <v>       0.00925926 </v>
   <v>       0.00925926 </v>
   <v>       0.00462963 </v>
   <v>       0.00231481 </v>
   <v>       0.00925926 </v>
   <v>       0.00925926 </v>
   <v>       0.00925926 </v>
   <v>       0.00925926 </v>
   <v>       0.00925926 </v>
   <v>       0.00925926 </v>
   <v>       0.00925926 </v>
   <v>       0.00462963 </v>
   <v>       0.00231481 </v>
   <v>       0.00925926 </v>
   <v>       0.00925926 </v>
   <v>       0.00925926 </v>
   <v>       0.00925926 </v>
   <v>       0.00925926 </v>
   <v>       0.00462963 </v>
   <v>       0.00231481 </v>
   <v>       0.00925926 </v>
   <v>       0.00925926 </v>
   <v>       0.00925926 </v>
   <v>       0.00462963 </v>
   <v>       0.00231481 </v>
   <v>       0.00925926 </v>
   <v>       0.00462963 </v>
   <v>       0.00115741 </v>
   <v>       0.00115741 </v>
   <v>       0.00462963 </v>
   <v>       0.00462963 </v>
   <v>       0.00462963 </v>
   <v>       0.00462963 </v>
   <v>       0.00462963 </v>
   <v>       0.00462963 </v>
   <v>       0.00462963 </v>
   <v>       0.00462963 </v>
   <v>       0.00462963 </v>
   <v>       0.00231481 </v>
   <v>       0.00462963 </v>
   <v>       0.00925926 </v>
   <v>       0.00925926 </v>
   <v>       0.00925926 </v>
   <v>       0.00462963 </v>
   <v>       0.00462963 </v>
   <v>       0.00462963 </v>
   <v>       0.00925926 </v>
   <v>       0.00925926 </v>
   <v>       0.00925926 </v>
   <v>       0.00925926 </v>
   <v>       0.00925926 </v>
   <v>       0.00462963 </v>
   <v>       0.00925926 </v>
   <v>       0.00462963 </v>
   <v>       0.00462963 </v>
   <v>       0.00925926 </v>
   <v>       0.00925926 </v>
   <v>       0.00925926 </v>
   <v>       0.00462963 </v>
   <v>       0.00925926 </v>
   <v>       0.00925926 </v>
   <v>       0.00462963 </v>
   <v>       0.00462963 </v>
   <v>       0.00925926 </v>
   <v>       0.00462963 </v>
   <v>       0.00925926 </v>
   <v>       0.00925926 </v>
   <v>       0.00925926 </v>
   <v>       0.00462963 </v>
   <v>       0.00231481 </v>
   <v>       0.00925926 </v>
   <v>       0.00925926 </v>
   <v>       0.00925926 </v>
   <v>       0.00925926 </v>
   <v>       0.00231481 </v>
   <v>       0.00925926 </v>
   <v>       0.00925926 </v>
   <v>       0.00925926 </v>
   <v>       0.00462963 </v>
   <v>       0.00925926 </v>
   <v>       0.00925926 </v>
   <v>       0.00462963 </v>
   <v>       0.00925926 </v>
   <v>       0.00462963 </v>
   <v>       0.00462963 </v>
   <v>       0.00115741 </v>
   <v>       0.00462963 </v>
   <v>       0.00462963 </v>
   <v>       0.00462963 </v>
   <v>       0.00462963 </v>
   <v>       0.00462963 </v>
   <v>       0.00462963 </v>
   <v>       0.00462963 </v>
   <v>       0.00231481 </v>
   <v>       0.00462963 </v>
   <v>       0.00925926 </v>
   <v>       0.00462963 </v>
   <v>       0.00462963 </v>
   <v>       0.00462963 </v>
   <v>       0.00925926 </v>
   <v>       0.00462963 </v>
   <v>       0.00925926 </v>
   <v>       0.00462963 </v>
   <v>       0.00231481 </v>
   <v>       0.00925926 </v>
   <v>       0.00925926 </v>
   <v>       0.00462963 </v>
   <v>       0.00925926 </v>
   <v>       0.00925926 </v>
   <v>       0.00925926 </v>
   <v>       0.00231481 </v>
   <v>       0.00925926 </v>
   <v>       0.00925926 </v>
   <v>       0.00462963 </v>
   <v>       0.00925926 </v>
   <v>       0.00462963 </v>
   <v>       0.00462963 </v>
   <v>       0.00115741 </v>
   <v>       0.00462963 </v>
   <v>       0.00462963 </v>
   <v>       0.00462963 </v>
   <v>       0.00462963 </v>
   <v>       0.00462963 </v>
   <v>       0.00231481 </v>
   <v>       0.00115741 </v>
   <v>       0.00462963 </v>
   <v>       0.00925926 </v>
   <v>       0.00462963 </v>
   <v>       0.00925926 </v>
   <v>       0.00925926 </v>
   <v>       0.00231481 </v>
   <v>       0.00925926 </v>
   <v>       0.00462963 </v>
   <v>       0.00462963 </v>
   <v>       0.00115741 </v>
   <v>       0.00462963 </v>
   <v>       0.00462963 </v>
   <v>       0.00462963 </v>
   <v>       0.00231481 </v>
   <v>       0.00462963 </v>
   <v>       0.00925926 </v>
   <v>       0.00231481 </v>
   <v>       0.00462963 </v>
   <v>       0.00115741 </v>
   <v>       0.00462963 </v>
   <v>       0.00231481 </v>
   <v>       0.00231481 </v>
   <v>       0.00057870 </v>
  </varray>
 </kpoints>
 <parameters>
  <separator name="general" >
   <i type="string" name="SYSTEM">unknown system</i>
   <i type="logical" name="LCOMPAT"> F  </i>
  </separator>
  <separator name="electronic" >
   <i type="string" name="PREC">accura</i>
   <i name="ENMAX">    520.00000000</i>
   <i name="ENAUG">    613.61400000</i>
   <i name="EDIFF">      0.00000001</i>
   <i type="int" name="IALGO">    38</i>
   <i type="int" name="IWAVPR">    11</i>
   <i type="int" name="NBANDS">    16</i>
   <i name="NELECT">     14.00000000</i>
   <i type="int" name="TURBO">     0</i>
   <i type="int" name="IRESTART">     0</i>
   <i type="int" name="NREBOOT">     0</i>
   <i type="int" name="NMIN">     0</i>
   <i name="EREF">      0.00000000</i>
   <separator name="electronic smearing" >
    <i type="int" name="ISMEAR">     0</i>
    <i name="SIGMA">      0.01000000</i>
    <i name="KSPACING">      0.50000000</i>
    <i type="logical" name="KGAMMA"> T  </i>
   </separator>
   <separator name="electronic projectors" >
    <i type="logical" name="LREAL"> F  </i>
    <v name="ROPT">      0.00000000      0.00000000</v>
    <i type="int" name="LMAXPAW">  -100</i>
    <i type="int" name="LMAXMIX">     2</i>
    <i type="logical" name="NLSPLINE"> F  </i>
   </separator>
   <separator name="electronic startup" >
    <i type="int" name="ISTART">     0</i>
    <i type="int" name="ICHARG">     2</i>
    <i type="int" name="INIWAV">     1</i>
   </separator>
   <separator name="electronic spin" >
    <i type="int" name="ISPIN">     1</i>
    <i type="logical" name="LNONCOLLINEAR"> F  </i>
    <v name="MAGMOM">      1.00000000      1.00000000</v>
    <i name="NUPDOWN">     -1.00000000</i>
    <i type="logical" name="LSORBIT"> F  </i>
    <v name="SAXIS">      0.00000000      0.00000000      1.00000000</v>
    <i type="logical" name="LSPIRAL"> F  </i>
    <v name="QSPIRAL">      0.00000000      0.00000000      0.00000000</v>
    <i type="logical" name="LZEROZ"> F  </i>
   </separator>
   <separator name="electronic exchange-correlation" >
    <i type="logical" name="LASPH"> F  </i>
    <i type="logical" name="LMETAGGA"> F  </i>
   </separator>
   <separator name="electronic convergence" >
    <i type="int" name="NELM">   100</i>
    <i type="int" name="NELMDL">    -5</i>
    <i type="int" name="NELMIN">     2</i>
    <i name="ENINI">    520.00000000</i>
    <separator name="electronic convergence detail" >
     <i type="logical" name="LDIAG"> T  </i>
     <i type="logical" name="LSUBROT"> F  </i>
     <i name="WEIMIN">      0.00100000</i>
     <i name="EBREAK">      0.00000000</i>
     <i name="DEPER">      0.30000000</i>
     <i type="int" name="NRMM">     4</i>
     <i name="TIME">      0.40000000</i>
    </separator>
   </separator>
   <separator name="electronic mixer" >
    <i name="AMIX">      0.40000000</i>
    <i name="BMIX">      1.00000000</i>
    <i name="AMIN">      0.10000000</i>
    <i name="AMIX_MAG">      1.60000000</i>
    <i name="BMIX_MAG">      1.00000000</i>
    <separator name="electronic mixer details" >
     <i type="int" name="IMIX">     4</i>
     <i type="logical" name="MIXFIRST"> F  </i>
     <i type="int" name="MAXMIX">   -45</i>
     <i name="WC">    100.00000000</i>
     <i type="int" name="INIMIX">     1</i>
     <i type="int" name="MIXPRE">     1</i>
     <i type="int" name="MREMOVE">     5</i>
    </separator>
   </separator>
   <separator name="electronic dipolcorrection" >
    <i type="logical" name="LDIPOL"> F  </i>
    <i type="logical" name="LMONO"> F  </i>
    <i type="int" name="IDIPOL">     0</i>
    <i name="EPSILON">      1.00000000</i>
    <v name="DIPOL">   -100.00000000   -100.00000000   -100.00000000</v>
    <i name="EFIELD">      0.00000000</i>
   </separator>
  </separator>
  <separator name="grids" >
   <i type="int" name="NGX">    24</i>
   <i type="int" name="NGY">    24</i>
   <i type="int" name="NGZ">    24</i>
   <i type="int" name="NGXF">    48</i>
   <i type="int" name="NGYF">    48</i>
   <i type="int" name="NGZF">    48</i>
   <i type="logical" name="ADDGRID"> F  </i>
  </separator>
  <separator name="ionic" >
   <i type="int" name="NSW">     1</i>
   <i type="int" name="IBRION">     8</i>
   <i type="int" name="MDALGO">     0</i>
   <i type="int" name="ISIF">     2</i>
   <i name="PSTRESS">      0.00000000</i>
   <i name="EDIFFG">      0.00000010</i>
   <i type="int" name="NFREE">     0</i>
   <i name="POTIM">      0.50000000</i>
   <i name="SMASS">     -3.00000000</i>
   <i name="SCALEE">      1.00000000</i>
  </separator>
  <separator name="ionic md" >
   <i name="TEBEG">      0.00010000</i>
   <i name="TEEND">      0.00010000</i>
   <i type="int" name="NBLOCK">     1</i>
   <i type="int" name="KBLOCK">     1</i>
   <i type="int" name="NPACO">   256</i>
   <i name="APACO">     16.00000000</i>
  </separator>
  <separator name="symmetry" >
   <i type="int" name="ISYM">     2</i>
   <i name="SYMPREC">      0.00000001</i>
  </separator>
  <separator name="dos" >
   <i type="int" name="LORBIT">     0</i>
   <v name="RWIGS">     -1.00000000     -1.00000000</v>
   <i type="int" name="NEDOS">   301</i>
   <i name="EMIN">     10.00000000</i>
   <i name="EMAX">    -10.00000000</i>
   <i name="EFERMI">      0.00000000</i>
  </separator>
  <separator name="writing" >
   <i type="int" name="NWRITE">     2</i>
   <i type="logical" name="LWAVE"> F  </i>
   <i type="logical" name="LDOWNSAMPLE"> F  </i>
   <i type="logical" name="LCHARG"> T  </i>
   <i type="logical" name="LPARD"> F  </i>
   <i type="logical" name="LVTOT"> F  </i>
   <i type="logical" name="LVHAR"> F  </i>
   <i type="logical" name="LELF"> F  </i>
   <i type="logical" name="LOPTICS"> F  </i>
   <v name="STM">      0.00000000      0.00000000      0.00000000      0.00000000      0.00000000      0.00000000      0.00000000</v>
  </separator>
  <separator name="performance" >
   <i type="int" name="NPAR">     8</i>
   <i type="int" name="NSIM">     4</i>
   <i type="int" name="NBLK">    -1</i>
   <i type="logical" name="LPLANE"> T  </i>
   <i type="logical" name="LSCALAPACK"> T  </i>
   <i type="logical" name="LSCAAWARE"> F  </i>
   <i type="logical" name="LSCALU"> F  </i>
   <i type="logical" name="LASYNC"> F  </i>
   <i type="logical" name="LORBITALREAL"> F  </i>
  </separator>
  <separator name="miscellaneous" >
   <i type="int" name="IDIOT">     3</i>
   <i type="int" name="ISPECIAL">     0</i>
   <i type="logical" name="LMUSIC"> F  </i>
   <v name="POMASS">     22.99000000     18.99800000</v>
   <v name="DARWINR">      0.00000000      0.00000000</v>
   <v name="DARWINV">      1.00000000      1.00000000</v>
   <i type="logical" name="LCORR"> T  </i>
  </separator>
  <i type="logical" name="GGA_COMPAT"> T  </i>
  <i type="logical" name="LBERRY"> F  </i>
  <i type="int" name="ICORELEVEL">     0</i>
  <i type="logical" name="LDAU"> F  </i>
  <i type="int" name="I_CONSTRAINED_M">     0</i>
  <separator name="electronic exchange-correlation" >
   <i type="string" name="GGA">--</i>
   <i type="int" name="VOSKOWN">     0</i>
   <i type="logical" name="LHFCALC"> F  </i>
   <i type="string" name="PRECFOCK"></i>
   <i type="logical" name="LSYMGRAD"> F  </i>
   <i type="logical" name="LHFONE"> F  </i>
   <i type="logical" name="LRHFCALC"> F  </i>
   <i type="logical" name="LTHOMAS"> F  </i>
   <i type="logical" name="LMODELHF"> F  </i>
   <i name="ENCUT4O">     -1.00000000</i>
   <i type="int" name="EXXOEP">     0</i>
   <i type="int" name="FOURORBIT">     0</i>
   <i name="AEXX">      0.00000000</i>
   <i name="HFALPHA">      0.00000000</i>
   <i name="MCALPHA">      0.00000000</i>
   <i name="ALDAX">      1.00000000</i>
   <i name="AGGAX">      1.00000000</i>
   <i name="ALDAC">      1.00000000</i>
   <i name="AGGAC">      1.00000000</i>
   <i type="int" name="NKREDX">     1</i>
   <i type="int" name="NKREDY">     1</i>
   <i type="int" name="NKREDZ">     1</i>
   <i type="logical" name="SHIFTRED"> F  </i>
   <i type="logical" name="ODDONLY"> F  </i>
   <i type="logical" name="EVENONLY"> F  </i>
   <i type="int" name="LMAXFOCK">     0</i>
   <i type="int" name="NMAXFOCKAE">     0</i>
   <i type="logical" name="LFOCKAEDFT"> F  </i>
   <i name="HFSCREEN">      0.00000000</i>
   <i name="HFSCREENC">      0.00000000</i>
   <i type="int" name="NBANDSGWLOW">     0</i>
  </separator>
  <separator name="vdW DFT" >
   <i type="logical" name="LUSE_VDW"> F  </i>
   <i name="Zab_VDW">     -0.84910000</i>
   <i name="PARAM1">      0.12340000</i>
   <i name="PARAM2">      1.00000000</i>
   <i name="PARAM3">      0.00000000</i>
  </separator>
  <separator name="model GW" >
   <i type="int" name="MODEL_GW">     0</i>
   <i name="MODEL_EPS0">      7.16670623</i>
   <i name="MODEL_ALPHA">      1.00000000</i>
  </separator>
  <separator name="linear response parameters" >
   <i type="logical" name="LEPSILON"> T  </i>
   <i type="logical" name="LRPA"> F  </i>
   <i type="logical" name="LNABLA"> F  </i>
   <i type="logical" name="LVEL"> F  </i>
   <i type="int" name="KINTER">     0</i>
   <i name="CSHIFT">      0.10000000</i>
   <i name="OMEGAMAX">     -1.00000000</i>
   <i name="DEG_THRESHOLD">      0.00200000</i>
   <i name="RTIME">     -0.10000000</i>
   <i name="WPLASMAI">      0.00000000</i>
   <v name="DFIELD">      0.00000000      0.00000000      0.00000000</v>
   <v name="WPLASMA">      0.00000000      0.00000000      0.00000000      0.00000000      0.00000000      0.00000000      0.00000000      0.00000000      0.00000000</v>
  </separator>
  <separator name="orbital magnetization" >
   <i type="logical" name="NUCIND"> F  </i>
   <v name="MAGPOS">      0.00000000      0.00000000      0.00000000</v>
   <i type="logical" name="LNICSALL"> T  </i>
   <i type="logical" name="ORBITALMAG"> F  </i>
   <i type="logical" name="LMAGBLOCH"> F  </i>
   <i type="logical" name="LCHIMAG"> F  </i>
   <i type="logical" name="LGAUGE"> T  </i>
   <i type="int" name="MAGATOM">     0</i>
   <v name="MAGDIPOL">      0.00000000      0.00000000      0.00000000</v>
   <v name="AVECCONST">      0.00000000      0.00000000      0.00000000</v>
  </separator>
  <separator name="response functions" >
   <i type="logical" name="LADDER"> F  </i>
   <i type="logical" name="LRPAFORCE"> F  </i>
   <i type="logical" name="LFXC"> F  </i>
   <i type="logical" name="LHARTREE"> T  </i>
   <i type="int" name="IBSE">     0</i>
   <v type="int" name="KPOINT">    -1     0     0     0</v>
   <i type="logical" name="LTCTE"> F  </i>
   <i type="logical" name="LTETE"> F  </i>
   <i type="logical" name="LTRIPLET"> F  </i>
   <i type="logical" name="LFXCEPS"> F  </i>
   <i type="logical" name="LFXHEG"> F  </i>
   <i type="int" name="NATURALO">     2</i>
   <i type="logical" name="L2ORDER"> F  </i>
   <i type="logical" name="LMP2LT"> F  </i>
   <i type="logical" name="LUSEW"> F  </i>
   <i name="ENCUTGW">     -2.00000000</i>
   <i name="ENCUTGWSOFT">     -2.00000000</i>
   <i name="ENCUTLF">     -1.00000000</i>
   <i type="int" name="LMAXMP2">    -1</i>
   <i name="SCISSOR">      0.00000000</i>
   <i type="int" name="NOMEGA">     0</i>
   <i type="int" name="NOMEGAR">     0</i>
   <i type="int" name="NBANDSGW">    -1</i>
   <i type="int" name="NBANDSO">    -1</i>
   <i type="int" name="NBANDSV">    -1</i>
   <i type="int" name="NELM">   100</i>
   <i type="int" name="NELMHF">     1</i>
   <i type="int" name="DIM">     3</i>
   <i type="int" name="ANTIRES">     0</i>
   <i name="OMEGAMAX">    -30.00000000</i>
   <i name="OMEGAMIN">    -30.00000000</i>
   <i name="OMEGATL">   -200.00000000</i>
   <i type="int" name="OMEGAGRID">   140</i>
   <i name="CSHIFT">     -0.10000000</i>
   <i type="logical" name="SELFENERGY"> F  </i>
   <i type="logical" name="LSPECTRAL"> F  </i>
   <i type="logical" name="LSPECTRALGW"> F  </i>
   <i type="logical" name="LSINGLES"> F  </i>
   <i type="logical" name="LFERMIGW"> F  </i>
   <i type="logical" name="ODDONLYGW"> F  </i>
   <i type="logical" name="EVENONLYGW"> F  </i>
   <i type="int" name="NKREDLFX">     1</i>
   <i type="int" name="NKREDLFY">     1</i>
   <i type="int" name="NKREDLFZ">     1</i>
   <i type="int" name="MAXMEM">  2800</i>
   <i type="int" name="TELESCOPE">     0</i>
   <i type="int" name="TAUPAR">     1</i>
   <i type="int" name="OMEGAPAR">    -1</i>
   <i name="LAMBDA">      1.00000000</i>
  </separator>
  <separator name="External order field" >
   <i name="OFIELD_KAPPA">      0.00000000</i>
   <v name="OFIELD_K">      0.00000000      0.00000000      0.00000000</v>
   <i name="OFIELD_Q6_NEAR">      0.00000000</i>
   <i name="OFIELD_Q6_FAR">      0.00000000</i>
   <i name="OFIELD_A">      0.00000000</i>
  </separator>
 </parameters>
 <atominfo>
  <atoms>       2 </atoms>
  <types>       2 </types>
  <array name="atoms" >
   <dimension dim="1">ion</dimension>
   <field type="string">element</field>
   <field type="int">atomtype</field>
   <set>
    <rc><c>Na</c><c>   1</c></rc>
    <rc><c>F </c><c>   2</c></rc>
   </set>
  </array>
  <array name="atomtypes" >
   <dimension dim="1">type</dimension>
   <field type="int">atomspertype</field>
   <field type="string">element</field>
   <field>mass</field>
   <field>valence</field>
   <field type="string">pseudopotential</field>
   <set>
    <rc><c>   1</c><c>Na</c><c>     22.99000000</c><c>      7.00000000</c><c>  PAW_PBE Na_pv 19Sep2006               </c></rc>
    <rc><c>   1</c><c>F </c><c>     18.99800000</c><c>      7.00000000</c><c>  PAW_PBE F 08Apr2002                   </c></rc>
   </set>
  </array>
 </atominfo>
 <structure name="initialpos" >
  <crystal>
   <varray name="basis" >
    <v>      -2.28589416       0.00000000       2.28589416 </v>
    <v>       0.00000000       2.28589416       2.28589416 </v>
    <v>      -2.28589416       2.28589416       0.00000000 </v>
   </varray>
   <i name="volume">     23.88902076 </i>
   <varray name="rec_basis" >
    <v>      -0.21873279      -0.21873279       0.21873279 </v>
    <v>       0.21873279       0.21873279       0.21873279 </v>
    <v>      -0.21873279       0.21873279      -0.21873279 </v>
   </varray>
  </crystal>
  <varray name="positions" >
   <v>       0.00000000       0.00000000       0.00000000 </v>
   <v>       0.49999996       0.50000004       0.49999996 </v>
  </varray>
 </structure>
 <calculation>
  <scstep>
   <time name="dav">    0.86    0.87</time>
   <time name="total">    0.88    0.89</time>
   <energy>
    <i name="alphaZ">     40.23034665 </i>
    <i name="ewald">   -875.79187476 </i>
    <i name="hartreedc">   -369.40242308 </i>
    <i name="XCdc">     62.04405962 </i>
    <i name="pawpsdc">   1041.55566919 </i>
    <i name="pawaedc">  -1135.23010168 </i>
    <i name="eentropy">     -0.00000653 </i>
    <i name="bandstr">    -86.42618444 </i>
    <i name="atom">   1425.65717578 </i>
    <i name="e_fr_energy">    102.63666074 </i>
    <i name="e_wo_entrp">    102.63666727 </i>
    <i name="e_0_energy">    102.63666400 </i>
   </energy>
  </scstep>
  <scstep>
   <time name="dav">    0.99    1.01</time>
   <time name="total">    0.99    1.01</time>
   <energy>
    <i name="e_fr_energy">     -4.66388767 </i>
    <i name="e_wo_entrp">     -4.66388767 </i>
    <i name="e_0_energy">     -4.66388767 </i>
   </energy>
  </scstep>
  <scstep>
   <time name="dav">    0.91    0.93</time>
   <time name="total">    0.91    0.93</time>
   <energy>
    <i name="e_fr_energy">     -9.39854124 </i>
    <i name="e_wo_entrp">     -9.39854124 </i>
    <i name="e_0_energy">     -9.39854124 </i>
   </energy>
  </scstep>
  <scstep>
   <time name="dav">    0.93    0.94</time>
   <time name="total">    0.93    0.94</time>
   <energy>
    <i name="e_fr_energy">     -9.43074607 </i>
    <i name="e_wo_entrp">     -9.43074607 </i>
    <i name="e_0_energy">     -9.43074607 </i>
   </energy>
  </scstep>
  <scstep>
   <time name="dav">    0.91    0.92</time>
   <time name="total">    0.94    0.96</time>
   <energy>
    <i name="e_fr_energy">     -9.43103185 </i>
    <i name="e_wo_entrp">     -9.43103185 </i>
    <i name="e_0_energy">     -9.43103185 </i>
   </energy>
  </scstep>
  <scstep>
   <time name="dav">    0.95    0.96</time>
   <time name="total">    1.01    1.02</time>
   <energy>
    <i name="e_fr_energy">     -8.54700890 </i>
    <i name="e_wo_entrp">     -8.54700890 </i>
    <i name="e_0_energy">     -8.54700890 </i>
   </energy>
  </scstep>
  <scstep>
   <time name="dav">    0.83    0.84</time>
   <time name="total">    0.87    0.88</time>
   <energy>
    <i name="e_fr_energy">     -8.53828634 </i>
    <i name="e_wo_entrp">     -8.53828634 </i>
    <i name="e_0_energy">     -8.53828634 </i>
   </energy>
  </scstep>
  <scstep>
   <time name="dav">    0.91    0.94</time>
   <time name="total">    0.95    0.98</time>
   <energy>
    <i name="e_fr_energy">     -8.53970417 </i>
    <i name="e_wo_entrp">     -8.53970417 </i>
    <i name="e_0_energy">     -8.53970417 </i>
   </energy>
  </scstep>
  <scstep>
   <time name="dav">    0.93    0.94</time>
   <time name="total">    1.00    1.01</time>
   <energy>
    <i name="e_fr_energy">     -8.54015219 </i>
    <i name="e_wo_entrp">     -8.54015219 </i>
    <i name="e_0_energy">     -8.54015219 </i>
   </energy>
  </scstep>
  <scstep>
   <time name="dav">    0.89    0.90</time>
   <time name="total">    0.94    0.95</time>
   <energy>
    <i name="e_fr_energy">     -8.54014485 </i>
    <i name="e_wo_entrp">     -8.54014485 </i>
    <i name="e_0_energy">     -8.54014485 </i>
   </energy>
  </scstep>
  <scstep>
   <time name="dav">    0.96    0.97</time>
   <time name="total">    1.01    1.02</time>
   <energy>
    <i name="e_fr_energy">     -8.54014235 </i>
    <i name="e_wo_entrp">     -8.54014235 </i>
    <i name="e_0_energy">     -8.54014235 </i>
   </energy>
  </scstep>
  <scstep>
   <time name="dav">    0.85    0.86</time>
   <time name="total">    0.89    0.91</time>
   <energy>
    <i name="e_fr_energy">     -8.54014272 </i>
    <i name="e_wo_entrp">     -8.54014272 </i>
    <i name="e_0_energy">     -8.54014272 </i>
   </energy>
  </scstep>
  <scstep>
   <time name="dav">    0.94    0.96</time>
   <time name="total">    0.98    1.00</time>
   <energy>
    <i name="e_fr_energy">     -8.54014262 </i>
    <i name="e_wo_entrp">     -8.54014262 </i>
    <i name="e_0_energy">     -8.54014262 </i>
   </energy>
  </scstep>
  <scstep>
   <time name="dav">    0.99    1.01</time>
   <time name="total">    1.03    1.05</time>
   <energy>
    <i name="e_fr_energy">     -8.54014257 </i>
    <i name="e_wo_entrp">     -8.54014257 </i>
    <i name="e_0_energy">     -8.54014257 </i>
   </energy>
  </scstep>
  <scstep>
   <time name="dav">    0.66    0.67</time>
   <time name="total">    0.67    0.68</time>
   <energy>
    <i name="alphaZ">     40.23034665 </i>
    <i name="ewald">   -875.79187476 </i>
    <i name="hartreedc">   -385.56247752 </i>
    <i name="XCdc">     63.24632818 </i>
    <i name="pawpsdc">   1120.25055655 </i>
    <i name="pawaedc">  -1214.62118667 </i>
    <i name="eentropy">     -0.00000000 </i>
    <i name="bandstr">   -181.94901079 </i>
    <i name="atom">   1425.65717578 </i>
    <i name="e_fr_energy">     -8.54014258 </i>
    <i name="e_wo_entrp">     -8.54014258 </i>
    <i name="e_0_energy">     -8.54014258 </i>
   </energy>
  </scstep>
  <structure>
   <crystal>
    <varray name="basis" >
     <v>      -2.28589416       0.00000000       2.28589416 </v>
     <v>       0.00000000       2.28589416       2.28589416 </v>
     <v>      -2.28589416       2.28589416       0.00000000 </v>
    </varray>
    <i name="volume">     23.88902076 </i>
    <varray name="rec_basis" >
     <v>      -0.21873279      -0.21873279       0.21873279 </v>
     <v>       0.21873279       0.21873279       0.21873279 </v>
     <v>      -0.21873279       0.21873279      -0.21873279 </v>
    </varray>
   </crystal>
   <varray name="positions" >
    <v>       0.00000000       0.00000000       0.00000000 </v>
    <v>       0.49999996       0.50000004       0.49999996 </v>
   </varray>
  </structure>
  <varray name="forces" >
   <v>       0.00000052      -0.00000000      -0.00000000 </v>
   <v>      -0.00000052       0.00000000       0.00000000 </v>
  </varray>
  <varray name="stress" >
   <v>      44.49318764      -0.00000000       0.00000000 </v>
   <v>      -0.00000000      44.49319342       0.00000000 </v>
   <v>       0.00000000       0.00000000      44.49319342 </v>
  </varray>
  <energy>
   <i name="e_fr_energy">     -8.54014258 </i>
   <i name="e_wo_entrp">     -8.54014258 </i>
   <i name="e_0_energy">     -0.00000000 </i>
  </energy>
  <scstep>
   <time name="total">    0.60    0.61</time>
   <energy>
    <i name="e_fr_energy">     -0.05188966 </i>
    <i name="e_wo_entrp">     -0.05188966 </i>
    <i name="e_0_energy">     -0.05188966 </i>
   </energy>
  </scstep>
  <scstep>
   <time name="total">    0.64    0.64</time>
   <energy>
    <i name="e_fr_energy">     -0.05903968 </i>
    <i name="e_wo_entrp">     -0.05903968 </i>
    <i name="e_0_energy">     -0.05903968 </i>
   </energy>
  </scstep>
  <scstep>
   <time name="total">    0.62    0.62</time>
   <energy>
    <i name="e_fr_energy">     -0.05903255 </i>
    <i name="e_wo_entrp">     -0.05903255 </i>
    <i name="e_0_energy">     -0.05903255 </i>
   </energy>
  </scstep>
  <scstep>
   <time name="total">    0.58    0.59</time>
   <energy>
    <i name="e_fr_energy">     -0.05903273 </i>
    <i name="e_wo_entrp">     -0.05903273 </i>
    <i name="e_0_energy">     -0.05903273 </i>
   </energy>
  </scstep>
  <scstep>
   <time name="total">    0.59    0.60</time>
   <energy>
    <i name="e_fr_energy">     -0.05903274 </i>
    <i name="e_wo_entrp">     -0.05903274 </i>
    <i name="e_0_energy">     -0.05903274 </i>
   </energy>
  </scstep>
  <scstep>
   <time name="total">    0.59    0.59</time>
   <energy>
    <i name="e_fr_energy">     -0.05571270 </i>
    <i name="e_wo_entrp">     -0.05571270 </i>
    <i name="e_0_energy">     -0.05571270 </i>
   </energy>
  </scstep>
  <scstep>
   <time name="total">    0.58    0.58</time>
   <energy>
    <i name="e_fr_energy">     -0.06390944 </i>
    <i name="e_wo_entrp">     -0.06390944 </i>
    <i name="e_0_energy">     -0.06390944 </i>
   </energy>
  </scstep>
  <scstep>
   <time name="total">    0.62    0.62</time>
   <energy>
    <i name="e_fr_energy">     -0.06390242 </i>
    <i name="e_wo_entrp">     -0.06390242 </i>
    <i name="e_0_energy">     -0.06390242 </i>
   </energy>
  </scstep>
  <scstep>
   <time name="total">    0.61    0.62</time>
   <energy>
    <i name="e_fr_energy">     -0.06390266 </i>
    <i name="e_wo_entrp">     -0.06390266 </i>
    <i name="e_0_energy">     -0.06390266 </i>
   </energy>
  </scstep>
  <scstep>
   <time name="total">    0.53    0.54</time>
   <energy>
    <i name="e_fr_energy">     -0.06390266 </i>
    <i name="e_wo_entrp">     -0.06390266 </i>
    <i name="e_0_energy">     -0.06390266 </i>
   </energy>
  </scstep>
  <scstep>
   <time name="total">    0.59    0.59</time>
   <energy>
    <i name="e_fr_energy">     -0.04806641 </i>
    <i name="e_wo_entrp">     -0.04806641 </i>
    <i name="e_0_energy">     -0.04806641 </i>
   </energy>
  </scstep>
  <scstep>
   <time name="total">    0.61    0.62</time>
   <energy>
    <i name="e_fr_energy">     -0.05416915 </i>
    <i name="e_wo_entrp">     -0.05416915 </i>
    <i name="e_0_energy">     -0.05416915 </i>
   </energy>
  </scstep>
  <scstep>
   <time name="total">    0.63    0.63</time>
   <energy>
    <i name="e_fr_energy">     -0.05416196 </i>
    <i name="e_wo_entrp">     -0.05416196 </i>
    <i name="e_0_energy">     -0.05416196 </i>
   </energy>
  </scstep>
  <scstep>
   <time name="total">    0.54    0.54</time>
   <energy>
    <i name="e_fr_energy">     -0.05416209 </i>
    <i name="e_wo_entrp">     -0.05416209 </i>
    <i name="e_0_energy">     -0.05416209 </i>
   </energy>
  </scstep>
  <scstep>
   <time name="total">    0.59    0.60</time>
   <energy>
    <i name="e_fr_energy">     -0.05416209 </i>
    <i name="e_wo_entrp">     -0.05416209 </i>
    <i name="e_0_energy">     -0.05416209 </i>
   </energy>
  </scstep>
  <varray name="epsilon_rpa" >
   <v>       1.89431506       0.00000000      -0.00000000 </v>
   <v>       0.00000000       1.89430963       0.00000000 </v>
   <v>      -0.00000000       0.00000000       1.89430963 </v>
  </varray>
  <kpoints>
   <generation param="Gamma">
    <v type="int" name="divisions">      12       12       12 </v>
    <v name="usershift">      0.00000000       0.00000000       0.00000000 </v>
    <v name="genvec1">      0.08333333      -0.00000000      -0.00000000 </v>
    <v name="genvec2">     -0.00000000       0.08333333       0.00000000 </v>
    <v name="genvec3">      0.00000000       0.00000000       0.08333333 </v>
    <v name="shift">      0.00000000       0.00000000       0.00000000 </v>
   </generation>
   <varray name="kpointlist" >
    <v>       0.00000000       0.00000000       0.00000000 </v>
    <v>       0.08333333      -0.00000000      -0.00000000 </v>
    <v>       0.16666667      -0.00000000      -0.00000000 </v>
    <v>       0.25000000       0.00000000      -0.00000000 </v>
    <v>       0.33333333      -0.00000000      -0.00000000 </v>
    <v>       0.41666667       0.00000000       0.00000000 </v>
    <v>       0.50000000       0.00000000      -0.00000000 </v>
    <v>       0.08333333       0.08333333       0.00000000 </v>
    <v>       0.16666667       0.08333333       0.00000000 </v>
    <v>       0.25000000       0.08333333       0.00000000 </v>
    <v>       0.33333333       0.08333333       0.00000000 </v>
    <v>       0.41666667       0.08333333       0.00000000 </v>
    <v>       0.50000000       0.08333333      -0.00000000 </v>
    <v>      -0.41666667       0.08333333       0.00000000 </v>
    <v>      -0.33333333       0.08333333       0.00000000 </v>
    <v>      -0.25000000       0.08333333       0.00000000 </v>
    <v>      -0.16666667       0.08333333       0.00000000 </v>
    <v>      -0.08333333       0.08333333       0.00000000 </v>
    <v>       0.16666667       0.16666667       0.00000000 </v>
    <v>       0.25000000       0.16666667       0.00000000 </v>
    <v>       0.33333333       0.16666667       0.00000000 </v>
    <v>       0.41666667       0.16666667       0.00000000 </v>
    <v>       0.50000000       0.16666667       0.00000000 </v>
    <v>      -0.41666667       0.16666667       0.00000000 </v>
    <v>      -0.33333333       0.16666667       0.00000000 </v>
    <v>      -0.25000000       0.16666667       0.00000000 </v>
    <v>      -0.16666667       0.16666667       0.00000000 </v>
    <v>       0.25000000       0.25000000       0.00000000 </v>
    <v>       0.33333333       0.25000000       0.00000000 </v>
    <v>       0.41666667       0.25000000       0.00000000 </v>
    <v>       0.50000000       0.25000000       0.00000000 </v>
    <v>      -0.41666667       0.25000000       0.00000000 </v>
    <v>      -0.33333333       0.25000000       0.00000000 </v>
    <v>      -0.25000000       0.25000000      -0.00000000 </v>
    <v>       0.33333333       0.33333333       0.00000000 </v>
    <v>       0.41666667       0.33333333       0.00000000 </v>
    <v>       0.50000000       0.33333333       0.00000000 </v>
    <v>      -0.41666667       0.33333333      -0.00000000 </v>
    <v>      -0.33333333       0.33333333       0.00000000 </v>
    <v>       0.41666667       0.41666667       0.00000000 </v>
    <v>       0.50000000       0.41666667       0.00000000 </v>
    <v>      -0.41666667       0.41666667      -0.00000000 </v>
    <v>       0.50000000       0.50000000       0.00000000 </v>
    <v>       0.08333333       0.00000000       0.08333333 </v>
    <v>       0.16666667      -0.00000000       0.08333333 </v>
    <v>       0.25000000       0.00000000       0.08333333 </v>
    <v>       0.33333333       0.00000000       0.08333333 </v>
    <v>       0.41666667      -0.00000000       0.08333333 </v>
    <v>       0.50000000      -0.00000000       0.08333333 </v>
    <v>      -0.41666667      -0.00000000       0.08333333 </v>
    <v>      -0.33333333       0.00000000       0.08333333 </v>
    <v>      -0.25000000      -0.00000000       0.08333333 </v>
    <v>      -0.16666667       0.00000000       0.08333333 </v>
    <v>      -0.08333333      -0.00000000       0.08333333 </v>
    <v>       0.25000000       0.16666667       0.08333333 </v>
    <v>       0.33333333       0.16666667       0.08333333 </v>
    <v>       0.41666667       0.16666667       0.08333333 </v>
    <v>       0.50000000       0.16666667       0.08333333 </v>
    <v>      -0.41666667       0.16666667       0.08333333 </v>
    <v>       0.16666667       0.25000000       0.08333333 </v>
    <v>       0.33333333       0.25000000       0.08333333 </v>
    <v>       0.41666667       0.25000000       0.08333333 </v>
    <v>       0.50000000       0.25000000       0.08333333 </v>
    <v>      -0.41666667       0.25000000       0.08333333 </v>
    <v>      -0.33333333       0.25000000       0.08333333 </v>
    <v>      -0.25000000       0.25000000       0.08333333 </v>
    <v>      -0.16666667       0.25000000       0.08333333 </v>
    <v>       0.16666667       0.33333333       0.08333333 </v>
    <v>       0.25000000       0.33333333       0.08333333 </v>
    <v>       0.41666667       0.33333333       0.08333333 </v>
    <v>       0.50000000       0.33333333       0.08333333 </v>
    <v>      -0.41666667       0.33333333       0.08333333 </v>
    <v>      -0.33333333       0.33333333       0.08333333 </v>
    <v>      -0.25000000       0.33333333       0.08333333 </v>
    <v>       0.16666667       0.41666667       0.08333333 </v>
    <v>       0.25000000       0.41666667       0.08333333 </v>
    <v>       0.33333333       0.41666667       0.08333333 </v>
    <v>       0.50000000       0.41666667       0.08333333 </v>
    <v>      -0.41666667       0.41666667       0.08333333 </v>
    <v>      -0.33333333       0.41666667       0.08333333 </v>
    <v>       0.16666667       0.50000000       0.08333333 </v>
    <v>       0.25000000       0.50000000       0.08333333 </v>
    <v>       0.33333333       0.50000000       0.08333333 </v>
    <v>       0.41666667       0.50000000       0.08333333 </v>
    <v>      -0.41666667       0.50000000       0.08333333 </v>
    <v>       0.16666667      -0.41666667       0.08333333 </v>
    <v>       0.25000000      -0.41666667       0.08333333 </v>
    <v>       0.33333333      -0.41666667       0.08333333 </v>
    <v>       0.41666667      -0.41666667       0.08333333 </v>
    <v>       0.50000000      -0.41666667       0.08333333 </v>
    <v>       0.16666667      -0.33333333       0.08333333 </v>
    <v>       0.25000000      -0.33333333       0.08333333 </v>
    <v>       0.33333333      -0.33333333       0.08333333 </v>
    <v>       0.41666667      -0.33333333       0.08333333 </v>
    <v>       0.16666667      -0.25000000       0.08333333 </v>
    <v>       0.25000000      -0.25000000       0.08333333 </v>
    <v>       0.33333333      -0.25000000       0.08333333 </v>
    <v>       0.16666667      -0.16666667       0.08333333 </v>
    <v>       0.25000000      -0.16666667       0.08333333 </v>
    <v>       0.16666667      -0.08333333       0.08333333 </v>
    <v>       0.16666667       0.00000000       0.16666667 </v>
    <v>       0.25000000       0.00000000       0.16666667 </v>
    <v>       0.33333333      -0.00000000       0.16666667 </v>
    <v>       0.41666667       0.00000000       0.16666667 </v>
    <v>       0.50000000       0.00000000       0.16666667 </v>
    <v>      -0.41666667       0.00000000       0.16666667 </v>
    <v>      -0.33333333       0.00000000       0.16666667 </v>
    <v>      -0.25000000      -0.00000000       0.16666667 </v>
    <v>      -0.16666667      -0.00000000       0.16666667 </v>
    <v>       0.50000000       0.33333333       0.16666667 </v>
    <v>      -0.41666667       0.33333333       0.16666667 </v>
    <v>      -0.33333333       0.33333333       0.16666667 </v>
    <v>       0.25000000       0.41666667       0.16666667 </v>
    <v>      -0.41666667       0.41666667       0.16666667 </v>
    <v>      -0.33333333       0.41666667       0.16666667 </v>
    <v>      -0.25000000       0.41666667       0.16666667 </v>
    <v>       0.25000000       0.50000000       0.16666667 </v>
    <v>       0.33333333       0.50000000       0.16666667 </v>
    <v>      -0.33333333       0.50000000       0.16666667 </v>
    <v>       0.25000000      -0.41666667       0.16666667 </v>
    <v>       0.33333333      -0.41666667       0.16666667 </v>
    <v>       0.41666667      -0.41666667       0.16666667 </v>
    <v>       0.25000000      -0.33333333       0.16666667 </v>
    <v>       0.33333333      -0.33333333       0.16666667 </v>
    <v>       0.41666667      -0.33333333       0.16666667 </v>
    <v>       0.50000000      -0.33333333       0.16666667 </v>
    <v>       0.25000000      -0.25000000       0.16666667 </v>
    <v>       0.33333333      -0.25000000       0.16666667 </v>
    <v>       0.41666667      -0.25000000       0.16666667 </v>
    <v>       0.25000000      -0.16666667       0.16666667 </v>
    <v>       0.33333333      -0.16666667       0.16666667 </v>
    <v>       0.25000000      -0.08333333       0.16666667 </v>
    <v>       0.25000000       0.00000000       0.25000000 </v>
    <v>       0.33333333       0.00000000       0.25000000 </v>
    <v>       0.41666667       0.00000000       0.25000000 </v>
    <v>       0.50000000       0.00000000       0.25000000 </v>
    <v>      -0.41666667       0.00000000       0.25000000 </v>
    <v>      -0.33333333       0.00000000       0.25000000 </v>
    <v>      -0.25000000      -0.00000000       0.25000000 </v>
    <v>      -0.25000000       0.50000000       0.25000000 </v>
    <v>       0.33333333      -0.41666667       0.25000000 </v>
    <v>       0.33333333      -0.33333333       0.25000000 </v>
    <v>       0.41666667      -0.33333333       0.25000000 </v>
    <v>       0.33333333      -0.25000000       0.25000000 </v>
    <v>       0.41666667      -0.25000000       0.25000000 </v>
    <v>       0.50000000      -0.25000000       0.25000000 </v>
    <v>       0.33333333      -0.16666667       0.25000000 </v>
    <v>       0.41666667      -0.16666667       0.25000000 </v>
    <v>       0.33333333      -0.08333333       0.25000000 </v>
    <v>       0.33333333       0.00000000       0.33333333 </v>
    <v>       0.41666667       0.00000000       0.33333333 </v>
    <v>       0.50000000       0.00000000       0.33333333 </v>
    <v>      -0.41666667      -0.00000000       0.33333333 </v>
    <v>      -0.33333333      -0.00000000       0.33333333 </v>
    <v>       0.41666667      -0.25000000       0.33333333 </v>
    <v>       0.41666667      -0.16666667       0.33333333 </v>
    <v>       0.50000000      -0.16666667       0.33333333 </v>
    <v>       0.41666667      -0.08333333       0.33333333 </v>
    <v>       0.41666667       0.00000000       0.41666667 </v>
    <v>       0.50000000       0.00000000       0.41666667 </v>
    <v>      -0.41666667      -0.00000000       0.41666667 </v>
    <v>       0.50000000      -0.08333333       0.41666667 </v>
    <v>       0.50000000       0.00000000       0.50000000 </v>
   </varray>
   <varray name="weights" >
    <v>       0.00057870 </v>
    <v>       0.00462963 </v>
    <v>       0.00462963 </v>
    <v>       0.00462963 </v>
    <v>       0.00462963 </v>
    <v>       0.00462963 </v>
    <v>       0.00231481 </v>
    <v>       0.00231481 </v>
    <v>       0.00925926 </v>
    <v>       0.00925926 </v>
    <v>       0.00925926 </v>
    <v>       0.00925926 </v>
    <v>       0.00925926 </v>
    <v>       0.00925926 </v>
    <v>       0.00925926 </v>
    <v>       0.00925926 </v>
    <v>       0.00925926 </v>
    <v>       0.00462963 </v>
    <v>       0.00231481 </v>
    <v>       0.00925926 </v>
    <v>       0.00925926 </v>
    <v>       0.00925926 </v>
    <v>       0.00925926 </v>
    <v>       0.00925926 </v>
    <v>       0.00925926 </v>
    <v>       0.00925926 </v>
    <v>       0.00462963 </v>
    <v>       0.00231481 </v>
    <v>       0.00925926 </v>
    <v>       0.00925926 </v>
    <v>       0.00925926 </v>
    <v>       0.00925926 </v>
    <v>       0.00925926 </v>
    <v>       0.00462963 </v>
    <v>       0.00231481 </v>
    <v>       0.00925926 </v>
    <v>       0.00925926 </v>
    <v>       0.00925926 </v>
    <v>       0.00462963 </v>
    <v>       0.00231481 </v>
    <v>       0.00925926 </v>
    <v>       0.00462963 </v>
    <v>       0.00115741 </v>
    <v>       0.00115741 </v>
    <v>       0.00462963 </v>
    <v>       0.00462963 </v>
    <v>       0.00462963 </v>
    <v>       0.00462963 </v>
    <v>       0.00462963 </v>
    <v>       0.00462963 </v>
    <v>       0.00462963 </v>
    <v>       0.00462963 </v>
    <v>       0.00462963 </v>
    <v>       0.00231481 </v>
    <v>       0.00462963 </v>
    <v>       0.00925926 </v>
    <v>       0.00925926 </v>
    <v>       0.00925926 </v>
    <v>       0.00462963 </v>
    <v>       0.00462963 </v>
    <v>       0.00462963 </v>
    <v>       0.00925926 </v>
    <v>       0.00925926 </v>
    <v>       0.00925926 </v>
    <v>       0.00925926 </v>
    <v>       0.00925926 </v>
    <v>       0.00462963 </v>
    <v>       0.00925926 </v>
    <v>       0.00462963 </v>
    <v>       0.00462963 </v>
    <v>       0.00925926 </v>
    <v>       0.00925926 </v>
    <v>       0.00925926 </v>
    <v>       0.00462963 </v>
    <v>       0.00925926 </v>
    <v>       0.00925926 </v>
    <v>       0.00462963 </v>
    <v>       0.00462963 </v>
    <v>       0.00925926 </v>
    <v>       0.00462963 </v>
    <v>       0.00925926 </v>
    <v>       0.00925926 </v>
    <v>       0.00925926 </v>
    <v>       0.00462963 </v>
    <v>       0.00231481 </v>
    <v>       0.00925926 </v>
    <v>       0.00925926 </v>
    <v>       0.00925926 </v>
    <v>       0.00925926 </v>
    <v>       0.00231481 </v>
    <v>       0.00925926 </v>
    <v>       0.00925926 </v>
    <v>       0.00925926 </v>
    <v>       0.00462963 </v>
    <v>       0.00925926 </v>
    <v>       0.00925926 </v>
    <v>       0.00462963 </v>
    <v>       0.00925926 </v>
    <v>       0.00462963 </v>
    <v>       0.00462963 </v>
    <v>       0.00115741 </v>
    <v>       0.00462963 </v>
    <v>       0.00462963 </v>
    <v>       0.00462963 </v>
    <v>       0.00462963 </v>
    <v>       0.00462963 </v>
    <v>       0.00462963 </v>
    <v>       0.00462963 </v>
    <v>       0.00231481 </v>
    <v>       0.00462963 </v>
    <v>       0.00925926 </v>
    <v>       0.00462963 </v>
    <v>       0.00462963 </v>
    <v>       0.00462963 </v>
    <v>       0.00925926 </v>
    <v>       0.00462963 </v>
    <v>       0.00925926 </v>
    <v>       0.00462963 </v>
    <v>       0.00231481 </v>
    <v>       0.00925926 </v>
    <v>       0.00925926 </v>
    <v>       0.00462963 </v>
    <v>       0.00925926 </v>
    <v>       0.00925926 </v>
    <v>       0.00925926 </v>
    <v>       0.00231481 </v>
    <v>       0.00925926 </v>
    <v>       0.00925926 </v>
    <v>       0.00462963 </v>
    <v>       0.00925926 </v>
    <v>       0.00462963 </v>
    <v>       0.00462963 </v>
    <v>       0.00115741 </v>
    <v>       0.00462963 </v>
    <v>       0.00462963 </v>
    <v>       0.00462963 </v>
    <v>       0.00462963 </v>
    <v>       0.00462963 </v>
    <v>       0.00231481 </v>
    <v>       0.00115741 </v>
    <v>       0.00462963 </v>
    <v>       0.00925926 </v>
    <v>       0.00462963 </v>
    <v>       0.00925926 </v>
    <v>       0.00925926 </v>
    <v>       0.00231481 </v>
    <v>       0.00925926 </v>
    <v>       0.00462963 </v>
    <v>       0.00462963 </v>
    <v>       0.00115741 </v>
    <v>       0.00462963 </v>
    <v>       0.00462963 </v>
    <v>       0.00462963 </v>
    <v>       0.00231481 </v>
    <v>       0.00462963 </v>
    <v>       0.00925926 </v>
    <v>       0.00231481 </v>
    <v>       0.00462963 </v>
    <v>       0.00115741 </v>
    <v>       0.00462963 </v>
    <v>       0.00231481 </v>
    <v>       0.00231481 </v>
    <v>       0.00057870 </v>
   </varray>
  </kpoints>
  <scstep>
   <time name="total">    0.54    0.54</time>
   <energy>
    <i name="e_fr_energy">     -0.05188966 </i>
    <i name="e_wo_entrp">     -0.05188966 </i>
    <i name="e_0_energy">     -0.05188966 </i>
   </energy>
  </scstep>
  <scstep>
   <time name="total">    0.64    0.64</time>
   <energy>
    <i name="e_fr_energy">     -0.05903968 </i>
    <i name="e_wo_entrp">     -0.05903968 </i>
    <i name="e_0_energy">     -0.05903968 </i>
   </energy>
  </scstep>
  <scstep>
   <time name="total">    0.81    0.82</time>
   <energy>
    <i name="e_fr_energy">     -0.05855589 </i>
    <i name="e_wo_entrp">     -0.05855589 </i>
    <i name="e_0_energy">     -0.05855589 </i>
   </energy>
  </scstep>
  <scstep>
   <time name="total">    1.01    1.02</time>
   <energy>
    <i name="e_fr_energy">     -0.06250586 </i>
    <i name="e_wo_entrp">     -0.06250586 </i>
    <i name="e_0_energy">     -0.06250586 </i>
   </energy>
  </scstep>
  <scstep>
   <time name="total">    0.95    0.95</time>
   <energy>
    <i name="e_fr_energy">     -0.06308798 </i>
    <i name="e_wo_entrp">     -0.06308798 </i>
    <i name="e_0_energy">     -0.06308798 </i>
   </energy>
  </scstep>
  <scstep>
   <time name="total">    0.93    0.93</time>
   <energy>
    <i name="e_fr_energy">     -0.06316039 </i>
    <i name="e_wo_entrp">     -0.06316039 </i>
    <i name="e_0_energy">     -0.06316039 </i>
   </energy>
  </scstep>
  <scstep>
   <time name="total">    0.93    0.93</time>
   <energy>
    <i name="e_fr_energy">     -0.06316833 </i>
    <i name="e_wo_entrp">     -0.06316833 </i>
    <i name="e_0_energy">     -0.06316833 </i>
   </energy>
  </scstep>
  <scstep>
   <time name="total">    1.06    1.07</time>
   <energy>
    <i name="e_fr_energy">     -0.06317047 </i>
    <i name="e_wo_entrp">     -0.06317047 </i>
    <i name="e_0_energy">     -0.06317047 </i>
   </energy>
  </scstep>
  <scstep>
   <time name="total">    0.99    1.01</time>
   <energy>
    <i name="e_fr_energy">     -0.06317043 </i>
    <i name="e_wo_entrp">     -0.06317043 </i>
    <i name="e_0_energy">     -0.06317043 </i>
   </energy>
  </scstep>
  <kpoints>
   <generation param="Gamma">
    <v type="int" name="divisions">      12       12       12 </v>
    <v name="usershift">      0.00000000       0.00000000       0.00000000 </v>
    <v name="genvec1">      0.08333333      -0.00000000      -0.00000000 </v>
    <v name="genvec2">     -0.00000000       0.08333333       0.00000000 </v>
    <v name="genvec3">      0.00000000       0.00000000       0.08333333 </v>
    <v name="shift">      0.00000000       0.00000000       0.00000000 </v>
   </generation>
   <varray name="kpointlist" >
    <v>       0.00000000       0.00000000       0.00000000 </v>
    <v>       0.08333333      -0.00000000      -0.00000000 </v>
    <v>       0.16666667      -0.00000000      -0.00000000 </v>
    <v>       0.25000000       0.00000000      -0.00000000 </v>
    <v>       0.33333333      -0.00000000      -0.00000000 </v>
    <v>       0.41666667       0.00000000       0.00000000 </v>
    <v>       0.50000000       0.00000000      -0.00000000 </v>
    <v>       0.08333333       0.08333333       0.00000000 </v>
    <v>       0.16666667       0.08333333       0.00000000 </v>
    <v>       0.25000000       0.08333333       0.00000000 </v>
    <v>       0.33333333       0.08333333       0.00000000 </v>
    <v>       0.41666667       0.08333333       0.00000000 </v>
    <v>       0.50000000       0.08333333      -0.00000000 </v>
    <v>      -0.41666667       0.08333333       0.00000000 </v>
    <v>      -0.33333333       0.08333333       0.00000000 </v>
    <v>      -0.25000000       0.08333333       0.00000000 </v>
    <v>      -0.16666667       0.08333333       0.00000000 </v>
    <v>      -0.08333333       0.08333333       0.00000000 </v>
    <v>       0.16666667       0.16666667       0.00000000 </v>
    <v>       0.25000000       0.16666667       0.00000000 </v>
    <v>       0.33333333       0.16666667       0.00000000 </v>
    <v>       0.41666667       0.16666667       0.00000000 </v>
    <v>       0.50000000       0.16666667       0.00000000 </v>
    <v>      -0.41666667       0.16666667       0.00000000 </v>
    <v>      -0.33333333       0.16666667       0.00000000 </v>
    <v>      -0.25000000       0.16666667       0.00000000 </v>
    <v>      -0.16666667       0.16666667       0.00000000 </v>
    <v>       0.25000000       0.25000000       0.00000000 </v>
    <v>       0.33333333       0.25000000       0.00000000 </v>
    <v>       0.41666667       0.25000000       0.00000000 </v>
    <v>       0.50000000       0.25000000       0.00000000 </v>
    <v>      -0.41666667       0.25000000       0.00000000 </v>
    <v>      -0.33333333       0.25000000       0.00000000 </v>
    <v>      -0.25000000       0.25000000      -0.00000000 </v>
    <v>       0.33333333       0.33333333       0.00000000 </v>
    <v>       0.41666667       0.33333333       0.00000000 </v>
    <v>       0.50000000       0.33333333       0.00000000 </v>
    <v>      -0.41666667       0.33333333      -0.00000000 </v>
    <v>      -0.33333333       0.33333333       0.00000000 </v>
    <v>       0.41666667       0.41666667       0.00000000 </v>
    <v>       0.50000000       0.41666667       0.00000000 </v>
    <v>      -0.41666667       0.41666667      -0.00000000 </v>
    <v>       0.50000000       0.50000000       0.00000000 </v>
    <v>      -0.00000000      -0.00000000       0.08333333 </v>
    <v>       0.08333333       0.00000000       0.08333333 </v>
    <v>       0.16666667      -0.00000000       0.08333333 </v>
    <v>       0.25000000       0.00000000       0.08333333 </v>
    <v>       0.33333333       0.00000000       0.08333333 </v>
    <v>       0.41666667      -0.00000000       0.08333333 </v>
    <v>       0.50000000      -0.00000000       0.08333333 </v>
    <v>      -0.41666667      -0.00000000       0.08333333 </v>
    <v>      -0.33333333       0.00000000       0.08333333 </v>
    <v>      -0.25000000      -0.00000000       0.08333333 </v>
    <v>      -0.16666667       0.00000000       0.08333333 </v>
    <v>      -0.08333333      -0.00000000       0.08333333 </v>
    <v>       0.00000000       0.08333333       0.08333333 </v>
    <v>       0.16666667       0.08333333       0.08333333 </v>
    <v>       0.25000000       0.08333333       0.08333333 </v>
    <v>       0.33333333       0.08333333       0.08333333 </v>
    <v>       0.41666667       0.08333333       0.08333333 </v>
    <v>       0.50000000       0.08333333       0.08333333 </v>
    <v>      -0.41666667       0.08333333       0.08333333 </v>
    <v>      -0.33333333       0.08333333       0.08333333 </v>
    <v>      -0.25000000       0.08333333       0.08333333 </v>
    <v>      -0.16666667       0.08333333       0.08333333 </v>
    <v>      -0.08333333       0.08333333       0.08333333 </v>
    <v>       0.16666667       0.16666667       0.08333333 </v>
    <v>       0.25000000       0.16666667       0.08333333 </v>
    <v>       0.33333333       0.16666667       0.08333333 </v>
    <v>       0.41666667       0.16666667       0.08333333 </v>
    <v>       0.50000000       0.16666667       0.08333333 </v>
    <v>      -0.41666667       0.16666667       0.08333333 </v>
    <v>      -0.33333333       0.16666667       0.08333333 </v>
    <v>      -0.25000000       0.16666667       0.08333333 </v>
    <v>      -0.16666667       0.16666667       0.08333333 </v>
    <v>      -0.08333333       0.16666667       0.08333333 </v>
    <v>       0.16666667       0.25000000       0.08333333 </v>
    <v>       0.25000000       0.25000000       0.08333333 </v>
    <v>       0.33333333       0.25000000       0.08333333 </v>
    <v>       0.41666667       0.25000000       0.08333333 </v>
    <v>       0.50000000       0.25000000       0.08333333 </v>
    <v>      -0.41666667       0.25000000       0.08333333 </v>
    <v>      -0.33333333       0.25000000       0.08333333 </v>
    <v>      -0.25000000       0.25000000       0.08333333 </v>
    <v>      -0.16666667       0.25000000       0.08333333 </v>
    <v>       0.16666667       0.33333333       0.08333333 </v>
    <v>       0.25000000       0.33333333       0.08333333 </v>
    <v>       0.33333333       0.33333333       0.08333333 </v>
    <v>       0.41666667       0.33333333       0.08333333 </v>
    <v>       0.50000000       0.33333333       0.08333333 </v>
    <v>      -0.41666667       0.33333333       0.08333333 </v>
    <v>      -0.33333333       0.33333333       0.08333333 </v>
    <v>      -0.25000000       0.33333333       0.08333333 </v>
    <v>       0.16666667       0.41666667       0.08333333 </v>
    <v>       0.25000000       0.41666667       0.08333333 </v>
    <v>       0.33333333       0.41666667       0.08333333 </v>
    <v>       0.41666667       0.41666667       0.08333333 </v>
    <v>       0.50000000       0.41666667       0.08333333 </v>
    <v>      -0.41666667       0.41666667       0.08333333 </v>
    <v>      -0.33333333       0.41666667       0.08333333 </v>
    <v>       0.16666667       0.50000000       0.08333333 </v>
    <v>       0.25000000       0.50000000       0.08333333 </v>
    <v>       0.33333333       0.50000000       0.08333333 </v>
    <v>       0.41666667       0.50000000       0.08333333 </v>
    <v>       0.50000000       0.50000000       0.08333333 </v>
    <v>      -0.41666667       0.50000000       0.08333333 </v>
    <v>       0.16666667      -0.41666667       0.08333333 </v>
    <v>       0.25000000      -0.41666667       0.08333333 </v>
    <v>       0.33333333      -0.41666667       0.08333333 </v>
    <v>       0.41666667      -0.41666667       0.08333333 </v>
    <v>       0.50000000      -0.41666667       0.08333333 </v>
    <v>       0.16666667      -0.33333333       0.08333333 </v>
    <v>       0.25000000      -0.33333333       0.08333333 </v>
    <v>       0.33333333      -0.33333333       0.08333333 </v>
    <v>       0.41666667      -0.33333333       0.08333333 </v>
    <v>       0.16666667      -0.25000000       0.08333333 </v>
    <v>       0.25000000      -0.25000000       0.08333333 </v>
    <v>       0.33333333      -0.25000000       0.08333333 </v>
    <v>       0.16666667      -0.16666667       0.08333333 </v>
    <v>       0.25000000      -0.16666667       0.08333333 </v>
    <v>       0.16666667      -0.08333333       0.08333333 </v>
    <v>      -0.00000000      -0.00000000       0.16666667 </v>
    <v>       0.08333333       0.00000000       0.16666667 </v>
    <v>       0.16666667       0.00000000       0.16666667 </v>
    <v>       0.25000000       0.00000000       0.16666667 </v>
    <v>       0.33333333      -0.00000000       0.16666667 </v>
    <v>       0.41666667       0.00000000       0.16666667 </v>
    <v>       0.50000000       0.00000000       0.16666667 </v>
    <v>      -0.41666667       0.00000000       0.16666667 </v>
    <v>      -0.33333333       0.00000000       0.16666667 </v>
    <v>      -0.25000000      -0.00000000       0.16666667 </v>
    <v>      -0.16666667      -0.00000000       0.16666667 </v>
    <v>      -0.08333333      -0.00000000       0.16666667 </v>
    <v>       0.00000000       0.08333333       0.16666667 </v>
    <v>       0.08333333       0.08333333       0.16666667 </v>
    <v>       0.25000000       0.08333333       0.16666667 </v>
    <v>       0.33333333       0.08333333       0.16666667 </v>
    <v>       0.41666667       0.08333333       0.16666667 </v>
    <v>       0.50000000       0.08333333       0.16666667 </v>
    <v>      -0.41666667       0.08333333       0.16666667 </v>
    <v>      -0.33333333       0.08333333       0.16666667 </v>
    <v>      -0.25000000       0.08333333       0.16666667 </v>
    <v>      -0.16666667       0.08333333       0.16666667 </v>
    <v>      -0.08333333       0.08333333       0.16666667 </v>
    <v>       0.00000000       0.16666667       0.16666667 </v>
    <v>       0.25000000       0.16666667       0.16666667 </v>
    <v>       0.33333333       0.16666667       0.16666667 </v>
    <v>       0.41666667       0.16666667       0.16666667 </v>
    <v>       0.50000000       0.16666667       0.16666667 </v>
    <v>      -0.41666667       0.16666667       0.16666667 </v>
    <v>      -0.33333333       0.16666667       0.16666667 </v>
    <v>      -0.25000000       0.16666667       0.16666667 </v>
    <v>      -0.16666667       0.16666667       0.16666667 </v>
    <v>      -0.08333333       0.16666667       0.16666667 </v>
    <v>       0.25000000       0.25000000       0.16666667 </v>
    <v>       0.33333333       0.25000000       0.16666667 </v>
    <v>       0.41666667       0.25000000       0.16666667 </v>
    <v>       0.50000000       0.25000000       0.16666667 </v>
    <v>      -0.41666667       0.25000000       0.16666667 </v>
    <v>      -0.33333333       0.25000000       0.16666667 </v>
    <v>      -0.25000000       0.25000000       0.16666667 </v>
    <v>      -0.16666667       0.25000000       0.16666667 </v>
    <v>      -0.08333333       0.25000000       0.16666667 </v>
    <v>       0.25000000       0.33333333       0.16666667 </v>
    <v>       0.33333333       0.33333333       0.16666667 </v>
    <v>       0.41666667       0.33333333       0.16666667 </v>
    <v>       0.50000000       0.33333333       0.16666667 </v>
    <v>      -0.41666667       0.33333333       0.16666667 </v>
    <v>      -0.33333333       0.33333333       0.16666667 </v>
    <v>      -0.25000000       0.33333333       0.16666667 </v>
    <v>      -0.16666667       0.33333333       0.16666667 </v>
    <v>       0.25000000       0.41666667       0.16666667 </v>
    <v>       0.33333333       0.41666667       0.16666667 </v>
    <v>       0.41666667       0.41666667       0.16666667 </v>
    <v>       0.50000000       0.41666667       0.16666667 </v>
    <v>      -0.41666667       0.41666667       0.16666667 </v>
    <v>      -0.33333333       0.41666667       0.16666667 </v>
    <v>      -0.25000000       0.41666667       0.16666667 </v>
    <v>       0.25000000       0.50000000       0.16666667 </v>
    <v>       0.33333333       0.50000000       0.16666667 </v>
    <v>       0.41666667       0.50000000       0.16666667 </v>
    <v>       0.50000000       0.50000000       0.16666667 </v>
    <v>      -0.41666667       0.50000000       0.16666667 </v>
    <v>      -0.33333333       0.50000000       0.16666667 </v>
    <v>       0.25000000      -0.41666667       0.16666667 </v>
    <v>       0.33333333      -0.41666667       0.16666667 </v>
    <v>       0.41666667      -0.41666667       0.16666667 </v>
    <v>       0.50000000      -0.41666667       0.16666667 </v>
    <v>      -0.41666667      -0.41666667       0.16666667 </v>
    <v>       0.25000000      -0.33333333       0.16666667 </v>
    <v>       0.33333333      -0.33333333       0.16666667 </v>
    <v>       0.41666667      -0.33333333       0.16666667 </v>
    <v>       0.50000000      -0.33333333       0.16666667 </v>
    <v>       0.25000000      -0.25000000       0.16666667 </v>
    <v>       0.33333333      -0.25000000       0.16666667 </v>
    <v>       0.41666667      -0.25000000       0.16666667 </v>
    <v>       0.25000000      -0.16666667       0.16666667 </v>
    <v>       0.33333333      -0.16666667       0.16666667 </v>
    <v>       0.25000000      -0.08333333       0.16666667 </v>
    <v>       0.00000000      -0.00000000       0.25000000 </v>
    <v>       0.08333333       0.00000000       0.25000000 </v>
    <v>       0.16666667       0.00000000       0.25000000 </v>
    <v>       0.25000000       0.00000000       0.25000000 </v>
    <v>       0.33333333       0.00000000       0.25000000 </v>
    <v>       0.41666667       0.00000000       0.25000000 </v>
    <v>       0.50000000       0.00000000       0.25000000 </v>
    <v>      -0.41666667       0.00000000       0.25000000 </v>
    <v>      -0.33333333       0.00000000       0.25000000 </v>
    <v>      -0.25000000      -0.00000000       0.25000000 </v>
    <v>      -0.16666667       0.00000000       0.25000000 </v>
    <v>      -0.08333333       0.00000000       0.25000000 </v>
    <v>       0.00000000       0.08333333       0.25000000 </v>
    <v>       0.08333333       0.08333333       0.25000000 </v>
    <v>       0.16666667       0.08333333       0.25000000 </v>
    <v>       0.33333333       0.08333333       0.25000000 </v>
    <v>       0.41666667       0.08333333       0.25000000 </v>
    <v>       0.50000000       0.08333333       0.25000000 </v>
    <v>      -0.41666667       0.08333333       0.25000000 </v>
    <v>      -0.33333333       0.08333333       0.25000000 </v>
    <v>      -0.25000000       0.08333333       0.25000000 </v>
    <v>      -0.16666667       0.08333333       0.25000000 </v>
    <v>      -0.08333333       0.08333333       0.25000000 </v>
    <v>       0.00000000       0.16666667       0.25000000 </v>
    <v>       0.08333333       0.16666667       0.25000000 </v>
    <v>       0.33333333       0.16666667       0.25000000 </v>
    <v>       0.41666667       0.16666667       0.25000000 </v>
    <v>       0.50000000       0.16666667       0.25000000 </v>
    <v>      -0.41666667       0.16666667       0.25000000 </v>
    <v>      -0.33333333       0.16666667       0.25000000 </v>
    <v>      -0.25000000       0.16666667       0.25000000 </v>
    <v>      -0.16666667       0.16666667       0.25000000 </v>
    <v>      -0.08333333       0.16666667       0.25000000 </v>
    <v>       0.00000000       0.25000000       0.25000000 </v>
    <v>       0.33333333       0.25000000       0.25000000 </v>
    <v>       0.41666667       0.25000000       0.25000000 </v>
    <v>       0.50000000       0.25000000       0.25000000 </v>
    <v>      -0.41666667       0.25000000       0.25000000 </v>
    <v>      -0.33333333       0.25000000       0.25000000 </v>
    <v>      -0.25000000       0.25000000       0.25000000 </v>
    <v>      -0.16666667       0.25000000       0.25000000 </v>
    <v>      -0.08333333       0.25000000       0.25000000 </v>
    <v>       0.33333333       0.33333333       0.25000000 </v>
    <v>       0.41666667       0.33333333       0.25000000 </v>
    <v>       0.50000000       0.33333333       0.25000000 </v>
    <v>      -0.41666667       0.33333333       0.25000000 </v>
    <v>      -0.33333333       0.33333333       0.25000000 </v>
    <v>      -0.25000000       0.33333333       0.25000000 </v>
    <v>      -0.16666667       0.33333333       0.25000000 </v>
    <v>      -0.08333333       0.33333333       0.25000000 </v>
    <v>       0.33333333       0.41666667       0.25000000 </v>
    <v>       0.41666667       0.41666667       0.25000000 </v>
    <v>       0.50000000       0.41666667       0.25000000 </v>
    <v>      -0.41666667       0.41666667       0.25000000 </v>
    <v>      -0.33333333       0.41666667       0.25000000 </v>
    <v>      -0.25000000       0.41666667       0.25000000 </v>
    <v>      -0.16666667       0.41666667       0.25000000 </v>
    <v>       0.33333333       0.50000000       0.25000000 </v>
    <v>       0.41666667       0.50000000       0.25000000 </v>
    <v>       0.50000000       0.50000000       0.25000000 </v>
    <v>      -0.41666667       0.50000000       0.25000000 </v>
    <v>      -0.33333333       0.50000000       0.25000000 </v>
    <v>      -0.25000000       0.50000000       0.25000000 </v>
    <v>       0.33333333      -0.41666667       0.25000000 </v>
    <v>       0.41666667      -0.41666667       0.25000000 </v>
    <v>       0.50000000      -0.41666667       0.25000000 </v>
    <v>      -0.41666667      -0.41666667       0.25000000 </v>
    <v>      -0.33333333      -0.41666667       0.25000000 </v>
    <v>       0.33333333      -0.33333333       0.25000000 </v>
    <v>       0.41666667      -0.33333333       0.25000000 </v>
    <v>       0.50000000      -0.33333333       0.25000000 </v>
    <v>      -0.41666667      -0.33333333       0.25000000 </v>
    <v>       0.33333333      -0.25000000       0.25000000 </v>
    <v>       0.41666667      -0.25000000       0.25000000 </v>
    <v>       0.50000000      -0.25000000       0.25000000 </v>
    <v>       0.33333333      -0.16666667       0.25000000 </v>
    <v>       0.41666667      -0.16666667       0.25000000 </v>
    <v>       0.33333333      -0.08333333       0.25000000 </v>
    <v>      -0.00000000      -0.00000000       0.33333333 </v>
    <v>       0.08333333      -0.00000000       0.33333333 </v>
    <v>       0.16666667       0.00000000       0.33333333 </v>
    <v>       0.25000000       0.00000000       0.33333333 </v>
    <v>       0.33333333       0.00000000       0.33333333 </v>
    <v>       0.41666667       0.00000000       0.33333333 </v>
    <v>       0.50000000       0.00000000       0.33333333 </v>
    <v>      -0.41666667      -0.00000000       0.33333333 </v>
    <v>      -0.33333333      -0.00000000       0.33333333 </v>
    <v>      -0.25000000       0.00000000       0.33333333 </v>
    <v>      -0.16666667      -0.00000000       0.33333333 </v>
    <v>      -0.08333333       0.00000000       0.33333333 </v>
    <v>       0.00000000       0.08333333       0.33333333 </v>
    <v>       0.08333333       0.08333333       0.33333333 </v>
    <v>       0.16666667       0.08333333       0.33333333 </v>
    <v>       0.25000000       0.08333333       0.33333333 </v>
    <v>       0.41666667       0.08333333       0.33333333 </v>
    <v>       0.50000000       0.08333333       0.33333333 </v>
    <v>      -0.41666667       0.08333333       0.33333333 </v>
    <v>      -0.33333333       0.08333333       0.33333333 </v>
    <v>      -0.25000000       0.08333333       0.33333333 </v>
    <v>      -0.16666667       0.08333333       0.33333333 </v>
    <v>      -0.08333333       0.08333333       0.33333333 </v>
    <v>       0.00000000       0.16666667       0.33333333 </v>
    <v>       0.08333333       0.16666667       0.33333333 </v>
    <v>       0.16666667       0.16666667       0.33333333 </v>
    <v>       0.41666667       0.16666667       0.33333333 </v>
    <v>       0.50000000       0.16666667       0.33333333 </v>
[...]
       <r>   20.0728    0.0000 </r>
       <r>   24.7215    0.0000 </r>
       <r>   24.7460    0.0000 </r>
       <r>   27.1179    0.0000 </r>
       <r>   31.0985    0.0000 </r>
      </set>
      <set comment="kpoint 158">
       <r>  -21.2227    1.0000 </r>
       <r>  -20.8155    1.0000 </r>
       <r>  -20.7926    1.0000 </r>
       <r>  -20.4856    1.0000 </r>
       <r>   -3.1774    1.0000 </r>
       <r>   -2.3688    1.0000 </r>
       <r>   -2.3356    1.0000 </r>
       <r>   10.2755    0.0000 </r>
       <r>   11.7293    0.0000 </r>
       <r>   13.8081    0.0000 </r>
       <r>   17.7124    0.0000 </r>
       <r>   18.7734    0.0000 </r>
       <r>   23.6639    0.0000 </r>
       <r>   26.1395    0.0000 </r>
       <r>   28.8755    0.0000 </r>
       <r>   30.5194    0.0000 </r>
      </set>
      <set comment="kpoint 159">
       <r>  -21.1418    1.0000 </r>
       <r>  -20.7861    1.0000 </r>
       <r>  -20.7861    1.0000 </r>
       <r>  -20.6129    1.0000 </r>
       <r>   -3.2107    1.0000 </r>
       <r>   -2.3003    1.0000 </r>
       <r>   -2.3003    1.0000 </r>
       <r>   10.1437    0.0000 </r>
       <r>   11.7372    0.0000 </r>
       <r>   13.6706    0.0000 </r>
       <r>   18.3426    0.0000 </r>
       <r>   18.3426    0.0000 </r>
       <r>   22.9943    0.0000 </r>
       <r>   26.6316    0.0000 </r>
       <r>   30.4072    0.0000 </r>
       <r>   30.4072    0.0000 </r>
      </set>
      <set comment="kpoint 160">
       <r>  -21.0823    1.0000 </r>
       <r>  -20.8486    1.0000 </r>
       <r>  -20.7871    1.0000 </r>
       <r>  -20.6116    1.0000 </r>
       <r>   -3.2071    1.0000 </r>
       <r>   -2.3808    1.0000 </r>
       <r>   -2.3161    1.0000 </r>
       <r>   11.0089    0.0000 </r>
       <r>   11.5893    0.0000 </r>
       <r>   12.8622    0.0000 </r>
       <r>   18.2026    0.0000 </r>
       <r>   18.3962    0.0000 </r>
       <r>   23.1324    0.0000 </r>
       <r>   27.0340    0.0000 </r>
       <r>   29.3285    0.0000 </r>
       <r>   30.0829    0.0000 </r>
      </set>
      <set comment="kpoint 161">
       <r>  -21.1883    1.0000 </r>
       <r>  -20.8773    1.0000 </r>
       <r>  -20.7820    1.0000 </r>
       <r>  -20.4690    1.0000 </r>
       <r>   -3.1329    1.0000 </r>
       <r>   -2.5587    1.0000 </r>
       <r>   -2.3116    1.0000 </r>
       <r>   11.4674    0.0000 </r>
       <r>   11.6048    0.0000 </r>
       <r>   12.6516    0.0000 </r>
       <r>   17.9001    0.0000 </r>
       <r>   18.4403    0.0000 </r>
       <r>   24.0644    0.0000 </r>
       <r>   27.1669    0.0000 </r>
       <r>   27.3130    0.0000 </r>
       <r>   29.3438    0.0000 </r>
      </set>
      <set comment="kpoint 162">
       <r>  -21.0793    1.0000 </r>
       <r>  -20.8839    1.0000 </r>
       <r>  -20.7969    1.0000 </r>
       <r>  -20.5676    1.0000 </r>
       <r>   -3.1842    1.0000 </r>
       <r>   -2.3967    1.0000 </r>
       <r>   -2.3722    1.0000 </r>
       <r>   11.5532    0.0000 </r>
       <r>   11.5944    0.0000 </r>
       <r>   12.3881    0.0000 </r>
       <r>   17.6693    0.0000 </r>
       <r>   18.8256    0.0000 </r>
       <r>   23.3777    0.0000 </r>
       <r>   27.3024    0.0000 </r>
       <r>   27.8952    0.0000 </r>
       <r>   30.5978    0.0000 </r>
      </set>
      <set comment="kpoint 163">
       <r>  -20.8907    1.0000 </r>
       <r>  -20.8668    1.0000 </r>
       <r>  -20.7902    1.0000 </r>
       <r>  -20.7902    1.0000 </r>
       <r>   -3.2369    1.0000 </r>
       <r>   -2.3257    1.0000 </r>
       <r>   -2.3257    1.0000 </r>
       <r>   11.5418    0.0000 </r>
       <r>   11.5933    0.0000 </r>
       <r>   12.1117    0.0000 </r>
       <r>   18.4032    0.0000 </r>
       <r>   18.4032    0.0000 </r>
       <r>   22.6324    0.0000 </r>
       <r>   27.3256    0.0000 </r>
       <r>   30.4220    0.0000 </r>
       <r>   30.4220    0.0000 </r>
      </set>
     </set>
    </set>
   </array>
  </eigenvalues>
  <separator name="orbital magnetization" >
   <v name="MAGDIPOLOUT">      0.00000000      0.00000000      0.00000000</v>
  </separator>
  <dos>
   <i name="efermi">     -1.82423331 </i>
   <total>
    <array>
     <dimension dim="1">gridpoints</dimension>
     <dimension dim="2">spin</dimension>
     <field>energy</field>
     <field>total</field>
     <field>integrated</field>
     <set>
      <set comment="spin 1">
       <r>   -24.4163     0.0000     0.0000 </r>
       <r>   -24.2207     0.0000     0.0000 </r>
       <r>   -24.0251     0.0000     0.0000 </r>
       <r>   -23.8295     0.0000     0.0000 </r>
       <r>   -23.6339     0.0000     0.0000 </r>
       <r>   -23.4383     0.0000     0.0000 </r>
       <r>   -23.2427     0.0000     0.0000 </r>
       <r>   -23.0471     0.0000     0.0000 </r>
       <r>   -22.8515     0.0000     0.0000 </r>
       <r>   -22.6559     0.0000     0.0000 </r>
       <r>   -22.4603     0.0000     0.0000 </r>
       <r>   -22.2647     0.0000     0.0000 </r>
       <r>   -22.0691     0.0000     0.0000 </r>
       <r>   -21.8735     0.0000     0.0000 </r>
       <r>   -21.6779     0.4623     0.0904 </r>
       <r>   -21.4823     2.3000     1.0425 </r>
       <r>   -21.2867     1.2019     1.8045 </r>
       <r>   -21.0911     0.0598     1.9585 </r>
       <r>   -20.8955     0.0084     1.9982 </r>
       <r>   -20.6999    12.1834     6.0046 </r>
       <r>   -20.5043     0.1378     6.0825 </r>
       <r>   -20.3087     1.4634     6.5733 </r>
       <r>   -20.1131     2.4421     7.6906 </r>
       <r>   -19.9175     0.0237     8.0000 </r>
       <r>   -19.7219     0.0000     8.0000 </r>
       <r>   -19.5263     0.0000     8.0000 </r>
       <r>   -19.3307     0.0000     8.0000 </r>
       <r>   -19.1351     0.0000     8.0000 </r>
       <r>   -18.9395     0.0000     8.0000 </r>
       <r>   -18.7439     0.0000     8.0000 </r>
       <r>   -18.5483     0.0000     8.0000 </r>
       <r>   -18.3527     0.0000     8.0000 </r>
       <r>   -18.1571     0.0000     8.0000 </r>
       <r>   -17.9614     0.0000     8.0000 </r>
       <r>   -17.7658     0.0000     8.0000 </r>
       <r>   -17.5702     0.0000     8.0000 </r>
       <r>   -17.3746     0.0000     8.0000 </r>
       <r>   -17.1790     0.0000     8.0000 </r>
       <r>   -16.9834     0.0000     8.0000 </r>
       <r>   -16.7878     0.0000     8.0000 </r>
       <r>   -16.5922     0.0000     8.0000 </r>
       <r>   -16.3966     0.0000     8.0000 </r>
       <r>   -16.2010     0.0000     8.0000 </r>
       <r>   -16.0054     0.0000     8.0000 </r>
       <r>   -15.8098     0.0000     8.0000 </r>
       <r>   -15.6142     0.0000     8.0000 </r>
       <r>   -15.4186     0.0000     8.0000 </r>
       <r>   -15.2230     0.0000     8.0000 </r>
       <r>   -15.0274     0.0000     8.0000 </r>
       <r>   -14.8318     0.0000     8.0000 </r>
       <r>   -14.6362     0.0000     8.0000 </r>
       <r>   -14.4406     0.0000     8.0000 </r>
       <r>   -14.2450     0.0000     8.0000 </r>
       <r>   -14.0494     0.0000     8.0000 </r>
       <r>   -13.8538     0.0000     8.0000 </r>
       <r>   -13.6582     0.0000     8.0000 </r>
       <r>   -13.4626     0.0000     8.0000 </r>
       <r>   -13.2670     0.0000     8.0000 </r>
       <r>   -13.0714     0.0000     8.0000 </r>
       <r>   -12.8758     0.0000     8.0000 </r>
       <r>   -12.6802     0.0000     8.0000 </r>
       <r>   -12.4846     0.0000     8.0000 </r>
       <r>   -12.2890     0.0000     8.0000 </r>
       <r>   -12.0934     0.0000     8.0000 </r>
       <r>   -11.8978     0.0000     8.0000 </r>
       <r>   -11.7022     0.0000     8.0000 </r>
       <r>   -11.5066     0.0000     8.0000 </r>
       <r>   -11.3110     0.0000     8.0000 </r>
       <r>   -11.1154     0.0000     8.0000 </r>
       <r>   -10.9198     0.0000     8.0000 </r>
       <r>   -10.7242     0.0000     8.0000 </r>
       <r>   -10.5285     0.0000     8.0000 </r>
       <r>   -10.3329     0.0000     8.0000 </r>
       <r>   -10.1373     0.0000     8.0000 </r>
       <r>    -9.9417     0.0000     8.0000 </r>
       <r>    -9.7461     0.0000     8.0000 </r>
       <r>    -9.5505     0.0000     8.0000 </r>
       <r>    -9.3549     0.0000     8.0000 </r>
       <r>    -9.1593     0.0000     8.0000 </r>
       <r>    -8.9637     0.0000     8.0000 </r>
       <r>    -8.7681     0.0000     8.0000 </r>
       <r>    -8.5725     0.0000     8.0000 </r>
       <r>    -8.3769     0.0000     8.0000 </r>
       <r>    -8.1813     0.0000     8.0000 </r>
       <r>    -7.9857     0.0000     8.0000 </r>
       <r>    -7.7901     0.0000     8.0000 </r>
       <r>    -7.5945     0.0000     8.0000 </r>
       <r>    -7.3989     0.0000     8.0000 </r>
       <r>    -7.2033     0.0000     8.0000 </r>
       <r>    -7.0077     0.0000     8.0000 </r>
       <r>    -6.8121     0.0000     8.0000 </r>
       <r>    -6.6165     0.0000     8.0000 </r>
       <r>    -6.4209     0.0000     8.0000 </r>
       <r>    -6.2253     0.0000     8.0000 </r>
       <r>    -6.0297     0.0000     8.0000 </r>
       <r>    -5.8341     0.0000     8.0000 </r>
       <r>    -5.6385     0.0000     8.0000 </r>
       <r>    -5.4429     0.0000     8.0000 </r>
       <r>    -5.2473     0.0000     8.0000 </r>
       <r>    -5.0517     0.0000     8.0000 </r>
       <r>    -4.8561     0.0000     8.0000 </r>
       <r>    -4.6605     0.0000     8.0000 </r>
       <r>    -4.4649     0.0000     8.0000 </r>
       <r>    -4.2693     0.0000     8.0000 </r>
       <r>    -4.0737     0.0000     8.0000 </r>
       <r>    -3.8781     0.0000     8.0000 </r>
       <r>    -3.6825     0.0000     8.0000 </r>
       <r>    -3.4869     0.2875     8.0609 </r>
       <r>    -3.2913     0.3371     8.2743 </r>
       <r>    -3.0957     2.8165     9.2928 </r>
       <r>    -2.9000     0.7809     9.7627 </r>
       <r>    -2.7044     1.2768    10.0842 </r>
       <r>    -2.5088     1.1361    10.5845 </r>
       <r>    -2.3132     2.7495    11.5760 </r>
       <r>    -2.1176     4.0882    13.4281 </r>
       <r>    -1.9220     0.7693    13.9850 </r>
       <r>    -1.7264     0.0000    14.0000 </r>
       <r>    -1.5308     0.0000    14.0000 </r>
       <r>    -1.3352     0.0000    14.0000 </r>
       <r>    -1.1396     0.0000    14.0000 </r>
       <r>    -0.9440     0.0000    14.0000 </r>
       <r>    -0.7484     0.0000    14.0000 </r>
       <r>    -0.5528     0.0000    14.0000 </r>
       <r>    -0.3572     0.0000    14.0000 </r>
       <r>    -0.1616     0.0000    14.0000 </r>
       <r>     0.0340     0.0000    14.0000 </r>
       <r>     0.2296     0.0000    14.0000 </r>
       <r>     0.4252     0.0000    14.0000 </r>
       <r>     0.6208     0.0000    14.0000 </r>
       <r>     0.8164     0.0000    14.0000 </r>
       <r>     1.0120     0.0000    14.0000 </r>
       <r>     1.2076     0.0000    14.0000 </r>
       <r>     1.4032     0.0000    14.0000 </r>
       <r>     1.5988     0.0000    14.0000 </r>
       <r>     1.7944     0.0000    14.0000 </r>
       <r>     1.9900     0.0000    14.0000 </r>
       <r>     2.1856     0.0000    14.0000 </r>
       <r>     2.3812     0.0000    14.0000 </r>
       <r>     2.5768     0.0000    14.0000 </r>
       <r>     2.7724     0.0000    14.0000 </r>
       <r>     2.9680     0.0000    14.0000 </r>
       <r>     3.1636     0.0000    14.0000 </r>
       <r>     3.3592     0.0000    14.0000 </r>
       <r>     3.5548     0.0000    14.0000 </r>
       <r>     3.7504     0.0000    14.0000 </r>
       <r>     3.9460     0.0000    14.0000 </r>
       <r>     4.1416     0.0000    14.0000 </r>
       <r>     4.3372     0.0000    14.0000 </r>
       <r>     4.5329     0.0000    14.0000 </r>
       <r>     4.7285     0.0000    14.0012 </r>
       <r>     4.9241     0.0473    14.0104 </r>
       <r>     5.1197     0.0000    14.0174 </r>
       <r>     5.3153     0.0710    14.0312 </r>
       <r>     5.5109     0.0948    14.0498 </r>
       <r>     5.7065     0.0000    14.0683 </r>
       <r>     5.9021     0.0355    14.0752 </r>
       <r>     6.0977     0.1420    14.1030 </r>
       <r>     6.2933     0.0000    14.1308 </r>
       <r>     6.4889     0.0000    14.1586 </r>
       <r>     6.6845     0.0000    14.1956 </r>
       <r>     6.8801     0.0710    14.2095 </r>
       <r>     7.0757     0.4260    14.2928 </r>
       <r>     7.2713     0.0000    14.2998 </r>
       <r>     7.4669     0.1420    14.3553 </r>
       <r>     7.6625     0.0473    14.3924 </r>
       <r>     7.8581     0.1419    14.4201 </r>
       <r>     8.0537     0.2154    14.5178 </r>
       <r>     8.2493     0.0005    14.5591 </r>
       <r>     8.4449     0.1115    14.6364 </r>
       <r>     8.6405     0.0828    14.6863 </r>
       <r>     8.8361     0.0721    14.7282 </r>
       <r>     9.0317     0.1207    14.8627 </r>
       <r>     9.2273     0.2087    14.9679 </r>
       <r>     9.4229     0.1031    15.0584 </r>
       <r>     9.6185     0.0429    15.1022 </r>
       <r>     9.8141     0.1421    15.2326 </r>
       <r>    10.0097     0.0000    15.3438 </r>
       <r>    10.2053     0.3195    15.4618 </r>
       <r>    10.4009     0.1455    15.5180 </r>
       <r>    10.5965     0.1643    15.5773 </r>
       <r>    10.7921     0.1359    15.7245 </r>
       <r>    10.9877     0.1659    15.7581 </r>
       <r>    11.1833     0.4261    15.9526 </r>
       <r>    11.3789     0.4260    16.2025 </r>
       <r>    11.5745     1.3887    16.6362 </r>
       <r>    11.7701     0.8243    16.9772 </r>
       <r>    11.9657     0.2612    17.1934 </r>
       <r>    12.1614     0.5858    17.3681 </r>
       <r>    12.3570     0.2208    17.4529 </r>
       <r>    12.5526     0.0000    17.5509 </r>
       <r>    12.7482     0.4260    17.6759 </r>
       <r>    12.9438     0.0000    17.7315 </r>
       <r>    13.1394     0.3544    17.8008 </r>
       <r>    13.3350     0.3215    17.9194 </r>
       <r>    13.5306     0.0440    17.9693 </r>
       <r>    13.7262     0.0355    18.0046 </r>
       <r>    13.9218     0.2840    18.1505 </r>
       <r>    14.1174     0.0000    18.1921 </r>
       <r>    14.3130     0.2749    18.3570 </r>
       <r>    14.5086     0.0000    18.4144 </r>
       <r>    14.7042     0.2792    18.4759 </r>
       <r>    14.8998     0.6386    18.6018 </r>
       <r>    15.0954     0.2781    18.7072 </r>
       <r>    15.2910     0.0000    18.7361 </r>
       <r>    15.4866     0.1065    18.7569 </r>
       <r>    15.6822     0.2130    18.9444 </r>
       <r>    15.8778     0.2954    19.0300 </r>
       <r>    16.0734     0.2840    19.1389 </r>
       <r>    16.2690     0.0355    19.1736 </r>
       <r>    16.4646     0.1557    19.2828 </r>
       <r>    16.6602     0.4260    19.4745 </r>
       <r>    16.8558     0.4308    19.5588 </r>
       <r>    17.0514     0.1889    19.7059 </r>
       <r>    17.2470     0.5898    19.9094 </r>
       <r>    17.4426     0.4574    20.1057 </r>
       <r>    17.6382     0.2738    20.2584 </r>
       <r>    17.8338     0.4637    20.6358 </r>
       <r>    18.0294     0.6724    20.9313 </r>
       <r>    18.2250     0.8757    21.2211 </r>
       <r>    18.4206     0.9154    21.6501 </r>
       <r>    18.6162     0.3616    21.8867 </r>
       <r>    18.8118     0.6640    22.2375 </r>
       <r>    19.0074     0.3552    22.3854 </r>
       <r>    19.2030     0.7726    22.5921 </r>
       <r>    19.3986     0.2188    22.6365 </r>
       <r>    19.5943     0.6347    22.8568 </r>
       <r>    19.7899     0.0488    22.9089 </r>
       <r>    19.9855     0.1482    23.0186 </r>
       <r>    20.1811     0.1420    23.2674 </r>
       <r>    20.3767     0.2930    23.3525 </r>
       <r>    20.5723     0.7141    23.5332 </r>
       <r>    20.7679     0.2909    23.6726 </r>
       <r>    20.9635     0.0710    23.8519 </r>
       <r>    21.1591     0.2909    23.9087 </r>
       <r>    21.3547     0.0890    23.9989 </r>
       <r>    21.5503     0.2112    24.1802 </r>
       <r>    21.7459     0.3172    24.2866 </r>
       <r>    21.9415     0.0192    24.4621 </r>
       <r>    22.1371     0.6201    24.6907 </r>
       <r>    22.3327     0.4497    24.8380 </r>
       <r>    22.5283     0.3324    24.9909 </r>
       <r>    22.7239     0.3786    25.0706 </r>
       <r>    22.9195     0.1893    25.1470 </r>
       <r>    23.1151     0.0513    25.2751 </r>
       <r>    23.3107     0.3060    25.4453 </r>
       <r>    23.5063     0.0214    25.6327 </r>
       <r>    23.7019     0.2767    25.7659 </r>
       <r>    23.8975     0.2622    25.9159 </r>
       <r>    24.0931     0.0710    25.9965 </r>
       <r>    24.2887     0.2704    26.0841 </r>
       <r>    24.4843     0.3010    26.2568 </r>
       <r>    24.6799     0.0355    26.3160 </r>
       <r>    24.8755     0.5375    26.4905 </r>
       <r>    25.0711     0.5867    26.7224 </r>
       <r>    25.2667     0.1420    26.8368 </r>
       <r>    25.4623     0.1420    26.9271 </r>
       <r>    25.6579     0.3463    27.1129 </r>
       <r>    25.8535     0.1762    27.3412 </r>
       <r>    26.0491     0.4734    27.5220 </r>
       <r>    26.2447     0.3347    27.7032 </r>
       <r>    26.4403     0.3550    27.8461 </r>
       <r>    26.6359     1.0783    28.1403 </r>
       <r>    26.8315     0.3620    28.4099 </r>
       <r>    27.0272     0.7338    28.6123 </r>
       <r>    27.2228     0.2134    28.9411 </r>
       <r>    27.4184     0.2873    29.2738 </r>
       <r>    27.6140     1.0175    29.6388 </r>
       <r>    27.8096     0.9034    29.8897 </r>
       <r>    28.0052     0.6035    30.1782 </r>
       <r>    28.2008     0.5634    30.3995 </r>
       <r>    28.3964     0.8449    30.7393 </r>
       <r>    28.5920     0.4970    30.8472 </r>
       <r>    28.7876     0.0225    30.9627 </r>
       <r>    28.9832     0.4261    31.1806 </r>
       <r>    29.1788     0.0000    31.4028 </r>
       <r>    29.3744     0.5485    31.5378 </r>
       <r>    29.5700     0.0000    31.5648 </r>
       <r>    29.7656     0.1050    31.6409 </r>
       <r>    29.9612     0.1049    31.6825 </r>
       <r>    30.1568     0.2808    31.7725 </r>
       <r>    30.3524     0.0237    31.8333 </r>
       <r>    30.5480     0.1420    31.8819 </r>
       <r>    30.7436     0.2840    31.9792 </r>
       <r>    30.9392     0.0000    31.9792 </r>
       <r>    31.1348     0.0710    31.9931 </r>
       <r>    31.3304     0.0000    31.9931 </r>
       <r>    31.5260     0.0000    31.9931 </r>
       <r>    31.7216     0.0000    32.0000 </r>
       <r>    31.9172     0.0000    32.0000 </r>
       <r>    32.1128     0.0000    32.0000 </r>
       <r>    32.3084     0.0000    32.0000 </r>
       <r>    32.5040     0.0000    32.0000 </r>
       <r>    32.6996     0.0000    32.0000 </r>
       <r>    32.8952     0.0000    32.0000 </r>
       <r>    33.0908     0.0000    32.0000 </r>
       <r>    33.2864     0.0000    32.0000 </r>
       <r>    33.4820     0.0000    32.0000 </r>
       <r>    33.6776     0.0000    32.0000 </r>
       <r>    33.8732     0.0000    32.0000 </r>
       <r>    34.0688     0.0000    32.0000 </r>
       <r>    34.2644     0.0000    32.0000 </r>
      </set>
     </set>
    </array>
   </total>
  </dos>
 </calculation>
 <structure name="finalpos" >
  <crystal>
   <varray name="basis" >
    <v>      -2.28589416       0.00000000       2.28589416 </v>
    <v>       0.00000000       2.28589416       2.28589416 </v>
    <v>      -2.28589416       2.28589416       0.00000000 </v>
   </varray>
   <i name="volume">     23.88902076 </i>
   <varray name="rec_basis" >
    <v>      -0.21873279      -0.21873279       0.21873279 </v>
    <v>       0.21873279       0.21873279       0.21873279 </v>
    <v>      -0.21873279       0.21873279      -0.21873279 </v>
   </varray>
  </crystal>
  <varray name="positions" >
   <v>       0.00000000       0.00000000       0.00000000 </v>
   <v>       0.49999996       0.50000004       0.49999996 </v>
  </varray>
 </structure>
</modeling>
