
     Program PWSCF v.7.1 starts on  3Jan2024 at 14:30:52 

     This program is part of the open-source Quantum ESPRESSO suite
     for quantum simulation of materials; please cite
         "P. Giannozzi et al., J. Phys.:Condens. Matter 21 395502 (2009);
         "P. Giannozzi et al., J. Phys.:Condens. Matter 29 465901 (2017);
         "P. Giannozzi et al., J. Chem. Phys. 152 154105 (2020);
          URL http://www.quantum-espresso.org", 
     in publications or presentations arising from this work. More details at
     http://www.quantum-espresso.org/quote

     Parallel version (MPI), running on     8 processors

     MPI processes distributed on     1 nodes
     120506 MiB available memory on the printing compute node when the environment starts
 
     Reading input from pw_mp-1985_scf_k3000_E65.in
Warning: card &CELL ignored
Warning: card / ignored

     Current dimensions of program PWSCF are:
     Max number of different atomic species (ntypx) = 10
     Max number of k-points (npk) =  40000
     Max angular momentum in pseudopotentials (lmaxx) =  4
 
     R & G space division:  proc/nbgrp/npool/nimage =       8
     Subspace diagonalization in iterative solution of the eigenvalue problem:
     a serial algorithm will be used

 
     Parallelization info
     --------------------
     sticks:   dense  smooth     PW     G-vecs:    dense   smooth      PW
     Min         334     334    100                 5212     5212     856
     Max         336     336    101                 5213     5213     857
     Sum        2677    2677    805                41699    41699    6853
 
     Using Slab Decomposition
 


     bravais-lattice index     =            4
     lattice parameter (alat)  =      12.1897  a.u.
     unit-cell volume          =     589.2450 (a.u.)^3
     number of atoms/cell      =           14
     number of atomic types    =            2
     number of electrons       =        64.00
     number of Kohn-Sham states=           64
     kinetic-energy cutoff     =      65.0000  Ry
     charge density cutoff     =     260.0000  Ry
     scf convergence threshold =      1.0E-10
     mixing beta               =       0.7000
     number of iterations used =            8  plain     mixing
     Exchange-correlation= PBE
                           (   1   4   3   4   0   0   0)

     celldm(1)=  12.189727  celldm(2)=   0.000000  celldm(3)=   0.375650
     celldm(4)=   0.000000  celldm(5)=   0.000000  celldm(6)=   0.000000

     crystal axes: (cart. coord. in units of alat)
               a(1) = (   1.000000   0.000000   0.000000 )  
               a(2) = (  -0.500000   0.866025   0.000000 )  
               a(3) = (   0.000000   0.000000   0.375650 )  

     reciprocal axes: (cart. coord. in units 2 pi/alat)
               b(1) = (  1.000000  0.577350  0.000000 )  
               b(2) = (  0.000000  1.154701  0.000000 )  
               b(3) = (  0.000000  0.000000  2.662053 )  


     PseudoPot. # 1 for C  read from file:
     /usr/scratch4/magr4985/MG/devEb/pseudo/SG15/C.upf
     MD5 check sum: 3d2597e5eef38528f7293c089e88409c
     Pseudo is Norm-conserving, Zval =  4.0
     Generated using ONCVPSP code by D. R. Hamann
     Using radial grid of  602 points,  4 beta functions with: 
                l(1) =   0
                l(2) =   0
                l(3) =   1
                l(4) =   1

     PseudoPot. # 2 for N  read from file:
     /usr/scratch4/magr4985/MG/devEb/pseudo/SG15/N.upf
     MD5 check sum: 505747f69e3b1670e9a20de136ca1593
     Pseudo is Norm-conserving, Zval =  5.0
     Generated using ONCVPSP code by D. R. Hamann
     Using radial grid of  602 points,  4 beta functions with: 
                l(1) =   0
                l(2) =   0
                l(3) =   1
                l(4) =   1

     atomic species   valence    mass     pseudopotential
        C              4.00    12.01070     C ( 1.00)
        N              5.00    14.00670     N ( 1.00)

     12 Sym. Ops., with inversion, found ( 6 have fractional translation)



   Cartesian axes

     site n.     atom                  positions (alat units)
         1           C   tau(   1) = (   0.1840751   0.7115784   0.2817375  )
         2           C   tau(   2) = (  -0.2082825   0.6696498   0.2817375  )
         3           C   tau(   3) = (   0.0242075   0.3508225   0.2817375  )
         4           C   tau(   4) = (   0.3159250   0.1544470   0.0939125  )
         5           C   tau(   5) = (   0.7082826   0.1963756   0.0939125  )
         6           C   tau(   6) = (   0.4757925   0.5152029   0.0939125  )
         7           N   tau(   7) = (   0.3683635   0.5803349   0.2817375  )
         8           N   tau(   8) = (   0.3132335   0.0288447   0.2817375  )
         9           N   tau(   9) = (   0.8184031   0.2568458   0.2817375  )
        10           N   tau(  10) = (   0.1316365   0.2856905   0.0939125  )
        11           N   tau(  11) = (   0.1867665   0.8371807   0.0939125  )
        12           N   tau(  12) = (  -0.3184030   0.6091796   0.0939125  )
        13           N   tau(  13) = (   0.0000000   0.5773502   0.2817375  )
        14           N   tau(  14) = (   0.5000000   0.2886752   0.0939125  )

     number of k points=    28  Gaussian smearing, width (Ry)=  0.0005
                       cart. coord. in units 2pi/alat
        k(    1) = (   0.0000000   0.0000000   0.0000000), wk =   0.0104167
        k(    2) = (   0.0000000   0.0000000   0.2218377), wk =   0.0208333
        k(    3) = (   0.0000000   0.0000000   0.4436754), wk =   0.0208333
        k(    4) = (   0.0000000   0.0000000   0.6655132), wk =   0.0208333
        k(    5) = (   0.0000000   0.0000000   0.8873509), wk =   0.0208333
        k(    6) = (   0.0000000   0.0000000   1.1091886), wk =   0.0208333
        k(    7) = (   0.0000000   0.0000000  -1.3310263), wk =   0.0104167
        k(    8) = (   0.0000000   0.2886751   0.0000000), wk =   0.0625000
        k(    9) = (   0.0000000   0.2886751   0.2218377), wk =   0.1250000
        k(   10) = (   0.0000000   0.2886751   0.4436754), wk =   0.1250000
        k(   11) = (   0.0000000   0.2886751   0.6655132), wk =   0.1250000
        k(   12) = (   0.0000000   0.2886751   0.8873509), wk =   0.1250000
        k(   13) = (   0.0000000   0.2886751   1.1091886), wk =   0.1250000
        k(   14) = (   0.0000000   0.2886751  -1.3310263), wk =   0.0625000
        k(   15) = (   0.0000000  -0.5773503   0.0000000), wk =   0.0312500
        k(   16) = (   0.0000000  -0.5773503   0.2218377), wk =   0.0625000
        k(   17) = (   0.0000000  -0.5773503   0.4436754), wk =   0.0625000
        k(   18) = (   0.0000000  -0.5773503   0.6655132), wk =   0.0625000
        k(   19) = (   0.0000000  -0.5773503   0.8873509), wk =   0.0625000
        k(   20) = (   0.0000000  -0.5773503   1.1091886), wk =   0.0625000
        k(   21) = (   0.0000000  -0.5773503  -1.3310263), wk =   0.0312500
        k(   22) = (   0.2500000   0.4330127   0.0000000), wk =   0.0625000
        k(   23) = (   0.2500000   0.4330127   0.2218377), wk =   0.1250000
        k(   24) = (   0.2500000   0.4330127   0.4436754), wk =   0.1250000
        k(   25) = (   0.2500000   0.4330127   0.6655132), wk =   0.1250000
        k(   26) = (   0.2500000   0.4330127   0.8873509), wk =   0.1250000
        k(   27) = (   0.2500000   0.4330127   1.1091886), wk =   0.1250000
        k(   28) = (   0.2500000   0.4330127  -1.3310263), wk =   0.0625000

     Dense  grid:    41699 G-vectors     FFT dimensions: (  64,  64,  24)

     Estimated max dynamical RAM per process >      26.86 MB

     Estimated total dynamical RAM >     214.89 MB

     Initial potential from superposition of free atoms

     starting charge      63.9374, renormalised to      64.0000
     Starting wfcs are random

     total cpu time spent up to now is        0.9 secs

     Self-consistent Calculation

     iteration #  1     ecut=    65.00 Ry     beta= 0.70
     Davidson diagonalization with overlap
     c_bands:  1 eigenvalues not converged
     c_bands:  1 eigenvalues not converged
     c_bands:  1 eigenvalues not converged
     c_bands:  1 eigenvalues not converged
     c_bands:  3 eigenvalues not converged
     c_bands:  4 eigenvalues not converged
     c_bands:  1 eigenvalues not converged
     c_bands:  1 eigenvalues not converged
     c_bands:  1 eigenvalues not converged
     c_bands:  2 eigenvalues not converged
     c_bands:  1 eigenvalues not converged
     c_bands:  2 eigenvalues not converged
     c_bands:  2 eigenvalues not converged
     c_bands:  2 eigenvalues not converged
     c_bands:  3 eigenvalues not converged
     c_bands:  2 eigenvalues not converged
     c_bands:  3 eigenvalues not converged
     c_bands:  4 eigenvalues not converged
     c_bands:  5 eigenvalues not converged
     c_bands:  3 eigenvalues not converged
     c_bands:  2 eigenvalues not converged
     c_bands:  1 eigenvalues not converged
     c_bands:  2 eigenvalues not converged
     c_bands:  2 eigenvalues not converged
     c_bands:  3 eigenvalues not converged
     c_bands:  5 eigenvalues not converged
     ethr =  5.00E-06,  avg # of iterations = 20.2

     total cpu time spent up to now is       16.2 secs

     total energy              =    -226.69268478 Ry
     estimated scf accuracy    <       1.33551698 Ry

     iteration #  2     ecut=    65.00 Ry     beta= 0.70
     Davidson diagonalization with overlap
     ethr =  2.09E-03,  avg # of iterations =  2.0

     total cpu time spent up to now is       18.9 secs

     total energy              =    -226.95709648 Ry
     estimated scf accuracy    <       0.48791636 Ry

     iteration #  3     ecut=    65.00 Ry     beta= 0.70
     Davidson diagonalization with overlap
     ethr =  7.62E-04,  avg # of iterations =  1.9

     total cpu time spent up to now is       21.1 secs

     total energy              =    -227.06320204 Ry
     estimated scf accuracy    <       0.01409914 Ry

     iteration #  4     ecut=    65.00 Ry     beta= 0.70
     Davidson diagonalization with overlap
     ethr =  2.20E-05,  avg # of iterations =  5.5

     total cpu time spent up to now is       24.7 secs

     total energy              =    -227.06528285 Ry
     estimated scf accuracy    <       0.00546994 Ry

     iteration #  5     ecut=    65.00 Ry     beta= 0.70
     Davidson diagonalization with overlap
     ethr =  8.55E-06,  avg # of iterations =  4.3

     total cpu time spent up to now is       27.7 secs

     total energy              =    -227.06668269 Ry
     estimated scf accuracy    <       0.00038341 Ry

     iteration #  6     ecut=    65.00 Ry     beta= 0.70
     Davidson diagonalization with overlap
     ethr =  5.99E-07,  avg # of iterations =  5.3

     total cpu time spent up to now is       30.5 secs

     total energy              =    -227.06674852 Ry
     estimated scf accuracy    <       0.00000104 Ry

     iteration #  7     ecut=    65.00 Ry     beta= 0.70
     Davidson diagonalization with overlap
     ethr =  1.62E-09,  avg # of iterations =  8.8

     total cpu time spent up to now is       35.4 secs

     total energy              =    -227.06674898 Ry
     estimated scf accuracy    <       0.00000006 Ry

     iteration #  8     ecut=    65.00 Ry     beta= 0.70
     Davidson diagonalization with overlap
     ethr =  1.00E-10,  avg # of iterations =  5.3

     total cpu time spent up to now is       38.7 secs

     total energy              =    -227.06674899 Ry
     estimated scf accuracy    <          3.6E-09 Ry

     iteration #  9     ecut=    65.00 Ry     beta= 0.70
     Davidson diagonalization with overlap
     ethr =  5.57E-12,  avg # of iterations =  5.4

     total cpu time spent up to now is       42.3 secs

     total energy              =    -227.06674899 Ry
     estimated scf accuracy    <          4.6E-10 Ry

     iteration # 10     ecut=    65.00 Ry     beta= 0.70
     Davidson diagonalization with overlap
     ethr =  7.26E-13,  avg # of iterations =  5.4

     total cpu time spent up to now is       45.8 secs

     End of self-consistent calculation

          k = 0.0000 0.0000 0.0000 (  5231 PWs)   bands (ev):

   -12.3339 -10.1063 -10.1063  -9.0971  -8.8592  -8.8592  -5.9003  -4.9057
    -0.8238  -0.8238  -0.3037   0.0176   0.0176   2.3662   2.3662   3.5608
     4.6180   4.6180   4.6318   4.7332   4.7332   6.0363   6.0363   6.6035
     6.8881  10.6237  10.6237  10.7138  10.7138  11.6108  12.2603  12.5904
    16.0415  16.4487  16.7540  16.7540  16.9371  16.9371  19.2958  19.3107
    19.3172  19.3172  19.3964  20.4532  20.4532  20.9373  21.4598  21.4598
    22.4556  22.4556  23.9359  24.5192  24.5192  25.2995  25.8852  25.8950
    25.8950  27.2340  27.6080  27.8523  27.8523  28.5357  28.5357  30.3603

          k = 0.0000 0.0000 0.2218 (  5201 PWs)   bands (ev):

   -12.2058  -9.9821  -9.9821  -8.9890  -8.7379  -8.7379  -5.8151  -4.8490
    -0.7762  -0.7762  -0.2414   0.0718   0.0718   2.4183   2.4183   2.9868
     4.1987   4.1987   4.4568   4.4568   4.5166   5.6492   5.6492   6.1874
     6.8161  10.6108  10.6108  10.6384  10.6384  11.3357  11.8945  12.4396
    16.6763  16.7766  17.1771  17.1771  17.5553  17.5553  19.0974  19.0974
    19.2567  19.3827  19.8177  20.8301  20.8301  21.0798  21.4565  21.4565
    22.0409  22.0409  24.0085  24.8296  24.8296  24.8518  25.6087  25.6087
    26.1784  27.3752  27.8743  27.8743  27.8835  28.3798  28.3798  30.4201

          k = 0.0000 0.0000 0.4437 (  5220 PWs)   bands (ev):

   -11.8239  -9.6120  -9.6120  -8.6734  -8.3784  -8.3784  -5.5766  -4.7214
    -0.7094  -0.7094  -0.0707   0.1753   0.1753   1.6783   2.3973   2.3973
     3.1889   3.1890   3.5958   3.5958   3.8401   5.2426   5.2426   5.4576
     6.7101  10.3664  10.3990  10.3990  10.5084  10.5084  11.0165  12.3180
    17.1248  17.6420  17.6420  18.3861  18.8582  18.8582  19.0390  19.0390
    19.2180  19.4334  20.9458  20.9458  21.0472  21.6577  21.8475  21.8475
    21.9173  21.9173  23.8710  24.1878  24.8927  24.8927  25.3385  25.3385
    26.3639  27.9416  28.0037  28.0037  28.0352  28.0352  28.3942  30.5457

          k = 0.0000 0.0000 0.6655 (  5202 PWs)   bands (ev):

   -11.1970  -9.0050  -9.0050  -8.1847  -7.7971  -7.7971  -5.2449  -4.6867
    -0.9918  -0.9918   0.0171   0.0171   0.1275   0.4001   1.7317   1.7317
     2.4901   2.4901   2.5495   3.1258   3.1258   4.6074   5.0806   5.0806
     6.9526   9.0883  10.0035  10.0755  10.0755  10.2816  10.2816  12.1767
    17.2442  17.2442  17.6311  18.7129  19.1351  19.1351  19.3977  19.5878
    19.5878  20.5618  20.5618  20.7447  21.7754  22.7796  22.7796  22.8441
    23.2384  23.2384  23.7485  23.7996  24.3775  24.3775  25.8125  25.8125
    26.3641  27.7454  27.7454  28.0154  28.2098  28.2098  28.8188  30.3271

          k = 0.0000 0.0000 0.8874 (  5220 PWs)   bands (ev):

   -10.3441  -8.1835  -8.1835  -7.6327  -7.0446  -7.0446  -5.0150  -4.9515
    -2.0243  -2.0243  -0.9487  -0.9487  -0.3634   0.4302   1.2530   1.6690
     1.6690   2.1832   2.1832   3.3854   3.3854   3.4892   4.7939   4.7940
     7.4718   7.9770   9.1663   9.8182   9.8182   9.9922   9.9922  11.7621
    16.6606  16.6606  18.1545  18.1545  18.2364  18.6109  19.8557  20.1114
    20.1114  20.6495  20.6495  21.3424  21.8918  22.7937  23.5074  23.5074
    23.7941  23.8743  23.8743  25.3265  25.3265  25.4286  26.2359  26.2360
    26.2655  27.2877  27.7517  27.7517  28.5089  28.5089  29.6235  29.9162

          k = 0.0000 0.0000 1.1092 (  5244 PWs)   bands (ev):

    -9.3078  -7.4495  -7.2111  -7.2111  -6.3204  -6.3204  -5.4441  -4.9100
    -3.1613  -3.1613  -2.2930  -2.2929  -0.3202   0.3521   0.6897   2.0828
     2.0828   2.2987   2.3699   2.3699   3.6066   3.6066   4.3196   4.3196
     7.3419   7.5877   9.1584   9.6950   9.6951   9.7618   9.7618  10.9900
    16.3216  16.3216  17.1482  17.1482  18.8426  18.9479  20.2749  20.4773
    20.4773  20.6882  20.6882  20.8620  21.3567  23.1205  23.6122  23.6122
    23.7034  24.2084  24.2084  25.8629  26.1399  26.1399  26.3687  26.3687
    26.6655  27.1765  28.2658  28.2658  28.9268  28.9268  30.0319  30.1911

          k = 0.0000 0.0000-1.3310 (  5244 PWs)   bands (ev):

    -8.2046  -8.2046  -6.3376  -6.3376  -6.3375  -6.3375  -5.2194  -5.2194
    -3.3153  -3.3153  -3.3153  -3.3153  -0.0635  -0.0635   1.2798   1.2798
     2.4234   2.4234   2.4234   2.4234   3.8583   3.8583   3.8583   3.8583
     7.2858   7.2858   9.6718   9.6718   9.6718   9.6718  10.0149  10.0149
    16.4760  16.4760  16.4760  16.4761  19.2908  19.2908  20.2264  20.2264
    20.6588  20.6588  20.6588  20.6588  22.0183  22.0183  23.9450  23.9450
    23.9450  23.9450  24.8469  24.8469  26.3638  26.3638  26.3638  26.3638
    27.1345  27.1345  28.8309  28.8309  28.8309  28.8309  30.3790  30.3790

          k = 0.0000 0.2887 0.0000 (  5215 PWs)   bands (ev):

   -12.1373 -10.6567 -10.2734  -9.6323  -8.4725  -7.6620  -5.7569  -5.2499
    -2.3740  -1.3249  -0.5945   0.8297   1.1707   2.3828   2.7489   3.6968
     4.3105   4.5379   4.6521   4.6914   5.3739   5.8286   6.1145   6.8770
     6.9896   9.7445  10.2412  10.3476  10.6114  11.5279  12.3241  12.5721
    16.1783  16.5921  16.7531  16.8352  17.1539  17.2181  18.1408  19.2821
    19.3142  19.8005  20.2777  20.4082  20.6233  21.1060  21.8192  21.9311
    22.5609  22.9523  23.5634  23.6179  23.8568  25.1251  25.4252  25.9423
    26.1782  26.7712  27.5860  27.9532  28.0599  28.4862  28.5560  30.2794

          k = 0.0000 0.2887 0.2218 (  5203 PWs)   bands (ev):

   -12.0097 -10.5318 -10.1482  -9.5159  -8.3535  -7.5502  -5.6752  -5.1835
    -2.3029  -1.2770  -0.5198   0.8805   1.2062   2.3895   2.7476   3.1655
     3.9326   4.1566   4.2188   4.5229   5.2016   5.4801   5.6936   6.4009
     7.0078   9.7293  10.2324  10.3205  10.5858  11.3657  11.9558  12.3099
    16.7299  16.9089  17.3375  17.4053  17.6261  17.7381  18.1391  18.9938
    19.7618  19.7857  19.9834  20.7056  20.9857  21.2726  21.9142  21.9326
    22.0517  22.4334  23.6438  23.8759  24.1589  24.7694  25.4311  25.9795
    26.1866  26.9218  27.7341  28.0013  28.0849  28.4764  28.5589  30.2760

          k = 0.0000 0.2887 0.4437 (  5204 PWs)   bands (ev):

   -11.6295 -10.1601  -9.7752  -9.1724  -8.0013  -7.2217  -5.4484  -5.0202
    -2.1255  -1.2031  -0.3296   0.9270   1.2244   1.6728   2.3861   2.5412
     2.9301   3.2608   3.5201   3.7480   4.3551   5.0960   5.2003   5.6052
     7.0937   9.5915  10.0455  10.1417  10.4754  10.7297  11.1430  12.0245
    16.7339  17.6516  18.0130  18.3826  18.5855  18.8074  19.0567  19.2692
    19.7350  19.9486  20.8003  21.1133  21.2020  21.4407  21.6745  21.9494
    22.2450  22.3910  23.5543  23.8022  24.4435  24.4958  25.4696  25.7463
    26.2430  27.3638  27.7282  27.8841  28.4950  28.5030  28.7110  30.3312

          k = 0.0000 0.2887 0.6655 (  5220 PWs)   bands (ev):

   -11.0058  -9.5524  -9.1628  -8.6239  -7.4351  -6.7066  -5.1437  -4.9006
    -2.0209  -1.4280  -0.2187   0.3701   0.4797   0.7571   1.4449   1.6884
     2.4644   2.8020   2.9142   3.1026   3.3959   4.4655   5.0464   5.2005
     7.3658   8.9753   9.4449   9.8301  10.0675  10.3931  10.5224  11.8584
    16.6066  17.0971  17.9309  18.8324  18.9821  19.2767  19.3567  19.9432
    20.0126  20.5889  20.7793  21.3182  21.5710  22.3141  22.3868  22.6940
    23.2957  23.5384  23.6052  23.6911  24.3897  24.6251  25.7742  25.9713
    26.1928  27.3593  27.5423  27.9859  28.4405  28.6499  28.9442  30.1037

          k = 0.0000 0.2887 0.8874 (  5224 PWs)   bands (ev):

   -10.1591  -8.7384  -8.3323  -7.9337  -6.7204  -6.1242  -5.0811  -4.9132
    -2.4584  -2.3216  -0.7483  -0.6657  -0.4508   0.1030   0.9737   1.3759
     1.5962   2.5855   2.7044   3.1419   3.4648   3.6268   4.7757   4.9189
     7.7047   8.0068   9.0144   9.5943   9.7261  10.1123  10.2585  11.5635
    16.5134  16.6476  17.8768  18.0244  18.4578  18.6431  19.7210  20.0171
    20.2728  20.6096  20.7535  21.6660  21.7013  22.5284  23.0966  23.3168
    23.9913  24.3119  24.5205  25.0037  25.1983  25.3043  25.8006  26.3714
    26.6268  27.2932  27.6744  28.1071  28.6050  28.8931  29.2711  29.7180

          k = 0.0000 0.2887 1.1092 (  5233 PWs)   bands (ev):

    -9.1379  -7.8688  -7.3420  -7.3070  -6.1801  -6.0524  -5.2392  -4.9682
    -3.3420  -3.0787  -2.0833  -1.7845  -0.6800   0.1769   0.3402   1.4956
     1.6946   2.2731   2.5780   3.0866   3.4767   3.6511   4.3825   4.5202
     7.4375   7.6577   9.1040   9.5063   9.6599   9.8820  10.0830  11.0241
    16.3521  16.5978  17.0857  17.5354  18.2151  18.5875  19.6564  19.8743
    20.3289  20.5224  21.0400  21.2701  21.4260  22.6279  23.3051  23.6983
    24.4139  24.4611  24.9655  25.3981  25.7178  26.1500  26.2420  26.5525
    26.8780  27.4682  28.3939  28.5822  29.0491  29.2526  29.5942  29.8073

          k = 0.0000 0.2887-1.3310 (  5238 PWs)   bands (ev):

    -8.0994  -8.0993  -6.5922  -6.5922  -6.4152  -6.4152  -5.2049  -5.2049
    -3.2305  -3.2304  -2.7797  -2.7797  -0.3797  -0.3797   0.9249   0.9249
     2.1511   2.1511   2.5950   2.5950   3.9478   3.9478   4.0478   4.0478
     7.3967   7.3967   9.3864   9.3864   9.7572   9.7572  10.3618  10.3618
    16.5015  16.5015  16.8817  16.8817  18.6412  18.6412  19.4516  19.4516
    20.4667  20.4667  21.1999  21.1999  21.7736  21.7736  23.9202  23.9202
    24.3601  24.3601  25.2749  25.2749  25.9179  25.9179  26.4351  26.4351
    27.3219  27.3219  28.9600  28.9600  29.1937  29.1937  30.0298  30.0298

          k = 0.0000-0.5774 0.0000 (  5184 PWs)   bands (ev):

   -11.6568 -11.4341 -10.3958  -9.7128  -8.0567  -6.9140  -5.6842  -5.4517
    -3.4717  -1.5410  -0.9519   1.0879   2.2190   2.3294   3.4340   3.6350
     3.9830   4.1845   4.6537   4.7892   5.7221   5.8910   6.1898   7.0533
     7.9237   8.2108   9.7495  10.1224  10.4069  11.4459  12.4337  12.5157
    16.3968  16.5682  16.6846  16.9843  17.4232  17.5014  17.6181  19.2493
    19.3379  20.1474  20.4880  20.5452  20.9765  21.2285  22.2967  22.5294
    22.6656  22.8736  23.1185  23.2807  23.9650  24.4329  24.4915  26.0292
    26.3457  26.3469  27.5207  27.7216  27.9902  28.6842  29.3272  29.8740

          k = 0.0000-0.5774 0.2218 (  5208 PWs)   bands (ev):

   -11.5312 -11.3069 -10.2701  -9.5953  -7.9400  -6.8035  -5.6069  -5.3810
    -3.3868  -1.4955  -0.8690   1.1576   2.2229   2.3465   3.1849   3.3786
     3.5638   3.8344   4.1772   4.6671   5.3130   5.7154   5.7409   6.5137
     7.9371   8.3084   9.8021  10.1037  10.4132  11.3412  12.0398  12.1929
    16.6708  17.0564  17.3088  17.4022  17.8918  17.9388  18.0371  18.9353
    19.7306  19.9368  20.4637  20.5556  21.1523  21.4166  22.1820  22.4344
    22.5599  22.9575  23.0038  23.3555  23.8324  24.1294  24.7481  26.2494
    26.3374  26.5748  27.5959  27.6596  28.1976  28.8045  29.2058  29.8903

          k = 0.0000-0.5774 0.4437 (  5204 PWs)   bands (ev):

   -11.1576 -10.9277  -9.8952  -9.2480  -7.5952  -6.4791  -5.4006  -5.1952
    -3.1556  -1.4323  -0.6510   1.2474   1.8179   2.0980   2.2007   2.3599
     2.9540   3.1778   3.8478   3.8778   4.6901   4.7773   5.1983   5.7554
     7.9420   8.5067   9.7574   9.9003  10.4272  10.8270  11.1956  11.7382
    16.2792  17.6463  18.2714  18.3089  18.8105  18.9605  19.0852  19.9057
    19.9438  20.0671  20.5738  20.9275  21.1653  21.5521  21.7138  22.5723
    22.6154  22.9994  23.0841  23.1739  23.8051  23.9474  25.2434  26.3247
    26.3489  27.0878  27.5639  27.7120  28.6501  28.9760  28.9893  30.0651

          k = 0.0000-0.5774 0.6655 (  5210 PWs)   bands (ev):

   -10.5470 -10.3056  -9.2794  -8.6904  -7.0446  -5.9719  -5.1700  -4.9938
    -2.8818  -1.6794  -0.4864   0.3641   0.8935   0.9096   1.2937   1.6341
     2.4784   3.0962   3.1272   3.1773   3.7228   4.2870   5.0181   5.2817
     7.9023   8.6335   9.2577   9.4637  10.1613  10.3971  10.7055  11.4577
    16.0497  16.9726  18.0993  18.6466  19.1821  19.4022  19.6981  20.1831
    20.2234  21.0203  21.1807  21.5051  21.6517  21.8746  22.1132  22.5368
    22.7824  23.2610  23.5716  23.8579  24.3765  24.4953  25.7955  26.1828
    26.4944  27.1081  27.5923  27.6942  28.6648  28.9812  29.1202  29.7964

          k = 0.0000-0.5774 0.8874 (  5216 PWs)   bands (ev):

    -9.7257  -9.4621  -8.4429  -7.9775  -6.3793  -5.3972  -5.1858  -4.9798
    -2.8016  -2.5773  -0.9832  -0.4736  -0.3852   0.3622   0.4025   1.1466
     1.7432   2.7215   2.9620   2.9750   3.5555   3.9350   4.7666   4.9369
     7.8001   8.0364   9.0893   9.2756   9.7769  10.2023  10.6374  11.1528
    16.1988  16.5590  17.8062  17.8299  18.4750  19.1513  19.6202  20.1889
    20.1965  20.3518  21.2974  21.5598  21.6842  22.5027  22.7317  23.0126
    23.8831  24.4039  24.6514  24.9073  25.1899  25.4007  26.1893  26.2907
    26.6356  27.3119  27.9995  28.0397  28.5191  28.9825  29.4897  29.8080

          k = 0.0000-0.5774 1.1092 (  5236 PWs)   bands (ev):

    -8.7631  -8.4690  -7.4406  -7.3006  -6.0773  -5.8802  -5.1008  -5.0218
    -3.4891  -2.7233  -1.8737  -1.5138  -0.7432  -0.3556   0.0008   1.1419
     1.5963   2.4346   2.4756   3.1469   3.7207   3.7465   4.4094   4.6107
     7.5482   7.6376   9.0615   9.4069   9.6845  10.0231  10.5870  10.7993
    16.4421  16.6986  17.0182  17.7631  18.0286  18.2371  19.2874  19.5527
    20.2968  20.3906  20.8789  21.0590  21.7195  22.5012  23.4811  23.5071
    24.5765  24.6185  25.0365  25.3435  25.8702  26.2003  26.4633  26.4724
    27.1202  27.4991  28.5994  28.6598  29.0525  29.1687  29.7406  29.9781

          k = 0.0000-0.5774-1.3310 (  5224 PWs)   bands (ev):

    -7.9584  -7.9584  -6.8724  -6.8724  -6.4797  -6.4797  -5.1703  -5.1703
    -3.1321  -3.1321  -2.0735  -2.0735  -0.9377  -0.9377   0.6251   0.6251
     1.9820   1.9821   2.6970   2.6970   4.0257   4.0257   4.1735   4.1735
     7.4850   7.4850   9.2558   9.2558   9.8666   9.8666  10.5772  10.5772
    16.5767  16.5767  17.4161  17.4161  17.8616  17.8616  19.0949  19.0949
    20.3875  20.3875  20.8341  20.8341  21.9966  21.9966  23.8445  23.8445
    24.7573  24.7573  25.1318  25.1318  26.1633  26.1633  26.5668  26.5668
    27.3359  27.3359  28.9191  28.9191  29.5935  29.5935  29.9080  29.9080

          k = 0.2500 0.4330 0.0000 (  5182 PWs)   bands (ev):

   -11.7565 -11.0505 -10.9190  -9.1941  -8.4859  -6.7793  -5.5940  -5.4628
    -3.5836  -1.4406  -0.9762   0.8700   2.2759   2.7638   3.2103   3.8062
     3.9348   4.3558   4.3675   4.4928   5.8546   6.0217   6.0885   7.0608
     7.6458   8.9522   9.3078   9.9931  10.7159  11.2482  12.4235  12.5301
    16.3944  16.7143  16.7435  16.9430  17.3258  17.4713  17.5628  19.3206
    19.5209  20.2020  20.2133  20.3769  21.1493  21.3924  22.1536  22.2218
    22.7861  23.0656  23.1265  23.4527  23.5715  24.6551  24.8242  25.2314
    26.5234  26.8878  27.1716  27.7700  28.2213  28.3655  29.3059  30.2470

          k = 0.2500 0.4330 0.2218 (  5197 PWs)   bands (ev):

   -11.6300 -10.9262 -10.7921  -9.0769  -8.3689  -6.6675  -5.5187  -5.3907
    -3.5023  -1.3812  -0.9037   0.9447   2.2641   2.7078   3.1084   3.4120
     3.6990   3.8084   4.0731   4.3364   5.4118   5.6056   5.8339   6.5465
     7.7039   8.9531   9.3387  10.0600  10.7021  11.1850  12.0353  12.1673
    16.6677  17.1527  17.3680  17.4201  17.8002  17.8525  18.0167  19.1596
    19.7111  19.7610  20.3925  20.6349  21.1678  21.5312  22.0313  22.2719
    22.7288  22.8455  23.2181  23.3393  23.7008  24.2361  25.1027  25.3311
    26.6449  26.9887  27.3099  27.7667  28.3709  28.5162  29.2485  30.2386

          k = 0.2500 0.4330 0.4437 (  5208 PWs)   bands (ev):

   -11.2534 -10.5566 -10.4133  -8.7302  -8.0231  -6.3393  -5.3178  -5.2006
    -3.2858  -1.2645  -0.7302   1.0609   1.7815   2.1850   2.2323   2.5785
     2.8170   3.4293   3.6882   3.8702   4.6564   4.8556   4.9155   5.8900
     7.7978   8.8694   9.3644  10.1424  10.5114  10.7556  11.2087  11.6422
    16.2419  17.8585  18.1891  18.5365  18.7228  18.8191  19.0687  19.7009
    19.8133  20.1940  20.5575  20.9533  21.3881  21.5710  21.7758  22.3301
    22.5571  22.9419  23.1778  23.3224  23.7965  24.0055  25.4566  25.5770
    26.6778  27.1258  27.4501  27.9351  28.6940  28.8402  29.0381  30.2441

          k = 0.2500 0.4330 0.6655 (  5223 PWs)   bands (ev):

   -10.6368  -9.9543  -9.7901  -8.1733  -7.4693  -5.8290  -5.1019  -4.9815
    -3.0596  -1.3976  -0.7200   0.3478   0.8305   1.1101   1.3515   1.6226
     2.1506   3.0144   3.2998   3.4173   3.8073   4.2424   4.7232   5.4314
     7.8623   8.5448   9.3128   9.7458  10.0146  10.3037  10.7658  11.4111
    16.0046  17.2396  17.9027  18.8941  18.9808  19.1092  19.8154  20.0995
    20.4209  20.7797  21.3249  21.4814  21.7140  22.0378  22.0873  22.4340
    23.0190  23.1305  23.3612  24.0815  24.3459  24.5711  25.8162  25.9826
    26.4211  27.2711  27.3402  27.7879  28.7535  28.9211  29.1326  30.1005

          k = 0.2500 0.4330 0.8874 (  5229 PWs)   bands (ev):

    -9.8042  -9.1519  -8.9387  -7.4640  -6.7796  -5.2787  -5.1784  -4.8932
    -3.1140  -2.1658  -1.3677  -0.4126  -0.0654   0.0675   0.8136   1.0502
     1.4509   2.6219   2.8035   3.3301   3.7709   3.8791   4.5540   5.0229
     7.7701   7.9840   9.0995   9.4367   9.7123  10.1980  10.5618  11.1789
    16.1388  16.7993  17.6059  18.0258  18.4013  18.9016  19.6705  19.9872
    20.2266  20.8332  21.2200  21.2981  21.4687  22.6934  22.9335  23.1952
    23.8163  24.2340  24.6688  24.9827  25.3732  25.4873  25.9527  26.2562
    26.5700  27.3749  27.5557  28.0641  28.8085  28.9896  29.5235  29.9955

          k = 0.2500 0.4330 1.1092 (  5228 PWs)   bands (ev):

    -8.8198  -8.2611  -7.8958  -6.8377  -6.3072  -5.7718  -5.1503  -5.0792
    -3.1100  -2.9654  -2.2226  -1.1212  -0.9088  -0.3367   0.1851   1.2219
     1.4022   1.8762   3.0465   3.3396   3.4028   3.9393   4.3186   4.5923
     7.5153   7.6555   9.1199   9.2900   9.8259  10.0608  10.4040  10.8571
    16.5236  16.6764  17.0494  17.8225  17.9706  18.2698  19.2432  19.4982
    20.1679  20.4359  20.8857  20.9241  21.6190  22.6478  23.6915  23.8591
    24.0408  24.9836  25.2838  25.3699  25.6592  26.0733  26.3239  26.6090
    26.9242  27.3292  28.5180  28.7086  29.1246  29.3877  29.7718  30.0222

          k = 0.2500 0.4330-1.3310 (  5228 PWs)   bands (ev):

    -7.9617  -7.9617  -6.7932  -6.7932  -6.5848  -6.5848  -5.1193  -5.1193
    -3.1594  -3.1594  -2.1172  -2.1172  -0.8774  -0.8774   0.7597   0.7597
     1.6170   1.6170   2.9936   2.9936   4.0095   4.0095   4.1089   4.1089
     7.4900   7.4900   9.2354   9.2354   9.9393   9.9393  10.5135  10.5135
    16.6286  16.6286  17.3159  17.3159  18.0098  18.0098  19.0834  19.0834
    20.2151  20.2151  20.7700  20.7700  22.0733  22.0733  24.0417  24.0417
    24.7595  24.7595  25.2797  25.2797  25.9207  25.9207  26.6550  26.6550
    27.0965  27.0965  29.1911  29.1911  29.4011  29.4011  30.0015  30.0015

     the Fermi energy is    14.4815 ev

!    total energy              =    -227.06674899 Ry
     estimated scf accuracy    <          6.7E-12 Ry
     smearing contrib. (-TS)   =      -0.00000000 Ry
     internal energy E=F+TS    =    -227.06674899 Ry

     The total energy is F=E-TS. E is the sum of the following terms:
     one-electron contribution =       1.46774217 Ry
     hartree contribution      =      43.44002000 Ry
     xc contribution           =     -62.41502223 Ry
     ewald contribution        =    -209.55948893 Ry

     convergence has been achieved in  10 iterations

     Writing all to output data dir out/mp-1985.save/
 
     init_run     :      0.82s CPU      0.85s WALL (       1 calls)
     electrons    :     43.59s CPU     44.96s WALL (       1 calls)

     Called by init_run:
     wfcinit      :      0.73s CPU      0.75s WALL (       1 calls)
     potinit      :      0.03s CPU      0.03s WALL (       1 calls)
     hinit0       :      0.02s CPU      0.02s WALL (       1 calls)

     Called by electrons:
     c_bands      :     41.03s CPU     42.28s WALL (      10 calls)
     sum_band     :      2.50s CPU      2.59s WALL (      10 calls)
     v_of_rho     :      0.06s CPU      0.06s WALL (      11 calls)
     mix_rho      :      0.01s CPU      0.01s WALL (      10 calls)

     Called by c_bands:
     init_us_2    :      0.18s CPU      0.21s WALL (     588 calls)
     init_us_2:cp :      0.18s CPU      0.20s WALL (     588 calls)
     cegterg      :     40.20s CPU     41.29s WALL (     281 calls)

     Called by *egterg:
     cdiaghg      :     11.01s CPU     11.17s WALL (    2077 calls)
     h_psi        :     22.35s CPU     23.16s WALL (    2106 calls)
     g_psi        :      0.21s CPU      0.21s WALL (    1797 calls)

     Called by h_psi:
     h_psi:calbec :      1.68s CPU      1.74s WALL (    2106 calls)
     vloc_psi     :     19.07s CPU     19.78s WALL (    2106 calls)
     add_vuspsi   :      1.44s CPU      1.45s WALL (    2106 calls)

     General routines
     calbec       :      1.68s CPU      1.73s WALL (    2106 calls)
     fft          :      0.02s CPU      0.03s WALL (     109 calls)
     ffts         :      0.00s CPU      0.00s WALL (      10 calls)
     fftw         :     19.06s CPU     19.75s WALL (  161148 calls)
 
     Parallel routines
 
     PWSCF        :     44.58s CPU     46.13s WALL

 
   This run was terminated on:  14:31:38   3Jan2024            

=------------------------------------------------------------------------------=
   JOB DONE.
=------------------------------------------------------------------------------=
