
     Program PWSCF v.7.1 starts on  3Jan2024 at 14:32:33 

     This program is part of the open-source Quantum ESPRESSO suite
     for quantum simulation of materials; please cite
         "P. Giannozzi et al., J. Phys.:Condens. Matter 21 395502 (2009);
         "P. Giannozzi et al., J. Phys.:Condens. Matter 29 465901 (2017);
         "P. Giannozzi et al., J. Chem. Phys. 152 154105 (2020);
          URL http://www.quantum-espresso.org", 
     in publications or presentations arising from this work. More details at
     http://www.quantum-espresso.org/quote

     Parallel version (MPI), running on     8 processors

     MPI processes distributed on     1 nodes
     247490 MiB available memory on the printing compute node when the environment starts
 
     Reading input from pw_mp-1143_scf_k4500_E75.in
Warning: card &CELL ignored
Warning: card / ignored

     Current dimensions of program PWSCF are:
     Max number of different atomic species (ntypx) = 10
     Max number of k-points (npk) =  40000
     Max angular momentum in pseudopotentials (lmaxx) =  4
 
     R & G space division:  proc/nbgrp/npool/nimage =       8
     Subspace diagonalization in iterative solution of the eigenvalue problem:
     a serial algorithm will be used

 
     Parallelization info
     --------------------
     sticks:   dense  smooth     PW     G-vecs:    dense   smooth      PW
     Min         233     233     69                 6462     6462    1026
     Max         234     234     70                 6464     6464    1028
     Sum        1867    1867    553                51705    51705    8215
 
     Using Slab Decomposition
 


     bravais-lattice index     =            5
     lattice parameter (alat)  =       9.7849  a.u.
     unit-cell volume          =     589.9394 (a.u.)^3
     number of atoms/cell      =           10
     number of atomic types    =            2
     number of electrons       =        80.00
     number of Kohn-Sham states=           80
     kinetic-energy cutoff     =      75.0000  Ry
     charge density cutoff     =     300.0000  Ry
     scf convergence threshold =      1.0E-10
     mixing beta               =       0.7000
     number of iterations used =            8  plain     mixing
     Exchange-correlation= PBE
                           (   1   4   3   4   0   0   0)

     celldm(1)=   9.784916  celldm(2)=   0.000000  celldm(3)=   0.000000
     celldm(4)=   0.569429  celldm(5)=   0.000000  celldm(6)=   0.000000

     crystal axes: (cart. coord. in units of alat)
               a(1) = (   0.463989  -0.267884   0.844365 )  
               a(2) = (   0.000000   0.535768   0.844365 )  
               a(3) = (  -0.463989  -0.267884   0.844365 )  

     reciprocal axes: (cart. coord. in units 2 pi/alat)
               b(1) = (  1.077612 -0.622160  0.394774 )  
               b(2) = (  0.000000  1.244319  0.394774 )  
               b(3) = ( -1.077612 -0.622160  0.394774 )  


     PseudoPot. # 1 for Al read from file:
     /usr/scratch4/magr4985/MG/devEb/pseudo/SG15/Al.upf
     MD5 check sum: 61098d588df6d88baccfd5e59f8f1e90
     Pseudo is Norm-conserving, Zval = 11.0
     Generated using ONCVPSP code by D. R. Hamann
     Using radial grid of  602 points,  4 beta functions with: 
                l(1) =   0
                l(2) =   0
                l(3) =   1
                l(4) =   1

     PseudoPot. # 2 for O  read from file:
     /usr/scratch4/magr4985/MG/devEb/pseudo/SG15/O.upf
     MD5 check sum: 9d2d0a8c71a1ad34a0c43284618bc51d
     Pseudo is Norm-conserving, Zval =  6.0
     Generated using ONCVPSP code by D. R. Hamann
     Using radial grid of  602 points,  4 beta functions with: 
                l(1) =   0
                l(2) =   0
                l(3) =   1
                l(4) =   1

     atomic species   valence    mass     pseudopotential
        Al            11.00    26.98150     Al( 1.00)
        O              6.00    15.99940     O ( 1.00)

     12 Sym. Ops., with inversion, found ( 6 have fractional translation)



   Cartesian axes

     site n.     atom                  positions (alat units)
         1           Al  tau(   1) = (   0.0000000   0.0000000   1.6412026  )
         2           Al  tau(   2) = (   0.0000000  -0.0000000   2.1584404  )
         3           Al  tau(   3) = (   0.0000000  -0.0000000   0.3746550  )
         4           Al  tau(   4) = (   0.0000000  -0.0000000   0.8918928  )
         5           O   tau(   5) = (  -0.1420481  -0.2897336   1.0554564  )
         6           O   tau(   6) = (   0.1798927  -0.2678841   1.4776390  )
         7           O   tau(   7) = (  -0.1798926   0.2678841   1.0554564  )
         8           O   tau(   8) = (   0.3219408   0.0218496   1.0554564  )
         9           O   tau(   9) = (  -0.3219408  -0.0218495   1.4776390  )
        10           O   tau(  10) = (   0.1420481   0.2897337   1.4776390  )

     number of k points=    65  Gaussian smearing, width (Ry)=  0.0005
                       cart. coord. in units 2pi/alat
        k(    1) = (   0.0000000   0.0000000   0.0000000), wk =   0.0039062
        k(    2) = (  -0.1347015  -0.0777699   0.0493467), wk =   0.0234375
        k(    3) = (  -0.2694030  -0.1555399   0.0986935), wk =   0.0234375
        k(    4) = (  -0.4041045  -0.2333098   0.1480402), wk =   0.0234375
        k(    5) = (   0.5388060   0.3110798  -0.1973870), wk =   0.0117188
        k(    6) = (  -0.1347015   0.0777699   0.0986935), wk =   0.0234375
        k(    7) = (  -0.2694030   0.0000000   0.1480402), wk =   0.0468750
        k(    8) = (  -0.4041045  -0.0777699   0.1973870), wk =   0.0468750
        k(    9) = (   0.5388060   0.4666197  -0.1480402), wk =   0.0468750
        k(   10) = (   0.4041045   0.3888497  -0.0986935), wk =   0.0468750
        k(   11) = (   0.2694030   0.3110798  -0.0493467), wk =   0.0468750
        k(   12) = (   0.1347015   0.2333098   0.0000000), wk =   0.0234375
        k(   13) = (  -0.2694030   0.1555399   0.1973870), wk =   0.0234375
        k(   14) = (  -0.4041045   0.0777699   0.2467337), wk =   0.0468750
        k(   15) = (   0.5388060   0.6221596  -0.0986935), wk =   0.0468750
        k(   16) = (   0.4041045   0.5443896  -0.0493467), wk =   0.0468750
        k(   17) = (   0.2694030   0.4666197   0.0000000), wk =   0.0234375
        k(   18) = (  -0.4041045   0.2333098   0.2960805), wk =   0.0234375
        k(   19) = (   0.5388060   0.7776995  -0.0493467), wk =   0.0468750
        k(   20) = (   0.4041045   0.6999295   0.0000000), wk =   0.0234375
        k(   21) = (   0.5388060  -0.3110798  -0.3947739), wk =   0.0117188
        k(   22) = (   0.0000000   0.0000000   0.1480402), wk =   0.0078125
        k(   23) = (  -0.1347015  -0.0777699   0.1973870), wk =   0.0234375
        k(   24) = (  -0.2694030  -0.1555399   0.2467337), wk =   0.0234375
        k(   25) = (   0.6735075   0.3888497  -0.0986935), wk =   0.0234375
        k(   26) = (   0.5388060   0.3110798  -0.0493467), wk =   0.0234375
        k(   27) = (   0.4041045   0.2333098   0.0000000), wk =   0.0234375
        k(   28) = (   0.2694030   0.1555399   0.0493467), wk =   0.0234375
        k(   29) = (  -0.1347015   0.0777699   0.2467337), wk =   0.0234375
        k(   30) = (  -0.2694030   0.0000000   0.2960805), wk =   0.0468750
        k(   31) = (   0.6735075   0.5443896  -0.0493467), wk =   0.0468750
        k(   32) = (   0.5388060   0.4666197   0.0000000), wk =   0.0468750
        k(   33) = (   0.4041045   0.3888497   0.0493467), wk =   0.0468750
        k(   34) = (   0.2694030   0.3110798   0.0986935), wk =   0.0468750
        k(   35) = (  -0.2694030   0.1555399   0.3454272), wk =   0.0234375
        k(   36) = (   0.6735075   0.6999295   0.0000000), wk =   0.0468750
        k(   37) = (   0.5388060   0.6221596   0.0493467), wk =   0.0468750
        k(   38) = (   0.4041045   0.5443896   0.0986935), wk =   0.0468750
        k(   39) = (   0.2694030   0.4666197   0.1480402), wk =   0.0468750
        k(   40) = (   0.6735075  -0.3888497  -0.3454272), wk =   0.0234375
        k(   41) = (   0.5388060  -0.4666197  -0.2960805), wk =   0.0468750
        k(   42) = (   0.4041045  -0.5443896  -0.2467337), wk =   0.0468750
        k(   43) = (   0.2694030  -0.6221596  -0.1973870), wk =   0.0234375
        k(   44) = (   0.5388060  -0.3110798  -0.2467337), wk =   0.0234375
        k(   45) = (   0.4041045  -0.3888497  -0.1973870), wk =   0.0468750
        k(   46) = (   0.4041045  -0.2333098  -0.1480402), wk =   0.0234375
        k(   47) = (   0.0000000   0.0000000   0.2960805), wk =   0.0078125
        k(   48) = (  -0.1347015  -0.0777699   0.3454272), wk =   0.0234375
        k(   49) = (   0.8082090   0.4666197   0.0000000), wk =   0.0234375
        k(   50) = (   0.6735075   0.3888497   0.0493467), wk =   0.0234375
        k(   51) = (   0.5388060   0.3110798   0.0986935), wk =   0.0234375
        k(   52) = (  -0.1347015   0.0777699   0.3947739), wk =   0.0234375
        k(   53) = (   0.8082090   0.6221596   0.0493467), wk =   0.0468750
        k(   54) = (   0.6735075   0.5443896   0.0986935), wk =   0.0468750
        k(   55) = (   0.5388060   0.4666197   0.1480402), wk =   0.0468750
        k(   56) = (   0.8082090  -0.4666197  -0.2960805), wk =   0.0234375
        k(   57) = (   0.6735075  -0.5443896  -0.2467337), wk =   0.0468750
        k(   58) = (   0.5388060  -0.6221596  -0.1973870), wk =   0.0234375
        k(   59) = (   0.6735075  -0.3888497  -0.1973870), wk =   0.0234375
        k(   60) = (   0.0000000   0.0000000   0.4441207), wk =   0.0078125
        k(   61) = (   0.9429105   0.5443896   0.0986935), wk =   0.0234375
        k(   62) = (   0.8082090   0.4666197   0.1480402), wk =   0.0234375
        k(   63) = (   0.9429105  -0.5443896  -0.2467337), wk =   0.0234375
        k(   64) = (   0.8082090  -0.6221596  -0.1973870), wk =   0.0234375
        k(   65) = (   0.0000000   0.0000000  -0.5921609), wk =   0.0039062

     Dense  grid:    51705 G-vectors     FFT dimensions: (  54,  54,  54)

     Estimated max dynamical RAM per process >      76.38 MB

     Estimated total dynamical RAM >     611.04 MB

     Initial potential from superposition of free atoms

     starting charge      79.6682, renormalised to      80.0000
     Starting wfcs are random

     total cpu time spent up to now is        3.7 secs

     Self-consistent Calculation

     iteration #  1     ecut=    75.00 Ry     beta= 0.70
     Davidson diagonalization with overlap
     ethr =  5.00E-06,  avg # of iterations = 15.7

     total cpu time spent up to now is       58.7 secs

     total energy              =    -745.92543292 Ry
     estimated scf accuracy    <       1.86402333 Ry

     iteration #  2     ecut=    75.00 Ry     beta= 0.70
     Davidson diagonalization with overlap
     ethr =  2.33E-03,  avg # of iterations =  2.1

     total cpu time spent up to now is       72.8 secs

     total energy              =    -746.44026015 Ry
     estimated scf accuracy    <       1.16678785 Ry

     iteration #  3     ecut=    75.00 Ry     beta= 0.70
     Davidson diagonalization with overlap
     ethr =  1.46E-03,  avg # of iterations =  2.0

     total cpu time spent up to now is       83.3 secs

     total energy              =    -746.66815362 Ry
     estimated scf accuracy    <       0.00697937 Ry

     iteration #  4     ecut=    75.00 Ry     beta= 0.70
     Davidson diagonalization with overlap
     ethr =  8.72E-06,  avg # of iterations =  6.4

     total cpu time spent up to now is      100.9 secs

     total energy              =    -746.66992232 Ry
     estimated scf accuracy    <       0.00031404 Ry

     iteration #  5     ecut=    75.00 Ry     beta= 0.70
     Davidson diagonalization with overlap
     c_bands:  1 eigenvalues not converged
     ethr =  3.93E-07,  avg # of iterations =  5.3

     total cpu time spent up to now is      113.7 secs

     total energy              =    -746.66994946 Ry
     estimated scf accuracy    <       0.00001125 Ry

     iteration #  6     ecut=    75.00 Ry     beta= 0.70
     Davidson diagonalization with overlap
     c_bands:  1 eigenvalues not converged
     ethr =  1.41E-08,  avg # of iterations =  6.8

     total cpu time spent up to now is      131.2 secs

     total energy              =    -746.66995141 Ry
     estimated scf accuracy    <       0.00000019 Ry

     iteration #  7     ecut=    75.00 Ry     beta= 0.70
     Davidson diagonalization with overlap
     c_bands:  1 eigenvalues not converged
     c_bands:  1 eigenvalues not converged
     ethr =  2.31E-10,  avg # of iterations =  7.7

     total cpu time spent up to now is      149.3 secs

     total energy              =    -746.66995145 Ry
     estimated scf accuracy    <          6.6E-09 Ry

     iteration #  8     ecut=    75.00 Ry     beta= 0.70
     Davidson diagonalization with overlap
     c_bands:  1 eigenvalues not converged
     ethr =  8.20E-12,  avg # of iterations =  7.0

     total cpu time spent up to now is      165.9 secs

     total energy              =    -746.66995145 Ry
     estimated scf accuracy    <          2.9E-10 Ry

     iteration #  9     ecut=    75.00 Ry     beta= 0.70
     Davidson diagonalization with overlap
     ethr =  3.57E-13,  avg # of iterations =  5.8

     total cpu time spent up to now is      182.9 secs

     End of self-consistent calculation

          k = 0.0000 0.0000 0.0000 (  6539 PWs)   bands (ev):

   -90.9069 -90.9053 -90.9050 -90.9036 -52.3545 -52.3516 -52.3383 -52.3377
   -52.3347 -52.3347 -52.3336 -52.3336 -52.3241 -52.3241 -52.3232 -52.3232
    -9.3373  -7.1005  -6.8352  -6.8352  -6.5309  -6.5309   2.8974   3.8628
     4.2563   4.2563   5.3479   5.4843   5.4843   6.4600   6.7427   8.2670
     8.2670   8.4143   8.4143   9.1860   9.1860   9.6054   9.6054   9.6355
    15.5484  18.5864  20.0864  20.9763  20.9763  21.1063  21.8659  21.8659
    21.9654  22.8516  24.0146  24.0146  24.1938  24.2064  24.2064  25.2164
    25.4573  27.7504  27.7504  28.3318  28.3318  29.4061  29.4801  29.8023
    29.9402  29.9402  30.3998  30.3998  33.3024  33.3024  33.3161  33.5473
    33.5473  33.9938  36.2448  36.2448  36.2963  37.4923  37.4923  38.6399

          k =-0.1347-0.0778 0.0493 (  6506 PWs)   bands (ev):

   -90.9068 -90.9053 -90.9050 -90.9036 -52.3544 -52.3516 -52.3384 -52.3378
   -52.3347 -52.3346 -52.3337 -52.3331 -52.3241 -52.3240 -52.3237 -52.3231
    -9.2588  -7.1270  -6.8920  -6.8514  -6.5691  -6.5354   2.9851   3.6768
     4.1493   4.6580   4.9314   5.4154   6.0739   6.7889   6.9232   7.9520
     8.2517   8.3211   8.4852   9.0041   9.0568   9.3912   9.5915   9.6131
    15.9217  18.8769  19.8109  20.7890  20.8266  21.0883  21.7332  22.0332
    22.3853  22.5616  23.9425  23.9785  24.0205  24.0902  24.3511  25.0718
    25.3176  27.6526  27.8175  27.9282  28.4804  28.6759  28.8711  29.7185
    29.7647  30.0728  30.9714  31.3684  32.8344  32.8657  33.7360  34.1141
    34.4605  34.4771  36.2623  36.2854  36.7110  37.6515  38.2347  38.4496

          k =-0.2694-0.1555 0.0987 (  6497 PWs)   bands (ev):

   -90.9066 -90.9053 -90.9049 -90.9038 -52.3540 -52.3518 -52.3385 -52.3382
   -52.3349 -52.3343 -52.3338 -52.3319 -52.3252 -52.3242 -52.3236 -52.3229
    -9.0303  -7.3451  -6.9077  -6.8795  -6.6622  -6.5632   3.1671   3.6710
     3.8843   4.7215   5.1973   5.5993   6.8314   7.0384   7.4028   7.6305
     7.8933   8.2429   8.3105   8.3887   8.9200   9.2230   9.5074   9.5412
    16.8012  19.4375  19.5497  20.2244  20.3561  20.8548  21.9788  22.2379
    22.3465  22.6171  23.4660  23.5753  23.8540  24.2542  24.4685  24.8188
    25.2626  26.4622  27.4568  27.6997  27.9834  28.4611  29.0242  29.7410
    30.3793  30.4956  30.7400  32.1119  32.9769  33.2416  33.7265  34.9818
    35.0542  36.2054  36.5257  37.0889  37.5872  37.8444  38.2011  38.3028

          k =-0.4041-0.2333 0.1480 (  6467 PWs)   bands (ev):

   -90.9062 -90.9055 -90.9047 -90.9041 -52.3534 -52.3522 -52.3386 -52.3385
   -52.3349 -52.3346 -52.3327 -52.3307 -52.3265 -52.3249 -52.3232 -52.3228
    -8.6735  -7.7561  -6.8850  -6.8302  -6.7672  -6.6290   3.2578   3.5872
     4.0754   4.7369   5.6555   6.0677   6.4857   7.1975   7.3449   7.6007
     7.8541   8.1549   8.2057   8.3263   8.7788   9.0657   9.4107   9.4432
    17.8364  19.1144  19.4008  19.6555  20.6156  21.0513  21.7243  21.7875
    22.4146  22.8406  22.9381  23.0177  23.9331  24.4181  24.7203  24.7716
    25.4999  25.5084  26.3333  27.1042  28.0006  28.9242  29.4711  29.8652
    30.3772  30.9924  31.4393  32.0264  32.8109  33.2849  34.8035  35.6099
    35.7898  36.4549  37.1205  37.2230  37.9159  38.1121  38.3145  38.4503

          k = 0.5388 0.3111-0.1974 (  6460 PWs)   bands (ev):

   -90.9059 -90.9059 -90.9044 -90.9044 -52.3528 -52.3528 -52.3387 -52.3387
   -52.3349 -52.3349 -52.3313 -52.3313 -52.3261 -52.3261 -52.3229 -52.3229
    -8.2283  -8.2283  -6.8479  -6.8479  -6.7260  -6.7260   3.3706   3.3706
     4.5831   4.5831   6.1561   6.1562   6.3408   6.3408   7.5159   7.5159
     8.1578   8.1578   8.3578   8.3578   8.7866   8.7866   9.3940   9.3940
    18.8200  18.8201  19.0514  19.0514  21.2948  21.2948  21.5436  21.5436
    22.3519  22.3519  22.7530  22.7530  24.3700  24.3700  24.9511  24.9511
    25.2676  25.2676  26.3164  26.3164  28.5174  28.5174  29.7938  29.7938
    31.0674  31.0674  31.6545  31.6545  33.1054  33.1054  35.6651  35.6651
    36.0203  36.0203  37.1567  37.1567  37.7582  37.7582  38.3826  38.3826

          k =-0.1347 0.0778 0.0987 (  6502 PWs)   bands (ev):

   -90.9068 -90.9053 -90.9049 -90.9036 -52.3543 -52.3516 -52.3384 -52.3379
   -52.3350 -52.3342 -52.3335 -52.3335 -52.3243 -52.3237 -52.3235 -52.3233
    -9.2371  -7.1469  -6.9010  -6.8484  -6.5986  -6.5226   3.0546   3.6716
     4.2133   4.6365   4.9945   5.3816   6.0539   6.8065   6.9898   7.8111
     8.1857   8.4097   8.4139   9.0321   9.0737   9.2976   9.5522   9.6199
    16.0126  18.8836  19.7990  20.6575  21.1497  21.2808  21.3051  22.1083
    22.3845  22.6076  23.7277  23.9868  24.1513  24.1983  24.3032  25.1466
    25.2871  27.5867  27.7018  27.8431  28.3911  28.4174  29.0110  29.1583
    29.7481  30.9575  31.1873  31.4599  32.9476  32.9487  33.4493  33.6042
    34.5207  34.9406  36.2162  36.2211  36.8433  38.0024  38.3020  38.4910

          k =-0.2694 0.0000 0.1480 (  6490 PWs)   bands (ev):

   -90.9066 -90.9053 -90.9049 -90.9037 -52.3540 -52.3517 -52.3385 -52.3381
   -52.3352 -52.3341 -52.3336 -52.3324 -52.3247 -52.3244 -52.3233 -52.3231
    -9.0636  -7.2558  -6.9780  -6.8600  -6.7052  -6.5171   3.2597   3.6224
     4.0525   4.8258   5.0506   5.5190   6.5327   7.1047   7.2918   7.5225
     8.0447   8.1097   8.4007   8.5995   9.0024   9.0949   9.4629   9.5801
    16.6805  19.3672  19.6141  20.2582  20.5792  21.1271  21.6168  22.0739
    22.5831  22.6548  23.5043  23.6745  24.0288  24.2423  24.3500  25.0832
    25.1658  26.7438  27.4162  27.4918  27.8996  28.4703  28.7601  29.6275
    30.0298  30.9807  31.4394  32.0092  32.7715  33.4195  33.6964  34.1958
    35.2996  35.7826  36.4137  36.9720  37.2136  38.0246  38.2060  38.6134

          k =-0.4041-0.0778 0.1974 (  6468 PWs)   bands (ev):

   -90.9063 -90.9055 -90.9048 -90.9040 -52.3535 -52.3520 -52.3387 -52.3385
   -52.3351 -52.3346 -52.3329 -52.3308 -52.3263 -52.3249 -52.3231 -52.3228
    -8.7549  -7.5786  -6.9677  -6.8602  -6.8393  -6.5356   3.4151   3.7114
     3.9538   4.8130   5.4543   5.9265   6.5191   7.2446   7.3174   7.5219
     7.8281   8.0560   8.2904   8.3620   8.9007   9.0002   9.3611   9.4632
    17.5945  19.4285  19.5681  19.9237  20.1357  21.0469  21.2998  22.1286
    22.5364  22.9253  23.1255  23.2370  24.1694  24.2145  24.3091  24.9837
    25.4249  25.8175  26.4465  27.3809  27.4677  28.8725  29.1827  29.8118
    30.5816  31.1203  31.5899  32.1579  32.6401  33.3693  34.6426  35.0709
    35.7863  36.6162  36.8992  37.3477  37.7054  38.1725  38.3136  38.6218

          k = 0.5388 0.4666-0.1480 (  6457 PWs)   bands (ev):

   -90.9060 -90.9057 -90.9045 -90.9043 -52.3530 -52.3525 -52.3388 -52.3387
   -52.3351 -52.3348 -52.3317 -52.3303 -52.3269 -52.3259 -52.3230 -52.3226
    -8.3445  -8.0189  -6.9607  -6.8928  -6.8197  -6.5965   3.4694   3.5510
     4.4257   4.7384   5.8033   6.0232   6.3376   6.5583   7.4126   7.7150
     7.8328   8.2813   8.3404   8.4718   8.7952   8.8555   9.3218   9.3901
    18.4786  19.0379  19.1514  19.3393  20.6344  20.8886  21.5311  21.8711
    22.3397  22.7369  22.8113  23.1409  24.2648  24.3701  24.5319  25.0199
    25.2051  25.4106  26.2492  26.7586  27.9315  28.8332  29.3528  30.0925
    31.1606  31.5366  31.6640  31.9117  32.6717  33.1378  34.8832  35.1005
    36.0826  36.4095  37.3232  37.4084  37.6755  37.9492  38.2450  38.9045

          k = 0.4041 0.3888-0.0987 (  6459 PWs)   bands (ev):

   -90.9061 -90.9056 -90.9046 -90.9042 -52.3532 -52.3524 -52.3387 -52.3386
   -52.3353 -52.3345 -52.3316 -52.3305 -52.3269 -52.3258 -52.3229 -52.3227
    -8.4682  -7.8875  -7.0217  -6.8076  -6.7372  -6.6913   3.3567   3.6778
     4.2263   4.7152   5.8095   5.8200   6.5479   6.7753   7.3743   7.7182
     8.0791   8.1113   8.2780   8.3559   8.7040   9.0296   9.3678   9.4343
    18.2991  18.8849  19.2021  19.4431  20.5706  20.9677  21.4258  22.0752
    22.3927  22.5448  23.0267  23.1313  24.0710  24.5212  24.5599  24.9555
    25.0662  25.5100  26.2033  26.9341  28.3637  28.8087  29.4368  30.0861
    30.7327  31.1264  31.8162  32.0443  32.8273  33.0023  34.1452  34.7707
    35.9070  36.9074  37.1985  37.2736  37.8690  38.2430  38.4633  38.7914

          k = 0.2694 0.3111-0.0493 (  6460 PWs)   bands (ev):

   -90.9064 -90.9053 -90.9049 -90.9039 -52.3538 -52.3520 -52.3385 -52.3384
   -52.3353 -52.3341 -52.3329 -52.3311 -52.3262 -52.3248 -52.3230 -52.3230
    -8.8537  -7.4659  -7.0201  -6.7969  -6.7005  -6.6510   3.2733   3.6757
     3.9123   4.6772   5.3708   5.6639   7.1137   7.2895   7.4002   7.6559
     7.8228   7.9571   8.1279   8.3514   8.8275   9.1559   9.4622   9.5462
    17.3436  19.1188  19.7560  19.8212  20.1727  21.0641  21.5318  22.2172
    22.2460  22.8779  23.1668  23.5093  23.9150  24.2540  24.4382  24.9385
    25.3054  25.7719  26.8022  27.5914  28.1050  28.9050  29.4993  29.8168
    30.1761  30.6804  31.2033  31.8896  32.8903  33.1043  34.1820  34.2872
    35.0712  36.7825  37.4119  37.6444  37.9122  38.0731  38.5063  38.5897

          k = 0.1347 0.2333 0.0000 (  6487 PWs)   bands (ev):

   -90.9066 -90.9051 -90.9051 -90.9037 -52.3542 -52.3518 -52.3384 -52.3380
   -52.3351 -52.3341 -52.3336 -52.3325 -52.3246 -52.3243 -52.3235 -52.3231
    -9.1268  -7.1948  -6.9457  -6.8733  -6.5997  -6.5901   3.0936   3.5679
     4.0475   4.7491   5.1142   5.2757   6.6640   7.1206   7.2675   7.8048
     8.0594   8.0835   8.4667   8.5676   8.9563   9.2145   9.5573   9.6228
    16.4607  19.3569  19.4749  20.3164  20.4656  21.2768  21.8018  22.0492
    22.3941  22.4456  23.6852  23.8763  23.9009  24.2699  24.2711  25.0690
    25.0770  26.8599  27.8123  27.9257  28.0282  28.7116  29.0136  29.7458
    29.7576  30.1448  31.3049  31.4933  32.8008  33.2400  33.8011  34.0120
    34.8623  35.8441  36.3416  36.8550  37.1694  38.1588  38.3443  38.7988

          k =-0.2694 0.1555 0.1974 (  6487 PWs)   bands (ev):

   -90.9065 -90.9054 -90.9049 -90.9038 -52.3538 -52.3517 -52.3386 -52.3382
   -52.3359 -52.3333 -52.3330 -52.3328 -52.3248 -52.3245 -52.3236 -52.3228
    -8.9506  -7.2452  -7.0397  -6.8895  -6.8356  -6.5056   3.4391   3.5865
     4.2517   4.9286   5.0510   5.5499   6.5669   7.1820   7.4354   7.5478
     7.7451   7.9833   8.2927   8.7126   8.7256   9.0879   9.3889   9.4928
    17.0649  19.5055  19.5763  20.2069  20.7497  20.9089  21.2897  22.0924
    22.6457  22.8717  23.2090  23.5585  24.1014  24.1166  24.6063  24.9327
    25.3737  26.5523  26.7996  27.0948  27.8810  28.5314  28.9563  29.0546
    30.5663  31.1515  32.0224  32.2495  32.7628  33.7112  33.7140  33.8426
    35.5528  36.2304  36.8417  37.1966  37.2466  37.8712  38.0883  38.7597

          k =-0.4041 0.0778 0.2467 (  6482 PWs)   bands (ev):

   -90.9063 -90.9054 -90.9048 -90.9040 -52.3535 -52.3519 -52.3387 -52.3385
   -52.3360 -52.3340 -52.3321 -52.3315 -52.3259 -52.3253 -52.3232 -52.3225
    -8.7036  -7.4068  -7.0848  -7.0046  -6.9004  -6.4968   3.6541   3.6814
     4.2165   4.9386   5.3357   5.7888   6.6073   7.0165   7.2438   7.4578
     7.8721   8.0379   8.2594   8.5004   8.7050   9.0001   9.3024   9.3897
    17.7470  19.4394  19.8370  19.9479  20.2676  20.6538  21.1501  22.2758
    22.6822  22.8240  23.0503  23.3099  24.0123  24.1676  24.6127  25.1960
    25.3813  25.9675  26.2189  26.8447  27.5350  28.7463  29.2494  29.3818
    30.9346  31.2312  31.7858  32.4284  32.7763  33.9404  34.2996  34.4907
    35.6558  36.8398  36.9752  37.2969  37.8133  38.0246  38.0645  38.8208

          k = 0.5388 0.6222-0.0987 (  6462 PWs)   bands (ev):

   -90.9060 -90.9056 -90.9047 -90.9043 -52.3531 -52.3522 -52.3389 -52.3387
   -52.3357 -52.3348 -52.3311 -52.3298 -52.3275 -52.3262 -52.3228 -52.3225
    -8.3541  -7.7544  -7.1857  -7.0146  -6.8791  -6.5098   3.7101   3.9632
     4.2157   4.9424   5.6102   5.7201   6.3812   6.5764   7.2695   7.5315
     7.9902   8.2541   8.3581   8.4717   8.7666   8.9089   9.2641   9.3144
    18.4121  19.1845  19.3945  19.8115  20.0217  20.5013  21.2337  22.0876
    22.4019  22.8687  23.1129  23.3673  24.1017  24.3189  24.5026  25.0441
    25.2293  25.4102  26.2876  27.1927  27.2975  28.9174  29.2729  29.6768
    31.1538  31.5141  32.1566  32.4562  32.5110  33.7775  34.3841  34.9190
    35.6949  36.4185  36.6588  37.4255  37.7479  38.2213  38.4658  39.1008

          k = 0.4041 0.5444-0.0493 (  6459 PWs)   bands (ev):

   -90.9059 -90.9057 -90.9045 -90.9044 -52.3528 -52.3527 -52.3389 -52.3387
   -52.3353 -52.3351 -52.3302 -52.3298 -52.3276 -52.3271 -52.3227 -52.3225
    -8.1669  -7.9617  -7.2661  -6.9249  -6.8188  -6.5711   3.6562   3.9793
     4.4462   4.6671   5.3836   5.8762   6.2051   6.7167   7.2945   7.7720
     7.8820   8.2694   8.4311   8.5400   8.7231   8.9601   9.2627   9.3941
    18.7580  18.8166  18.9781  19.6804  20.1411  20.3049  21.7139  21.7406
    22.3638  22.8687  23.2281  23.3908  24.1611  24.3992  24.4705  24.7220
    25.0041  25.3539  26.7447  26.8227  28.1881  28.5817  29.2777  29.9888
    31.2416  31.5897  31.9998  32.7177  32.7469  33.0722  33.7903  34.3023
    35.4645  36.5907  37.0656  37.3219  37.7145  38.1441  38.6065  39.2807

          k = 0.2694 0.4666 0.0000 (  6465 PWs)   bands (ev):

   -90.9061 -90.9055 -90.9048 -90.9042 -52.3533 -52.3523 -52.3387 -52.3386
   -52.3354 -52.3344 -52.3317 -52.3297 -52.3278 -52.3258 -52.3229 -52.3226
    -8.5533  -7.6392  -7.2101  -6.8081  -6.7370  -6.6751   3.5425   3.7674
     4.0856   4.7251   5.4755   5.6105   6.8027   7.1470   7.2087   7.6921
     8.0518   8.0851   8.2324   8.2952   8.7731   9.0905   9.3584   9.4937
    18.0668  18.8989  19.2561  19.8098  20.0424  20.6762  21.5834  22.1632
    22.4677  22.5869  23.1317  23.5014  24.0747  24.3961  24.4183  24.9184
    24.9860  25.5440  26.3503  27.2604  28.2686  29.1057  29.4805  30.0560
    30.6757  30.6844  32.2037  32.2266  32.5130  33.1257  33.4261  34.3473
    35.1420  36.9484  37.3598  37.6621  37.8783  38.5124  38.5463  38.9457

          k =-0.4041 0.2333 0.2961 (  6473 PWs)   bands (ev):

   -90.9062 -90.9054 -90.9049 -90.9041 -52.3534 -52.3518 -52.3388 -52.3386
   -52.3366 -52.3329 -52.3323 -52.3313 -52.3258 -52.3257 -52.3238 -52.3221
    -8.5308  -7.3314  -7.2645  -7.1305  -6.9365  -6.4927   3.5937   3.8914
     4.6258   5.0075   5.3603   5.8743   6.5087   6.7347   7.1096   7.4327
     7.9670   8.1764   8.2642   8.2956   8.6125   8.9786   9.1682   9.3387
    18.2278  19.4204  19.5342  20.2251  20.3565  20.6706  20.8555  22.3743
    22.6005  22.7535  22.8278  23.1088  23.9745  24.3616  24.7665  25.0954
    25.5602  25.8835  26.0459  26.4700  27.4835  28.4503  29.0923  29.6128
    31.1141  31.4742  31.6298  32.5077  33.3017  34.0786  34.4712  34.6752
    35.9350  36.7256  36.9875  37.6738  37.7858  38.0112  38.3629  38.7442

          k = 0.5388 0.7777-0.0493 (  6458 PWs)   bands (ev):

   -90.9061 -90.9055 -90.9048 -90.9042 -52.3532 -52.3520 -52.3389 -52.3387
   -52.3366 -52.3339 -52.3307 -52.3306 -52.3269 -52.3263 -52.3234 -52.3220
    -8.2780  -7.5011  -7.4389  -7.1195  -6.9346  -6.4846   3.7545   3.9787
     4.7187   5.0927   5.5602   5.6518   6.2267   6.5706   7.1153   7.4417
     8.0230   8.1933   8.3828   8.4408   8.5997   8.9198   9.0287   9.3778
    18.7162  19.2819  19.3999  19.7870  20.3350  20.6124  20.8343  22.1426
    22.4575  22.7976  23.0714  23.1070  23.9176  24.5224  24.6343  25.0345
    25.3333  25.5901  26.3845  26.6348  27.2449  28.7338  29.1144  29.7541
    30.6304  31.5072  31.8770  33.0844  33.2872  34.3365  34.4970  34.9695
    35.8675  36.1814  36.7711  37.1179  37.9265  38.2382  38.5992  38.9436

          k = 0.4041 0.6999 0.0000 (  6444 PWs)   bands (ev):

   -90.9059 -90.9056 -90.9046 -90.9044 -52.3529 -52.3523 -52.3390 -52.3387
   -52.3359 -52.3348 -52.3299 -52.3288 -52.3286 -52.3272 -52.3228 -52.3223
    -8.0544  -7.8173  -7.4674  -7.0382  -6.8910  -6.4998   3.8917   4.1099
     4.5550   4.8827   5.2810   5.7923   6.0622   6.6911   7.0245   7.6452
     8.0962   8.1858   8.4094   8.5753   8.8017   8.8554   9.0885   9.3865
    18.8853  18.9661  19.2247  19.7292  20.1091  20.2047  21.1789  21.8739
    22.3767  23.1424  23.2595  23.2813  24.0306  24.2083  24.6862  24.8902
    25.1399  25.2277  26.6816  27.1524  27.4146  28.8564  29.1871  29.4300
    31.1235  31.5251  32.1797  32.8891  33.2286  33.8988  34.3491  34.7148
    35.0782  36.3688  36.4485  37.2444  37.7955  37.9610  38.7208  39.5001

          k = 0.5388-0.3111-0.3948 (  6444 PWs)   bands (ev):

   -90.9060 -90.9054 -90.9048 -90.9042 -52.3532 -52.3519 -52.3389 -52.3388
   -52.3369 -52.3328 -52.3319 -52.3304 -52.3263 -52.3262 -52.3240 -52.3218
    -8.2143  -7.5714  -7.3646  -7.1843  -6.9568  -6.4882   3.6386   4.0678
     5.0583   5.1346   5.5767   5.7949   5.9706   6.4805   7.1811   7.3973
     7.9634   8.1765   8.3391   8.3963   8.6770   8.7692   8.9467   9.4113
    19.0493  19.2051  19.2933  19.8358  20.6181  20.6774  20.7249  22.3280
    22.4299  22.5730  22.7436  22.9981  24.0262  24.6446  24.7699  24.7829
    25.5342  25.6879  26.3420  26.4646  27.2129  28.2519  29.0662  30.2976
    30.5977  31.1213  31.6639  33.5034  33.6381  34.0765  34.7244  35.5245
    35.6888  36.2266  36.6320  37.5752  37.5937  38.5474  38.7146  39.3023

          k = 0.0000 0.0000 0.1480 (  6476 PWs)   bands (ev):

   -90.9068 -90.9054 -90.9048 -90.9035 -52.3543 -52.3515 -52.3385 -52.3378
   -52.3347 -52.3347 -52.3337 -52.3337 -52.3240 -52.3240 -52.3232 -52.3232
    -9.2711  -7.2153  -6.8262  -6.8262  -6.5449  -6.5449   3.1081   3.8738
     4.3149   4.3149   5.1802   5.6061   5.6061   6.5545   6.8336   7.8911
     7.8911   8.5388   8.5388   9.1973   9.1974   9.3070   9.5976   9.5976
    15.8429  18.6054  20.0377  21.0493  21.0493  21.1081  21.9433  21.9761
    21.9761  22.7439  23.9177  23.9177  24.1338  24.2947  24.2947  25.2250
    25.6274  27.5650  27.5650  27.8453  28.0566  28.0566  29.2055  30.0454
    30.0454  30.7935  30.7935  31.6976  33.2692  33.2692  33.3054  33.4621
    33.7373  33.7373  36.1301  36.1301  37.6703  37.8958  37.8958  38.7414

          k =-0.1347-0.0778 0.1974 (  6508 PWs)   bands (ev):

   -90.9067 -90.9055 -90.9048 -90.9037 -52.3540 -52.3515 -52.3386 -52.3380
   -52.3348 -52.3344 -52.3341 -52.3330 -52.3241 -52.3239 -52.3238 -52.3229
    -9.1506  -7.2922  -6.9460  -6.7844  -6.6398  -6.5078   3.3034   3.7609
     4.1334   4.7220   4.9682   5.7149   5.9693   6.9223   6.9785   7.3977
     8.0190   8.4281   8.4623   8.8509   9.1199   9.1324   9.5306   9.5457
    16.3412  18.8968  19.9492  20.5650  21.0282  21.0720  21.8953  22.0501
    22.3897  22.6696  23.7379  23.7863  23.9477  24.3012  24.3752  25.0988
    25.4903  27.1173  27.2750  27.5983  27.7761  27.9489  28.9036  29.7766
    30.3540  30.9327  31.2894  32.3712  33.0223  33.1361  33.6099  34.2033
    34.2649  34.6748  36.3681  36.6236  37.3264  38.0364  38.0983  38.4435

          k =-0.2694-0.1555 0.2467 (  6484 PWs)   bands (ev):

   -90.9065 -90.9055 -90.9047 -90.9039 -52.3536 -52.3518 -52.3388 -52.3384
   -52.3349 -52.3342 -52.3341 -52.3315 -52.3254 -52.3240 -52.3238 -52.3226
    -8.8860  -7.4781  -7.0718  -6.7725  -6.7705  -6.4959   3.4670   3.7663
     3.9002   4.9140   5.2621   6.0318   6.3763   6.7287   7.4587   7.5642
     7.8872   8.0617   8.2901   8.3626   9.0028   9.0060   9.3859   9.4304
    17.2373  19.5018  19.8600  19.9170  20.5446  20.8988  21.6628  22.1500
    22.6927  22.7805  23.2892  23.5099  23.8339  24.3107  24.4290  24.7426
    25.5063  26.2179  26.7270  26.9208  27.5374  28.2435  29.1425  30.0130
    30.3597  31.4044  31.4751  32.6130  32.8469  33.3441  34.6624  35.5851
    35.6487  35.6765  36.7288  37.0818  37.2987  37.8413  37.9494  38.4693

          k = 0.6735 0.3888-0.0987 (  6474 PWs)   bands (ev):

   -90.9061 -90.9057 -90.9046 -90.9042 -52.3531 -52.3523 -52.3388 -52.3386
   -52.3353 -52.3342 -52.3330 -52.3304 -52.3266 -52.3248 -52.3235 -52.3225
    -8.5041  -7.8683  -7.0463  -6.8917  -6.7590  -6.5333   3.4576   3.5376
     4.3567   4.9378   5.7622   5.7801   6.5021   6.9578   7.3851   7.4155
     7.7734   8.0773   8.3554   8.4453   8.8401   8.8811   9.2457   9.3634
    18.2081  19.0584  19.5857  19.7221  20.4966  21.2921  21.4248  21.8117
    22.4378  22.5431  23.0787  23.0806  24.1467  24.4187  24.5654  24.7261
    25.4354  25.6197  26.0212  26.8706  27.3269  28.5067  29.3187  30.6065
    30.6330  31.5760  31.8130  32.1862  32.9757  33.5186  35.2373  35.4388
    36.1977  36.5980  36.9313  37.3465  37.3834  37.9323  38.0549  38.4304

          k = 0.5388 0.3111-0.0493 (  6463 PWs)   bands (ev):

   -90.9060 -90.9058 -90.9045 -90.9043 -52.3529 -52.3526 -52.3388 -52.3386
   -52.3357 -52.3341 -52.3316 -52.3310 -52.3261 -52.3261 -52.3233 -52.3225
    -8.3202  -8.0504  -6.9937  -6.9212  -6.7250  -6.6196   3.2798   3.6693
     4.4719   4.7034   5.7616   6.1303   6.3206   6.8573   7.4085   7.6002
     7.8093   8.2372   8.3396   8.4159   8.6237   8.9529   9.2983   9.3916
    18.7261  18.7551  19.0230  19.4709  20.9566  21.3142  21.4303  21.8154
    22.1468  22.5544  22.8436  22.9352  24.2153  24.6435  24.7620  24.8834
    24.9546  25.3156  26.2052  26.5998  28.1412  28.5321  29.2990  30.5012
    30.9741  31.2405  31.7048  32.2565  33.1484  33.3308  34.4270  34.9275
    35.6964  36.7379  37.1150  37.4612  37.7982  37.8545  38.4779  38.7544

          k = 0.4041 0.2333 0.0000 (  6476 PWs)   bands (ev):

   -90.9063 -90.9054 -90.9049 -90.9040 -52.3536 -52.3521 -52.3385 -52.3385
   -52.3357 -52.3339 -52.3323 -52.3312 -52.3263 -52.3251 -52.3232 -52.3228
    -8.7345  -7.5938  -7.0081  -6.8008  -6.7643  -6.6386   3.2203   3.8619
     3.8731   4.6972   5.5451   5.7669   7.0109   7.2750   7.3350   7.6996
     7.8840   7.9852   7.9967   8.3784   8.7158   9.1438   9.4216   9.4672
    17.7177  18.8614  19.5491  19.8571  20.7279  20.7598  21.7427  21.7919
    22.5185  22.7602  23.0835  23.2078  23.8110  24.5188  24.6260  24.6903
    25.4520  25.4824  26.4327  27.3428  28.2899  28.8655  29.2454  29.7940
    30.5608  30.7133  31.7449  32.2000  32.3755  33.4853  34.3716  34.4561
    34.9728  36.7521  37.0968  37.7984  38.1825  38.2912  38.4096  38.4151

          k = 0.2694 0.1555 0.0493 (  6486 PWs)   bands (ev):

   -90.9066 -90.9052 -90.9051 -90.9037 -52.3541 -52.3518 -52.3384 -52.3381
   -52.3354 -52.3338 -52.3333 -52.3324 -52.3249 -52.3245 -52.3233 -52.3232
    -9.0522  -7.2370  -6.9734  -6.8699  -6.6834  -6.5681   3.1586   3.5596
     4.0663   4.7317   5.2384   5.3094   6.7724   7.3631   7.3777   7.7228
     7.8613   8.0157   8.3663   8.4808   8.8709   9.2165   9.5273   9.5624
    16.7369  19.3037  19.5661  20.1475  20.7482  20.7986  21.9306  21.9830
    22.4616  22.5094  23.5594  23.6254  23.8687  24.3502  24.4896  24.6960
    25.3108  26.5724  27.3380  27.9900  28.1224  28.7817  28.9871  29.0710
    30.1907  30.4517  31.3921  31.9118  32.8221  33.2547  33.7522  34.0430
    34.8300  36.4854  36.5449  36.8675  37.4445  38.1924  38.3317  38.9101

          k =-0.1347 0.0778 0.2467 (  6499 PWs)   bands (ev):

   -90.9067 -90.9056 -90.9047 -90.9037 -52.3538 -52.3515 -52.3387 -52.3381
   -52.3353 -52.3339 -52.3339 -52.3333 -52.3244 -52.3235 -52.3235 -52.3233
    -9.0871  -7.3758  -6.9247  -6.7872  -6.6871  -6.5076   3.4877   3.7507
     4.3272   4.6616   5.0480   5.6253   6.0277   6.9669   7.1202   7.2090
     7.8061   8.3815   8.4400   8.8011   8.9632   9.1913   9.4313   9.5627
    16.5612  18.8983  19.9370  20.6885  20.9714  21.4608  21.5138  22.1413
    22.2899  22.7446  23.5955  23.8582  23.9141  24.3109  24.4501  25.2395
    25.4700  26.7721  27.0809  27.2526  27.6444  27.8782  29.1195  29.4322
    30.7399  31.2899  31.6627  32.3248  33.1878  33.5178  33.5491  33.6196
    34.3822  35.1412  36.3284  36.9282  37.1984  37.8790  38.1701  38.3996

          k =-0.2694 0.0000 0.2961 (  6480 PWs)   bands (ev):

   -90.9065 -90.9056 -90.9047 -90.9039 -52.3535 -52.3517 -52.3388 -52.3384
   -52.3354 -52.3345 -52.3332 -52.3323 -52.3247 -52.3246 -52.3231 -52.3229
    -8.8789  -7.4627  -7.0744  -6.8335  -6.7607  -6.4853   3.6793   3.7872
     4.0793   5.0386   5.1332   5.8910   6.2643   6.6945   7.3168   7.5233
     7.7764   8.0893   8.1613   8.6257   8.8041   9.1047   9.2855   9.4594
    17.2456  19.3465  19.9387  20.2026  20.8772  20.8988  21.3429  22.3064
    22.5152  22.9691  23.3444  23.6293  23.7353  24.2805  24.5229  25.0746
    25.4621  26.3250  26.4223  26.6555  27.4549  28.0290  29.3812  29.5570
    31.0485  31.4353  31.9041  32.2487  33.0802  33.8744  34.4435  34.5303
    35.1535  35.9373  36.6275  36.9804  37.5384  37.7885  38.0557  38.5272

          k = 0.6735 0.5444-0.0493 (  6462 PWs)   bands (ev):

   -90.9062 -90.9056 -90.9046 -90.9041 -52.3531 -52.3520 -52.3389 -52.3386
   -52.3352 -52.3350 -52.3326 -52.3307 -52.3263 -52.3250 -52.3231 -52.3226
    -8.5473  -7.6884  -7.1787  -6.9849  -6.7395  -6.4880   3.6288   3.8592
     4.1796   5.1120   5.5684   5.7342   6.4370   7.0132   7.0670   7.4212
     7.7633   8.1273   8.3277   8.4026   8.7473   9.0127   9.1785   9.3020
    18.0973  19.3177  19.9794  19.9958  20.1475  20.9508  21.0471  22.1055
    22.6136  22.7393  23.1816  23.4502  24.0338  24.2990  24.5215  24.7733
    25.5260  25.6791  25.8916  26.6439  27.2584  28.2424  29.4048  30.1456
    31.2638  31.5958  32.0310  32.5163  33.0136  33.8269  35.1436  35.2461
    35.3164  36.7011  36.8248  37.0933  37.6990  37.8200  38.1239  38.6915

          k = 0.5388 0.4666 0.0000 (  6466 PWs)   bands (ev):

   -90.9059 -90.9058 -90.9044 -90.9044 -52.3527 -52.3526 -52.3389 -52.3387
   -52.3357 -52.3345 -52.3315 -52.3302 -52.3268 -52.3261 -52.3232 -52.3223
    -8.1338  -8.0814  -7.1399  -7.0754  -6.7087  -6.5487   3.4669   3.9129
     4.5802   4.8026   5.4177   6.0495   6.2859   6.8928   7.2603   7.5896
     7.6940   8.1617   8.3686   8.6078   8.6830   8.9290   9.1942   9.2921
    18.8039  18.8665  19.2183  19.6756  20.4408  20.7352  21.6292  21.8232
    22.2767  22.7746  22.9532  23.2049  24.2977  24.4753  24.5948  24.8696
    24.9838  25.1355  26.4165  26.7221  27.4419  28.3924  29.3607  30.5569
    31.1840  31.8503  31.8776  32.6312  33.2284  33.4241  34.0201  34.7233
    35.5965  36.8271  37.0746  37.1976  37.6673  37.9306  38.6196  38.8878

          k = 0.4041 0.3888 0.0493 (  6463 PWs)   bands (ev):

   -90.9061 -90.9055 -90.9047 -90.9042 -52.3533 -52.3523 -52.3387 -52.3386
   -52.3358 -52.3341 -52.3314 -52.3306 -52.3270 -52.3259 -52.3232 -52.3224
    -8.4927  -7.7050  -7.1485  -6.9733  -6.6953  -6.6271   3.3952   3.9711
     4.1084   4.7675   5.6312   5.6548   6.6372   7.1895   7.2700   7.5960
     7.8844   8.1283   8.2609   8.3567   8.6866   9.0615   9.3217   9.4082
    18.2900  18.7675  19.3575  19.6798  20.3405  20.8561  21.6697  21.9836
    22.3309  22.7836  22.8548  23.2912  24.2318  24.2898  24.6876  24.7968
    24.9713  25.5224  26.2527  27.0536  28.1304  28.7234  29.3073  30.3858
    30.6026  31.1134  32.0082  32.5355  32.6496  33.3765  33.7007  34.4789
    35.1757  37.0969  37.1754  37.4216  37.8420  38.1538  38.6362  38.7828

          k = 0.2694 0.3111 0.0987 (  6475 PWs)   bands (ev):

   -90.9064 -90.9053 -90.9050 -90.9039 -52.3538 -52.3520 -52.3385 -52.3384
   -52.3357 -52.3339 -52.3326 -52.3313 -52.3260 -52.3250 -52.3232 -52.3228
    -8.8358  -7.3793  -7.0737  -6.8345  -6.8191  -6.5715   3.3755   3.6086
     4.0724   4.7270   5.3011   5.6295   7.0888   7.2869   7.4014   7.5699
     7.7973   7.8809   8.2626   8.3962   8.7808   9.0974   9.4312   9.5196
    17.4004  19.1252  19.8125  19.9086  20.1491  20.9311  21.6773  21.8974
    22.5433  22.7613  23.1953  23.5293  23.9495  24.1472  24.5606  24.8902
    25.3743  25.8501  26.6820  27.6202  27.8766  28.8975  29.3154  29.6144
    30.4149  30.7299  31.5833  31.9296  32.6908  33.6653  33.7522  34.3131
    34.9243  36.9582  37.3396  37.5899  37.7571  38.0991  38.3428  38.6532

          k =-0.2694 0.1555 0.3454 (  6479 PWs)   bands (ev):

   -90.9064 -90.9056 -90.9047 -90.9039 -52.3533 -52.3516 -52.3389 -52.3385
   -52.3361 -52.3335 -52.3331 -52.3323 -52.3251 -52.3242 -52.3238 -52.3225
    -8.7343  -7.5101  -7.0736  -6.9854  -6.7947  -6.4844   3.7022   3.8969
     4.3957   5.1291   5.1590   5.9026   6.3144   6.6008   7.2560   7.5087
     7.7782   8.0190   8.0749   8.5154   8.7136   9.0957   9.2230   9.3339
    17.6679  19.4997  19.9632  20.3838  20.6286  20.8353  20.8961  22.3297
    22.5729  23.0305  23.2441  23.4801  23.8807  24.2512  24.6476  25.3139
    25.4352  25.9073  25.9312  26.4049  27.6062  27.8003  29.4330  29.5946
    31.3758  31.8330  31.9130  32.5281  32.8584  34.0360  34.3176  35.1035
    35.4013  36.0075  36.7910  37.1692  37.4476  38.1192  38.1956  38.3956

          k = 0.6735 0.6999 0.0000 (  6463 PWs)   bands (ev):

   -90.9062 -90.9056 -90.9046 -90.9041 -52.3531 -52.3519 -52.3389 -52.3387
   -52.3362 -52.3343 -52.3316 -52.3315 -52.3257 -52.3256 -52.3232 -52.3224
    -8.4715  -7.5821  -7.2204  -7.1602  -6.7732  -6.4786   3.7927   3.9950
     4.3768   5.1955   5.5128   5.8005   6.3498   6.6408   6.9984   7.4821
     7.7928   8.0470   8.3253   8.4446   8.6170   8.9947   9.1626   9.2258
    18.3086  19.6650  19.7798  20.0945  20.4140  20.4806  20.8141  22.1148
    22.7194  22.8348  23.2449  23.3638  24.1075  24.2357  24.6474  25.0259
    25.3522  25.8052  25.8918  26.0331  27.4213  28.1155  29.4888  29.9331
    30.9817  31.8094  32.4462  32.7329  33.0946  34.2321  34.6634  35.1681
    35.4781  36.3855  36.8238  37.1425  37.6762  38.0498  38.1440  38.8259

          k = 0.5388 0.6222 0.0493 (  6466 PWs)   bands (ev):

   -90.9059 -90.9057 -90.9046 -90.9044 -52.3528 -52.3523 -52.3390 -52.3387
   -52.3357 -52.3351 -52.3307 -52.3299 -52.3273 -52.3265 -52.3227 -52.3225
    -8.1376  -7.8100  -7.3434  -7.2225  -6.7322  -6.5035   3.8159   4.1963
     4.3651   5.0954   5.3048   5.7873   6.2769   6.6485   7.1018   7.5377
     7.8475   8.1463   8.4071   8.5400   8.7817   8.9073   9.1056   9.2461
    18.8568  19.1032  19.4497  19.9749  20.1302  20.1834  21.1643  21.8563
    22.5452  22.9958  23.1239  23.4610  24.1525  24.2717  24.6359  24.7676
    25.1038  25.2454  26.4023  26.7255  27.3843  28.3321  29.3458  30.0149
    31.2080  31.9169  32.2106  32.9556  33.2903  34.0635  34.2390  34.6249
    35.3902  36.4505  36.6407  37.0170  37.8063  38.3437  38.4458  39.2622

          k = 0.4041 0.5444 0.0987 (  6469 PWs)   bands (ev):

   -90.9059 -90.9057 -90.9046 -90.9044 -52.3528 -52.3525 -52.3389 -52.3387
   -52.3355 -52.3350 -52.3301 -52.3294 -52.3279 -52.3271 -52.3227 -52.3224
    -8.1635  -7.8373  -7.3338  -7.1269  -6.6776  -6.5946   3.7426   4.1178
     4.3938   4.7345   5.3679   5.8140   6.1465   6.6626   7.3948   7.7368
     7.9031   8.1768   8.3754   8.5536   8.7340   8.9565   9.2502   9.3430
    18.7702  18.8266  19.2031  19.7633  19.9380  20.2462  21.7133  21.7588
    22.4202  22.9128  23.2592  23.3359  24.1495  24.4044  24.5286  24.5776
    25.0271  25.3006  26.7654  26.8961  27.9956  28.4579  29.3324  29.9170
    31.2550  31.7652  31.9813  32.5897  33.1971  33.3945  33.7341  34.2536
    35.3301  36.5219  36.8998  37.1403  37.6646  38.4314  38.8750  39.2037

          k = 0.2694 0.4666 0.1480 (  6471 PWs)   bands (ev):

   -90.9061 -90.9055 -90.9047 -90.9042 -52.3533 -52.3523 -52.3387 -52.3387
   -52.3355 -52.3345 -52.3315 -52.3297 -52.3277 -52.3259 -52.3228 -52.3225
    -8.5016  -7.6849  -7.1273  -6.9795  -6.7491  -6.6027   3.6384   3.7540
     4.1231   4.7823   5.5603   5.7125   6.5699   6.7707   7.3785   7.7286
     7.9592   8.2167   8.2879   8.3532   8.7600   9.0126   9.3475   9.4261
    18.1494  19.0201  19.4318  19.5977  20.0539  20.6211  21.5177  22.2377
    22.2897  22.8120  23.1520  23.3009  24.1192  24.2993  24.3910  25.1087
    25.1229  25.4910  26.2893  27.2563  27.9183  29.1658  29.4480  29.7231
    30.8011  31.1932  31.8222  32.1406  32.5327  33.3776  33.9160  34.6031
    35.4872  36.7898  37.1703  37.4153  37.7527  38.5033  38.6300  39.1168

          k = 0.6735-0.3888-0.3454 (  6464 PWs)   bands (ev):

   -90.9061 -90.9056 -90.9047 -90.9042 -52.3531 -52.3519 -52.3389 -52.3388
   -52.3367 -52.3329 -52.3328 -52.3308 -52.3261 -52.3253 -52.3240 -52.3220
    -8.3037  -7.5691  -7.4244  -7.1435  -6.8171  -6.4876   3.6791   4.1301
     4.7788   5.1160   5.5623   6.0702   6.1344   6.3693   7.0349   7.3900
     8.0189   8.0372   8.1757   8.4784   8.5952   8.9475   8.9676   9.2829
    18.7772  19.5292  19.6460  20.0289  20.1650  20.7481  20.8243  22.0696
    22.6800  22.7610  23.0565  23.1095  24.1446  24.5213  24.7451  24.7885
    25.4735  25.5260  25.8616  26.1901  27.5904  27.7182  29.5532  30.2161
    30.7419  31.7532  31.8866  33.2775  33.6132  34.0373  34.8662  35.3825
    35.8587  36.0939  36.4848  37.2959  37.4309  38.5432  38.6161  39.0714

          k = 0.5388-0.4666-0.2961 (  6453 PWs)   bands (ev):

   -90.9060 -90.9056 -90.9047 -90.9043 -52.3530 -52.3521 -52.3389 -52.3388
   -52.3366 -52.3340 -52.3309 -52.3303 -52.3267 -52.3266 -52.3234 -52.3220
    -8.1379  -7.6114  -7.5179  -7.2204  -6.7901  -6.4970   3.7546   4.1133
     4.8476   4.9805   5.5785   5.7177   6.1651   6.4481   7.1939   7.4677
     7.9186   8.0995   8.3888   8.4610   8.7635   8.8374   8.9427   9.3377
    19.0754  19.2716  19.4196  19.6268  20.0599  20.8040  20.9959  21.8058
    22.7742  22.8448  22.8851  23.2636  23.9840  24.4362  24.6117  24.9100
    25.2368  25.4146  26.2933  26.5588  27.4445  28.1191  29.5597  30.0099
    30.6091  31.7493  32.0342  33.2744  33.5087  34.1327  34.5222  35.2697
    35.4868  35.9156  36.6639  37.2786  37.8200  38.5432  38.7657  38.9184

          k = 0.4041-0.5444-0.2467 (  6471 PWs)   bands (ev):

   -90.9059 -90.9056 -90.9046 -90.9044 -52.3529 -52.3524 -52.3389 -52.3388
   -52.3358 -52.3348 -52.3300 -52.3291 -52.3283 -52.3271 -52.3228 -52.3223
    -8.1012  -7.8101  -7.3590  -7.2077  -6.7342  -6.5459   3.9482   3.9934
     4.5163   4.7380   5.5932   5.7402   6.1301   6.2830   7.4689   7.6864
     7.9911   8.1635   8.3857   8.5068   8.7808   8.8942   9.1871   9.3454
    18.7741  18.9991  19.3749  19.6868  19.7768  20.3315  21.3928  21.8027
    22.6402  22.9100  23.2238  23.3034  24.1290  24.3033  24.4814  24.7318
    25.1741  25.2413  26.7343  27.0022  27.7331  28.6083  29.3511  29.5369
    31.1563  31.8418  32.0643  32.6312  32.9533  33.8041  34.1948  34.5493
    35.5563  36.0306  36.6774  37.0942  38.0469  38.3963  38.7046  39.2628

          k = 0.2694-0.6222-0.1974 (  6472 PWs)   bands (ev):

   -90.9058 -90.9058 -90.9045 -90.9045 -52.3527 -52.3527 -52.3388 -52.3388
   -52.3351 -52.3351 -52.3301 -52.3301 -52.3273 -52.3273 -52.3226 -52.3226
    -8.0942  -8.0942  -7.0888  -7.0888  -6.6669  -6.6669   3.7558   3.7558
     4.5295   4.5295   5.8436   5.8436   6.1917   6.1917   7.6458   7.6459
     8.1252   8.1252   8.4454   8.4454   8.8555   8.8555   9.3479   9.3479
    18.7460  18.7460  19.2858  19.2858  20.2726  20.2726  21.7220  21.7220
    22.6330  22.6330  23.2857  23.2857  24.2888  24.2888  24.5286  24.5286
    25.2721  25.2721  26.7699  26.7699  28.4979  28.4979  29.5516  29.5516
    31.6309  31.6309  31.9773  31.9773  32.6355  32.6355  34.4612  34.4612
    36.0795  36.0795  37.0948  37.0948  38.0227  38.0227  39.0309  39.0309

          k = 0.5388-0.3111-0.2467 (  6456 PWs)   bands (ev):

   -90.9060 -90.9055 -90.9048 -90.9042 -52.3532 -52.3520 -52.3388 -52.3388
   -52.3368 -52.3329 -52.3319 -52.3305 -52.3263 -52.3262 -52.3239 -52.3219
    -8.2621  -7.5319  -7.4590  -7.1566  -6.8334  -6.5110   3.5450   4.1350
     4.7161   5.0258   5.6559   5.8271   6.0506   6.7398   7.2500   7.4150
     8.0116   8.0382   8.2995   8.4855   8.5417   8.9293   8.9905   9.3687
    18.8845  19.1818  19.2649  19.8468  20.1010  21.1226  21.3084  22.0665
    22.0712  22.6833  23.0225  23.0882  23.9014  24.5066  24.8061  24.8224
    25.3573  25.4648  26.4276  26.4492  27.5543  27.9974  29.5758  29.9170
    30.9211  31.2810  31.9367  32.9867  33.5210  34.0398  34.4502  34.6081
    35.8148  36.7034  36.9809  37.3636  37.6498  38.4207  38.7611  39.2527

          k = 0.4041-0.3888-0.1974 (  6465 PWs)   bands (ev):

   -90.9061 -90.9055 -90.9048 -90.9042 -52.3533 -52.3521 -52.3387 -52.3387
   -52.3363 -52.3339 -52.3310 -52.3306 -52.3270 -52.3261 -52.3233 -52.3222
    -8.4210  -7.5378  -7.2428  -7.1642  -6.8034  -6.5327   3.5824   3.9547
     4.4273   4.8761   5.5556   5.7055   6.4327   6.7858   7.3543   7.4817
     8.0799   8.1290   8.2556   8.3688   8.6581   8.9723   9.2191   9.3642
    18.4223  19.0108  19.4681  19.8786  19.9579  20.8218  21.4389  22.1393
    22.2721  22.7698  23.0757  23.1867  23.9179  24.3391  24.6741  25.0191
    25.2786  25.4699  26.3056  27.0021  27.5476  28.6927  29.4132  29.8374
    30.6254  31.5136  32.0373  32.2047  33.0196  34.0697  34.1052  34.6759
    35.2124  36.7469  37.1183  37.4859  37.9144  38.0964  38.5731  39.1835

          k = 0.4041-0.2333-0.1480 (  6480 PWs)   bands (ev):

   -90.9063 -90.9053 -90.9049 -90.9040 -52.3536 -52.3520 -52.3386 -52.3385
   -52.3363 -52.3333 -52.3318 -52.3317 -52.3260 -52.3254 -52.3236 -52.3224
    -8.6839  -7.4075  -7.1157  -7.0067  -6.8438  -6.5433   3.3863   3.7853
     4.2609   4.8079   5.3852   5.7327   6.9435   7.2031   7.2801   7.4022
     7.9361   7.9943   8.1296   8.5483   8.5683   9.0393   9.3659   9.3787
    17.8572  18.9982  19.5741  20.0598  20.4076  20.8393  21.5456  21.9861
    22.4281  22.6655  23.2141  23.2417  23.8624  24.2915  24.7423  24.7741
    25.5791  25.6630  26.2839  27.2460  27.7582  28.8121  29.1917  29.4350
    30.9246  31.1330  31.6986  32.1634  32.7307  33.8002  34.0920  34.4574
    35.1043  37.1246  37.2313  37.4508  37.8032  38.0964  38.3128  38.9074

          k = 0.0000 0.0000 0.2961 (  6482 PWs)   bands (ev):

   -90.9067 -90.9056 -90.9046 -90.9037 -52.3537 -52.3514 -52.3388 -52.3382
   -52.3346 -52.3346 -52.3339 -52.3339 -52.3238 -52.3238 -52.3232 -52.3232
    -9.0770  -7.5227  -6.7996  -6.7996  -6.5842  -6.5842   3.6625   3.9581
     4.5099   4.5099   4.8291   5.8565   5.8565   6.8043   6.8967   7.3814
     7.3814   8.5084   8.5084   8.5477   9.1756   9.1756   9.5405   9.5405
    16.5411  18.6109  20.0084  21.0930  21.3313  21.3313  21.8750  22.1753
    22.1753  22.4082  23.7778  23.7779  24.0279  24.3705  24.3705  25.2531
    25.7423  26.5561  27.2160  27.2160  27.5295  27.5295  29.0335  30.2950
    30.2950  31.5308  31.5308  32.6969  33.2430  33.2430  33.3349  34.1174
    34.1174  34.2433  36.5991  36.5991  37.4876  37.6313  37.6313  39.6416

          k =-0.1347-0.0778 0.3454 (  6472 PWs)   bands (ev):

   -90.9065 -90.9057 -90.9045 -90.9038 -52.3534 -52.3515 -52.3389 -52.3384
   -52.3349 -52.3346 -52.3341 -52.3330 -52.3241 -52.3240 -52.3235 -52.3228
    -8.9199  -7.6227  -6.9651  -6.7240  -6.7095  -6.5177   3.8723   3.9495
     4.1586   4.9744   5.0052   5.8829   6.0258   6.7429   7.1079   7.1119
     7.7108   8.0447   8.4409   8.4727   9.0294   9.0916   9.4226   9.4471
    17.0580  18.8568  20.1271  20.4731  21.2634  21.3532  21.7929  22.1729
    22.4229  22.6183  23.5608  23.6075  23.8985  24.3023  24.4796  25.0955
    25.6157  26.2096  26.7251  26.7978  27.3673  27.4246  29.6364  29.7867
    31.1649  31.3893  31.6764  32.7508  32.9029  33.9363  34.1903  34.5257
    34.5709  35.0460  36.4800  37.1028  37.4481  37.5284  37.8116  38.9754

          k = 0.8082 0.4666 0.0000 (  6462 PWs)   bands (ev):

   -90.9063 -90.9057 -90.9045 -90.9040 -52.3530 -52.3519 -52.3390 -52.3386
   -52.3354 -52.3343 -52.3337 -52.3314 -52.3255 -52.3240 -52.3239 -52.3224
    -8.6306  -7.7081  -7.2120  -6.8798  -6.6703  -6.4894   3.7526   3.9479
     4.1980   5.1600   5.5611   5.7039   6.3707   6.6670   7.2162   7.4198
     7.4825   8.1746   8.2687   8.3646   8.8024   8.9515   9.2497   9.2574
    17.8964  19.3988  19.7260  20.3472  20.7403  20.9249  21.4723  22.1775
    22.5271  22.9917  23.1282  23.5401  23.8817  24.3202  24.5238  24.6525
    25.6053  25.8183  25.9084  26.2733  27.2703  27.6669  29.6161  30.5090
    31.2013  31.8469  31.8527  32.9140  32.9560  34.2214  35.0383  35.1386
    35.2845  36.0985  36.6926  36.9675  37.5395  37.7489  38.2249  38.7011

          k = 0.6735 0.3888 0.0493 (  6462 PWs)   bands (ev):

   -90.9060 -90.9058 -90.9044 -90.9043 -52.3526 -52.3524 -52.3390 -52.3387
   -52.3360 -52.3335 -52.3332 -52.3303 -52.3266 -52.3249 -52.3238 -52.3222
    -8.2410  -7.9454  -7.3106  -7.0088  -6.6581  -6.5227   3.4846   4.0199
     4.6260   4.9885   5.3800   5.9292   6.5468   6.9530   7.1406   7.3960
     7.5077   8.0180   8.4153   8.6246   8.6871   8.8621   9.1099   9.1699
    18.7588  18.9959  19.7786  19.8697  20.1325  21.2881  21.3641  22.0236
    22.2904  22.6379  22.8527  23.4010  24.2988  24.4177  24.6691  24.7439
    25.0112  25.0849  26.0847  26.7876  26.8853  27.9975  29.6289  30.8751
    31.0469  31.7061  32.6347  32.7913  33.2629  33.9713  34.4843  34.5580
    35.4891  36.9071  36.9992  37.3900  37.4170  38.2270  38.7627  38.8818

          k = 0.5388 0.3111 0.0987 (  6468 PWs)   bands (ev):

   -90.9060 -90.9056 -90.9046 -90.9043 -52.3531 -52.3523 -52.3388 -52.3387
   -52.3363 -52.3334 -52.3318 -52.3307 -52.3262 -52.3261 -52.3237 -52.3221
    -8.3238  -7.8047  -7.2179  -7.0753  -6.7004  -6.5700   3.3703   4.1463
     4.3028   4.8657   5.6686   5.8730   6.2683   7.2184   7.3899   7.4674
     7.5980   8.0912   8.3229   8.5401   8.5505   8.9492   9.2384   9.2828
    18.7266  18.8337  19.2784  19.6935  20.3520  21.3853  21.6494  21.8687
    22.1586  22.3775  22.9259  23.1989  24.3144  24.4801  24.6324  24.7843
    24.9026  25.3477  26.3297  26.6279  27.8989  28.0530  29.5237  30.3654
    30.9707  31.6701  31.8950  32.8211  33.1787  33.3878  34.2227  34.4588
    35.2868  37.0587  37.1835  37.3297  37.6174  38.0975  38.6991  38.8588

          k =-0.1347 0.0778 0.3948 (  6494 PWs)   bands (ev):

   -90.9065 -90.9058 -90.9045 -90.9039 -52.3531 -52.3515 -52.3390 -52.3385
   -52.3354 -52.3343 -52.3336 -52.3333 -52.3244 -52.3236 -52.3233 -52.3231
    -8.8197  -7.7512  -6.9172  -6.7845  -6.7086  -6.5247   3.8664   4.1648
     4.3733   4.9180   5.1245   5.8285   5.9550   6.7823   6.9793   7.2589
     7.5374   7.9967   8.1182   8.5648   8.9506   9.1758   9.3191   9.4279
    17.3188  18.8021  20.1688  20.7620  21.0017  21.5625  21.6545  22.0737
    22.3815  22.7715  23.5601  23.6289  23.8875  24.2893  24.4669  25.1776
    25.5330  25.8903  26.4380  26.8001  27.2859  27.3328  29.7424  29.8987
    31.4041  31.4484  31.8542  32.9242  33.1462  33.3870  34.2134  34.3072
    35.2415  35.5876  36.5266  36.8580  37.3679  37.5376  38.1918  38.3960

          k = 0.8082 0.6222 0.0493 (  6472 PWs)   bands (ev):

   -90.9063 -90.9058 -90.9044 -90.9040 -52.3528 -52.3518 -52.3390 -52.3387
   -52.3355 -52.3349 -52.3328 -52.3323 -52.3248 -52.3247 -52.3229 -52.3228
    -8.5876  -7.8174  -7.0937  -6.9527  -6.6538  -6.5021   3.9197   4.0687
     4.3420   5.2005   5.4599   5.8296   6.0993   6.6276   6.9761   7.4062
     7.5950   7.8549   8.2006   8.5489   8.7613   9.0403   9.1315   9.3011
    17.9650  19.1441  20.1169  20.4157  20.8415  21.1083  21.2527  22.0595
    22.5734  23.0667  23.3697  23.5819  23.8828  24.2751  24.5038  24.8639
    25.4543  25.7133  25.8734  26.2322  27.1970  27.5376  29.7755  30.3822
    31.2124  31.9509  32.3287  33.0038  33.1504  33.7539  34.6359  35.0136
    35.5334  35.9908  36.4923  36.8395  37.5195  37.8092  38.1437  38.6414

          k = 0.6735 0.5444 0.0987 (  6464 PWs)   bands (ev):

   -90.9060 -90.9058 -90.9044 -90.9043 -52.3526 -52.3522 -52.3390 -52.3388
   -52.3357 -52.3349 -52.3321 -52.3308 -52.3262 -52.3253 -52.3231 -52.3224
    -8.2515  -7.8748  -7.3350  -7.1103  -6.6191  -6.5154   3.7413   4.2250
     4.4418   5.0564   5.5222   5.8650   6.5657   6.5778   6.9725   7.4124
     7.5066   7.9616   8.4799   8.5725   8.6959   8.9426   8.9989   9.1238
    18.7375  19.3644  19.6509  20.0656  20.3099  20.8682  21.1298  21.9248
    22.6356  22.8573  23.1217  23.6083  24.2369  24.4077  24.4958  24.5483
    25.0876  25.3287  25.9399  26.2506  27.2154  27.7788  29.7487  30.4962
    31.4660  31.9164  32.3638  33.2856  33.7144  33.8069  34.4460  34.8586
    35.2917  36.3843  36.9782  37.2224  37.6326  38.0379  38.5758  38.7179

          k = 0.5388 0.4666 0.1480 (  6456 PWs)   bands (ev):

   -90.9059 -90.9057 -90.9045 -90.9044 -52.3528 -52.3523 -52.3389 -52.3388
   -52.3362 -52.3342 -52.3312 -52.3302 -52.3267 -52.3264 -52.3233 -52.3221
    -8.0945  -7.8648  -7.3810  -7.2020  -6.6478  -6.5562   3.5973   4.3856
     4.4226   4.8673   5.5200   6.0021   6.0247   6.7271   7.4821   7.4999
     7.6662   7.9462   8.4181   8.5742   8.7101   8.9104   9.0705   9.2354
    18.9488  19.2224  19.3561  19.7111  19.8879  20.8270  21.5643  21.8072
    22.4198  22.7412  23.1065  23.2391  24.2496  24.4465  24.5012  24.7254
    24.9969  25.2043  26.3892  26.7366  27.3388  28.0106  29.6672  30.4230
    30.8791  31.8124  32.6090  32.8137  33.4570  33.7430  34.0043  34.8668
    35.0510  36.7376  36.8062  37.1751  37.8859  38.1664  38.9058  39.1386

          k = 0.8082-0.4666-0.2961 (  6462 PWs)   bands (ev):

   -90.9062 -90.9058 -90.9044 -90.9041 -52.3527 -52.3518 -52.3390 -52.3389
   -52.3361 -52.3340 -52.3331 -52.3319 -52.3253 -52.3240 -52.3240 -52.3224
    -8.4240  -7.8931  -7.1451  -7.0288  -6.6717  -6.5016   3.8095   4.3579
     4.4057   5.2008   5.5638   6.0088   6.0270   6.5349   6.8537   7.3660
     7.6195   7.9467   8.1003   8.6219   8.6881   8.9798   9.1098   9.1626
    18.3790  19.1841  20.1934  20.4623  20.5607  20.7995  21.2064  21.8687
    22.6863  23.1051  23.4444  23.5297  23.9717  24.3091  24.5631  24.7506
    25.2724  25.4764  25.8374  26.1012  27.2283  27.4663  30.1807  30.2875
    30.7620  32.5517  32.7042  32.8751  33.4195  33.9238  34.2710  34.8162
    36.0474  36.2043  36.6401  36.7560  36.8112  38.3001  38.4932  38.9083

          k = 0.6735-0.5444-0.2467 (  6462 PWs)   bands (ev):

   -90.9060 -90.9058 -90.9045 -90.9043 -52.3526 -52.3521 -52.3390 -52.3389
   -52.3361 -52.3347 -52.3318 -52.3311 -52.3260 -52.3255 -52.3232 -52.3223
    -8.1720  -7.9051  -7.3213  -7.1864  -6.6307  -6.5148   3.8478   4.1821
     4.6473   4.9647   5.7332   5.8870   6.2415   6.5268   6.9757   7.3155
     7.7154   7.8247   8.4586   8.6332   8.7009   8.8224   9.0427   9.0900
    18.9667  19.3684  19.7535  19.8929  20.2472  20.8424  21.2297  21.6124
    22.7598  22.9570  23.3016  23.5059  24.2352  24.2889  24.4781  24.6158
    25.2077  25.3359  25.8685  26.0917  27.3549  27.6517  30.0107  30.2879
    30.9855  32.2721  32.7173  32.9907  33.8630  33.9766  34.4437  34.8310
    35.6299  35.9603  36.7202  37.3055  37.5576  38.2332  38.5553  38.9614

          k = 0.5388-0.6222-0.1974 (  6464 PWs)   bands (ev):

   -90.9058 -90.9058 -90.9045 -90.9045 -52.3525 -52.3525 -52.3389 -52.3389
   -52.3355 -52.3355 -52.3302 -52.3302 -52.3269 -52.3269 -52.3226 -52.3226
    -7.9219  -7.9219  -7.3790  -7.3790  -6.5841  -6.5841   4.0273   4.0273
     4.7261   4.7261   5.6787   5.6787   6.2667   6.2667   7.5320   7.5320
     7.7943   7.7943   8.5269   8.5269   8.8493   8.8493   9.1250   9.1250
    19.2092  19.2092  19.4955  19.4955  20.1649  20.1649  21.5077  21.5077
    22.8752  22.8752  23.2878  23.2878  24.3268  24.3268  24.4492  24.4492
    25.1629  25.1629  26.5219  26.5220  27.7509  27.7509  29.7842  29.7842
    31.6639  31.6639  32.6748  32.6748  33.8005  33.8005  34.3930  34.3930
    35.7381  35.7381  36.7981  36.7981  38.4903  38.4903  38.8457  38.8457

          k = 0.6735-0.3888-0.1974 (  6457 PWs)   bands (ev):

   -90.9060 -90.9058 -90.9045 -90.9043 -52.3527 -52.3522 -52.3390 -52.3389
   -52.3365 -52.3331 -52.3331 -52.3304 -52.3264 -52.3251 -52.3240 -52.3220
    -8.0742  -7.9127  -7.4685  -7.0984  -6.6728  -6.5184   3.6047   4.4940
     4.5722   4.8551   5.6839   6.0055   6.1458   6.7318   7.0400   7.3175
     7.6475   7.9917   8.3803   8.6683   8.6757   8.8143   8.9390   9.1650
    19.2212  19.3471  19.5450  19.8259  19.8469  21.1888  21.3460  21.8791
    22.4027  22.5872  23.2520  23.3332  24.1698  24.4684  24.6354  24.7613
    24.8986  25.2645  25.9262  26.5243  27.0814  27.7582  30.0858  30.4571
    30.7844  31.7807  32.7665  33.4259  33.8077  33.8471  34.0473  34.8580
    35.3463  36.8063  36.8100  37.1647  37.4156  38.5166  38.8883  39.2565

          k = 0.0000 0.0000 0.4441 (  6491 PWs)   bands (ev):

   -90.9065 -90.9059 -90.9043 -90.9039 -52.3528 -52.3515 -52.3391 -52.3386
   -52.3345 -52.3345 -52.3341 -52.3341 -52.3236 -52.3236 -52.3233 -52.3233
    -8.7695  -7.9379  -6.7567  -6.7567  -6.6399  -6.6399   3.9691   4.4698
     4.6356   4.8621   4.8621   5.8063   5.8063   6.5338   7.1317   7.2894
     7.2895   7.8536   8.2203   8.2203   9.1923   9.1924   9.4221   9.4221
    17.3448  18.4642  20.1769  20.9588  21.7901  21.7914  21.7914  21.9662
    22.2848  22.2848  23.7276  23.7276  24.0756  24.2320  24.2320  25.0872
    25.4710  25.8439  26.9388  26.9388  27.1361  27.1361  29.6826  30.6541
    30.6541  31.7139  31.7139  32.0203  33.6332  33.6332  33.8770  34.6870
    34.6870  35.8661  36.6261  36.9508  36.9508  37.9007  37.9007  38.5709

          k = 0.9429 0.5444 0.0987 (  6461 PWs)   bands (ev):

   -90.9063 -90.9060 -90.9043 -90.9040 -52.3526 -52.3518 -52.3391 -52.3388
   -52.3350 -52.3348 -52.3338 -52.3331 -52.3242 -52.3239 -52.3233 -52.3228
    -8.5854  -8.0390  -6.9392  -6.8069  -6.6371  -6.5591   4.0472   4.1367
     4.7001   5.0992   5.4789   5.5064   5.9411   6.4690   6.9805   7.2789
     7.5566   7.8631   8.0059   8.3061   9.0736   9.1015   9.2624   9.3264
    17.8248  18.6018  20.3876  20.4844  21.4631  21.4999  21.7603  22.1213
    22.3266  22.5401  23.7134  23.7333  23.9822  24.1922  24.2748  24.7821
    25.3861  25.6887  26.4918  26.5503  27.0764  27.0950  30.0502  30.7473
    31.3325  31.4530  31.8969  32.2741  33.6761  33.8267  34.7434  34.8664
    34.9364  35.7174  36.5463  36.9650  37.3193  37.7500  38.0400  38.3680

          k = 0.8082 0.4666 0.1480 (  6467 PWs)   bands (ev):

   -90.9061 -90.9060 -90.9043 -90.9042 -52.3523 -52.3522 -52.3391 -52.3389
   -52.3359 -52.3343 -52.3333 -52.3315 -52.3255 -52.3240 -52.3238 -52.3223
    -8.2869  -8.0582  -7.2213  -6.9725  -6.6059  -6.5225   3.8026   4.2710
     4.7134   4.8694   5.6142   5.9872   6.4288   6.4395   6.8595   7.1364
     7.4466   8.0744   8.2733   8.5597   8.7791   8.8397   9.0948   9.1368
    18.6016  19.0248  19.8320  20.6360  20.7259  20.8220  21.4947  22.0812
    22.4295  22.6725  23.4945  23.8227  24.1772  24.3081  24.3215  24.4766
    25.1101  25.5048  25.9527  26.0433  27.0722  27.4519  30.0417  30.7145
    31.2771  32.1924  32.6518  32.7824  33.4944  34.3368  34.3374  34.8638
    35.4654  36.3143  36.5975  37.1007  37.2087  37.8773  38.2515  38.8291

          k = 0.9429-0.5444-0.2467 (  6445 PWs)   bands (ev):

   -90.9062 -90.9061 -90.9042 -90.9040 -52.3523 -52.3519 -52.3390 -52.3389
   -52.3353 -52.3347 -52.3336 -52.3332 -52.3243 -52.3238 -52.3232 -52.3229
    -8.4577  -8.1790  -6.8871  -6.8629  -6.6318  -6.5671   4.0172   4.2322
     4.7971   5.3156   5.5309   5.5902   5.6224   6.2925   7.0573   7.4603
     7.4967   7.7239   7.9326   8.2750   9.0633   9.1799   9.2138   9.2745
    18.0578  18.4497  20.3964  20.6793  21.3317  21.4862  21.7156  21.8879
    22.5228  22.6669  23.7522  23.7895  24.0500  24.1148  24.2522  24.5929
    25.4829  25.4931  26.4263  26.5719  26.9779  27.1176  30.4568  30.7474
    30.8004  31.7018  32.0749  32.2152  34.0218  34.0629  34.4352  34.5323
    35.3073  35.4625  36.5944  37.0586  37.1742  38.0791  38.2077  38.6497

          k = 0.8082-0.6222-0.1974 (  6464 PWs)   bands (ev):

   -90.9061 -90.9061 -90.9042 -90.9042 -52.3522 -52.3522 -52.3390 -52.3390
   -52.3353 -52.3353 -52.3325 -52.3325 -52.3248 -52.3248 -52.3228 -52.3228
    -8.2182  -8.2181  -7.0461  -7.0461  -6.5619  -6.5619   4.0476   4.0476
     4.8916   4.8916   5.7518   5.7519   6.2772   6.2772   7.0330   7.0330
     7.6816   7.6816   8.4027   8.4027   8.8688   8.8688   9.1561   9.1562
    18.6537  18.6537  20.3051  20.3051  21.0742  21.0742  21.5575  21.5575
    22.7318  22.7318  23.7579  23.7579  24.2013  24.2013  24.3142  24.3142
    25.4030  25.4030  26.0074  26.0074  27.2296  27.2297  30.3327  30.3327
    31.6587  31.6587  32.8656  32.8656  33.8060  33.8060  34.4528  34.4528
    35.9773  35.9773  36.6196  36.6197  37.5185  37.5185  38.5667  38.5667

          k = 0.0000 0.0000-0.5922 (  6454 PWs)   bands (ev):

   -90.9062 -90.9062 -90.9041 -90.9041 -52.3520 -52.3520 -52.3390 -52.3390
   -52.3344 -52.3344 -52.3344 -52.3344 -52.3234 -52.3234 -52.3234 -52.3234
    -8.3752  -8.3752  -6.7009  -6.7008  -6.7008  -6.7008   4.1772   4.1772
     5.3435   5.3435   5.3435   5.3435   5.6382   5.6382   7.4652   7.4652
     7.7252   7.7252   7.7252   7.7252   9.2902   9.2902   9.2902   9.2902
    18.0357  18.0358  20.5703  20.5703  21.7671  21.7671  22.1782  22.1782
    22.1782  22.1782  23.9064  23.9064  23.9064  23.9064  24.4659  24.4659
    25.5412  25.5412  26.9246  26.9246  26.9246  26.9246  30.8707  30.8707
    31.1933  31.1933  31.1933  31.1933  34.5233  34.5233  34.5233  34.5233
    34.8114  34.8114  37.2603  37.2603  37.2603  37.2603  38.4688  38.4688

     the Fermi energy is    15.2028 ev

!    total energy              =    -746.66995145 Ry
     estimated scf accuracy    <          1.7E-11 Ry
     smearing contrib. (-TS)   =      -0.00000000 Ry
     internal energy E=F+TS    =    -746.66995145 Ry

     The total energy is F=E-TS. E is the sum of the following terms:
     one-electron contribution =    -343.35917344 Ry
     hartree contribution      =     173.85247646 Ry
     xc contribution           =    -106.21899396 Ry
     ewald contribution        =    -470.94426053 Ry

     convergence has been achieved in   9 iterations

     Writing all to output data dir out/mp-1143.save/
 
     init_run     :      3.58s CPU      3.72s WALL (       1 calls)
     electrons    :    174.12s CPU    179.20s WALL (       1 calls)

     Called by init_run:
     wfcinit      :      3.44s CPU      3.56s WALL (       1 calls)
     potinit      :      0.05s CPU      0.05s WALL (       1 calls)
     hinit0       :      0.03s CPU      0.04s WALL (       1 calls)

     Called by electrons:
     c_bands      :    161.29s CPU    166.07s WALL (       9 calls)
     sum_band     :     12.72s CPU     13.00s WALL (       9 calls)
     v_of_rho     :      0.10s CPU      0.10s WALL (      10 calls)
     mix_rho      :      0.01s CPU      0.02s WALL (       9 calls)

     Called by c_bands:
     init_us_2    :      0.43s CPU      0.47s WALL (    1235 calls)
     init_us_2:cp :      0.43s CPU      0.46s WALL (    1235 calls)
     cegterg      :    159.28s CPU    161.72s WALL (     585 calls)

     Called by *egterg:
     cdiaghg      :     41.04s CPU     41.17s WALL (    4405 calls)
     h_psi        :     92.19s CPU     94.31s WALL (    4470 calls)
     g_psi        :      0.69s CPU      0.70s WALL (    3820 calls)

     Called by h_psi:
     h_psi:calbec :      3.94s CPU      4.00s WALL (    4470 calls)
     vloc_psi     :     84.49s CPU     86.52s WALL (    4470 calls)
     add_vuspsi   :      3.35s CPU      3.37s WALL (    4470 calls)

     General routines
     calbec       :      3.93s CPU      3.98s WALL (    4470 calls)
     fft          :      0.04s CPU      0.05s WALL (      99 calls)
     ffts         :      0.00s CPU      0.00s WALL (       9 calls)
     fftw         :     85.33s CPU     87.33s WALL (  396458 calls)
 
     Parallel routines
 
     PWSCF        :   2m58.20s CPU   3m 3.84s WALL

 
   This run was terminated on:  14:35:37   3Jan2024            

=------------------------------------------------------------------------------=
   JOB DONE.
=------------------------------------------------------------------------------=
