
     Program PWSCF v.7.1 starts on  3Jan2024 at 14:37: 7 

     This program is part of the open-source Quantum ESPRESSO suite
     for quantum simulation of materials; please cite
         "P. Giannozzi et al., J. Phys.:Condens. Matter 21 395502 (2009);
         "P. Giannozzi et al., J. Phys.:Condens. Matter 29 465901 (2017);
         "P. Giannozzi et al., J. Chem. Phys. 152 154105 (2020);
          URL http://www.quantum-espresso.org", 
     in publications or presentations arising from this work. More details at
     http://www.quantum-espresso.org/quote

     Parallel version (MPI), running on     8 processors

     MPI processes distributed on     1 nodes
     247472 MiB available memory on the printing compute node when the environment starts
 
     Reading input from pw_mp-1500_nscf_k3000_E130.in
Warning: card &IONS ignored
Warning: card / ignored
Warning: card &CELL ignored
Warning: card / ignored

     Current dimensions of program PWSCF are:
     Max number of different atomic species (ntypx) = 10
     Max number of k-points (npk) =  40000
     Max angular momentum in pseudopotentials (lmaxx) =  4

     Atomic positions and unit cell read from directory:
     out/mp-1500.save/
     Atomic positions from file used, from input discarded
 
 
     R & G space division:  proc/nbgrp/npool/nimage =       8
     Subspace diagonalization in iterative solution of the eigenvalue problem:
     a serial algorithm will be used

 
     Parallelization info
     --------------------
     sticks:   dense  smooth     PW     G-vecs:    dense   smooth      PW
     Min         334     334     93                11346    11346    1691
     Max         335     335     94                11348    11348    1696
     Sum        2677    2677    745                90777    90777   13539
 
     Using Slab Decomposition
 


     bravais-lattice index     =            2
     lattice parameter (alat)  =      12.1913  a.u.
     unit-cell volume          =     452.9900 (a.u.)^3
     number of atoms/cell      =            2
     number of atomic types    =            2
     number of electrons       =        16.00
     number of Kohn-Sham states=           16
     kinetic-energy cutoff     =     130.0000  Ry
     charge density cutoff     =     520.0000  Ry
     Exchange-correlation= PBE
                           (   1   4   3   4   0   0   0)

     celldm(1)=  12.191286  celldm(2)=   0.000000  celldm(3)=   0.000000
     celldm(4)=   0.000000  celldm(5)=   0.000000  celldm(6)=   0.000000

     crystal axes: (cart. coord. in units of alat)
               a(1) = (  -0.500000   0.000000   0.500000 )  
               a(2) = (   0.000000   0.500000   0.500000 )  
               a(3) = (  -0.500000   0.500000   0.000000 )  

     reciprocal axes: (cart. coord. in units 2 pi/alat)
               b(1) = ( -1.000000 -1.000000  1.000000 )  
               b(2) = (  1.000000  1.000000  1.000000 )  
               b(3) = ( -1.000000  1.000000 -1.000000 )  


     PseudoPot. # 1 for Ba read from file:
     /usr/scratch4/magr4985/MG/devEb/pseudo/SG15/Ba.upf
     MD5 check sum: e41eb7508bab73859f43c2f9f93c7154
     Pseudo is Norm-conserving, Zval = 10.0
     Generated using ONCVPSP code by D. R. Hamann
     Using radial grid of  602 points,  8 beta functions with: 
                l(1) =   0
                l(2) =   0
                l(3) =   1
                l(4) =   1
                l(5) =   2
                l(6) =   2
                l(7) =   3
                l(8) =   3

     PseudoPot. # 2 for S  read from file:
     /usr/scratch4/magr4985/MG/devEb/pseudo/SG15/S.upf
     MD5 check sum: f71d1a2a52b6d571906ac9250480b432
     Pseudo is Norm-conserving, Zval =  6.0
     Generated using ONCVPSP code by D. R. Hamann
     Using radial grid of  602 points,  4 beta functions with: 
                l(1) =   0
                l(2) =   0
                l(3) =   1
                l(4) =   1

     atomic species   valence    mass     pseudopotential
        Ba            10.00   137.32700     Ba( 1.00)
        S              6.00    32.06500     S ( 1.00)

     48 Sym. Ops., with inversion, found



   Cartesian axes

     site n.     atom                  positions (alat units)
         1           Ba  tau(   1) = (   0.0000000   0.0000000   0.0000000  )
         2           S   tau(   2) = (  -0.5000000   0.5000000   0.5000000  )

     number of k points=   413  Gaussian smearing, width (Ry)=  0.0005

     Number of k-points >= 100: set verbosity='high' to print them.

     Dense  grid:    90777 G-vectors     FFT dimensions: (  64,  64,  64)

     Estimated max dynamical RAM per process >      15.55 MB

     Estimated total dynamical RAM >     124.44 MB

     The potential is recalculated from file :
     out/mp-1500.save/charge-density

     Starting wfcs are random

     Band Structure Calculation
     Davidson diagonalization with overlap

     ethr =  5.00E-06,  avg # of iterations = 49.8

     total cpu time spent up to now is      166.2 secs

     End of band structure calculation

     Number of k-points >= 100: set verbosity='high' to print the bands.

     the Fermi energy is     6.3722 ev
     (compare with:     6.3722 eV, computed in scf)

     Writing all to output data dir out/mp-1500.save/
 
     init_run     :      0.24s CPU      0.25s WALL (       1 calls)
     electrons    :    161.70s CPU    165.76s WALL (       1 calls)

     Called by init_run:
     wfcinit      :      0.00s CPU      0.00s WALL (       1 calls)
     potinit      :      0.04s CPU      0.04s WALL (       1 calls)
     hinit0       :      0.01s CPU      0.03s WALL (       1 calls)

     Called by electrons:
     c_bands      :    161.70s CPU    165.76s WALL (       1 calls)
     v_of_rho     :      0.02s CPU      0.03s WALL (       1 calls)

     Called by c_bands:
     init_us_2    :      0.19s CPU      0.27s WALL (     413 calls)
     init_us_2:cp :      0.19s CPU      0.27s WALL (     413 calls)
     cegterg      :    153.34s CPU    155.81s WALL (    1234 calls)

     Called by *egterg:
     cdiaghg      :      7.59s CPU      7.72s WALL (   20966 calls)
     h_psi        :    131.11s CPU    133.36s WALL (   22200 calls)
     g_psi        :      1.39s CPU      1.41s WALL (   20553 calls)

     Called by h_psi:
     h_psi:calbec :      5.29s CPU      5.40s WALL (   22200 calls)
     vloc_psi     :    120.68s CPU    122.74s WALL (   22200 calls)
     add_vuspsi   :      4.45s CPU      4.54s WALL (   22200 calls)

     General routines
     calbec       :      5.23s CPU      5.34s WALL (   22200 calls)
     fft          :      0.01s CPU      0.02s WALL (      10 calls)
     fftw         :    106.22s CPU    108.03s WALL (  364640 calls)
     davcio       :      0.14s CPU      0.62s WALL (     826 calls)
 
     Parallel routines
 
     PWSCF        :   2m43.54s CPU   2m49.81s WALL

 
   This run was terminated on:  14:39:57   3Jan2024            

=------------------------------------------------------------------------------=
   JOB DONE.
=------------------------------------------------------------------------------=
