 vasp.5.4.4.18Apr17-6-g9f103f2a35 (build Aug 24 2017 11:22:49) complex          
  
 executed on             LinuxIFC date 2023.12.25  13:07:29
 running on    8 total cores
 distrk:  each k-point on    8 cores,    1 groups
 distr:  one band on NCORES_PER_BAND=   1 cores,    8 groups


--------------------------------------------------------------------------------------------------------


 INCAR:
 POTCAR:    PAW_PBE Ga_d 06Jul2010                
 POTCAR:    PAW_PBE As 22Sep2009                  

 ----------------------------------------------------------------------------- 
|                                                                             |
|           W    W    AA    RRRRR   N    N  II  N    N   GGGG   !!!           |
|           W    W   A  A   R    R  NN   N  II  NN   N  G    G  !!!           |
|           W    W  A    A  R    R  N N  N  II  N N  N  G       !!!           |
|           W WW W  AAAAAA  RRRRR   N  N N  II  N  N N  G  GGG   !            |
|           WW  WW  A    A  R   R   N   NN  II  N   NN  G    G                |
|           W    W  A    A  R    R  N    N  II  N    N   GGGG   !!!           |
|                                                                             |
|      For optimal performance we recommend to set                            |
|        NCORE= 4 - approx SQRT( number of cores)                             |
|      NCORE specifies how many cores store one orbital (NPAR=cpu/NCORE).     |
|      This setting can  greatly improve the performance of VASP for DFT.     |
|      The default,   NCORE=1            might be grossly inefficient         |
|      on modern multi-core architectures or massively parallel machines.     |
|      Do your own testing !!!!                                               |
|      Unfortunately you need to use the default for GW and RPA calculations. |
|      (for HF NCORE is supported but not extensively tested yet)             |
|                                                                             |
 ----------------------------------------------------------------------------- 

 POTCAR:    PAW_PBE Ga_d 06Jul2010                
   VRHFIN =Ga: s2p1                                                             
   LEXCH  = PE                                                                  
   EATOM  =  2148.8298 eV,  157.9345 Ry                                         
                                                                                
   TITEL  = PAW_PBE Ga_d 06Jul2010                                              
   LULTRA =        F    use ultrasoft PP ?                                      
   IUNSCR =        1    unscreen: 0-lin 1-nonlin 2-no                           
   RPACOR =    1.700    partial core radius                                     
   POMASS =   69.723; ZVAL   =   13.000    mass and valenz                      
   RCORE  =    2.300    outmost cutoff radius                                   
   RWIGS  =    2.300; RWIGS  =    1.217    wigner-seitz radius (au A)           
   ENMAX  =  282.691; ENMIN  =  212.018 eV                                      
   ICORE  =        3    local potential                                         
   LCOR   =        T    correct aug charges                                     
   LPAW   =        T    paw PP                                                  
   EAUG   =  490.690                                                            
   DEXC   =    0.000                                                            
   RMAX   =    2.341    core radius for proj-oper                               
   RAUG   =    1.300    factor for augmentation sphere                          
   RDEP   =    2.413    radius for radial grids                                 
   RDEPT  =    1.856    core radius for aug-charge                              
                                                                                
   Atomic configuration                                                         
    9 entries                                                                   
     n  l   j            E        occ.                                          
     1  0  0.50    -10228.7831   2.0000                                         
     2  0  0.50     -1262.1604   2.0000                                         
     2  1  1.50     -1098.6333   6.0000                                         
     3  0  0.50      -148.1110   2.0000                                         
     3  1  1.50       -98.8436   6.0000                                         
     3  2  2.50       -19.1549  10.0000                                         
     4  0  0.50        -8.9483   2.0000                                         
     4  1  0.50        -2.5791   1.0000                                         
     4  3  2.50        -2.7416   0.0000                                         
   Description                                                                  
     l       E           TYP  RCUT    TYP  RCUT                                 
     2    -19.1549037     23  2.300                                             
     2     -5.4423304     23  2.300                                             
     0     -8.9483111     23  2.300                                             
     0     68.0291300     23  2.300                                             
     1     -2.5790802     23  2.100                                             
     1     81.6349560     23  2.300                                             
     3      6.8029130     23  2.300                                             
  local pseudopotential read in
  partial core-charges read in
  partial kinetic energy density read in
  atomic valenz-charges read in
  non local Contribution for L=           2  read in
    real space projection operators read in
  non local Contribution for L=           2  read in
    real space projection operators read in
  non local Contribution for L=           0  read in
    real space projection operators read in
  non local Contribution for L=           0  read in
    real space projection operators read in
  non local Contribution for L=           1  read in
    real space projection operators read in
  non local Contribution for L=           1  read in
    real space projection operators read in
    PAW grid and wavefunctions read in
 
   number of l-projection  operators is LMAX  =           6
   number of lm-projection operators is LMMAX =          18
 
 POTCAR:    PAW_PBE As 22Sep2009                  
   VRHFIN =As: s2p3                                                             
   LEXCH  = PE                                                                  
   EATOM  =   170.1867 eV,   12.5084 Ry                                         
                                                                                
   TITEL  = PAW_PBE As 22Sep2009                                                
   LULTRA =        F    use ultrasoft PP ?                                      
   IUNSCR =        1    unscreen: 0-lin 1-nonlin 2-no                           
   RPACOR =    1.900    partial core radius                                     
   POMASS =   74.922; ZVAL   =    5.000    mass and valenz                      
   RCORE  =    2.100    outmost cutoff radius                                   
   RWIGS  =    2.300; RWIGS  =    1.217    wigner-seitz radius (au A)           
   ENMAX  =  208.702; ENMIN  =  156.526 eV                                      
   ICORE  =        3    local potential                                         
   LCOR   =        T    correct aug charges                                     
   LPAW   =        T    paw PP                                                  
   EAUG   =  462.758                                                            
   DEXC   =    0.000                                                            
   RMAX   =    2.144    core radius for proj-oper                               
   RAUG   =    1.300    factor for augmentation sphere                          
   RDEP   =    2.140    radius for radial grids                                 
   RDEPT  =    1.956    core radius for aug-charge                              
                                                                                
   Atomic configuration                                                         
   10 entries                                                                   
     n  l   j            E        occ.                                          
     1  0  0.50    -11718.0418   2.0000                                         
     2  0  0.50     -1486.5454   2.0000                                         
     2  1  1.50     -1303.3889   6.0000                                         
     3  0  0.50      -190.2849   2.0000                                         
     3  1  1.50      -133.6555   6.0000                                         
     3  2  2.50       -40.6443  10.0000                                         
     4  0  0.50       -14.4936   2.0000                                         
     4  1  0.50        -5.1947   3.0000                                         
     4  2  1.50        -5.4423   0.0000                                         
     4  3  2.50        -5.4423   0.0000                                         
   Description                                                                  
     l       E           TYP  RCUT    TYP  RCUT                                 
     0    -14.4935570     23  2.100                                             
     0    -11.9212055     23  2.100                                             
     1     -5.1947127     23  2.100                                             
     1     27.2116520     23  2.100                                             
     2     -5.4423304     23  2.100                                             
     3     -1.3605826      7  2.100                                             
  local pseudopotential read in
  partial core-charges read in
  partial kinetic energy density read in
  atomic valenz-charges read in
  non local Contribution for L=           0  read in
    real space projection operators read in
  non local Contribution for L=           0  read in
    real space projection operators read in
  non local Contribution for L=           1  read in
    real space projection operators read in
  non local Contribution for L=           1  read in
    real space projection operators read in
  non local Contribution for L=           2  read in
    real space projection operators read in
    PAW grid and wavefunctions read in
 
   number of l-projection  operators is LMAX  =           5
   number of lm-projection operators is LMMAX =          13
 
  PAW_PBE Ga_d 06Jul2010                :
 energy of atom  1       EATOM=-2148.8298
 kinetic energy error for atom=    0.0026 (will be added to EATOM!!)
  PAW_PBE As 22Sep2009                  :
 energy of atom  2       EATOM= -170.1867
 kinetic energy error for atom=    0.0005 (will be added to EATOM!!)
 
 
 POSCAR: Ga1 As1                                 
  positions in direct lattice
  No initial velocities read in
 exchange correlation table for  LEXCH =        8
   RHO(1)=    0.500       N(1)  =     2000
   RHO(2)=  100.500       N(2)  =     4000
 


--------------------------------------------------------------------------------------------------------


 ion  position               nearest neighbor table
   1  0.000  0.000  0.000-   2 2.49   2 2.49   2 2.49   2 2.49
   2  0.250  0.250  0.250-   1 2.49   1 2.49   1 2.49   1 2.49
 
  LATTYP: Found a face centered cubic cell.
 ALAT       =     5.7501816576
  
  Lattice vectors:
  
 A1 = (  -2.8750908288,   0.0000000000,   2.8750908288)
 A2 = (   0.0000000000,   2.8750908288,   2.8750908288)
 A3 = (  -2.8750908288,   2.8750908288,   0.0000000000)


Analysis of symmetry for initial positions (statically):
=====================================================================
 Subroutine PRICEL returns:
 Original cell was already a primitive cell.
 

 Routine SETGRP: Setting up the symmetry group for a 
 face centered cubic supercell.


 Subroutine GETGRP returns: Found  2 space group operations
 (whereof  2 operations were pure point group operations)
 out of a pool of 48 trial point group operations.


The static configuration has the point symmetry C_1h.


Analysis of symmetry for dynamics (positions and initial velocities):
=====================================================================
 Subroutine PRICEL returns:
 Original cell was already a primitive cell.
 

 Routine SETGRP: Setting up the symmetry group for a 
 face centered cubic supercell.


 Subroutine GETGRP returns: Found  2 space group operations
 (whereof  2 operations were pure point group operations)
 out of a pool of 48 trial point group operations.


The dynamic configuration has the point symmetry C_1h.


 Subroutine INISYM returns: Found  2 space group operations
 (whereof  2 operations are pure point group operations),
 and found     1 'primitive' translations

 
 
 KPOINTS: pymatgen with grid density = 3000 / numb

Automatic generation of k-mesh.
Space group operators:
 irot       det(A)        alpha          n_x          n_y          n_z        tau_x        tau_y        tau_z
    1     1.000000     0.000000     1.000000     0.000000     0.000000     0.000000     0.000000     0.000000
    2    -1.000000   180.000000     0.707107    -0.707107     0.000000     0.000000     0.000000     0.000000
 
 Subroutine IBZKPT returns following result:
 ===========================================
 
 Found    476 irreducible k-points:
 
 Following reciprocal coordinates:
            Coordinates               Weight
  0.000000  0.000000  0.000000      1.000000
  0.083333  0.000000  0.000000      2.000000
  0.166667  0.000000  0.000000      2.000000
  0.250000  0.000000 -0.000000      2.000000
  0.333333  0.000000  0.000000      2.000000
  0.416667 -0.000000 -0.000000      2.000000
  0.500000  0.000000 -0.000000      1.000000
  0.000000  0.083333 -0.000000      2.000000
  0.083333  0.083333  0.000000      2.000000
  0.166667  0.083333 -0.000000      2.000000
  0.250000  0.083333  0.000000      2.000000
  0.333333  0.083333 -0.000000      2.000000
  0.416667  0.083333  0.000000      2.000000
  0.500000  0.083333 -0.000000      2.000000
 -0.416667  0.083333  0.000000      2.000000
 -0.333333  0.083333 -0.000000      2.000000
 -0.250000  0.083333  0.000000      2.000000
 -0.166667  0.083333  0.000000      2.000000
 -0.083333  0.083333 -0.000000      2.000000
 -0.000000  0.166667  0.000000      2.000000
  0.083333  0.166667  0.000000      2.000000
  0.166667  0.166667  0.000000      2.000000
  0.250000  0.166667  0.000000      2.000000
  0.333333  0.166667  0.000000      2.000000
  0.416667  0.166667 -0.000000      2.000000
  0.500000  0.166667 -0.000000      2.000000
 -0.416667  0.166667  0.000000      2.000000
 -0.333333  0.166667  0.000000      2.000000
 -0.250000  0.166667  0.000000      2.000000
 -0.166667  0.166667  0.000000      2.000000
 -0.083333  0.166667  0.000000      2.000000
 -0.000000  0.250000  0.000000      2.000000
  0.083333  0.250000  0.000000      2.000000
  0.166667  0.250000  0.000000      2.000000
  0.250000  0.250000  0.000000      2.000000
  0.333333  0.250000  0.000000      2.000000
  0.416667  0.250000  0.000000      2.000000
  0.500000  0.250000 -0.000000      2.000000
 -0.416667  0.250000  0.000000      2.000000
 -0.333333  0.250000  0.000000      2.000000
 -0.250000  0.250000 -0.000000      2.000000
 -0.166667  0.250000  0.000000      2.000000
 -0.083333  0.250000  0.000000      2.000000
 -0.000000  0.333333  0.000000      2.000000
  0.083333  0.333333 -0.000000      2.000000
  0.166667  0.333333  0.000000      2.000000
  0.250000  0.333333  0.000000      2.000000
  0.333333  0.333333  0.000000      2.000000
  0.416667  0.333333  0.000000      2.000000
  0.500000  0.333333  0.000000      2.000000
 -0.416667  0.333333  0.000000      2.000000
 -0.333333  0.333333  0.000000      2.000000
 -0.250000  0.333333  0.000000      2.000000
 -0.166667  0.333333 -0.000000      2.000000
 -0.083333  0.333333 -0.000000      2.000000
  0.000000  0.416667 -0.000000      2.000000
  0.083333  0.416667 -0.000000      2.000000
  0.166667  0.416667  0.000000      2.000000
  0.250000  0.416667 -0.000000      2.000000
  0.333333  0.416667  0.000000      2.000000
  0.416667  0.416667  0.000000      2.000000
  0.500000  0.416667  0.000000      2.000000
 -0.416667  0.416667  0.000000      2.000000
 -0.333333  0.416667 -0.000000      2.000000
 -0.250000  0.416667  0.000000      2.000000
 -0.166667  0.416667  0.000000      2.000000
 -0.083333  0.416667  0.000000      2.000000
 -0.000000  0.500000  0.000000      1.000000
  0.083333  0.500000 -0.000000      2.000000
  0.166667  0.500000  0.000000      2.000000
  0.250000  0.500000  0.000000      2.000000
  0.333333  0.500000  0.000000      2.000000
  0.416667  0.500000  0.000000      2.000000
  0.500000  0.500000  0.000000      1.000000
  0.000000 -0.000000  0.083333      4.000000
  0.083333  0.000000  0.083333      4.000000
  0.166667  0.000000  0.083333      4.000000
  0.250000 -0.000000  0.083333      4.000000
  0.333333 -0.000000  0.083333      4.000000
  0.416667 -0.000000  0.083333      4.000000
  0.500000 -0.000000  0.083333      4.000000
 -0.416667 -0.000000  0.083333      4.000000
 -0.333333  0.000000  0.083333      4.000000
 -0.250000  0.000000  0.083333      4.000000
 -0.166667 -0.000000  0.083333      4.000000
 -0.083333 -0.000000  0.083333      4.000000
 -0.000000  0.166667  0.083333      4.000000
  0.083333  0.166667  0.083333      4.000000
  0.166667  0.166667  0.083333      4.000000
  0.250000  0.166667  0.083333      4.000000
  0.333333  0.166667  0.083333      4.000000
  0.416667  0.166667  0.083333      4.000000
  0.500000  0.166667  0.083333      4.000000
 -0.416667  0.166667  0.083333      4.000000
 -0.333333  0.166667  0.083333      4.000000
 -0.250000  0.166667  0.083333      4.000000
 -0.166667  0.166667  0.083333      4.000000
 -0.083333  0.166667  0.083333      4.000000
  0.000000  0.250000  0.083333      4.000000
  0.083333  0.250000  0.083333      4.000000
  0.166667  0.250000  0.083333      4.000000
  0.250000  0.250000  0.083333      4.000000
  0.333333  0.250000  0.083333      4.000000
  0.416667  0.250000  0.083333      4.000000
  0.500000  0.250000  0.083333      4.000000
 -0.416667  0.250000  0.083333      4.000000
 -0.333333  0.250000  0.083333      4.000000
 -0.250000  0.250000  0.083333      4.000000
 -0.166667  0.250000  0.083333      4.000000
 -0.083333  0.250000  0.083333      4.000000
  0.000000  0.333333  0.083333      4.000000
  0.083333  0.333333  0.083333      4.000000
  0.166667  0.333333  0.083333      4.000000
  0.250000  0.333333  0.083333      4.000000
  0.333333  0.333333  0.083333      4.000000
  0.416667  0.333333  0.083333      4.000000
  0.500000  0.333333  0.083333      4.000000
 -0.416667  0.333333  0.083333      4.000000
 -0.333333  0.333333  0.083333      4.000000
 -0.250000  0.333333  0.083333      4.000000
 -0.166667  0.333333  0.083333      4.000000
 -0.083333  0.333333  0.083333      4.000000
 -0.000000  0.416667  0.083333      4.000000
  0.083333  0.416667  0.083333      4.000000
  0.166667  0.416667  0.083333      4.000000
  0.250000  0.416667  0.083333      4.000000
  0.333333  0.416667  0.083333      4.000000
  0.416667  0.416667  0.083333      4.000000
  0.500000  0.416667  0.083333      4.000000
 -0.416667  0.416667  0.083333      4.000000
 -0.333333  0.416667  0.083333      4.000000
 -0.250000  0.416667  0.083333      4.000000
 -0.166667  0.416667  0.083333      4.000000
 -0.083333  0.416667  0.083333      4.000000
  0.000000  0.500000  0.083333      4.000000
  0.083333  0.500000  0.083333      4.000000
  0.166667  0.500000  0.083333      4.000000
  0.250000  0.500000  0.083333      4.000000
  0.333333  0.500000  0.083333      4.000000
  0.416667  0.500000  0.083333      4.000000
  0.500000  0.500000  0.083333      4.000000
 -0.416667  0.500000  0.083333      4.000000
 -0.333333  0.500000  0.083333      4.000000
 -0.250000  0.500000  0.083333      4.000000
 -0.166667  0.500000  0.083333      4.000000
 -0.083333  0.500000  0.083333      4.000000
  0.000000 -0.000000  0.166667      4.000000
  0.083333  0.000000  0.166667      4.000000
  0.166667 -0.000000  0.166667      4.000000
  0.250000  0.000000  0.166667      4.000000
  0.333333  0.000000  0.166667      4.000000
  0.416667  0.000000  0.166667      4.000000
  0.500000  0.000000  0.166667      4.000000
 -0.416667  0.000000  0.166667      4.000000
 -0.333333  0.000000  0.166667      4.000000
 -0.250000  0.000000  0.166667      4.000000
 -0.166667 -0.000000  0.166667      4.000000
 -0.083333  0.000000  0.166667      4.000000
  0.000000  0.083333  0.166667      4.000000
  0.083333  0.083333  0.166667      2.000000
  0.250000  0.083333  0.166667      4.000000
  0.333333  0.083333  0.166667      4.000000
  0.416667  0.083333  0.166667      4.000000
  0.500000  0.083333  0.166667      4.000000
 -0.416667  0.083333  0.166667      2.000000
 -0.000000  0.250000  0.166667      4.000000
  0.083333  0.250000  0.166667      4.000000
  0.166667  0.250000  0.166667      4.000000
  0.250000  0.250000  0.166667      4.000000
  0.333333  0.250000  0.166667      4.000000
  0.416667  0.250000  0.166667      4.000000
  0.500000  0.250000  0.166667      4.000000
 -0.416667  0.250000  0.166667      4.000000
 -0.333333  0.250000  0.166667      4.000000
 -0.250000  0.250000  0.166667      4.000000
 -0.166667  0.250000  0.166667      4.000000
 -0.083333  0.250000  0.166667      4.000000
  0.000000  0.333333  0.166667      4.000000
  0.083333  0.333333  0.166667      4.000000
  0.166667  0.333333  0.166667      4.000000
  0.250000  0.333333  0.166667      4.000000
  0.333333  0.333333  0.166667      4.000000
  0.416667  0.333333  0.166667      4.000000
  0.500000  0.333333  0.166667      4.000000
 -0.416667  0.333333  0.166667      4.000000
 -0.333333  0.333333  0.166667      4.000000
 -0.250000  0.333333  0.166667      4.000000
 -0.166667  0.333333  0.166667      4.000000
 -0.083333  0.333333  0.166667      4.000000
 -0.000000  0.416667  0.166667      4.000000
  0.083333  0.416667  0.166667      4.000000
  0.166667  0.416667  0.166667      4.000000
  0.250000  0.416667  0.166667      4.000000
  0.333333  0.416667  0.166667      4.000000
  0.416667  0.416667  0.166667      4.000000
  0.500000  0.416667  0.166667      4.000000
 -0.416667  0.416667  0.166667      4.000000
 -0.333333  0.416667  0.166667      4.000000
 -0.250000  0.416667  0.166667      4.000000
 -0.166667  0.416667  0.166667      4.000000
 -0.083333  0.416667  0.166667      4.000000
 -0.000000  0.500000  0.166667      4.000000
  0.083333  0.500000  0.166667      4.000000
  0.166667  0.500000  0.166667      4.000000
  0.250000  0.500000  0.166667      4.000000
  0.333333  0.500000  0.166667      4.000000
  0.416667  0.500000  0.166667      4.000000
  0.500000  0.500000  0.166667      4.000000
 -0.416667  0.500000  0.166667      4.000000
 -0.333333  0.500000  0.166667      4.000000
 -0.250000  0.500000  0.166667      4.000000
 -0.166667  0.500000  0.166667      4.000000
 -0.083333  0.500000  0.166667      4.000000
  0.000000 -0.416667  0.166667      4.000000
  0.083333 -0.416667  0.166667      2.000000
  0.250000 -0.416667  0.166667      4.000000
  0.333333 -0.416667  0.166667      4.000000
  0.416667 -0.416667  0.166667      4.000000
  0.500000 -0.416667  0.166667      4.000000
 -0.416667 -0.416667  0.166667      2.000000
  0.000000  0.000000  0.250000      4.000000
  0.083333  0.000000  0.250000      4.000000
  0.166667  0.000000  0.250000      4.000000
  0.250000  0.000000  0.250000      4.000000
  0.333333  0.000000  0.250000      4.000000
  0.416667  0.000000  0.250000      4.000000
  0.500000 -0.000000  0.250000      4.000000
 -0.416667 -0.000000  0.250000      4.000000
 -0.333333  0.000000  0.250000      4.000000
 -0.250000 -0.000000  0.250000      4.000000
 -0.166667  0.000000  0.250000      4.000000
 -0.083333  0.000000  0.250000      4.000000
  0.000000  0.083333  0.250000      4.000000
  0.083333  0.083333  0.250000      4.000000
  0.166667  0.083333  0.250000      4.000000
  0.250000  0.083333  0.250000      4.000000
  0.333333  0.083333  0.250000      4.000000
  0.416667  0.083333  0.250000      4.000000
  0.500000  0.083333  0.250000      4.000000
 -0.416667  0.083333  0.250000      4.000000
 -0.333333  0.083333  0.250000      4.000000
 -0.250000  0.083333  0.250000      4.000000
 -0.166667  0.083333  0.250000      4.000000
 -0.083333  0.083333  0.250000      4.000000
 -0.000000  0.333333  0.250000      4.000000
  0.083333  0.333333  0.250000      4.000000
  0.166667  0.333333  0.250000      4.000000
  0.250000  0.333333  0.250000      4.000000
  0.333333  0.333333  0.250000      4.000000
  0.416667  0.333333  0.250000      4.000000
  0.500000  0.333333  0.250000      4.000000
 -0.416667  0.333333  0.250000      4.000000
 -0.333333  0.333333  0.250000      4.000000
 -0.250000  0.333333  0.250000      4.000000
 -0.166667  0.333333  0.250000      4.000000
 -0.083333  0.333333  0.250000      4.000000
 -0.000000  0.416667  0.250000      4.000000
  0.083333  0.416667  0.250000      4.000000
  0.166667  0.416667  0.250000      4.000000
  0.250000  0.416667  0.250000      4.000000
  0.333333  0.416667  0.250000      4.000000
  0.416667  0.416667  0.250000      4.000000
  0.500000  0.416667  0.250000      4.000000
 -0.416667  0.416667  0.250000      4.000000
 -0.333333  0.416667  0.250000      4.000000
 -0.250000  0.416667  0.250000      4.000000
 -0.166667  0.416667  0.250000      4.000000
 -0.083333  0.416667  0.250000      4.000000
  0.000000  0.500000  0.250000      4.000000
  0.083333  0.500000  0.250000      4.000000
  0.166667  0.500000  0.250000      4.000000
  0.250000  0.500000  0.250000      4.000000
  0.333333  0.500000  0.250000      4.000000
  0.416667  0.500000  0.250000      4.000000
  0.500000  0.500000  0.250000      4.000000
 -0.416667  0.500000  0.250000      4.000000
 -0.333333  0.500000  0.250000      4.000000
 -0.250000  0.500000  0.250000      4.000000
 -0.166667  0.500000  0.250000      4.000000
 -0.083333  0.500000  0.250000      4.000000
  0.000000 -0.416667  0.250000      4.000000
  0.083333 -0.416667  0.250000      4.000000
  0.166667 -0.416667  0.250000      4.000000
  0.250000 -0.416667  0.250000      4.000000
  0.333333 -0.416667  0.250000      4.000000
  0.416667 -0.416667  0.250000      4.000000
  0.500000 -0.416667  0.250000      4.000000
 -0.416667 -0.416667  0.250000      4.000000
 -0.333333 -0.416667  0.250000      4.000000
 -0.250000 -0.416667  0.250000      4.000000
 -0.166667 -0.416667  0.250000      4.000000
 -0.083333 -0.416667  0.250000      4.000000
  0.000000  0.000000  0.333333      4.000000
  0.083333 -0.000000  0.333333      4.000000
  0.166667  0.000000  0.333333      4.000000
  0.250000  0.000000  0.333333      4.000000
  0.333333  0.000000  0.333333      4.000000
  0.416667 -0.000000  0.333333      4.000000
  0.500000  0.000000  0.333333      4.000000
 -0.416667 -0.000000  0.333333      4.000000
 -0.333333 -0.000000  0.333333      4.000000
 -0.250000 -0.000000  0.333333      4.000000
 -0.166667 -0.000000  0.333333      4.000000
 -0.083333 -0.000000  0.333333      4.000000
 -0.000000  0.083333  0.333333      4.000000
  0.083333  0.083333  0.333333      4.000000
  0.166667  0.083333  0.333333      4.000000
  0.250000  0.083333  0.333333      4.000000
  0.333333  0.083333  0.333333      4.000000
  0.416667  0.083333  0.333333      4.000000
  0.500000  0.083333  0.333333      4.000000
 -0.416667  0.083333  0.333333      4.000000
 -0.333333  0.083333  0.333333      4.000000
 -0.250000  0.083333  0.333333      4.000000
 -0.166667  0.083333  0.333333      4.000000
 -0.083333  0.083333  0.333333      4.000000
 -0.000000  0.166667  0.333333      4.000000
  0.083333  0.166667  0.333333      4.000000
  0.166667  0.166667  0.333333      2.000000
  0.416667  0.166667  0.333333      4.000000
  0.500000  0.166667  0.333333      4.000000
 -0.416667  0.166667  0.333333      4.000000
 -0.333333  0.166667  0.333333      2.000000
 -0.000000  0.416667  0.333333      4.000000
  0.083333  0.416667  0.333333      4.000000
  0.166667  0.416667  0.333333      4.000000
  0.250000  0.416667  0.333333      4.000000
  0.333333  0.416667  0.333333      4.000000
  0.416667  0.416667  0.333333      4.000000
  0.500000  0.416667  0.333333      4.000000
 -0.416667  0.416667  0.333333      4.000000
 -0.333333  0.416667  0.333333      4.000000
 -0.250000  0.416667  0.333333      4.000000
 -0.166667  0.416667  0.333333      4.000000
 -0.083333  0.416667  0.333333      4.000000
 -0.000000  0.500000  0.333333      4.000000
  0.083333  0.500000  0.333333      4.000000
  0.166667  0.500000  0.333333      4.000000
  0.250000  0.500000  0.333333      4.000000
  0.333333  0.500000  0.333333      4.000000
  0.416667  0.500000  0.333333      4.000000
  0.500000  0.500000  0.333333      4.000000
 -0.416667  0.500000  0.333333      4.000000
 -0.333333  0.500000  0.333333      4.000000
 -0.250000  0.500000  0.333333      4.000000
 -0.166667  0.500000  0.333333      4.000000
 -0.083333  0.500000  0.333333      4.000000
 -0.000000 -0.416667  0.333333      4.000000
  0.083333 -0.416667  0.333333      4.000000
  0.166667 -0.416667  0.333333      4.000000
  0.250000 -0.416667  0.333333      4.000000
  0.333333 -0.416667  0.333333      4.000000
  0.416667 -0.416667  0.333333      4.000000
  0.500000 -0.416667  0.333333      4.000000
 -0.416667 -0.416667  0.333333      4.000000
 -0.333333 -0.416667  0.333333      4.000000
 -0.250000 -0.416667  0.333333      4.000000
 -0.166667 -0.416667  0.333333      4.000000
 -0.083333 -0.416667  0.333333      4.000000
  0.000000 -0.333333  0.333333      4.000000
  0.083333 -0.333333  0.333333      4.000000
  0.166667 -0.333333  0.333333      2.000000
  0.416667 -0.333333  0.333333      4.000000
  0.500000 -0.333333  0.333333      4.000000
 -0.416667 -0.333333  0.333333      4.000000
 -0.333333 -0.333333  0.333333      2.000000
  0.000000  0.000000  0.416667      4.000000
  0.083333 -0.000000  0.416667      4.000000
  0.166667  0.000000  0.416667      4.000000
  0.250000  0.000000  0.416667      4.000000
  0.333333  0.000000  0.416667      4.000000
  0.416667 -0.000000  0.416667      4.000000
  0.500000  0.000000  0.416667      4.000000
 -0.416667  0.000000  0.416667      4.000000
 -0.333333  0.000000  0.416667      4.000000
 -0.250000 -0.000000  0.416667      4.000000
 -0.166667  0.000000  0.416667      4.000000
 -0.083333  0.000000  0.416667      4.000000
  0.000000  0.083333  0.416667      4.000000
  0.083333  0.083333  0.416667      4.000000
  0.166667  0.083333  0.416667      4.000000
  0.250000  0.083333  0.416667      4.000000
  0.333333  0.083333  0.416667      4.000000
  0.416667  0.083333  0.416667      4.000000
  0.500000  0.083333  0.416667      4.000000
 -0.416667  0.083333  0.416667      4.000000
 -0.333333  0.083333  0.416667      4.000000
 -0.250000  0.083333  0.416667      4.000000
 -0.166667  0.083333  0.416667      4.000000
 -0.083333  0.083333  0.416667      4.000000
  0.000000  0.166667  0.416667      4.000000
  0.083333  0.166667  0.416667      4.000000
  0.166667  0.166667  0.416667      4.000000
  0.250000  0.166667  0.416667      4.000000
  0.333333  0.166667  0.416667      4.000000
  0.416667  0.166667  0.416667      4.000000
  0.500000  0.166667  0.416667      4.000000
 -0.416667  0.166667  0.416667      4.000000
 -0.333333  0.166667  0.416667      4.000000
 -0.250000  0.166667  0.416667      4.000000
 -0.166667  0.166667  0.416667      4.000000
 -0.083333  0.166667  0.416667      4.000000
 -0.000000  0.500000  0.416667      4.000000
  0.083333  0.500000  0.416667      4.000000
  0.166667  0.500000  0.416667      4.000000
  0.250000  0.500000  0.416667      4.000000
  0.333333  0.500000  0.416667      4.000000
  0.416667  0.500000  0.416667      4.000000
  0.500000  0.500000  0.416667      4.000000
 -0.416667  0.500000  0.416667      4.000000
 -0.333333  0.500000  0.416667      4.000000
 -0.250000  0.500000  0.416667      4.000000
 -0.166667  0.500000  0.416667      4.000000
 -0.083333  0.500000  0.416667      4.000000
  0.000000 -0.416667  0.416667      4.000000
  0.083333 -0.416667  0.416667      4.000000
  0.166667 -0.416667  0.416667      4.000000
  0.250000 -0.416667  0.416667      4.000000
  0.333333 -0.416667  0.416667      4.000000
  0.416667 -0.416667  0.416667      4.000000
  0.500000 -0.416667  0.416667      4.000000
 -0.416667 -0.416667  0.416667      4.000000
 -0.333333 -0.416667  0.416667      4.000000
 -0.250000 -0.416667  0.416667      4.000000
 -0.166667 -0.416667  0.416667      4.000000
 -0.083333 -0.416667  0.416667      4.000000
  0.000000 -0.333333  0.416667      4.000000
  0.083333 -0.333333  0.416667      4.000000
  0.166667 -0.333333  0.416667      4.000000
  0.250000 -0.333333  0.416667      4.000000
  0.333333 -0.333333  0.416667      4.000000
  0.416667 -0.333333  0.416667      4.000000
  0.500000 -0.333333  0.416667      4.000000
 -0.416667 -0.333333  0.416667      4.000000
 -0.333333 -0.333333  0.416667      4.000000
 -0.250000 -0.333333  0.416667      4.000000
 -0.166667 -0.333333  0.416667      4.000000
 -0.083333 -0.333333  0.416667      4.000000
  0.000000  0.000000  0.500000      2.000000
  0.083333  0.000000  0.500000      4.000000
  0.166667  0.000000  0.500000      4.000000
  0.250000  0.000000  0.500000      4.000000
  0.333333  0.000000  0.500000      4.000000
  0.416667 -0.000000  0.500000      4.000000
  0.500000  0.000000  0.500000      2.000000
  0.000000  0.083333  0.500000      4.000000
  0.083333  0.083333  0.500000      4.000000
  0.166667  0.083333  0.500000      4.000000
  0.250000  0.083333  0.500000      4.000000
  0.333333  0.083333  0.500000      4.000000
  0.416667  0.083333  0.500000      4.000000
  0.500000  0.083333  0.500000      4.000000
 -0.416667  0.083333  0.500000      4.000000
 -0.333333  0.083333  0.500000      4.000000
 -0.250000  0.083333  0.500000      4.000000
 -0.166667  0.083333  0.500000      4.000000
 -0.083333  0.083333  0.500000      4.000000
  0.000000  0.166667  0.500000      4.000000
  0.083333  0.166667  0.500000      4.000000
  0.166667  0.166667  0.500000      4.000000
  0.250000  0.166667  0.500000      4.000000
  0.333333  0.166667  0.500000      4.000000
  0.416667  0.166667  0.500000      4.000000
  0.500000  0.166667  0.500000      4.000000
 -0.416667  0.166667  0.500000      4.000000
 -0.333333  0.166667  0.500000      4.000000
 -0.250000  0.166667  0.500000      4.000000
 -0.166667  0.166667  0.500000      4.000000
 -0.083333  0.166667  0.500000      4.000000
 -0.000000  0.250000  0.500000      4.000000
  0.083333  0.250000  0.500000      4.000000
  0.166667  0.250000  0.500000      4.000000
  0.250000  0.250000  0.500000      2.000000
 -0.416667  0.250000  0.500000      4.000000
 -0.333333  0.250000  0.500000      4.000000
 -0.250000  0.250000  0.500000      2.000000
 
 Following cartesian coordinates:
            Coordinates               Weight
  0.000000  0.000000  0.000000      1.000000
 -0.014492 -0.014492  0.014492      2.000000
 -0.028985 -0.028985  0.028985      2.000000
 -0.043477 -0.043477  0.043477      2.000000
 -0.057969 -0.057969  0.057969      2.000000
 -0.072461 -0.072461  0.072461      2.000000
 -0.086954 -0.086954  0.086954      1.000000
  0.014492  0.014492  0.014492      2.000000
 -0.000000  0.000000  0.028985      2.000000
 -0.014492 -0.014492  0.043477      2.000000
 -0.028985 -0.028985  0.057969      2.000000
 -0.043477 -0.043477  0.072461      2.000000
 -0.057969 -0.057969  0.086954      2.000000
 -0.072461 -0.072461  0.101446      2.000000
  0.086954  0.086954 -0.057969      2.000000
  0.072461  0.072461 -0.043477      2.000000
  0.057969  0.057969 -0.028985      2.000000
  0.043477  0.043477 -0.014492      2.000000
  0.028985  0.028985  0.000000      2.000000
  0.028985  0.028985  0.028985      2.000000
  0.014492  0.014492  0.043477      2.000000
  0.000000  0.000000  0.057969      2.000000
 -0.014492 -0.014492  0.072461      2.000000
 -0.028985 -0.028985  0.086954      2.000000
 -0.043477 -0.043477  0.101446      2.000000
 -0.057969 -0.057969  0.115938      2.000000
  0.101446  0.101446 -0.043477      2.000000
  0.086954  0.086954 -0.028985      2.000000
  0.072461  0.072461 -0.014492      2.000000
  0.057969  0.057969  0.000000      2.000000
  0.043477  0.043477  0.014492      2.000000
  0.043477  0.043477  0.043477      2.000000
  0.028985  0.028985  0.057969      2.000000
  0.014492  0.014492  0.072461      2.000000
  0.000000  0.000000  0.086954      2.000000
 -0.014492 -0.014492  0.101446      2.000000
 -0.028985 -0.028985  0.115938      2.000000
 -0.043477 -0.043477  0.130431      2.000000
  0.115938  0.115938 -0.028985      2.000000
  0.101446  0.101446 -0.014492      2.000000
  0.086954  0.086954  0.000000      2.000000
  0.072461  0.072461  0.014492      2.000000
  0.057969  0.057969  0.028985      2.000000
  0.057969  0.057969  0.057969      2.000000
  0.043477  0.043477  0.072461      2.000000
  0.028985  0.028985  0.086954      2.000000
  0.014492  0.014492  0.101446      2.000000
  0.000000  0.000000  0.115938      2.000000
 -0.014492 -0.014492  0.130431      2.000000
 -0.028985 -0.028985  0.144923      2.000000
  0.130431  0.130431 -0.014492      2.000000
  0.115938  0.115938  0.000000      2.000000
  0.101446  0.101446  0.014492      2.000000
  0.086954  0.086954  0.028985      2.000000
  0.072461  0.072461  0.043477      2.000000
  0.072461  0.072461  0.072461      2.000000
  0.057969  0.057969  0.086954      2.000000
  0.043477  0.043477  0.101446      2.000000
  0.028985  0.028985  0.115938      2.000000
  0.014492  0.014492  0.130431      2.000000
  0.000000  0.000000  0.144923      2.000000
 -0.014492 -0.014492  0.159415      2.000000
  0.144923  0.144923  0.000000      2.000000
  0.130431  0.130431  0.014492      2.000000
  0.115938  0.115938  0.028985      2.000000
  0.101446  0.101446  0.043477      2.000000
  0.086954  0.086954  0.057969      2.000000
  0.086954  0.086954  0.086954      1.000000
  0.072461  0.072461  0.101446      2.000000
  0.057969  0.057969  0.115938      2.000000
  0.043477  0.043477  0.130431      2.000000
  0.028985  0.028985  0.144923      2.000000
  0.014492  0.014492  0.159415      2.000000
  0.000000  0.000000  0.173908      1.000000
 -0.014492  0.014492 -0.014492      4.000000
 -0.028985  0.000000  0.000000      4.000000
 -0.043477 -0.014492  0.014492      4.000000
 -0.057969 -0.028985  0.028985      4.000000
 -0.072461 -0.043477  0.043477      4.000000
 -0.086954 -0.057969  0.057969      4.000000
 -0.101446 -0.072461  0.072461      4.000000
  0.057969  0.086954 -0.086954      4.000000
  0.043477  0.072461 -0.072461      4.000000
  0.028985  0.057969 -0.057969      4.000000
  0.014492  0.043477 -0.043477      4.000000
  0.000000  0.028985 -0.028985      4.000000
  0.014492  0.043477  0.014492      4.000000
  0.000000  0.028985  0.028985      4.000000
 -0.014492  0.014492  0.043477      4.000000
 -0.028985  0.000000  0.057969      4.000000
 -0.043477 -0.014492  0.072461      4.000000
 -0.057969 -0.028985  0.086954      4.000000
 -0.072461 -0.043477  0.101446      4.000000
  0.086954  0.115938 -0.057969      4.000000
  0.072461  0.101446 -0.043477      4.000000
  0.057969  0.086954 -0.028985      4.000000
  0.043477  0.072461 -0.014492      4.000000
  0.028985  0.057969  0.000000      4.000000
  0.028985  0.057969  0.028985      4.000000
  0.014492  0.043477  0.043477      4.000000
  0.000000  0.028985  0.057969      4.000000
 -0.014492  0.014492  0.072461      4.000000
 -0.028985  0.000000  0.086954      4.000000
 -0.043477 -0.014492  0.101446      4.000000
 -0.057969 -0.028985  0.115938      4.000000
  0.101446  0.130431 -0.043477      4.000000
  0.086954  0.115938 -0.028985      4.000000
  0.072461  0.101446 -0.014492      4.000000
  0.057969  0.086954  0.000000      4.000000
  0.043477  0.072461  0.014492      4.000000
  0.043477  0.072461  0.043477      4.000000
  0.028985  0.057969  0.057969      4.000000
  0.014492  0.043477  0.072461      4.000000
  0.000000  0.028985  0.086954      4.000000
 -0.014492  0.014492  0.101446      4.000000
 -0.028985 -0.000000  0.115938      4.000000
 -0.043477 -0.014492  0.130431      4.000000
  0.115938  0.144923 -0.028985      4.000000
  0.101446  0.130431 -0.014492      4.000000
  0.086954  0.115938  0.000000      4.000000
  0.072461  0.101446  0.014492      4.000000
  0.057969  0.086954  0.028985      4.000000
  0.057969  0.086954  0.057969      4.000000
  0.043477  0.072461  0.072461      4.000000
  0.028985  0.057969  0.086954      4.000000
  0.014492  0.043477  0.101446      4.000000
  0.000000  0.028985  0.115938      4.000000
 -0.014492  0.014492  0.130431      4.000000
 -0.028985  0.000000  0.144923      4.000000
  0.130431  0.159415 -0.014492      4.000000
  0.115938  0.144923  0.000000      4.000000
  0.101446  0.130431  0.014492      4.000000
  0.086954  0.115938  0.028985      4.000000
  0.072461  0.101446  0.043477      4.000000
  0.072461  0.101446  0.072461      4.000000
  0.057969  0.086954  0.086954      4.000000
  0.043477  0.072461  0.101446      4.000000
  0.028985  0.057969  0.115938      4.000000
  0.014492  0.043477  0.130431      4.000000
  0.000000  0.028985  0.144923      4.000000
 -0.014492  0.014492  0.159415      4.000000
  0.144923  0.173908  0.000000      4.000000
  0.130431  0.159415  0.014492      4.000000
  0.115938  0.144923  0.028985      4.000000
  0.101446  0.130431  0.043477      4.000000
  0.086954  0.115938  0.057969      4.000000
 -0.028985  0.028985 -0.028985      4.000000
 -0.043477  0.014492 -0.014492      4.000000
 -0.057969  0.000000  0.000000      4.000000
 -0.072461 -0.014492  0.014492      4.000000
 -0.086954 -0.028985  0.028985      4.000000
 -0.101446 -0.043477  0.043477      4.000000
 -0.115938 -0.057969  0.057969      4.000000
  0.043477  0.101446 -0.101446      4.000000
  0.028985  0.086954 -0.086954      4.000000
  0.014492  0.072461 -0.072461      4.000000
  0.000000  0.057969 -0.057969      4.000000
 -0.014492  0.043477 -0.043477      4.000000
 -0.014492  0.043477 -0.014492      4.000000
 -0.028985  0.028985 -0.000000      2.000000
 -0.057969  0.000000  0.028985      4.000000
 -0.072461 -0.014492  0.043477      4.000000
 -0.086954 -0.028985  0.057969      4.000000
 -0.101446 -0.043477  0.072461      4.000000
  0.057969  0.115938 -0.086954      2.000000
  0.014492  0.072461  0.014492      4.000000
 -0.000000  0.057969  0.028985      4.000000
 -0.014492  0.043477  0.043477      4.000000
 -0.028985  0.028985  0.057969      4.000000
 -0.043477  0.014492  0.072461      4.000000
 -0.057969  0.000000  0.086954      4.000000
 -0.072461 -0.014492  0.101446      4.000000
  0.086954  0.144923 -0.057969      4.000000
  0.072461  0.130431 -0.043477      4.000000
  0.057969  0.115938 -0.028985      4.000000
  0.043477  0.101446 -0.014492      4.000000
  0.028985  0.086954 -0.000000      4.000000
  0.028985  0.086954  0.028985      4.000000
  0.014492  0.072461  0.043477      4.000000
 -0.000000  0.057969  0.057969      4.000000
 -0.014492  0.043477  0.072461      4.000000
 -0.028985  0.028985  0.086954      4.000000
 -0.043477  0.014492  0.101446      4.000000
 -0.057969  0.000000  0.115938      4.000000
  0.101446  0.159415 -0.043477      4.000000
  0.086954  0.144923 -0.028985      4.000000
  0.072461  0.130431 -0.014492      4.000000
  0.057969  0.115938 -0.000000      4.000000
  0.043477  0.101446  0.014492      4.000000
  0.043477  0.101446  0.043477      4.000000
  0.028985  0.086954  0.057969      4.000000
  0.014492  0.072461  0.072461      4.000000
  0.000000  0.057969  0.086954      4.000000
 -0.014492  0.043477  0.101446      4.000000
 -0.028985  0.028985  0.115938      4.000000
 -0.043477  0.014492  0.130431      4.000000
  0.115938  0.173908 -0.028985      4.000000
  0.101446  0.159415 -0.014492      4.000000
  0.086954  0.144923 -0.000000      4.000000
  0.072461  0.130431  0.014492      4.000000
  0.057969  0.115938  0.028985      4.000000
  0.057969  0.115938  0.057969      4.000000
  0.043477  0.101446  0.072461      4.000000
  0.028985  0.086954  0.086954      4.000000
  0.014492  0.072461  0.101446      4.000000
  0.000000  0.057969  0.115938      4.000000
 -0.014492  0.043477  0.130431      4.000000
 -0.028985  0.028985  0.144923      4.000000
  0.130431  0.188400 -0.014492      4.000000
  0.115938  0.173908  0.000000      4.000000
  0.101446  0.159415  0.014492      4.000000
  0.086954  0.144923  0.028985      4.000000
  0.072461  0.130431  0.043477      4.000000
 -0.101446 -0.043477 -0.101446      4.000000
 -0.115938 -0.057969 -0.086954      2.000000
 -0.144923 -0.086954 -0.057969      4.000000
 -0.159415 -0.101446 -0.043477      4.000000
 -0.173908 -0.115938 -0.028985      4.000000
 -0.188400 -0.130431 -0.014492      4.000000
 -0.028985  0.028985 -0.173908      2.000000
 -0.043477  0.043477 -0.043477      4.000000
 -0.057969  0.028985 -0.028985      4.000000
 -0.072461  0.014492 -0.014492      4.000000
 -0.086954  0.000000  0.000000      4.000000
 -0.101446 -0.014492  0.014492      4.000000
 -0.115938 -0.028985  0.028985      4.000000
 -0.130431 -0.043477  0.043477      4.000000
  0.028985  0.115938 -0.115938      4.000000
  0.014492  0.101446 -0.101446      4.000000
  0.000000  0.086954 -0.086954      4.000000
 -0.014492  0.072461 -0.072461      4.000000
 -0.028985  0.057969 -0.057969      4.000000
 -0.028985  0.057969 -0.028985      4.000000
 -0.043477  0.043477 -0.014492      4.000000
 -0.057969  0.028985  0.000000      4.000000
 -0.072461  0.014492  0.014492      4.000000
 -0.086954  0.000000  0.028985      4.000000
 -0.101446 -0.014492  0.043477      4.000000
 -0.115938 -0.028985  0.057969      4.000000
  0.043477  0.130431 -0.101446      4.000000
  0.028985  0.115938 -0.086954      4.000000
  0.014492  0.101446 -0.072461      4.000000
 -0.000000  0.086954 -0.057969      4.000000
 -0.014492  0.072461 -0.043477      4.000000
  0.014492  0.101446  0.014492      4.000000
  0.000000  0.086954  0.028985      4.000000
 -0.014492  0.072461  0.043477      4.000000
 -0.028985  0.057969  0.057969      4.000000
 -0.043477  0.043477  0.072461      4.000000
 -0.057969  0.028985  0.086954      4.000000
 -0.072461  0.014492  0.101446      4.000000
  0.086954  0.173908 -0.057969      4.000000
  0.072461  0.159415 -0.043477      4.000000
  0.057969  0.144923 -0.028985      4.000000
  0.043477  0.130431 -0.014492      4.000000
  0.028985  0.115938  0.000000      4.000000
  0.028985  0.115938  0.028985      4.000000
  0.014492  0.101446  0.043477      4.000000
  0.000000  0.086954  0.057969      4.000000
 -0.014492  0.072461  0.072461      4.000000
 -0.028985  0.057969  0.086954      4.000000
 -0.043477  0.043477  0.101446      4.000000
 -0.057969  0.028985  0.115938      4.000000
  0.101446  0.188400 -0.043477      4.000000
  0.086954  0.173908 -0.028985      4.000000
  0.072461  0.159415 -0.014492      4.000000
  0.057969  0.144923  0.000000      4.000000
  0.043477  0.130431  0.014492      4.000000
  0.043477  0.130431  0.043477      4.000000
  0.028985  0.115938  0.057969      4.000000
  0.014492  0.101446  0.072461      4.000000
  0.000000  0.086954  0.086954      4.000000
 -0.014492  0.072461  0.101446      4.000000
 -0.028985  0.057969  0.115938      4.000000
 -0.043477  0.043477  0.130431      4.000000
  0.115938  0.202892 -0.028985      4.000000
  0.101446  0.188400 -0.014492      4.000000
  0.086954  0.173908  0.000000      4.000000
  0.072461  0.159415  0.014492      4.000000
  0.057969  0.144923  0.028985      4.000000
 -0.115938 -0.028985 -0.115938      4.000000
 -0.130431 -0.043477 -0.101446      4.000000
 -0.144923 -0.057969 -0.086954      4.000000
 -0.159415 -0.072461 -0.072461      4.000000
 -0.173908 -0.086954 -0.057969      4.000000
 -0.188400 -0.101446 -0.043477      4.000000
 -0.202892 -0.115938 -0.028985      4.000000
 -0.043477  0.043477 -0.188400      4.000000
 -0.057969  0.028985 -0.173908      4.000000
 -0.072461  0.014492 -0.159415      4.000000
 -0.086954  0.000000 -0.144923      4.000000
 -0.101446 -0.014492 -0.130431      4.000000
 -0.057969  0.057969 -0.057969      4.000000
 -0.072461  0.043477 -0.043477      4.000000
 -0.086954  0.028985 -0.028985      4.000000
 -0.101446  0.014492 -0.014492      4.000000
 -0.115938  0.000000  0.000000      4.000000
 -0.130431 -0.014492  0.014492      4.000000
 -0.144923 -0.028985  0.028985      4.000000
  0.014492  0.130431 -0.130431      4.000000
  0.000000  0.115938 -0.115938      4.000000
 -0.014492  0.101446 -0.101446      4.000000
 -0.028985  0.086954 -0.086954      4.000000
 -0.043477  0.072461 -0.072461      4.000000
 -0.043477  0.072461 -0.043477      4.000000
 -0.057969  0.057969 -0.028985      4.000000
 -0.072461  0.043477 -0.014492      4.000000
 -0.086954  0.028985  0.000000      4.000000
 -0.101446  0.014492  0.014492      4.000000
 -0.115938 -0.000000  0.028985      4.000000
 -0.130431 -0.014492  0.043477      4.000000
  0.028985  0.144923 -0.115938      4.000000
  0.014492  0.130431 -0.101446      4.000000
  0.000000  0.115938 -0.086954      4.000000
 -0.014492  0.101446 -0.072461      4.000000
 -0.028985  0.086954 -0.057969      4.000000
 -0.028985  0.086954 -0.028985      4.000000
 -0.043477  0.072461 -0.014492      4.000000
 -0.057969  0.057969  0.000000      2.000000
 -0.101446  0.014492  0.043477      4.000000
 -0.115938  0.000000  0.057969      4.000000
  0.043477  0.159415 -0.101446      4.000000
  0.028985  0.144923 -0.086954      2.000000
  0.014492  0.130431  0.014492      4.000000
  0.000000  0.115938  0.028985      4.000000
 -0.014492  0.101446  0.043477      4.000000
 -0.028985  0.086954  0.057969      4.000000
 -0.043477  0.072461  0.072461      4.000000
 -0.057969  0.057969  0.086954      4.000000
 -0.072461  0.043477  0.101446      4.000000
  0.086954  0.202892 -0.057969      4.000000
  0.072461  0.188400 -0.043477      4.000000
  0.057969  0.173908 -0.028985      4.000000
  0.043477  0.159415 -0.014492      4.000000
  0.028985  0.144923  0.000000      4.000000
  0.028985  0.144923  0.028985      4.000000
  0.014492  0.130431  0.043477      4.000000
  0.000000  0.115938  0.057969      4.000000
 -0.014492  0.101446  0.072461      4.000000
 -0.028985  0.086954  0.086954      4.000000
 -0.043477  0.072461  0.101446      4.000000
 -0.057969  0.057969  0.115938      4.000000
  0.101446  0.217384 -0.043477      4.000000
  0.086954  0.202892 -0.028985      4.000000
  0.072461  0.188400 -0.014492      4.000000
  0.057969  0.173908 -0.000000      4.000000
  0.043477  0.159415  0.014492      4.000000
 -0.130431 -0.014492 -0.130431      4.000000
 -0.144923 -0.028985 -0.115938      4.000000
 -0.159415 -0.043477 -0.101446      4.000000
 -0.173908 -0.057969 -0.086954      4.000000
 -0.188400 -0.072461 -0.072461      4.000000
 -0.202892 -0.086954 -0.057969      4.000000
 -0.217384 -0.101446 -0.043477      4.000000
 -0.057969  0.057969 -0.202892      4.000000
 -0.072461  0.043477 -0.188400      4.000000
 -0.086954  0.028985 -0.173908      4.000000
 -0.101446  0.014492 -0.159415      4.000000
 -0.115938 -0.000000 -0.144923      4.000000
 -0.115938 -0.000000 -0.115938      4.000000
 -0.130431 -0.014492 -0.101446      4.000000
 -0.144923 -0.028985 -0.086954      2.000000
 -0.188400 -0.072461 -0.043477      4.000000
 -0.202892 -0.086954 -0.028985      4.000000
 -0.043477  0.072461 -0.188400      4.000000
 -0.057969  0.057969 -0.173908      2.000000
 -0.072461  0.072461 -0.072461      4.000000
 -0.086954  0.057969 -0.057969      4.000000
 -0.101446  0.043477 -0.043477      4.000000
 -0.115938  0.028985 -0.028985      4.000000
 -0.130431  0.014492 -0.014492      4.000000
 -0.144923  0.000000  0.000000      4.000000
 -0.159415 -0.014492  0.014492      4.000000
 -0.000000  0.144923 -0.144923      4.000000
 -0.014492  0.130431 -0.130431      4.000000
 -0.028985  0.115938 -0.115938      4.000000
 -0.043477  0.101446 -0.101446      4.000000
 -0.057969  0.086954 -0.086954      4.000000
 -0.057969  0.086954 -0.057969      4.000000
 -0.072461  0.072461 -0.043477      4.000000
 -0.086954  0.057969 -0.028985      4.000000
 -0.101446  0.043477 -0.014492      4.000000
 -0.115938  0.028985 -0.000000      4.000000
 -0.130431  0.014492  0.014492      4.000000
 -0.144923  0.000000  0.028985      4.000000
  0.014492  0.159415 -0.130431      4.000000
 -0.000000  0.144923 -0.115938      4.000000
 -0.014492  0.130431 -0.101446      4.000000
 -0.028985  0.115938 -0.086954      4.000000
 -0.043477  0.101446 -0.072461      4.000000
 -0.043477  0.101446 -0.043477      4.000000
 -0.057969  0.086954 -0.028985      4.000000
 -0.072461  0.072461 -0.014492      4.000000
 -0.086954  0.057969 -0.000000      4.000000
 -0.101446  0.043477  0.014492      4.000000
 -0.115938  0.028985  0.028985      4.000000
 -0.130431  0.014492  0.043477      4.000000
  0.028985  0.173908 -0.115938      4.000000
  0.014492  0.159415 -0.101446      4.000000
 -0.000000  0.144923 -0.086954      4.000000
 -0.014492  0.130431 -0.072461      4.000000
 -0.028985  0.115938 -0.057969      4.000000
  0.014492  0.159415  0.014492      4.000000
  0.000000  0.144923  0.028985      4.000000
 -0.014492  0.130431  0.043477      4.000000
 -0.028985  0.115938  0.057969      4.000000
 -0.043477  0.101446  0.072461      4.000000
 -0.057969  0.086954  0.086954      4.000000
 -0.072461  0.072461  0.101446      4.000000
  0.086954  0.231877 -0.057969      4.000000
  0.072461  0.217384 -0.043477      4.000000
  0.057969  0.202892 -0.028985      4.000000
  0.043477  0.188400 -0.014492      4.000000
  0.028985  0.173908  0.000000      4.000000
 -0.144923  0.000000 -0.144923      4.000000
 -0.159415 -0.014492 -0.130431      4.000000
 -0.173908 -0.028985 -0.115938      4.000000
 -0.188400 -0.043477 -0.101446      4.000000
 -0.202892 -0.057969 -0.086954      4.000000
 -0.217384 -0.072461 -0.072461      4.000000
 -0.231877 -0.086954 -0.057969      4.000000
 -0.072461  0.072461 -0.217384      4.000000
 -0.086954  0.057969 -0.202892      4.000000
 -0.101446  0.043477 -0.188400      4.000000
 -0.115938  0.028985 -0.173908      4.000000
 -0.130431  0.014492 -0.159415      4.000000
 -0.130431  0.014492 -0.130431      4.000000
 -0.144923  0.000000 -0.115938      4.000000
 -0.159415 -0.014492 -0.101446      4.000000
 -0.173908 -0.028985 -0.086954      4.000000
 -0.188400 -0.043477 -0.072461      4.000000
 -0.202892 -0.057969 -0.057969      4.000000
 -0.217384 -0.072461 -0.043477      4.000000
 -0.057969  0.086954 -0.202892      4.000000
 -0.072461  0.072461 -0.188400      4.000000
 -0.086954  0.057969 -0.173908      4.000000
 -0.101446  0.043477 -0.159415      4.000000
 -0.115938  0.028985 -0.144923      4.000000
 -0.086954  0.086954 -0.086954      2.000000
 -0.101446  0.072461 -0.072461      4.000000
 -0.115938  0.057969 -0.057969      4.000000
 -0.130431  0.043477 -0.043477      4.000000
 -0.144923  0.028985 -0.028985      4.000000
 -0.159415  0.014492 -0.014492      4.000000
 -0.173908  0.000000  0.000000      2.000000
 -0.072461  0.101446 -0.072461      4.000000
 -0.086954  0.086954 -0.057969      4.000000
 -0.101446  0.072461 -0.043477      4.000000
 -0.115938  0.057969 -0.028985      4.000000
 -0.130431  0.043477 -0.014492      4.000000
 -0.144923  0.028985  0.000000      4.000000
 -0.159415  0.014492  0.014492      4.000000
  0.000000  0.173908 -0.144923      4.000000
 -0.014492  0.159415 -0.130431      4.000000
 -0.028985  0.144923 -0.115938      4.000000
 -0.043477  0.130431 -0.101446      4.000000
 -0.057969  0.115938 -0.086954      4.000000
 -0.057969  0.115938 -0.057969      4.000000
 -0.072461  0.101446 -0.043477      4.000000
 -0.086954  0.086954 -0.028985      4.000000
 -0.101446  0.072461 -0.014492      4.000000
 -0.115938  0.057969 -0.000000      4.000000
 -0.130431  0.043477  0.014492      4.000000
 -0.144923  0.028985  0.028985      4.000000
  0.014492  0.188400 -0.130431      4.000000
  0.000000  0.173908 -0.115938      4.000000
 -0.014492  0.159415 -0.101446      4.000000
 -0.028985  0.144923 -0.086954      4.000000
 -0.043477  0.130431 -0.072461      4.000000
 -0.043477  0.130431 -0.043477      4.000000
 -0.057969  0.115938 -0.028985      4.000000
 -0.072461  0.101446 -0.014492      4.000000
 -0.086954  0.086954  0.000000      2.000000
  0.028985  0.202892 -0.115938      4.000000
  0.014492  0.188400 -0.101446      4.000000
 -0.000000  0.173908 -0.086954      2.000000
 
 
 Subroutine IBZKPT_HF returns following result:
 ==============================================
 
 Found   1728 k-points in 1st BZ
 the following   1728 k-points will be used (e.g. in the exchange kernel)
 Following reciprocal coordinates:   # in IRBZ
  0.000000  0.000000  0.000000    0.00057870   1 t-inv F
  0.083333  0.000000  0.000000    0.00057870   2 t-inv F
  0.166667  0.000000  0.000000    0.00057870   3 t-inv F
  0.250000  0.000000 -0.000000    0.00057870   4 t-inv F
  0.333333  0.000000  0.000000    0.00057870   5 t-inv F
  0.416667 -0.000000 -0.000000    0.00057870   6 t-inv F
  0.500000  0.000000 -0.000000    0.00057870   7 t-inv F
  0.000000  0.083333 -0.000000    0.00057870   8 t-inv F
  0.083333  0.083333  0.000000    0.00057870   9 t-inv F
  0.166667  0.083333 -0.000000    0.00057870  10 t-inv F
  0.250000  0.083333  0.000000    0.00057870  11 t-inv F
  0.333333  0.083333 -0.000000    0.00057870  12 t-inv F
  0.416667  0.083333  0.000000    0.00057870  13 t-inv F
  0.500000  0.083333 -0.000000    0.00057870  14 t-inv F
 -0.416667  0.083333  0.000000    0.00057870  15 t-inv F
 -0.333333  0.083333 -0.000000    0.00057870  16 t-inv F
 -0.250000  0.083333  0.000000    0.00057870  17 t-inv F
 -0.166667  0.083333  0.000000    0.00057870  18 t-inv F
 -0.083333  0.083333 -0.000000    0.00057870  19 t-inv F
 -0.000000  0.166667  0.000000    0.00057870  20 t-inv F
  0.083333  0.166667  0.000000    0.00057870  21 t-inv F
  0.166667  0.166667  0.000000    0.00057870  22 t-inv F
  0.250000  0.166667  0.000000    0.00057870  23 t-inv F
  0.333333  0.166667  0.000000    0.00057870  24 t-inv F
  0.416667  0.166667 -0.000000    0.00057870  25 t-inv F
  0.500000  0.166667 -0.000000    0.00057870  26 t-inv F
 -0.416667  0.166667  0.000000    0.00057870  27 t-inv F
 -0.333333  0.166667  0.000000    0.00057870  28 t-inv F
 -0.250000  0.166667  0.000000    0.00057870  29 t-inv F
 -0.166667  0.166667  0.000000    0.00057870  30 t-inv F
 -0.083333  0.166667  0.000000    0.00057870  31 t-inv F
 -0.000000  0.250000  0.000000    0.00057870  32 t-inv F
  0.083333  0.250000  0.000000    0.00057870  33 t-inv F
  0.166667  0.250000  0.000000    0.00057870  34 t-inv F
  0.250000  0.250000  0.000000    0.00057870  35 t-inv F
  0.333333  0.250000  0.000000    0.00057870  36 t-inv F
  0.416667  0.250000  0.000000    0.00057870  37 t-inv F
  0.500000  0.250000 -0.000000    0.00057870  38 t-inv F
 -0.416667  0.250000  0.000000    0.00057870  39 t-inv F
 -0.333333  0.250000  0.000000    0.00057870  40 t-inv F
 -0.250000  0.250000 -0.000000    0.00057870  41 t-inv F
 -0.166667  0.250000  0.000000    0.00057870  42 t-inv F
 -0.083333  0.250000  0.000000    0.00057870  43 t-inv F
 -0.000000  0.333333  0.000000    0.00057870  44 t-inv F
  0.083333  0.333333 -0.000000    0.00057870  45 t-inv F
  0.166667  0.333333  0.000000    0.00057870  46 t-inv F
  0.250000  0.333333  0.000000    0.00057870  47 t-inv F
  0.333333  0.333333  0.000000    0.00057870  48 t-inv F
  0.416667  0.333333  0.000000    0.00057870  49 t-inv F
  0.500000  0.333333  0.000000    0.00057870  50 t-inv F
 -0.416667  0.333333  0.000000    0.00057870  51 t-inv F
 -0.333333  0.333333  0.000000    0.00057870  52 t-inv F
 -0.250000  0.333333  0.000000    0.00057870  53 t-inv F
 -0.166667  0.333333 -0.000000    0.00057870  54 t-inv F
 -0.083333  0.333333 -0.000000    0.00057870  55 t-inv F
  0.000000  0.416667 -0.000000    0.00057870  56 t-inv F
  0.083333  0.416667 -0.000000    0.00057870  57 t-inv F
  0.166667  0.416667  0.000000    0.00057870  58 t-inv F
  0.250000  0.416667 -0.000000    0.00057870  59 t-inv F
  0.333333  0.416667  0.000000    0.00057870  60 t-inv F
  0.416667  0.416667  0.000000    0.00057870  61 t-inv F
  0.500000  0.416667  0.000000    0.00057870  62 t-inv F
 -0.416667  0.416667  0.000000    0.00057870  63 t-inv F
 -0.333333  0.416667 -0.000000    0.00057870  64 t-inv F
 -0.250000  0.416667  0.000000    0.00057870  65 t-inv F
 -0.166667  0.416667  0.000000    0.00057870  66 t-inv F
 -0.083333  0.416667  0.000000    0.00057870  67 t-inv F
 -0.000000  0.500000  0.000000    0.00057870  68 t-inv F
  0.083333  0.500000 -0.000000    0.00057870  69 t-inv F
  0.166667  0.500000  0.000000    0.00057870  70 t-inv F
  0.250000  0.500000  0.000000    0.00057870  71 t-inv F
  0.333333  0.500000  0.000000    0.00057870  72 t-inv F
  0.416667  0.500000  0.000000    0.00057870  73 t-inv F
  0.500000  0.500000  0.000000    0.00057870  74 t-inv F
  0.000000 -0.000000  0.083333    0.00057870  75 t-inv F
  0.083333  0.000000  0.083333    0.00057870  76 t-inv F
  0.166667  0.000000  0.083333    0.00057870  77 t-inv F
  0.250000 -0.000000  0.083333    0.00057870  78 t-inv F
  0.333333 -0.000000  0.083333    0.00057870  79 t-inv F
  0.416667 -0.000000  0.083333    0.00057870  80 t-inv F
  0.500000 -0.000000  0.083333    0.00057870  81 t-inv F
 -0.416667 -0.000000  0.083333    0.00057870  82 t-inv F
 -0.333333  0.000000  0.083333    0.00057870  83 t-inv F
 -0.250000  0.000000  0.083333    0.00057870  84 t-inv F
 -0.166667 -0.000000  0.083333    0.00057870  85 t-inv F
 -0.083333 -0.000000  0.083333    0.00057870  86 t-inv F
 -0.000000  0.166667  0.083333    0.00057870  87 t-inv F
  0.083333  0.166667  0.083333    0.00057870  88 t-inv F
  0.166667  0.166667  0.083333    0.00057870  89 t-inv F
  0.250000  0.166667  0.083333    0.00057870  90 t-inv F
  0.333333  0.166667  0.083333    0.00057870  91 t-inv F
  0.416667  0.166667  0.083333    0.00057870  92 t-inv F
  0.500000  0.166667  0.083333    0.00057870  93 t-inv F
 -0.416667  0.166667  0.083333    0.00057870  94 t-inv F
 -0.333333  0.166667  0.083333    0.00057870  95 t-inv F
 -0.250000  0.166667  0.083333    0.00057870  96 t-inv F
 -0.166667  0.166667  0.083333    0.00057870  97 t-inv F
 -0.083333  0.166667  0.083333    0.00057870  98 t-inv F
  0.000000  0.250000  0.083333    0.00057870  99 t-inv F
  0.083333  0.250000  0.083333    0.00057870 100 t-inv F
  0.166667  0.250000  0.083333    0.00057870 101 t-inv F
  0.250000  0.250000  0.083333    0.00057870 102 t-inv F
  0.333333  0.250000  0.083333    0.00057870 103 t-inv F
  0.416667  0.250000  0.083333    0.00057870 104 t-inv F
  0.500000  0.250000  0.083333    0.00057870 105 t-inv F
 -0.416667  0.250000  0.083333    0.00057870 106 t-inv F
 -0.333333  0.250000  0.083333    0.00057870 107 t-inv F
 -0.250000  0.250000  0.083333    0.00057870 108 t-inv F
 -0.166667  0.250000  0.083333    0.00057870 109 t-inv F
 -0.083333  0.250000  0.083333    0.00057870 110 t-inv F
  0.000000  0.333333  0.083333    0.00057870 111 t-inv F
  0.083333  0.333333  0.083333    0.00057870 112 t-inv F
  0.166667  0.333333  0.083333    0.00057870 113 t-inv F
  0.250000  0.333333  0.083333    0.00057870 114 t-inv F
  0.333333  0.333333  0.083333    0.00057870 115 t-inv F
  0.416667  0.333333  0.083333    0.00057870 116 t-inv F
  0.500000  0.333333  0.083333    0.00057870 117 t-inv F
 -0.416667  0.333333  0.083333    0.00057870 118 t-inv F
 -0.333333  0.333333  0.083333    0.00057870 119 t-inv F
 -0.250000  0.333333  0.083333    0.00057870 120 t-inv F
 -0.166667  0.333333  0.083333    0.00057870 121 t-inv F
 -0.083333  0.333333  0.083333    0.00057870 122 t-inv F
 -0.000000  0.416667  0.083333    0.00057870 123 t-inv F
  0.083333  0.416667  0.083333    0.00057870 124 t-inv F
  0.166667  0.416667  0.083333    0.00057870 125 t-inv F
  0.250000  0.416667  0.083333    0.00057870 126 t-inv F
  0.333333  0.416667  0.083333    0.00057870 127 t-inv F
  0.416667  0.416667  0.083333    0.00057870 128 t-inv F
  0.500000  0.416667  0.083333    0.00057870 129 t-inv F
 -0.416667  0.416667  0.083333    0.00057870 130 t-inv F
 -0.333333  0.416667  0.083333    0.00057870 131 t-inv F
 -0.250000  0.416667  0.083333    0.00057870 132 t-inv F
 -0.166667  0.416667  0.083333    0.00057870 133 t-inv F
 -0.083333  0.416667  0.083333    0.00057870 134 t-inv F
  0.000000  0.500000  0.083333    0.00057870 135 t-inv F
  0.083333  0.500000  0.083333    0.00057870 136 t-inv F
  0.166667  0.500000  0.083333    0.00057870 137 t-inv F
  0.250000  0.500000  0.083333    0.00057870 138 t-inv F
  0.333333  0.500000  0.083333    0.00057870 139 t-inv F
  0.416667  0.500000  0.083333    0.00057870 140 t-inv F
  0.500000  0.500000  0.083333    0.00057870 141 t-inv F
 -0.416667  0.500000  0.083333    0.00057870 142 t-inv F
 -0.333333  0.500000  0.083333    0.00057870 143 t-inv F
 -0.250000  0.500000  0.083333    0.00057870 144 t-inv F
 -0.166667  0.500000  0.083333    0.00057870 145 t-inv F
 -0.083333  0.500000  0.083333    0.00057870 146 t-inv F
  0.000000 -0.000000  0.166667    0.00057870 147 t-inv F
  0.083333  0.000000  0.166667    0.00057870 148 t-inv F
  0.166667 -0.000000  0.166667    0.00057870 149 t-inv F
  0.250000  0.000000  0.166667    0.00057870 150 t-inv F
  0.333333  0.000000  0.166667    0.00057870 151 t-inv F
  0.416667  0.000000  0.166667    0.00057870 152 t-inv F
  0.500000  0.000000  0.166667    0.00057870 153 t-inv F
 -0.416667  0.000000  0.166667    0.00057870 154 t-inv F
 -0.333333  0.000000  0.166667    0.00057870 155 t-inv F
 -0.250000  0.000000  0.166667    0.00057870 156 t-inv F
 -0.166667 -0.000000  0.166667    0.00057870 157 t-inv F
 -0.083333  0.000000  0.166667    0.00057870 158 t-inv F
  0.000000  0.083333  0.166667    0.00057870 159 t-inv F
  0.083333  0.083333  0.166667    0.00057870 160 t-inv F
  0.250000  0.083333  0.166667    0.00057870 161 t-inv F
  0.333333  0.083333  0.166667    0.00057870 162 t-inv F
  0.416667  0.083333  0.166667    0.00057870 163 t-inv F
  0.500000  0.083333  0.166667    0.00057870 164 t-inv F
 -0.416667  0.083333  0.166667    0.00057870 165 t-inv F
 -0.000000  0.250000  0.166667    0.00057870 166 t-inv F
  0.083333  0.250000  0.166667    0.00057870 167 t-inv F
  0.166667  0.250000  0.166667    0.00057870 168 t-inv F
  0.250000  0.250000  0.166667    0.00057870 169 t-inv F
  0.333333  0.250000  0.166667    0.00057870 170 t-inv F
  0.416667  0.250000  0.166667    0.00057870 171 t-inv F
  0.500000  0.250000  0.166667    0.00057870 172 t-inv F
 -0.416667  0.250000  0.166667    0.00057870 173 t-inv F
 -0.333333  0.250000  0.166667    0.00057870 174 t-inv F
 -0.250000  0.250000  0.166667    0.00057870 175 t-inv F
 -0.166667  0.250000  0.166667    0.00057870 176 t-inv F
 -0.083333  0.250000  0.166667    0.00057870 177 t-inv F
  0.000000  0.333333  0.166667    0.00057870 178 t-inv F
  0.083333  0.333333  0.166667    0.00057870 179 t-inv F
  0.166667  0.333333  0.166667    0.00057870 180 t-inv F
  0.250000  0.333333  0.166667    0.00057870 181 t-inv F
  0.333333  0.333333  0.166667    0.00057870 182 t-inv F
  0.416667  0.333333  0.166667    0.00057870 183 t-inv F
  0.500000  0.333333  0.166667    0.00057870 184 t-inv F
 -0.416667  0.333333  0.166667    0.00057870 185 t-inv F
 -0.333333  0.333333  0.166667    0.00057870 186 t-inv F
 -0.250000  0.333333  0.166667    0.00057870 187 t-inv F
 -0.166667  0.333333  0.166667    0.00057870 188 t-inv F
 -0.083333  0.333333  0.166667    0.00057870 189 t-inv F
 -0.000000  0.416667  0.166667    0.00057870 190 t-inv F
  0.083333  0.416667  0.166667    0.00057870 191 t-inv F
  0.166667  0.416667  0.166667    0.00057870 192 t-inv F
  0.250000  0.416667  0.166667    0.00057870 193 t-inv F
  0.333333  0.416667  0.166667    0.00057870 194 t-inv F
  0.416667  0.416667  0.166667    0.00057870 195 t-inv F
  0.500000  0.416667  0.166667    0.00057870 196 t-inv F
 -0.416667  0.416667  0.166667    0.00057870 197 t-inv F
 -0.333333  0.416667  0.166667    0.00057870 198 t-inv F
 -0.250000  0.416667  0.166667    0.00057870 199 t-inv F
 -0.166667  0.416667  0.166667    0.00057870 200 t-inv F
 -0.083333  0.416667  0.166667    0.00057870 201 t-inv F
 -0.000000  0.500000  0.166667    0.00057870 202 t-inv F
  0.083333  0.500000  0.166667    0.00057870 203 t-inv F
  0.166667  0.500000  0.166667    0.00057870 204 t-inv F
  0.250000  0.500000  0.166667    0.00057870 205 t-inv F
  0.333333  0.500000  0.166667    0.00057870 206 t-inv F
  0.416667  0.500000  0.166667    0.00057870 207 t-inv F
  0.500000  0.500000  0.166667    0.00057870 208 t-inv F
 -0.416667  0.500000  0.166667    0.00057870 209 t-inv F
 -0.333333  0.500000  0.166667    0.00057870 210 t-inv F
 -0.250000  0.500000  0.166667    0.00057870 211 t-inv F
 -0.166667  0.500000  0.166667    0.00057870 212 t-inv F
 -0.083333  0.500000  0.166667    0.00057870 213 t-inv F
  0.000000 -0.416667  0.166667    0.00057870 214 t-inv F
  0.083333 -0.416667  0.166667    0.00057870 215 t-inv F
  0.250000 -0.416667  0.166667    0.00057870 216 t-inv F
  0.333333 -0.416667  0.166667    0.00057870 217 t-inv F
  0.416667 -0.416667  0.166667    0.00057870 218 t-inv F
  0.500000 -0.416667  0.166667    0.00057870 219 t-inv F
 -0.416667 -0.416667  0.166667    0.00057870 220 t-inv F
  0.000000  0.000000  0.250000    0.00057870 221 t-inv F
  0.083333  0.000000  0.250000    0.00057870 222 t-inv F
  0.166667  0.000000  0.250000    0.00057870 223 t-inv F
  0.250000  0.000000  0.250000    0.00057870 224 t-inv F
  0.333333  0.000000  0.250000    0.00057870 225 t-inv F
  0.416667  0.000000  0.250000    0.00057870 226 t-inv F
  0.500000 -0.000000  0.250000    0.00057870 227 t-inv F
 -0.416667 -0.000000  0.250000    0.00057870 228 t-inv F
 -0.333333  0.000000  0.250000    0.00057870 229 t-inv F
 -0.250000 -0.000000  0.250000    0.00057870 230 t-inv F
 -0.166667  0.000000  0.250000    0.00057870 231 t-inv F
 -0.083333  0.000000  0.250000    0.00057870 232 t-inv F
  0.000000  0.083333  0.250000    0.00057870 233 t-inv F
  0.083333  0.083333  0.250000    0.00057870 234 t-inv F
  0.166667  0.083333  0.250000    0.00057870 235 t-inv F
  0.250000  0.083333  0.250000    0.00057870 236 t-inv F
  0.333333  0.083333  0.250000    0.00057870 237 t-inv F
  0.416667  0.083333  0.250000    0.00057870 238 t-inv F
  0.500000  0.083333  0.250000    0.00057870 239 t-inv F
 -0.416667  0.083333  0.250000    0.00057870 240 t-inv F
 -0.333333  0.083333  0.250000    0.00057870 241 t-inv F
 -0.250000  0.083333  0.250000    0.00057870 242 t-inv F
 -0.166667  0.083333  0.250000    0.00057870 243 t-inv F
 -0.083333  0.083333  0.250000    0.00057870 244 t-inv F
 -0.000000  0.333333  0.250000    0.00057870 245 t-inv F
  0.083333  0.333333  0.250000    0.00057870 246 t-inv F
  0.166667  0.333333  0.250000    0.00057870 247 t-inv F
  0.250000  0.333333  0.250000    0.00057870 248 t-inv F
  0.333333  0.333333  0.250000    0.00057870 249 t-inv F
  0.416667  0.333333  0.250000    0.00057870 250 t-inv F
  0.500000  0.333333  0.250000    0.00057870 251 t-inv F
 -0.416667  0.333333  0.250000    0.00057870 252 t-inv F
 -0.333333  0.333333  0.250000    0.00057870 253 t-inv F
 -0.250000  0.333333  0.250000    0.00057870 254 t-inv F
 -0.166667  0.333333  0.250000    0.00057870 255 t-inv F
 -0.083333  0.333333  0.250000    0.00057870 256 t-inv F
 -0.000000  0.416667  0.250000    0.00057870 257 t-inv F
  0.083333  0.416667  0.250000    0.00057870 258 t-inv F
  0.166667  0.416667  0.250000    0.00057870 259 t-inv F
  0.250000  0.416667  0.250000    0.00057870 260 t-inv F
  0.333333  0.416667  0.250000    0.00057870 261 t-inv F
  0.416667  0.416667  0.250000    0.00057870 262 t-inv F
  0.500000  0.416667  0.250000    0.00057870 263 t-inv F
 -0.416667  0.416667  0.250000    0.00057870 264 t-inv F
 -0.333333  0.416667  0.250000    0.00057870 265 t-inv F
 -0.250000  0.416667  0.250000    0.00057870 266 t-inv F
 -0.166667  0.416667  0.250000    0.00057870 267 t-inv F
 -0.083333  0.416667  0.250000    0.00057870 268 t-inv F
  0.000000  0.500000  0.250000    0.00057870 269 t-inv F
  0.083333  0.500000  0.250000    0.00057870 270 t-inv F
  0.166667  0.500000  0.250000    0.00057870 271 t-inv F
  0.250000  0.500000  0.250000    0.00057870 272 t-inv F
  0.333333  0.500000  0.250000    0.00057870 273 t-inv F
  0.416667  0.500000  0.250000    0.00057870 274 t-inv F
  0.500000  0.500000  0.250000    0.00057870 275 t-inv F
 -0.416667  0.500000  0.250000    0.00057870 276 t-inv F
 -0.333333  0.500000  0.250000    0.00057870 277 t-inv F
 -0.250000  0.500000  0.250000    0.00057870 278 t-inv F
 -0.166667  0.500000  0.250000    0.00057870 279 t-inv F
 -0.083333  0.500000  0.250000    0.00057870 280 t-inv F
  0.000000 -0.416667  0.250000    0.00057870 281 t-inv F
  0.083333 -0.416667  0.250000    0.00057870 282 t-inv F
  0.166667 -0.416667  0.250000    0.00057870 283 t-inv F
  0.250000 -0.416667  0.250000    0.00057870 284 t-inv F
  0.333333 -0.416667  0.250000    0.00057870 285 t-inv F
  0.416667 -0.416667  0.250000    0.00057870 286 t-inv F
  0.500000 -0.416667  0.250000    0.00057870 287 t-inv F
 -0.416667 -0.416667  0.250000    0.00057870 288 t-inv F
 -0.333333 -0.416667  0.250000    0.00057870 289 t-inv F
 -0.250000 -0.416667  0.250000    0.00057870 290 t-inv F
 -0.166667 -0.416667  0.250000    0.00057870 291 t-inv F
 -0.083333 -0.416667  0.250000    0.00057870 292 t-inv F
  0.000000  0.000000  0.333333    0.00057870 293 t-inv F
  0.083333 -0.000000  0.333333    0.00057870 294 t-inv F
  0.166667  0.000000  0.333333    0.00057870 295 t-inv F
  0.250000  0.000000  0.333333    0.00057870 296 t-inv F
  0.333333  0.000000  0.333333    0.00057870 297 t-inv F
  0.416667 -0.000000  0.333333    0.00057870 298 t-inv F
  0.500000  0.000000  0.333333    0.00057870 299 t-inv F
 -0.416667 -0.000000  0.333333    0.00057870 300 t-inv F
 -0.333333 -0.000000  0.333333    0.00057870 301 t-inv F
 -0.250000 -0.000000  0.333333    0.00057870 302 t-inv F
 -0.166667 -0.000000  0.333333    0.00057870 303 t-inv F
 -0.083333 -0.000000  0.333333    0.00057870 304 t-inv F
 -0.000000  0.083333  0.333333    0.00057870 305 t-inv F
  0.083333  0.083333  0.333333    0.00057870 306 t-inv F
  0.166667  0.083333  0.333333    0.00057870 307 t-inv F
  0.250000  0.083333  0.333333    0.00057870 308 t-inv F
  0.333333  0.083333  0.333333    0.00057870 309 t-inv F
  0.416667  0.083333  0.333333    0.00057870 310 t-inv F
  0.500000  0.083333  0.333333    0.00057870 311 t-inv F
 -0.416667  0.083333  0.333333    0.00057870 312 t-inv F
 -0.333333  0.083333  0.333333    0.00057870 313 t-inv F
 -0.250000  0.083333  0.333333    0.00057870 314 t-inv F
 -0.166667  0.083333  0.333333    0.00057870 315 t-inv F
 -0.083333  0.083333  0.333333    0.00057870 316 t-inv F
 -0.000000  0.166667  0.333333    0.00057870 317 t-inv F
  0.083333  0.166667  0.333333    0.00057870 318 t-inv F
  0.166667  0.166667  0.333333    0.00057870 319 t-inv F
  0.416667  0.166667  0.333333    0.00057870 320 t-inv F
  0.500000  0.166667  0.333333    0.00057870 321 t-inv F
 -0.416667  0.166667  0.333333    0.00057870 322 t-inv F
 -0.333333  0.166667  0.333333    0.00057870 323 t-inv F
 -0.000000  0.416667  0.333333    0.00057870 324 t-inv F
  0.083333  0.416667  0.333333    0.00057870 325 t-inv F
  0.166667  0.416667  0.333333    0.00057870 326 t-inv F
  0.250000  0.416667  0.333333    0.00057870 327 t-inv F
  0.333333  0.416667  0.333333    0.00057870 328 t-inv F
  0.416667  0.416667  0.333333    0.00057870 329 t-inv F
  0.500000  0.416667  0.333333    0.00057870 330 t-inv F
 -0.416667  0.416667  0.333333    0.00057870 331 t-inv F
 -0.333333  0.416667  0.333333    0.00057870 332 t-inv F
 -0.250000  0.416667  0.333333    0.00057870 333 t-inv F
 -0.166667  0.416667  0.333333    0.00057870 334 t-inv F
 -0.083333  0.416667  0.333333    0.00057870 335 t-inv F
 -0.000000  0.500000  0.333333    0.00057870 336 t-inv F
  0.083333  0.500000  0.333333    0.00057870 337 t-inv F
  0.166667  0.500000  0.333333    0.00057870 338 t-inv F
  0.250000  0.500000  0.333333    0.00057870 339 t-inv F
  0.333333  0.500000  0.333333    0.00057870 340 t-inv F
  0.416667  0.500000  0.333333    0.00057870 341 t-inv F
  0.500000  0.500000  0.333333    0.00057870 342 t-inv F
 -0.416667  0.500000  0.333333    0.00057870 343 t-inv F
 -0.333333  0.500000  0.333333    0.00057870 344 t-inv F
 -0.250000  0.500000  0.333333    0.00057870 345 t-inv F
 -0.166667  0.500000  0.333333    0.00057870 346 t-inv F
 -0.083333  0.500000  0.333333    0.00057870 347 t-inv F
 -0.000000 -0.416667  0.333333    0.00057870 348 t-inv F
  0.083333 -0.416667  0.333333    0.00057870 349 t-inv F
  0.166667 -0.416667  0.333333    0.00057870 350 t-inv F
  0.250000 -0.416667  0.333333    0.00057870 351 t-inv F
  0.333333 -0.416667  0.333333    0.00057870 352 t-inv F
  0.416667 -0.416667  0.333333    0.00057870 353 t-inv F
  0.500000 -0.416667  0.333333    0.00057870 354 t-inv F
 -0.416667 -0.416667  0.333333    0.00057870 355 t-inv F
 -0.333333 -0.416667  0.333333    0.00057870 356 t-inv F
 -0.250000 -0.416667  0.333333    0.00057870 357 t-inv F
 -0.166667 -0.416667  0.333333    0.00057870 358 t-inv F
 -0.083333 -0.416667  0.333333    0.00057870 359 t-inv F
  0.000000 -0.333333  0.333333    0.00057870 360 t-inv F
  0.083333 -0.333333  0.333333    0.00057870 361 t-inv F
  0.166667 -0.333333  0.333333    0.00057870 362 t-inv F
  0.416667 -0.333333  0.333333    0.00057870 363 t-inv F
  0.500000 -0.333333  0.333333    0.00057870 364 t-inv F
 -0.416667 -0.333333  0.333333    0.00057870 365 t-inv F
 -0.333333 -0.333333  0.333333    0.00057870 366 t-inv F
  0.000000  0.000000  0.416667    0.00057870 367 t-inv F
  0.083333 -0.000000  0.416667    0.00057870 368 t-inv F
  0.166667  0.000000  0.416667    0.00057870 369 t-inv F
  0.250000  0.000000  0.416667    0.00057870 370 t-inv F
  0.333333  0.000000  0.416667    0.00057870 371 t-inv F
  0.416667 -0.000000  0.416667    0.00057870 372 t-inv F
  0.500000  0.000000  0.416667    0.00057870 373 t-inv F
 -0.416667  0.000000  0.416667    0.00057870 374 t-inv F
 -0.333333  0.000000  0.416667    0.00057870 375 t-inv F
 -0.250000 -0.000000  0.416667    0.00057870 376 t-inv F
 -0.166667  0.000000  0.416667    0.00057870 377 t-inv F
 -0.083333  0.000000  0.416667    0.00057870 378 t-inv F
  0.000000  0.083333  0.416667    0.00057870 379 t-inv F
  0.083333  0.083333  0.416667    0.00057870 380 t-inv F
  0.166667  0.083333  0.416667    0.00057870 381 t-inv F
  0.250000  0.083333  0.416667    0.00057870 382 t-inv F
  0.333333  0.083333  0.416667    0.00057870 383 t-inv F
  0.416667  0.083333  0.416667    0.00057870 384 t-inv F
  0.500000  0.083333  0.416667    0.00057870 385 t-inv F
 -0.416667  0.083333  0.416667    0.00057870 386 t-inv F
 -0.333333  0.083333  0.416667    0.00057870 387 t-inv F
 -0.250000  0.083333  0.416667    0.00057870 388 t-inv F
 -0.166667  0.083333  0.416667    0.00057870 389 t-inv F
 -0.083333  0.083333  0.416667    0.00057870 390 t-inv F
  0.000000  0.166667  0.416667    0.00057870 391 t-inv F
  0.083333  0.166667  0.416667    0.00057870 392 t-inv F
  0.166667  0.166667  0.416667    0.00057870 393 t-inv F
  0.250000  0.166667  0.416667    0.00057870 394 t-inv F
  0.333333  0.166667  0.416667    0.00057870 395 t-inv F
  0.416667  0.166667  0.416667    0.00057870 396 t-inv F
  0.500000  0.166667  0.416667    0.00057870 397 t-inv F
 -0.416667  0.166667  0.416667    0.00057870 398 t-inv F
 -0.333333  0.166667  0.416667    0.00057870 399 t-inv F
 -0.250000  0.166667  0.416667    0.00057870 400 t-inv F
 -0.166667  0.166667  0.416667    0.00057870 401 t-inv F
 -0.083333  0.166667  0.416667    0.00057870 402 t-inv F
 -0.000000  0.500000  0.416667    0.00057870 403 t-inv F
[...]
      5      -0.0008      0.00000
      6      -0.2238      0.00000
      7       0.9132      0.00000
      8      -0.8105      0.00000
      9       0.1059      0.00000
     10      -0.0046      0.00000
     11       0.2767      0.00000
     12      -1.0548      0.00000
     13      -1.1437      0.00000
     14       0.5073      0.00000
     15       1.0989      0.00000
     16       1.3003      0.00000

 k-point 465 :      -0.4167    0.1667    0.5000
  band No.  band energies     occupation 
      1       0.0020      0.00000
      2      -0.0029      0.00000
      3      -0.0016      0.00000
      4      -0.0008      0.00000
      5      -0.0005      0.00000
      6      -0.0718      0.00000
      7       0.2755      0.00000
      8      -0.4941      0.00000
      9       0.3142      0.00000
     10      -0.0988      0.00000
     11       0.1495      0.00000
     12      -0.0899      0.00000
     13      -0.1518      0.00000
     14      -1.3275      0.00000
     15       1.1919      0.00000
     16       1.8560      0.00000

 k-point 466 :      -0.3333    0.1667    0.5000
  band No.  band energies     occupation 
      1      -0.0001      0.00000
      2      -0.0001      0.00000
      3      -0.0001      0.00000
      4      -0.0001      0.00000
      5      -0.0001      0.00000
      6       0.0002      0.00000
      7       0.0001      0.00000
      8       0.0001      0.00000
      9       0.0001      0.00000
     10       0.0001      0.00000
     11       0.0001      0.00000
     12       0.0001      0.00000
     13       0.0001      0.00000
     14       0.0001      0.00000
     15       0.0001      0.00000
     16       0.0001      0.00000

 k-point 467 :      -0.2500    0.1667    0.5000
  band No.  band energies     occupation 
      1       0.0021      0.00000
      2      -0.0029      0.00000
      3      -0.0019      0.00000
      4      -0.0006      0.00000
      5      -0.0006      0.00000
      6      -0.0742      0.00000
      7       0.3195      0.00000
      8      -0.6987      0.00000
      9       0.4996      0.00000
     10      -0.3390      0.00000
     11       0.7590      0.00000
     12      -0.5365      0.00000
     13       0.1359      0.00000
     14      -1.7821      0.00000
     15       1.5334      0.00000
     16       1.9895      0.00000

 k-point 468 :      -0.1667    0.1667    0.5000
  band No.  band energies     occupation 
      1       0.0081      0.00000
      2      -0.0113      0.00000
      3      -0.0076      0.00000
      4      -0.0012      0.00000
      5      -0.0014      0.00000
      6      -0.2400      0.00000
      7       1.0745      0.00000
      8      -1.5947      0.00000
      9       0.9498      0.00000
     10      -1.3449      0.00000
     11       2.0999      0.00000
     12      -1.0595      0.00000
     13       0.0386      0.00000
     14      -2.3659      0.00000
     15       2.1589      0.00000
     16       2.5023      0.00000

 k-point 469 :      -0.0833    0.1667    0.5000
  band No.  band energies     occupation 
      1       0.0159      0.00000
      2      -0.0260      0.00000
      3      -0.0136      0.00000
      4      -0.0018      0.00000
      5      -0.0011      0.00000
      6      -0.4016      0.00000
      7       1.7085      0.00000
      8      -2.0756      0.00000
      9       1.1473      0.00000
     10      -0.9612      0.00000
     11       1.7583      0.00000
     12      -1.7551      0.00000
     13      -2.2287      0.00000
     14       0.5183      0.00000
     15       1.2374      0.00000
     16       0.3345      0.00000

 k-point 470 :      -0.0000    0.2500    0.5000
  band No.  band energies     occupation 
      1       0.0156      0.00000
      2      -0.0286      0.00000
      3      -0.0109      0.00000
      4      -0.0017      0.00000
      5      -0.0008      0.00000
      6      -0.3831      0.00000
      7       1.6961      0.00000
      8      -1.4322      0.00000
      9       0.2452      0.00000
     10      -0.1778      0.00000
     11       0.9511      0.00000
     12      -1.7281      0.00000
     13      -1.5350      0.00000
     14       0.9217      0.00000
     15       1.3418      0.00000
     16      -0.0939      0.00000

 k-point 471 :       0.0833    0.2500    0.5000
  band No.  band energies     occupation 
      1       0.0235      0.00000
      2      -0.0400      0.00000
      3      -0.0221      0.00000
      4      -0.0005      0.00000
      5      -0.0002      0.00000
      6      -0.4815      0.00000
      7       2.2064      0.00000
      8      -0.3749      0.00000
      9      -1.3515      0.00000
     10       0.0175      0.00000
     11      -0.1814      0.00000
     12      -1.6333      0.00000
     13      -0.3835      0.00000
     14       0.8101      0.00000
     15       0.6784      0.00000
     16      -0.0293      0.00000

 k-point 472 :       0.1667    0.2500    0.5000
  band No.  band energies     occupation 
      1       0.0294      0.00000
      2      -0.0374      0.00000
      3      -0.0423      0.00000
      4       0.0015      0.00000
      5      -0.0001      0.00000
      6      -0.5329      0.00000
      7       2.6109      0.00000
      8       0.0944      0.00000
      9      -2.1601      0.00000
     10      -1.3188      0.00000
     11      -0.1746      0.00000
     12      -0.1269      0.00000
     13      -0.0368      0.00000
     14      -0.3162      0.00000
     15       1.3761      0.00000
     16      -0.4599      0.00000

 k-point 473 :       0.2500    0.2500    0.5000
  band No.  band energies     occupation 
      1       0.0316      0.00000
      2      -0.0809      0.00000
      3      -0.0053      0.00000
      4       0.0057      0.00000
      5      -0.0034      0.00000
      6      -0.5485      0.00000
      7       2.8132      0.00000
      8      -0.0076      0.00000
      9      -2.1771      0.00000
     10      -2.0007      0.00000
     11      -1.2675      0.00000
     12       2.8396      0.00000
     13      -0.9085      0.00000
     14      -0.7789      0.00000
     15       1.5489      0.00000
     16      -0.6916      0.00000

 k-point 474 :      -0.4167    0.2500    0.5000
  band No.  band energies     occupation 
      1       0.0079      0.00000
      2      -0.0116      0.00000
      3      -0.0069      0.00000
      4      -0.0016      0.00000
      5      -0.0011      0.00000
      6      -0.2343      0.00000
      7       1.0226      0.00000
      8      -1.3434      0.00000
      9       0.6984      0.00000
     10      -0.3268      0.00000
     11       0.8750      0.00000
     12      -0.6094      0.00000
     13      -1.5223      0.00000
     14      -0.8460      0.00000
     15       1.9509      0.00000
     16       2.2048      0.00000

 k-point 475 :      -0.3333    0.2500    0.5000
  band No.  band energies     occupation 
      1       0.0021      0.00000
      2      -0.0029      0.00000
      3      -0.0020      0.00000
      4      -0.0006      0.00000
      5      -0.0006      0.00000
      6      -0.0742      0.00000
      7       0.3195      0.00000
      8      -0.6987      0.00000
      9       0.4996      0.00000
     10      -0.3390      0.00000
     11       0.7590      0.00000
     12      -0.5365      0.00000
     13       0.1359      0.00000
     14      -1.7821      0.00000
     15       1.5334      0.00000
     16       1.9895      0.00000

 k-point 476 :      -0.2500    0.2500    0.5000
  band No.  band energies     occupation 
      1      -0.0001      0.00000
      2      -0.0001      0.00000
      3      -0.0001      0.00000
      4      -0.0001      0.00000
      5      -0.0001      0.00000
      6       0.0002      0.00000
      7       0.0001      0.00000
      8       0.0001      0.00000
      9       0.0001      0.00000
     10       0.0001      0.00000
     11       0.0001      0.00000
     12       0.0000      0.00000
     13       0.0001      0.00000
     14       0.0001      0.00000
     15       0.0001      0.00000
     16       0.0001      0.00000


------------------------ aborting loop because EDIFF is reached ----------------------------------------


    FORLOC:  cpu time    0.0011: real time    0.0011
    FORNL :  cpu time    0.2938: real time    0.2938
    STRESS:  cpu time    2.7249: real time    2.7247
    FORCOR:  cpu time    0.0124: real time    0.0124
    OFIELD:  cpu time    0.0000: real time    0.0000
    FORLOC:  cpu time    0.0011: real time    0.0011
    FORNL :  cpu time    0.2927: real time    0.2927
    STRESS:  cpu time    2.7419: real time    2.7489
    FORCOR:  cpu time    0.0252: real time    0.0258
    OFIELD:  cpu time    0.0001: real time    0.0001
    FORLOC:  cpu time    0.0018: real time    0.0018
    FORNL :  cpu time    0.3265: real time    0.3265
    STRESS:  cpu time    2.6865: real time    2.6866
    FORCOR:  cpu time    0.0123: real time    0.0123
    OFIELD:  cpu time    0.0000: real time    0.0001
    FORLOC:  cpu time    0.0037: real time    0.0037
    FORNL :  cpu time    0.3257: real time    0.3257
    STRESS:  cpu time    2.6864: real time    2.6863
    FORCOR:  cpu time    0.0124: real time    0.0124
    OFIELD:  cpu time    0.0001: real time    0.0001

 INTERNAL STRAIN TENSOR  FOR ION    2  DIRECTION 3   (eV/Angst):
 -----------------------------------------------------------------------------
     0.00252  6.05316  0.05670
     6.05316  0.00252  0.05670
    -0.03865 -0.03865 -0.00310


 POSITION                   FORCE-CONSTANT FOR ION    2 DIRECTION 3 (eV/Angst/Angst)
 -----------------------------------------------------------------------------------
      0.00000      0.00000      0.00000         0.000159      0.000159      8.470959
     -1.43755      1.43755      1.43755        -0.000159     -0.000159     -8.470959
 -----------------------------------------------------------------------------------
    total drift:                                0.000000      0.000000      0.000000


 BORN EFFECTIVE CHARGE FOR ION    2 DIRECTION 3 :  -0.000  -0.000  -2.220
                   rigid augmentation           :   0.000  -0.000   0.789
                   ionic contribution           :   0.000  -0.000   5.000
                   Berry contribution           :  -0.000  -0.000  -8.009


--------------------------------------------------------------------------------------------------------


  LATTYP: Found a face centered cubic cell.
 ALAT       =     5.7501816576
  
  Lattice vectors:
  
 A1 = (  -2.8750908288,   0.0000000000,   2.8750908288)
 A2 = (   0.0000000000,   2.8750908288,   2.8750908288)
 A3 = (  -2.8750908288,   2.8750908288,   0.0000000000)


Analysis of symmetry for initial positions (statically):
=====================================================================
 Subroutine PRICEL returns:
 Original cell was already a primitive cell.
 

 Routine SETGRP: Setting up the symmetry group for a 
 face centered cubic supercell.


 Subroutine GETGRP returns: Found  2 space group operations
 (whereof  2 operations were pure point group operations)
 out of a pool of 48 trial point group operations.


The static configuration has the point symmetry C_1h.


Analysis of symmetry for dynamics (positions and initial velocities):
=====================================================================
 Subroutine PRICEL returns:
 Original cell was already a primitive cell.
 

 Routine SETGRP: Setting up the symmetry group for a 
 face centered cubic supercell.


 Subroutine GETGRP returns: Found  2 space group operations
 (whereof  2 operations were pure point group operations)
 out of a pool of 48 trial point group operations.


The dynamic configuration has the point symmetry C_1h.


 Subroutine INISYM returns: Found  2 space group operations
 (whereof  2 operations are pure point group operations),
 and found     1 'primitive' translations



--------------------------------------------------------------------------------------------------------




 MACROSCOPIC STATIC DIELECTRIC TENSOR (including local field effects in DFT)
 ------------------------------------------------------
          16.815114    -0.101712    -0.000058
          -0.101712    16.815114    -0.000058
           0.000017     0.000017    16.770487
 ------------------------------------------------------


 PIEZOELECTRIC TENSOR  for field in x, y, z        (e  Angst)
          XX          YY          ZZ          XY          YZ          ZX
  --------------------------------------------------------------------------------
  x     0.00662     0.00972     0.00690     0.00969     2.74715     0.00564
  y    -0.00642    -0.01076    -0.00602    -0.00928     0.00602     2.74717
  z    -0.01702    -0.01702    -0.01665     2.74435     0.00166     0.00166

 PIEZOELECTRIC TENSOR  for field in x, y, z        (C/m^2)
          XX          YY          ZZ          XY          YZ          ZX
  --------------------------------------------------------------------------------
  x    -0.00070     0.00055     0.00015     0.00007     0.92600     0.00197
  y     0.00055    -0.00070     0.00015     0.00007     0.00197     0.92600
  z    -0.00574    -0.00574    -0.00561     0.92505     0.00056     0.00056
 
 BORN EFFECTIVE CHARGES (in e, cummulative output)
 -------------------------------------------------
 ion    1
    1     2.21582     0.00332     0.00389
    2     0.00331     2.21582    -0.00387
    3    -0.00009    -0.00009     2.21877
 ion    2
    1    -2.21582    -0.00332    -0.00389
    2    -0.00331    -2.21582     0.00387
    3     0.00009     0.00009    -2.21877

 INTERNAL STRAIN TENSOR FOR ION    1 for displacements in x,y,z  (eV/Angst):
          X           Y           Z          XY          YZ          ZX
  --------------------------------------------------------------------------------
  x     0.00491    -0.00252    -0.00364     0.03467    -6.04378     0.27040
  y    -0.00252     0.00491    -0.00364    -0.03579    -0.27899    -5.90000
  z    -0.00152    -0.00152     0.00456    -6.00187     0.02646    -0.04905

 INTERNAL STRAIN TENSOR FOR ION    2 for displacements in x,y,z  (eV/Angst):
          X           Y           Z          XY          YZ          ZX
  --------------------------------------------------------------------------------
  x    -0.00329    -0.00104     0.00239    -0.04530     6.12346    -0.35663
  y    -0.00104    -0.00329     0.00239     0.04575     0.36193     5.93807
  z     0.00252     0.00252    -0.00310     6.05316    -0.03865     0.05670


--------------------------------------------------------------------------------------------------------


 
 SECOND DERIVATIVES (NOT SYMMETRIZED)
 ------------------------------------
               1X          1Y          1Z          2X          2Y          2Z 
  1X    -8.427664   -0.000512   -0.000285    8.427664    0.000512    0.000285
  1Y    -0.000512   -8.427664   -0.000285    0.000512    8.427664    0.000285
  1Z     0.000160    0.000160   -8.427654   -0.000160   -0.000160    8.427654
  2X     8.470748   -0.000037    0.000203   -8.470748    0.000037   -0.000203
  2Y    -0.000037    8.470748    0.000203    0.000037   -8.470748   -0.000203
  2Z     0.000159    0.000159    8.470959   -0.000159   -0.000159   -8.470959
 
 
 Eigenvectors and eigenvalues of the dynamical matrix
 ----------------------------------------------------
 
 
   1 f  =    7.561489 THz    47.510234 2PiTHz  252.224101 cm-1    31.271814 meV
             X         Y         Z           dx          dy          dz
      0.000000  0.000000  0.000000     0.426041    0.426041    0.392022  
     -1.437545  1.437546  1.437546    -0.412028   -0.412028   -0.379161  
 
   2 f  =    7.561323 THz    47.509191 2PiTHz  252.218567 cm-1    31.271128 meV
             X         Y         Z           dx          dy          dz
      0.000000  0.000000  0.000000     0.277211    0.277211   -0.602504  
     -1.437545  1.437546  1.437546    -0.268097   -0.268097    0.582705  
 
   3 f  =    7.561218 THz    47.508536 2PiTHz  252.215086 cm-1    31.270697 meV
             X         Y         Z           dx          dy          dz
      0.000000  0.000000  0.000000     0.508273   -0.508273    0.000000  
     -1.437545  1.437546  1.437546    -0.491588    0.491588   -0.000000  
 
   4 f/i=    0.009503 THz     0.059710 2PiTHz    0.316992 cm-1     0.039302 meV
             X         Y         Z           dx          dy          dz
      0.000000  0.000000  0.000000     0.481694    0.481694   -0.138658  
     -1.437545  1.437546  1.437546     0.498078    0.498078   -0.143362  
 
   5 f/i=    0.009691 THz     0.060891 2PiTHz    0.323263 cm-1     0.040079 meV
             X         Y         Z           dx          dy          dz
      0.000000  0.000000  0.000000    -0.098049   -0.098049   -0.681236  
     -1.437545  1.437546  1.437546    -0.101370   -0.101370   -0.704371  
 
   6 f/i=    0.009757 THz     0.061303 2PiTHz    0.325449 cm-1     0.040350 meV
             X         Y         Z           dx          dy          dz
      0.000000  0.000000  0.000000     0.491588   -0.491588    0.000000  
     -1.437545  1.437546  1.437546     0.508273   -0.508273    0.000000  
 


--------------------------------------------------------------------------------------------------------




 MACROSCOPIC STATIC DIELECTRIC TENSOR IONIC CONTRIBUTION
 ------------------------------------------------------
           2.212249     0.006550     0.003769
           0.006550     2.212251    -0.003990
           0.003769    -0.003990     2.218104
 ------------------------------------------------------


 ELASTIC MODULI IONIC CONTR (kBar)
 Direction    XX          YY          ZZ          XY          YZ          ZX
 --------------------------------------------------------------------------------
 XX          -0.0001      0.0000      0.0001     -0.0494      0.0988     -0.0230
 YY           0.0000     -0.0001      0.0001     -0.0479     -0.0125      0.0973
 ZZ           0.0001      0.0001     -0.0001      0.0920     -0.0776     -0.0666
 XY          -0.0494     -0.0479      0.0920   -144.9518      1.7036     -2.2824
 YZ           0.0988     -0.0125     -0.0776      1.7036   -148.0660      0.0528
 ZX          -0.0230      0.0973     -0.0666     -2.2824      0.0528   -140.1739
 --------------------------------------------------------------------------------


 PIEZOELECTRIC TENSOR IONIC CONTR  for field in x, y, z        (C/m^2)
          XX          YY          ZZ          XY          YZ          ZX
  --------------------------------------------------------------------------------
  x     0.00036    -0.00007    -0.00027     0.00260    -0.53782     0.02694
  y    -0.00006     0.00036    -0.00027    -0.00266    -0.02913    -0.52318
  z    -0.00018    -0.00018     0.00034    -0.53353     0.00291    -0.00465


--------------------------------------------------------------------------------------------------------


     LOOP+:  cpu time 1036.5321: real time 1036.9765
    4ORBIT:  cpu time    0.0000: real time    0.0000

 total amount of memory used by VASP MPI-rank0   233025. kBytes
=======================================================================

   base      :      30000. kBytes
   nonl-proj :     178804. kBytes
   fftplans  :       1096. kBytes
   grid      :       2745. kBytes
   one-center:         31. kBytes
   wavefun   :      20349. kBytes
 
  
  
 General timing and accounting informations for this job:
 ========================================================
  
                  Total CPU time used (sec):     1039.596
                            User time (sec):     1028.773
                          System time (sec):       10.823
                         Elapsed time (sec):     1040.137
  
                   Maximum memory used (kb):      803904.
                   Average memory used (kb):           0.
  
                          Minor page faults:       362333
                          Major page faults:           15
                 Voluntary context switches:        13018
