<?xml version="1.0" encoding="ISO-8859-1"?>
<modeling>
 <generator>
  <i name="program" type="string">vasp </i>
  <i name="version" type="string">5.4.4.18Apr17-6-g9f103f2a35  </i>
  <i name="subversion" type="string">(build Aug 24 2017 11:22:49) complex            parallel </i>
  <i name="platform" type="string">LinuxIFC </i>
  <i name="date" type="string">2023 12 25 </i>
  <i name="time" type="string">13:07:29 </i>
 </generator>
 <incar>
  <i type="string" name="PREC">accurate</i>
  <i type="string" name="ALGO"> Normal</i>
  <i type="int" name="NELM">   100</i>
  <i type="int" name="IBRION">     8</i>
  <i name="EDIFF">      0.00000001</i>
  <i name="SYMPREC">      0.00000001</i>
  <i name="ENCUT">    520.00000000</i>
  <i type="logical" name="LREAL"> F  </i>
  <i type="int" name="ISMEAR">     0</i>
  <i name="SIGMA">      0.01000000</i>
  <i type="logical" name="LWAVE"> F  </i>
  <v type="int" name="KPOINT_BSE">    -1     0     0     0</v>
  <i type="int" name="NELM">   100</i>
  <i type="logical" name="LPEAD"> T  </i>
  <i type="logical" name="LEPSILON"> T  </i>
 </incar>
 <structure name="primitive_cell" >
  <crystal>
   <varray name="basis" >
    <v>      -2.87509083       0.00000000       2.87509083 </v>
    <v>       0.00000000       2.87509083       2.87509083 </v>
    <v>      -2.87509083       2.87509083       0.00000000 </v>
   </varray>
   <i name="volume">     47.53184843 </i>
   <varray name="rec_basis" >
    <v>      -0.17390755      -0.17390755       0.17390755 </v>
    <v>       0.17390755       0.17390755       0.17390755 </v>
    <v>      -0.17390755       0.17390755      -0.17390755 </v>
   </varray>
  </crystal>
  <varray name="positions" >
   <v>       0.00000000       0.00000000       0.00000000 </v>
   <v>       0.25000002       0.25000010       0.24999994 </v>
  </varray>
 </structure>
 <varray name="primitive_index" >
  <v type="int" >        1 </v>
  <v type="int" >        2 </v>
 </varray>
 <kpoints>
  <generation param="Gamma">
   <v type="int" name="divisions">      12       12       12 </v>
   <v name="usershift">      0.00000000       0.00000000       0.00000000 </v>
   <v name="genvec1">      0.08333333       0.00000000       0.00000000 </v>
   <v name="genvec2">      0.00000000       0.08333333      -0.00000000 </v>
   <v name="genvec3">     -0.00000000      -0.00000000       0.08333333 </v>
   <v name="shift">      0.00000000       0.00000000       0.00000000 </v>
  </generation>
  <varray name="kpointlist" >
   <v>       0.00000000       0.00000000       0.00000000 </v>
   <v>       0.08333333       0.00000000       0.00000000 </v>
   <v>       0.16666667       0.00000000       0.00000000 </v>
   <v>       0.25000000       0.00000000      -0.00000000 </v>
   <v>       0.33333333       0.00000000       0.00000000 </v>
   <v>       0.41666667      -0.00000000      -0.00000000 </v>
   <v>       0.50000000       0.00000000      -0.00000000 </v>
   <v>       0.00000000       0.08333333      -0.00000000 </v>
   <v>       0.08333333       0.08333333       0.00000000 </v>
   <v>       0.16666667       0.08333333      -0.00000000 </v>
   <v>       0.25000000       0.08333333       0.00000000 </v>
   <v>       0.33333333       0.08333333      -0.00000000 </v>
   <v>       0.41666667       0.08333333       0.00000000 </v>
   <v>       0.50000000       0.08333333      -0.00000000 </v>
   <v>      -0.41666667       0.08333333       0.00000000 </v>
   <v>      -0.33333333       0.08333333      -0.00000000 </v>
   <v>      -0.25000000       0.08333333       0.00000000 </v>
   <v>      -0.16666667       0.08333333       0.00000000 </v>
   <v>      -0.08333333       0.08333333      -0.00000000 </v>
   <v>      -0.00000000       0.16666667       0.00000000 </v>
   <v>       0.08333333       0.16666667       0.00000000 </v>
   <v>       0.16666667       0.16666667       0.00000000 </v>
   <v>       0.25000000       0.16666667       0.00000000 </v>
   <v>       0.33333333       0.16666667       0.00000000 </v>
   <v>       0.41666667       0.16666667      -0.00000000 </v>
   <v>       0.50000000       0.16666667      -0.00000000 </v>
   <v>      -0.41666667       0.16666667       0.00000000 </v>
   <v>      -0.33333333       0.16666667       0.00000000 </v>
   <v>      -0.25000000       0.16666667       0.00000000 </v>
   <v>      -0.16666667       0.16666667       0.00000000 </v>
   <v>      -0.08333333       0.16666667       0.00000000 </v>
   <v>      -0.00000000       0.25000000       0.00000000 </v>
   <v>       0.08333333       0.25000000       0.00000000 </v>
   <v>       0.16666667       0.25000000       0.00000000 </v>
   <v>       0.25000000       0.25000000       0.00000000 </v>
   <v>       0.33333333       0.25000000       0.00000000 </v>
   <v>       0.41666667       0.25000000       0.00000000 </v>
   <v>       0.50000000       0.25000000      -0.00000000 </v>
   <v>      -0.41666667       0.25000000       0.00000000 </v>
   <v>      -0.33333333       0.25000000       0.00000000 </v>
   <v>      -0.25000000       0.25000000      -0.00000000 </v>
   <v>      -0.16666667       0.25000000       0.00000000 </v>
   <v>      -0.08333333       0.25000000       0.00000000 </v>
   <v>      -0.00000000       0.33333333       0.00000000 </v>
   <v>       0.08333333       0.33333333      -0.00000000 </v>
   <v>       0.16666667       0.33333333       0.00000000 </v>
   <v>       0.25000000       0.33333333       0.00000000 </v>
   <v>       0.33333333       0.33333333       0.00000000 </v>
   <v>       0.41666667       0.33333333       0.00000000 </v>
   <v>       0.50000000       0.33333333       0.00000000 </v>
   <v>      -0.41666667       0.33333333       0.00000000 </v>
   <v>      -0.33333333       0.33333333       0.00000000 </v>
   <v>      -0.25000000       0.33333333       0.00000000 </v>
   <v>      -0.16666667       0.33333333      -0.00000000 </v>
   <v>      -0.08333333       0.33333333      -0.00000000 </v>
   <v>       0.00000000       0.41666667      -0.00000000 </v>
   <v>       0.08333333       0.41666667      -0.00000000 </v>
   <v>       0.16666667       0.41666667       0.00000000 </v>
   <v>       0.25000000       0.41666667      -0.00000000 </v>
   <v>       0.33333333       0.41666667       0.00000000 </v>
   <v>       0.41666667       0.41666667       0.00000000 </v>
   <v>       0.50000000       0.41666667       0.00000000 </v>
   <v>      -0.41666667       0.41666667       0.00000000 </v>
   <v>      -0.33333333       0.41666667      -0.00000000 </v>
   <v>      -0.25000000       0.41666667       0.00000000 </v>
   <v>      -0.16666667       0.41666667       0.00000000 </v>
   <v>      -0.08333333       0.41666667       0.00000000 </v>
   <v>      -0.00000000       0.50000000       0.00000000 </v>
   <v>       0.08333333       0.50000000      -0.00000000 </v>
   <v>       0.16666667       0.50000000       0.00000000 </v>
   <v>       0.25000000       0.50000000       0.00000000 </v>
   <v>       0.33333333       0.50000000       0.00000000 </v>
   <v>       0.41666667       0.50000000       0.00000000 </v>
   <v>       0.50000000       0.50000000       0.00000000 </v>
   <v>       0.00000000      -0.00000000       0.08333333 </v>
   <v>       0.08333333       0.00000000       0.08333333 </v>
   <v>       0.16666667       0.00000000       0.08333333 </v>
   <v>       0.25000000      -0.00000000       0.08333333 </v>
   <v>       0.33333333      -0.00000000       0.08333333 </v>
   <v>       0.41666667      -0.00000000       0.08333333 </v>
   <v>       0.50000000      -0.00000000       0.08333333 </v>
   <v>      -0.41666667      -0.00000000       0.08333333 </v>
   <v>      -0.33333333       0.00000000       0.08333333 </v>
   <v>      -0.25000000       0.00000000       0.08333333 </v>
   <v>      -0.16666667      -0.00000000       0.08333333 </v>
   <v>      -0.08333333      -0.00000000       0.08333333 </v>
   <v>      -0.00000000       0.16666667       0.08333333 </v>
   <v>       0.08333333       0.16666667       0.08333333 </v>
   <v>       0.16666667       0.16666667       0.08333333 </v>
   <v>       0.25000000       0.16666667       0.08333333 </v>
   <v>       0.33333333       0.16666667       0.08333333 </v>
   <v>       0.41666667       0.16666667       0.08333333 </v>
   <v>       0.50000000       0.16666667       0.08333333 </v>
   <v>      -0.41666667       0.16666667       0.08333333 </v>
   <v>      -0.33333333       0.16666667       0.08333333 </v>
   <v>      -0.25000000       0.16666667       0.08333333 </v>
   <v>      -0.16666667       0.16666667       0.08333333 </v>
   <v>      -0.08333333       0.16666667       0.08333333 </v>
   <v>       0.00000000       0.25000000       0.08333333 </v>
   <v>       0.08333333       0.25000000       0.08333333 </v>
   <v>       0.16666667       0.25000000       0.08333333 </v>
   <v>       0.25000000       0.25000000       0.08333333 </v>
   <v>       0.33333333       0.25000000       0.08333333 </v>
   <v>       0.41666667       0.25000000       0.08333333 </v>
   <v>       0.50000000       0.25000000       0.08333333 </v>
   <v>      -0.41666667       0.25000000       0.08333333 </v>
   <v>      -0.33333333       0.25000000       0.08333333 </v>
   <v>      -0.25000000       0.25000000       0.08333333 </v>
   <v>      -0.16666667       0.25000000       0.08333333 </v>
   <v>      -0.08333333       0.25000000       0.08333333 </v>
   <v>       0.00000000       0.33333333       0.08333333 </v>
   <v>       0.08333333       0.33333333       0.08333333 </v>
   <v>       0.16666667       0.33333333       0.08333333 </v>
   <v>       0.25000000       0.33333333       0.08333333 </v>
   <v>       0.33333333       0.33333333       0.08333333 </v>
   <v>       0.41666667       0.33333333       0.08333333 </v>
   <v>       0.50000000       0.33333333       0.08333333 </v>
   <v>      -0.41666667       0.33333333       0.08333333 </v>
   <v>      -0.33333333       0.33333333       0.08333333 </v>
   <v>      -0.25000000       0.33333333       0.08333333 </v>
   <v>      -0.16666667       0.33333333       0.08333333 </v>
   <v>      -0.08333333       0.33333333       0.08333333 </v>
   <v>      -0.00000000       0.41666667       0.08333333 </v>
   <v>       0.08333333       0.41666667       0.08333333 </v>
   <v>       0.16666667       0.41666667       0.08333333 </v>
   <v>       0.25000000       0.41666667       0.08333333 </v>
   <v>       0.33333333       0.41666667       0.08333333 </v>
   <v>       0.41666667       0.41666667       0.08333333 </v>
   <v>       0.50000000       0.41666667       0.08333333 </v>
   <v>      -0.41666667       0.41666667       0.08333333 </v>
   <v>      -0.33333333       0.41666667       0.08333333 </v>
   <v>      -0.25000000       0.41666667       0.08333333 </v>
   <v>      -0.16666667       0.41666667       0.08333333 </v>
   <v>      -0.08333333       0.41666667       0.08333333 </v>
   <v>       0.00000000       0.50000000       0.08333333 </v>
   <v>       0.08333333       0.50000000       0.08333333 </v>
   <v>       0.16666667       0.50000000       0.08333333 </v>
   <v>       0.25000000       0.50000000       0.08333333 </v>
   <v>       0.33333333       0.50000000       0.08333333 </v>
   <v>       0.41666667       0.50000000       0.08333333 </v>
   <v>       0.50000000       0.50000000       0.08333333 </v>
   <v>      -0.41666667       0.50000000       0.08333333 </v>
   <v>      -0.33333333       0.50000000       0.08333333 </v>
   <v>      -0.25000000       0.50000000       0.08333333 </v>
   <v>      -0.16666667       0.50000000       0.08333333 </v>
   <v>      -0.08333333       0.50000000       0.08333333 </v>
   <v>       0.00000000      -0.00000000       0.16666667 </v>
   <v>       0.08333333       0.00000000       0.16666667 </v>
   <v>       0.16666667      -0.00000000       0.16666667 </v>
   <v>       0.25000000       0.00000000       0.16666667 </v>
   <v>       0.33333333       0.00000000       0.16666667 </v>
   <v>       0.41666667       0.00000000       0.16666667 </v>
   <v>       0.50000000       0.00000000       0.16666667 </v>
   <v>      -0.41666667       0.00000000       0.16666667 </v>
   <v>      -0.33333333       0.00000000       0.16666667 </v>
   <v>      -0.25000000       0.00000000       0.16666667 </v>
   <v>      -0.16666667      -0.00000000       0.16666667 </v>
   <v>      -0.08333333       0.00000000       0.16666667 </v>
   <v>       0.00000000       0.08333333       0.16666667 </v>
   <v>       0.08333333       0.08333333       0.16666667 </v>
   <v>       0.25000000       0.08333333       0.16666667 </v>
   <v>       0.33333333       0.08333333       0.16666667 </v>
   <v>       0.41666667       0.08333333       0.16666667 </v>
   <v>       0.50000000       0.08333333       0.16666667 </v>
   <v>      -0.41666667       0.08333333       0.16666667 </v>
   <v>      -0.00000000       0.25000000       0.16666667 </v>
   <v>       0.08333333       0.25000000       0.16666667 </v>
   <v>       0.16666667       0.25000000       0.16666667 </v>
   <v>       0.25000000       0.25000000       0.16666667 </v>
   <v>       0.33333333       0.25000000       0.16666667 </v>
   <v>       0.41666667       0.25000000       0.16666667 </v>
   <v>       0.50000000       0.25000000       0.16666667 </v>
   <v>      -0.41666667       0.25000000       0.16666667 </v>
   <v>      -0.33333333       0.25000000       0.16666667 </v>
   <v>      -0.25000000       0.25000000       0.16666667 </v>
   <v>      -0.16666667       0.25000000       0.16666667 </v>
   <v>      -0.08333333       0.25000000       0.16666667 </v>
   <v>       0.00000000       0.33333333       0.16666667 </v>
   <v>       0.08333333       0.33333333       0.16666667 </v>
   <v>       0.16666667       0.33333333       0.16666667 </v>
   <v>       0.25000000       0.33333333       0.16666667 </v>
   <v>       0.33333333       0.33333333       0.16666667 </v>
   <v>       0.41666667       0.33333333       0.16666667 </v>
   <v>       0.50000000       0.33333333       0.16666667 </v>
   <v>      -0.41666667       0.33333333       0.16666667 </v>
   <v>      -0.33333333       0.33333333       0.16666667 </v>
   <v>      -0.25000000       0.33333333       0.16666667 </v>
   <v>      -0.16666667       0.33333333       0.16666667 </v>
   <v>      -0.08333333       0.33333333       0.16666667 </v>
   <v>      -0.00000000       0.41666667       0.16666667 </v>
   <v>       0.08333333       0.41666667       0.16666667 </v>
   <v>       0.16666667       0.41666667       0.16666667 </v>
   <v>       0.25000000       0.41666667       0.16666667 </v>
   <v>       0.33333333       0.41666667       0.16666667 </v>
   <v>       0.41666667       0.41666667       0.16666667 </v>
   <v>       0.50000000       0.41666667       0.16666667 </v>
   <v>      -0.41666667       0.41666667       0.16666667 </v>
   <v>      -0.33333333       0.41666667       0.16666667 </v>
   <v>      -0.25000000       0.41666667       0.16666667 </v>
   <v>      -0.16666667       0.41666667       0.16666667 </v>
   <v>      -0.08333333       0.41666667       0.16666667 </v>
   <v>      -0.00000000       0.50000000       0.16666667 </v>
   <v>       0.08333333       0.50000000       0.16666667 </v>
   <v>       0.16666667       0.50000000       0.16666667 </v>
   <v>       0.25000000       0.50000000       0.16666667 </v>
   <v>       0.33333333       0.50000000       0.16666667 </v>
   <v>       0.41666667       0.50000000       0.16666667 </v>
   <v>       0.50000000       0.50000000       0.16666667 </v>
   <v>      -0.41666667       0.50000000       0.16666667 </v>
   <v>      -0.33333333       0.50000000       0.16666667 </v>
   <v>      -0.25000000       0.50000000       0.16666667 </v>
   <v>      -0.16666667       0.50000000       0.16666667 </v>
   <v>      -0.08333333       0.50000000       0.16666667 </v>
   <v>       0.00000000      -0.41666667       0.16666667 </v>
   <v>       0.08333333      -0.41666667       0.16666667 </v>
   <v>       0.25000000      -0.41666667       0.16666667 </v>
   <v>       0.33333333      -0.41666667       0.16666667 </v>
   <v>       0.41666667      -0.41666667       0.16666667 </v>
   <v>       0.50000000      -0.41666667       0.16666667 </v>
   <v>      -0.41666667      -0.41666667       0.16666667 </v>
   <v>       0.00000000       0.00000000       0.25000000 </v>
   <v>       0.08333333       0.00000000       0.25000000 </v>
   <v>       0.16666667       0.00000000       0.25000000 </v>
   <v>       0.25000000       0.00000000       0.25000000 </v>
   <v>       0.33333333       0.00000000       0.25000000 </v>
   <v>       0.41666667       0.00000000       0.25000000 </v>
   <v>       0.50000000      -0.00000000       0.25000000 </v>
   <v>      -0.41666667      -0.00000000       0.25000000 </v>
   <v>      -0.33333333       0.00000000       0.25000000 </v>
   <v>      -0.25000000      -0.00000000       0.25000000 </v>
   <v>      -0.16666667       0.00000000       0.25000000 </v>
   <v>      -0.08333333       0.00000000       0.25000000 </v>
   <v>       0.00000000       0.08333333       0.25000000 </v>
   <v>       0.08333333       0.08333333       0.25000000 </v>
   <v>       0.16666667       0.08333333       0.25000000 </v>
   <v>       0.25000000       0.08333333       0.25000000 </v>
   <v>       0.33333333       0.08333333       0.25000000 </v>
   <v>       0.41666667       0.08333333       0.25000000 </v>
   <v>       0.50000000       0.08333333       0.25000000 </v>
   <v>      -0.41666667       0.08333333       0.25000000 </v>
   <v>      -0.33333333       0.08333333       0.25000000 </v>
   <v>      -0.25000000       0.08333333       0.25000000 </v>
   <v>      -0.16666667       0.08333333       0.25000000 </v>
   <v>      -0.08333333       0.08333333       0.25000000 </v>
   <v>      -0.00000000       0.33333333       0.25000000 </v>
   <v>       0.08333333       0.33333333       0.25000000 </v>
   <v>       0.16666667       0.33333333       0.25000000 </v>
   <v>       0.25000000       0.33333333       0.25000000 </v>
   <v>       0.33333333       0.33333333       0.25000000 </v>
   <v>       0.41666667       0.33333333       0.25000000 </v>
   <v>       0.50000000       0.33333333       0.25000000 </v>
   <v>      -0.41666667       0.33333333       0.25000000 </v>
   <v>      -0.33333333       0.33333333       0.25000000 </v>
   <v>      -0.25000000       0.33333333       0.25000000 </v>
   <v>      -0.16666667       0.33333333       0.25000000 </v>
   <v>      -0.08333333       0.33333333       0.25000000 </v>
   <v>      -0.00000000       0.41666667       0.25000000 </v>
   <v>       0.08333333       0.41666667       0.25000000 </v>
   <v>       0.16666667       0.41666667       0.25000000 </v>
   <v>       0.25000000       0.41666667       0.25000000 </v>
   <v>       0.33333333       0.41666667       0.25000000 </v>
   <v>       0.41666667       0.41666667       0.25000000 </v>
   <v>       0.50000000       0.41666667       0.25000000 </v>
   <v>      -0.41666667       0.41666667       0.25000000 </v>
   <v>      -0.33333333       0.41666667       0.25000000 </v>
   <v>      -0.25000000       0.41666667       0.25000000 </v>
   <v>      -0.16666667       0.41666667       0.25000000 </v>
   <v>      -0.08333333       0.41666667       0.25000000 </v>
   <v>       0.00000000       0.50000000       0.25000000 </v>
   <v>       0.08333333       0.50000000       0.25000000 </v>
   <v>       0.16666667       0.50000000       0.25000000 </v>
   <v>       0.25000000       0.50000000       0.25000000 </v>
   <v>       0.33333333       0.50000000       0.25000000 </v>
   <v>       0.41666667       0.50000000       0.25000000 </v>
   <v>       0.50000000       0.50000000       0.25000000 </v>
   <v>      -0.41666667       0.50000000       0.25000000 </v>
   <v>      -0.33333333       0.50000000       0.25000000 </v>
   <v>      -0.25000000       0.50000000       0.25000000 </v>
   <v>      -0.16666667       0.50000000       0.25000000 </v>
   <v>      -0.08333333       0.50000000       0.25000000 </v>
   <v>       0.00000000      -0.41666667       0.25000000 </v>
   <v>       0.08333333      -0.41666667       0.25000000 </v>
   <v>       0.16666667      -0.41666667       0.25000000 </v>
   <v>       0.25000000      -0.41666667       0.25000000 </v>
   <v>       0.33333333      -0.41666667       0.25000000 </v>
   <v>       0.41666667      -0.41666667       0.25000000 </v>
   <v>       0.50000000      -0.41666667       0.25000000 </v>
   <v>      -0.41666667      -0.41666667       0.25000000 </v>
   <v>      -0.33333333      -0.41666667       0.25000000 </v>
   <v>      -0.25000000      -0.41666667       0.25000000 </v>
   <v>      -0.16666667      -0.41666667       0.25000000 </v>
   <v>      -0.08333333      -0.41666667       0.25000000 </v>
   <v>       0.00000000       0.00000000       0.33333333 </v>
   <v>       0.08333333      -0.00000000       0.33333333 </v>
   <v>       0.16666667       0.00000000       0.33333333 </v>
   <v>       0.25000000       0.00000000       0.33333333 </v>
   <v>       0.33333333       0.00000000       0.33333333 </v>
   <v>       0.41666667      -0.00000000       0.33333333 </v>
   <v>       0.50000000       0.00000000       0.33333333 </v>
   <v>      -0.41666667      -0.00000000       0.33333333 </v>
   <v>      -0.33333333      -0.00000000       0.33333333 </v>
   <v>      -0.25000000      -0.00000000       0.33333333 </v>
   <v>      -0.16666667      -0.00000000       0.33333333 </v>
   <v>      -0.08333333      -0.00000000       0.33333333 </v>
   <v>      -0.00000000       0.08333333       0.33333333 </v>
   <v>       0.08333333       0.08333333       0.33333333 </v>
   <v>       0.16666667       0.08333333       0.33333333 </v>
   <v>       0.25000000       0.08333333       0.33333333 </v>
   <v>       0.33333333       0.08333333       0.33333333 </v>
   <v>       0.41666667       0.08333333       0.33333333 </v>
   <v>       0.50000000       0.08333333       0.33333333 </v>
   <v>      -0.41666667       0.08333333       0.33333333 </v>
   <v>      -0.33333333       0.08333333       0.33333333 </v>
   <v>      -0.25000000       0.08333333       0.33333333 </v>
   <v>      -0.16666667       0.08333333       0.33333333 </v>
   <v>      -0.08333333       0.08333333       0.33333333 </v>
   <v>      -0.00000000       0.16666667       0.33333333 </v>
   <v>       0.08333333       0.16666667       0.33333333 </v>
   <v>       0.16666667       0.16666667       0.33333333 </v>
   <v>       0.41666667       0.16666667       0.33333333 </v>
   <v>       0.50000000       0.16666667       0.33333333 </v>
   <v>      -0.41666667       0.16666667       0.33333333 </v>
   <v>      -0.33333333       0.16666667       0.33333333 </v>
   <v>      -0.00000000       0.41666667       0.33333333 </v>
   <v>       0.08333333       0.41666667       0.33333333 </v>
   <v>       0.16666667       0.41666667       0.33333333 </v>
   <v>       0.25000000       0.41666667       0.33333333 </v>
   <v>       0.33333333       0.41666667       0.33333333 </v>
   <v>       0.41666667       0.41666667       0.33333333 </v>
   <v>       0.50000000       0.41666667       0.33333333 </v>
   <v>      -0.41666667       0.41666667       0.33333333 </v>
   <v>      -0.33333333       0.41666667       0.33333333 </v>
   <v>      -0.25000000       0.41666667       0.33333333 </v>
   <v>      -0.16666667       0.41666667       0.33333333 </v>
   <v>      -0.08333333       0.41666667       0.33333333 </v>
   <v>      -0.00000000       0.50000000       0.33333333 </v>
   <v>       0.08333333       0.50000000       0.33333333 </v>
   <v>       0.16666667       0.50000000       0.33333333 </v>
   <v>       0.25000000       0.50000000       0.33333333 </v>
   <v>       0.33333333       0.50000000       0.33333333 </v>
   <v>       0.41666667       0.50000000       0.33333333 </v>
   <v>       0.50000000       0.50000000       0.33333333 </v>
   <v>      -0.41666667       0.50000000       0.33333333 </v>
   <v>      -0.33333333       0.50000000       0.33333333 </v>
   <v>      -0.25000000       0.50000000       0.33333333 </v>
   <v>      -0.16666667       0.50000000       0.33333333 </v>
   <v>      -0.08333333       0.50000000       0.33333333 </v>
   <v>      -0.00000000      -0.41666667       0.33333333 </v>
   <v>       0.08333333      -0.41666667       0.33333333 </v>
   <v>       0.16666667      -0.41666667       0.33333333 </v>
   <v>       0.25000000      -0.41666667       0.33333333 </v>
   <v>       0.33333333      -0.41666667       0.33333333 </v>
   <v>       0.41666667      -0.41666667       0.33333333 </v>
   <v>       0.50000000      -0.41666667       0.33333333 </v>
   <v>      -0.41666667      -0.41666667       0.33333333 </v>
   <v>      -0.33333333      -0.41666667       0.33333333 </v>
   <v>      -0.25000000      -0.41666667       0.33333333 </v>
   <v>      -0.16666667      -0.41666667       0.33333333 </v>
   <v>      -0.08333333      -0.41666667       0.33333333 </v>
   <v>       0.00000000      -0.33333333       0.33333333 </v>
   <v>       0.08333333      -0.33333333       0.33333333 </v>
   <v>       0.16666667      -0.33333333       0.33333333 </v>
   <v>       0.41666667      -0.33333333       0.33333333 </v>
   <v>       0.50000000      -0.33333333       0.33333333 </v>
   <v>      -0.41666667      -0.33333333       0.33333333 </v>
   <v>      -0.33333333      -0.33333333       0.33333333 </v>
   <v>       0.00000000       0.00000000       0.41666667 </v>
   <v>       0.08333333      -0.00000000       0.41666667 </v>
   <v>       0.16666667       0.00000000       0.41666667 </v>
   <v>       0.25000000       0.00000000       0.41666667 </v>
   <v>       0.33333333       0.00000000       0.41666667 </v>
   <v>       0.41666667      -0.00000000       0.41666667 </v>
   <v>       0.50000000       0.00000000       0.41666667 </v>
   <v>      -0.41666667       0.00000000       0.41666667 </v>
   <v>      -0.33333333       0.00000000       0.41666667 </v>
   <v>      -0.25000000      -0.00000000       0.41666667 </v>
   <v>      -0.16666667       0.00000000       0.41666667 </v>
   <v>      -0.08333333       0.00000000       0.41666667 </v>
   <v>       0.00000000       0.08333333       0.41666667 </v>
   <v>       0.08333333       0.08333333       0.41666667 </v>
   <v>       0.16666667       0.08333333       0.41666667 </v>
   <v>       0.25000000       0.08333333       0.41666667 </v>
   <v>       0.33333333       0.08333333       0.41666667 </v>
   <v>       0.41666667       0.08333333       0.41666667 </v>
   <v>       0.50000000       0.08333333       0.41666667 </v>
   <v>      -0.41666667       0.08333333       0.41666667 </v>
   <v>      -0.33333333       0.08333333       0.41666667 </v>
   <v>      -0.25000000       0.08333333       0.41666667 </v>
   <v>      -0.16666667       0.08333333       0.41666667 </v>
   <v>      -0.08333333       0.08333333       0.41666667 </v>
   <v>       0.00000000       0.16666667       0.41666667 </v>
   <v>       0.08333333       0.16666667       0.41666667 </v>
   <v>       0.16666667       0.16666667       0.41666667 </v>
   <v>       0.25000000       0.16666667       0.41666667 </v>
   <v>       0.33333333       0.16666667       0.41666667 </v>
   <v>       0.41666667       0.16666667       0.41666667 </v>
   <v>       0.50000000       0.16666667       0.41666667 </v>
   <v>      -0.41666667       0.16666667       0.41666667 </v>
   <v>      -0.33333333       0.16666667       0.41666667 </v>
   <v>      -0.25000000       0.16666667       0.41666667 </v>
   <v>      -0.16666667       0.16666667       0.41666667 </v>
   <v>      -0.08333333       0.16666667       0.41666667 </v>
   <v>      -0.00000000       0.50000000       0.41666667 </v>
   <v>       0.08333333       0.50000000       0.41666667 </v>
   <v>       0.16666667       0.50000000       0.41666667 </v>
   <v>       0.25000000       0.50000000       0.41666667 </v>
   <v>       0.33333333       0.50000000       0.41666667 </v>
   <v>       0.41666667       0.50000000       0.41666667 </v>
   <v>       0.50000000       0.50000000       0.41666667 </v>
   <v>      -0.41666667       0.50000000       0.41666667 </v>
   <v>      -0.33333333       0.50000000       0.41666667 </v>
   <v>      -0.25000000       0.50000000       0.41666667 </v>
   <v>      -0.16666667       0.50000000       0.41666667 </v>
   <v>      -0.08333333       0.50000000       0.41666667 </v>
   <v>       0.00000000      -0.41666667       0.41666667 </v>
   <v>       0.08333333      -0.41666667       0.41666667 </v>
   <v>       0.16666667      -0.41666667       0.41666667 </v>
   <v>       0.25000000      -0.41666667       0.41666667 </v>
   <v>       0.33333333      -0.41666667       0.41666667 </v>
   <v>       0.41666667      -0.41666667       0.41666667 </v>
   <v>       0.50000000      -0.41666667       0.41666667 </v>
   <v>      -0.41666667      -0.41666667       0.41666667 </v>
   <v>      -0.33333333      -0.41666667       0.41666667 </v>
   <v>      -0.25000000      -0.41666667       0.41666667 </v>
   <v>      -0.16666667      -0.41666667       0.41666667 </v>
   <v>      -0.08333333      -0.41666667       0.41666667 </v>
   <v>       0.00000000      -0.33333333       0.41666667 </v>
   <v>       0.08333333      -0.33333333       0.41666667 </v>
   <v>       0.16666667      -0.33333333       0.41666667 </v>
   <v>       0.25000000      -0.33333333       0.41666667 </v>
   <v>       0.33333333      -0.33333333       0.41666667 </v>
   <v>       0.41666667      -0.33333333       0.41666667 </v>
   <v>       0.50000000      -0.33333333       0.41666667 </v>
   <v>      -0.41666667      -0.33333333       0.41666667 </v>
   <v>      -0.33333333      -0.33333333       0.41666667 </v>
   <v>      -0.25000000      -0.33333333       0.41666667 </v>
   <v>      -0.16666667      -0.33333333       0.41666667 </v>
   <v>      -0.08333333      -0.33333333       0.41666667 </v>
   <v>       0.00000000       0.00000000       0.50000000 </v>
   <v>       0.08333333       0.00000000       0.50000000 </v>
   <v>       0.16666667       0.00000000       0.50000000 </v>
   <v>       0.25000000       0.00000000       0.50000000 </v>
   <v>       0.33333333       0.00000000       0.50000000 </v>
   <v>       0.41666667      -0.00000000       0.50000000 </v>
   <v>       0.50000000       0.00000000       0.50000000 </v>
   <v>       0.00000000       0.08333333       0.50000000 </v>
   <v>       0.08333333       0.08333333       0.50000000 </v>
   <v>       0.16666667       0.08333333       0.50000000 </v>
   <v>       0.25000000       0.08333333       0.50000000 </v>
   <v>       0.33333333       0.08333333       0.50000000 </v>
   <v>       0.41666667       0.08333333       0.50000000 </v>
   <v>       0.50000000       0.08333333       0.50000000 </v>
   <v>      -0.41666667       0.08333333       0.50000000 </v>
   <v>      -0.33333333       0.08333333       0.50000000 </v>
   <v>      -0.25000000       0.08333333       0.50000000 </v>
   <v>      -0.16666667       0.08333333       0.50000000 </v>
   <v>      -0.08333333       0.08333333       0.50000000 </v>
   <v>       0.00000000       0.16666667       0.50000000 </v>
   <v>       0.08333333       0.16666667       0.50000000 </v>
   <v>       0.16666667       0.16666667       0.50000000 </v>
   <v>       0.25000000       0.16666667       0.50000000 </v>
   <v>       0.33333333       0.16666667       0.50000000 </v>
   <v>       0.41666667       0.16666667       0.50000000 </v>
   <v>       0.50000000       0.16666667       0.50000000 </v>
   <v>      -0.41666667       0.16666667       0.50000000 </v>
   <v>      -0.33333333       0.16666667       0.50000000 </v>
   <v>      -0.25000000       0.16666667       0.50000000 </v>
   <v>      -0.16666667       0.16666667       0.50000000 </v>
   <v>      -0.08333333       0.16666667       0.50000000 </v>
   <v>      -0.00000000       0.25000000       0.50000000 </v>
   <v>       0.08333333       0.25000000       0.50000000 </v>
   <v>       0.16666667       0.25000000       0.50000000 </v>
   <v>       0.25000000       0.25000000       0.50000000 </v>
   <v>      -0.41666667       0.25000000       0.50000000 </v>
   <v>      -0.33333333       0.25000000       0.50000000 </v>
   <v>      -0.25000000       0.25000000       0.50000000 </v>
  </varray>
  <varray name="weights" >
   <v>       0.00057870 </v>
   <v>       0.00115741 </v>
   <v>       0.00115741 </v>
   <v>       0.00115741 </v>
   <v>       0.00115741 </v>
   <v>       0.00115741 </v>
   <v>       0.00057870 </v>
   <v>       0.00115741 </v>
   <v>       0.00115741 </v>
   <v>       0.00115741 </v>
   <v>       0.00115741 </v>
   <v>       0.00115741 </v>
   <v>       0.00115741 </v>
   <v>       0.00115741 </v>
   <v>       0.00115741 </v>
   <v>       0.00115741 </v>
   <v>       0.00115741 </v>
   <v>       0.00115741 </v>
   <v>       0.00115741 </v>
   <v>       0.00115741 </v>
   <v>       0.00115741 </v>
   <v>       0.00115741 </v>
   <v>       0.00115741 </v>
   <v>       0.00115741 </v>
   <v>       0.00115741 </v>
   <v>       0.00115741 </v>
   <v>       0.00115741 </v>
   <v>       0.00115741 </v>
   <v>       0.00115741 </v>
   <v>       0.00115741 </v>
   <v>       0.00115741 </v>
   <v>       0.00115741 </v>
   <v>       0.00115741 </v>
   <v>       0.00115741 </v>
   <v>       0.00115741 </v>
   <v>       0.00115741 </v>
   <v>       0.00115741 </v>
   <v>       0.00115741 </v>
   <v>       0.00115741 </v>
   <v>       0.00115741 </v>
   <v>       0.00115741 </v>
   <v>       0.00115741 </v>
   <v>       0.00115741 </v>
   <v>       0.00115741 </v>
   <v>       0.00115741 </v>
   <v>       0.00115741 </v>
   <v>       0.00115741 </v>
   <v>       0.00115741 </v>
   <v>       0.00115741 </v>
   <v>       0.00115741 </v>
   <v>       0.00115741 </v>
   <v>       0.00115741 </v>
   <v>       0.00115741 </v>
   <v>       0.00115741 </v>
   <v>       0.00115741 </v>
   <v>       0.00115741 </v>
   <v>       0.00115741 </v>
   <v>       0.00115741 </v>
   <v>       0.00115741 </v>
   <v>       0.00115741 </v>
   <v>       0.00115741 </v>
   <v>       0.00115741 </v>
   <v>       0.00115741 </v>
   <v>       0.00115741 </v>
   <v>       0.00115741 </v>
   <v>       0.00115741 </v>
   <v>       0.00115741 </v>
   <v>       0.00057870 </v>
   <v>       0.00115741 </v>
   <v>       0.00115741 </v>
   <v>       0.00115741 </v>
   <v>       0.00115741 </v>
   <v>       0.00115741 </v>
   <v>       0.00057870 </v>
   <v>       0.00231481 </v>
   <v>       0.00231481 </v>
   <v>       0.00231481 </v>
   <v>       0.00231481 </v>
   <v>       0.00231481 </v>
   <v>       0.00231481 </v>
   <v>       0.00231481 </v>
   <v>       0.00231481 </v>
   <v>       0.00231481 </v>
   <v>       0.00231481 </v>
   <v>       0.00231481 </v>
   <v>       0.00231481 </v>
   <v>       0.00231481 </v>
   <v>       0.00231481 </v>
   <v>       0.00231481 </v>
   <v>       0.00231481 </v>
   <v>       0.00231481 </v>
   <v>       0.00231481 </v>
   <v>       0.00231481 </v>
   <v>       0.00231481 </v>
   <v>       0.00231481 </v>
   <v>       0.00231481 </v>
   <v>       0.00231481 </v>
   <v>       0.00231481 </v>
   <v>       0.00231481 </v>
   <v>       0.00231481 </v>
   <v>       0.00231481 </v>
   <v>       0.00231481 </v>
   <v>       0.00231481 </v>
   <v>       0.00231481 </v>
   <v>       0.00231481 </v>
   <v>       0.00231481 </v>
   <v>       0.00231481 </v>
   <v>       0.00231481 </v>
   <v>       0.00231481 </v>
   <v>       0.00231481 </v>
   <v>       0.00231481 </v>
   <v>       0.00231481 </v>
   <v>       0.00231481 </v>
   <v>       0.00231481 </v>
   <v>       0.00231481 </v>
   <v>       0.00231481 </v>
   <v>       0.00231481 </v>
   <v>       0.00231481 </v>
   <v>       0.00231481 </v>
   <v>       0.00231481 </v>
   <v>       0.00231481 </v>
   <v>       0.00231481 </v>
   <v>       0.00231481 </v>
   <v>       0.00231481 </v>
   <v>       0.00231481 </v>
   <v>       0.00231481 </v>
   <v>       0.00231481 </v>
   <v>       0.00231481 </v>
   <v>       0.00231481 </v>
   <v>       0.00231481 </v>
   <v>       0.00231481 </v>
   <v>       0.00231481 </v>
   <v>       0.00231481 </v>
   <v>       0.00231481 </v>
   <v>       0.00231481 </v>
   <v>       0.00231481 </v>
   <v>       0.00231481 </v>
   <v>       0.00231481 </v>
   <v>       0.00231481 </v>
   <v>       0.00231481 </v>
   <v>       0.00231481 </v>
   <v>       0.00231481 </v>
   <v>       0.00231481 </v>
   <v>       0.00231481 </v>
   <v>       0.00231481 </v>
   <v>       0.00231481 </v>
   <v>       0.00231481 </v>
   <v>       0.00231481 </v>
   <v>       0.00231481 </v>
   <v>       0.00231481 </v>
   <v>       0.00231481 </v>
   <v>       0.00231481 </v>
   <v>       0.00231481 </v>
   <v>       0.00231481 </v>
   <v>       0.00231481 </v>
   <v>       0.00231481 </v>
   <v>       0.00231481 </v>
   <v>       0.00231481 </v>
   <v>       0.00231481 </v>
   <v>       0.00115741 </v>
   <v>       0.00231481 </v>
   <v>       0.00231481 </v>
   <v>       0.00231481 </v>
   <v>       0.00231481 </v>
   <v>       0.00115741 </v>
   <v>       0.00231481 </v>
   <v>       0.00231481 </v>
   <v>       0.00231481 </v>
   <v>       0.00231481 </v>
   <v>       0.00231481 </v>
   <v>       0.00231481 </v>
   <v>       0.00231481 </v>
   <v>       0.00231481 </v>
   <v>       0.00231481 </v>
   <v>       0.00231481 </v>
   <v>       0.00231481 </v>
   <v>       0.00231481 </v>
   <v>       0.00231481 </v>
   <v>       0.00231481 </v>
   <v>       0.00231481 </v>
   <v>       0.00231481 </v>
   <v>       0.00231481 </v>
   <v>       0.00231481 </v>
   <v>       0.00231481 </v>
   <v>       0.00231481 </v>
   <v>       0.00231481 </v>
   <v>       0.00231481 </v>
   <v>       0.00231481 </v>
   <v>       0.00231481 </v>
   <v>       0.00231481 </v>
   <v>       0.00231481 </v>
   <v>       0.00231481 </v>
   <v>       0.00231481 </v>
   <v>       0.00231481 </v>
   <v>       0.00231481 </v>
   <v>       0.00231481 </v>
   <v>       0.00231481 </v>
   <v>       0.00231481 </v>
   <v>       0.00231481 </v>
   <v>       0.00231481 </v>
   <v>       0.00231481 </v>
   <v>       0.00231481 </v>
   <v>       0.00231481 </v>
   <v>       0.00231481 </v>
   <v>       0.00231481 </v>
   <v>       0.00231481 </v>
   <v>       0.00231481 </v>
   <v>       0.00231481 </v>
   <v>       0.00231481 </v>
   <v>       0.00231481 </v>
   <v>       0.00231481 </v>
   <v>       0.00231481 </v>
   <v>       0.00231481 </v>
   <v>       0.00231481 </v>
   <v>       0.00115741 </v>
   <v>       0.00231481 </v>
   <v>       0.00231481 </v>
   <v>       0.00231481 </v>
   <v>       0.00231481 </v>
   <v>       0.00115741 </v>
   <v>       0.00231481 </v>
   <v>       0.00231481 </v>
   <v>       0.00231481 </v>
   <v>       0.00231481 </v>
   <v>       0.00231481 </v>
   <v>       0.00231481 </v>
   <v>       0.00231481 </v>
   <v>       0.00231481 </v>
   <v>       0.00231481 </v>
   <v>       0.00231481 </v>
   <v>       0.00231481 </v>
   <v>       0.00231481 </v>
   <v>       0.00231481 </v>
   <v>       0.00231481 </v>
   <v>       0.00231481 </v>
   <v>       0.00231481 </v>
   <v>       0.00231481 </v>
   <v>       0.00231481 </v>
   <v>       0.00231481 </v>
   <v>       0.00231481 </v>
   <v>       0.00231481 </v>
   <v>       0.00231481 </v>
   <v>       0.00231481 </v>
   <v>       0.00231481 </v>
   <v>       0.00231481 </v>
   <v>       0.00231481 </v>
   <v>       0.00231481 </v>
   <v>       0.00231481 </v>
   <v>       0.00231481 </v>
   <v>       0.00231481 </v>
   <v>       0.00231481 </v>
   <v>       0.00231481 </v>
   <v>       0.00231481 </v>
   <v>       0.00231481 </v>
   <v>       0.00231481 </v>
   <v>       0.00231481 </v>
   <v>       0.00231481 </v>
   <v>       0.00231481 </v>
   <v>       0.00231481 </v>
   <v>       0.00231481 </v>
   <v>       0.00231481 </v>
   <v>       0.00231481 </v>
   <v>       0.00231481 </v>
   <v>       0.00231481 </v>
   <v>       0.00231481 </v>
   <v>       0.00231481 </v>
   <v>       0.00231481 </v>
   <v>       0.00231481 </v>
   <v>       0.00231481 </v>
   <v>       0.00231481 </v>
   <v>       0.00231481 </v>
   <v>       0.00231481 </v>
   <v>       0.00231481 </v>
   <v>       0.00231481 </v>
   <v>       0.00231481 </v>
   <v>       0.00231481 </v>
   <v>       0.00231481 </v>
   <v>       0.00231481 </v>
   <v>       0.00231481 </v>
   <v>       0.00231481 </v>
   <v>       0.00231481 </v>
   <v>       0.00231481 </v>
   <v>       0.00231481 </v>
   <v>       0.00231481 </v>
   <v>       0.00231481 </v>
   <v>       0.00231481 </v>
   <v>       0.00231481 </v>
   <v>       0.00231481 </v>
   <v>       0.00231481 </v>
   <v>       0.00231481 </v>
   <v>       0.00231481 </v>
   <v>       0.00231481 </v>
   <v>       0.00231481 </v>
   <v>       0.00231481 </v>
   <v>       0.00231481 </v>
   <v>       0.00231481 </v>
   <v>       0.00231481 </v>
   <v>       0.00231481 </v>
   <v>       0.00231481 </v>
   <v>       0.00231481 </v>
   <v>       0.00231481 </v>
   <v>       0.00231481 </v>
   <v>       0.00231481 </v>
   <v>       0.00231481 </v>
   <v>       0.00231481 </v>
   <v>       0.00231481 </v>
   <v>       0.00231481 </v>
   <v>       0.00231481 </v>
   <v>       0.00231481 </v>
   <v>       0.00231481 </v>
   <v>       0.00231481 </v>
   <v>       0.00231481 </v>
   <v>       0.00231481 </v>
   <v>       0.00231481 </v>
   <v>       0.00231481 </v>
   <v>       0.00231481 </v>
   <v>       0.00231481 </v>
   <v>       0.00231481 </v>
   <v>       0.00115741 </v>
   <v>       0.00231481 </v>
   <v>       0.00231481 </v>
   <v>       0.00231481 </v>
   <v>       0.00115741 </v>
   <v>       0.00231481 </v>
   <v>       0.00231481 </v>
   <v>       0.00231481 </v>
   <v>       0.00231481 </v>
   <v>       0.00231481 </v>
   <v>       0.00231481 </v>
   <v>       0.00231481 </v>
   <v>       0.00231481 </v>
   <v>       0.00231481 </v>
   <v>       0.00231481 </v>
   <v>       0.00231481 </v>
   <v>       0.00231481 </v>
   <v>       0.00231481 </v>
   <v>       0.00231481 </v>
   <v>       0.00231481 </v>
   <v>       0.00231481 </v>
   <v>       0.00231481 </v>
   <v>       0.00231481 </v>
   <v>       0.00231481 </v>
   <v>       0.00231481 </v>
   <v>       0.00231481 </v>
   <v>       0.00231481 </v>
   <v>       0.00231481 </v>
   <v>       0.00231481 </v>
   <v>       0.00231481 </v>
   <v>       0.00231481 </v>
   <v>       0.00231481 </v>
   <v>       0.00231481 </v>
   <v>       0.00231481 </v>
   <v>       0.00231481 </v>
   <v>       0.00231481 </v>
   <v>       0.00231481 </v>
   <v>       0.00231481 </v>
   <v>       0.00231481 </v>
   <v>       0.00231481 </v>
   <v>       0.00231481 </v>
   <v>       0.00231481 </v>
   <v>       0.00231481 </v>
   <v>       0.00115741 </v>
   <v>       0.00231481 </v>
   <v>       0.00231481 </v>
   <v>       0.00231481 </v>
   <v>       0.00115741 </v>
   <v>       0.00231481 </v>
   <v>       0.00231481 </v>
   <v>       0.00231481 </v>
   <v>       0.00231481 </v>
   <v>       0.00231481 </v>
   <v>       0.00231481 </v>
   <v>       0.00231481 </v>
   <v>       0.00231481 </v>
   <v>       0.00231481 </v>
   <v>       0.00231481 </v>
   <v>       0.00231481 </v>
   <v>       0.00231481 </v>
   <v>       0.00231481 </v>
   <v>       0.00231481 </v>
   <v>       0.00231481 </v>
   <v>       0.00231481 </v>
   <v>       0.00231481 </v>
   <v>       0.00231481 </v>
   <v>       0.00231481 </v>
   <v>       0.00231481 </v>
   <v>       0.00231481 </v>
   <v>       0.00231481 </v>
   <v>       0.00231481 </v>
   <v>       0.00231481 </v>
   <v>       0.00231481 </v>
   <v>       0.00231481 </v>
   <v>       0.00231481 </v>
   <v>       0.00231481 </v>
   <v>       0.00231481 </v>
   <v>       0.00231481 </v>
   <v>       0.00231481 </v>
   <v>       0.00231481 </v>
   <v>       0.00231481 </v>
   <v>       0.00231481 </v>
   <v>       0.00231481 </v>
   <v>       0.00231481 </v>
   <v>       0.00231481 </v>
   <v>       0.00231481 </v>
   <v>       0.00231481 </v>
   <v>       0.00231481 </v>
   <v>       0.00231481 </v>
   <v>       0.00231481 </v>
   <v>       0.00231481 </v>
   <v>       0.00231481 </v>
   <v>       0.00231481 </v>
   <v>       0.00231481 </v>
   <v>       0.00231481 </v>
   <v>       0.00231481 </v>
   <v>       0.00231481 </v>
   <v>       0.00231481 </v>
   <v>       0.00231481 </v>
   <v>       0.00231481 </v>
   <v>       0.00231481 </v>
   <v>       0.00231481 </v>
   <v>       0.00231481 </v>
   <v>       0.00231481 </v>
   <v>       0.00231481 </v>
   <v>       0.00231481 </v>
   <v>       0.00231481 </v>
   <v>       0.00231481 </v>
   <v>       0.00231481 </v>
   <v>       0.00231481 </v>
   <v>       0.00231481 </v>
   <v>       0.00231481 </v>
   <v>       0.00231481 </v>
   <v>       0.00231481 </v>
   <v>       0.00231481 </v>
   <v>       0.00231481 </v>
   <v>       0.00231481 </v>
   <v>       0.00231481 </v>
   <v>       0.00231481 </v>
   <v>       0.00231481 </v>
   <v>       0.00115741 </v>
   <v>       0.00231481 </v>
   <v>       0.00231481 </v>
   <v>       0.00231481 </v>
   <v>       0.00231481 </v>
   <v>       0.00231481 </v>
   <v>       0.00115741 </v>
   <v>       0.00231481 </v>
   <v>       0.00231481 </v>
   <v>       0.00231481 </v>
   <v>       0.00231481 </v>
   <v>       0.00231481 </v>
   <v>       0.00231481 </v>
   <v>       0.00231481 </v>
   <v>       0.00231481 </v>
   <v>       0.00231481 </v>
   <v>       0.00231481 </v>
   <v>       0.00231481 </v>
   <v>       0.00231481 </v>
   <v>       0.00231481 </v>
   <v>       0.00231481 </v>
   <v>       0.00231481 </v>
   <v>       0.00231481 </v>
   <v>       0.00231481 </v>
   <v>       0.00231481 </v>
   <v>       0.00231481 </v>
   <v>       0.00231481 </v>
   <v>       0.00231481 </v>
   <v>       0.00231481 </v>
   <v>       0.00231481 </v>
   <v>       0.00231481 </v>
   <v>       0.00231481 </v>
   <v>       0.00231481 </v>
   <v>       0.00231481 </v>
   <v>       0.00115741 </v>
   <v>       0.00231481 </v>
   <v>       0.00231481 </v>
   <v>       0.00115741 </v>
  </varray>
 </kpoints>
 <parameters>
  <separator name="general" >
   <i type="string" name="SYSTEM">unknown system</i>
   <i type="logical" name="LCOMPAT"> F  </i>
  </separator>
  <separator name="electronic" >
   <i type="string" name="PREC">accura</i>
   <i name="ENMAX">    520.00000000</i>
   <i name="ENAUG">    490.69000000</i>
   <i name="EDIFF">      0.00000001</i>
   <i type="int" name="IALGO">    38</i>
   <i type="int" name="IWAVPR">    11</i>
   <i type="int" name="NBANDS">    16</i>
   <i name="NELECT">     18.00000000</i>
   <i type="int" name="TURBO">     0</i>
   <i type="int" name="IRESTART">     0</i>
   <i type="int" name="NREBOOT">     0</i>
   <i type="int" name="NMIN">     0</i>
   <i name="EREF">      0.00000000</i>
   <separator name="electronic smearing" >
    <i type="int" name="ISMEAR">     0</i>
    <i name="SIGMA">      0.01000000</i>
    <i name="KSPACING">      0.50000000</i>
    <i type="logical" name="KGAMMA"> T  </i>
   </separator>
   <separator name="electronic projectors" >
    <i type="logical" name="LREAL"> F  </i>
    <v name="ROPT">      0.00000000      0.00000000</v>
    <i type="int" name="LMAXPAW">  -100</i>
    <i type="int" name="LMAXMIX">     2</i>
    <i type="logical" name="NLSPLINE"> F  </i>
   </separator>
   <separator name="electronic startup" >
    <i type="int" name="ISTART">     0</i>
    <i type="int" name="ICHARG">     2</i>
    <i type="int" name="INIWAV">     1</i>
   </separator>
   <separator name="electronic spin" >
    <i type="int" name="ISPIN">     1</i>
    <i type="logical" name="LNONCOLLINEAR"> F  </i>
    <v name="MAGMOM">      1.00000000      1.00000000</v>
    <i name="NUPDOWN">     -1.00000000</i>
    <i type="logical" name="LSORBIT"> F  </i>
    <v name="SAXIS">      0.00000000      0.00000000      1.00000000</v>
    <i type="logical" name="LSPIRAL"> F  </i>
    <v name="QSPIRAL">      0.00000000      0.00000000      0.00000000</v>
    <i type="logical" name="LZEROZ"> F  </i>
   </separator>
   <separator name="electronic exchange-correlation" >
    <i type="logical" name="LASPH"> F  </i>
    <i type="logical" name="LMETAGGA"> F  </i>
   </separator>
   <separator name="electronic convergence" >
    <i type="int" name="NELM">   100</i>
    <i type="int" name="NELMDL">    -5</i>
    <i type="int" name="NELMIN">     2</i>
    <i name="ENINI">    520.00000000</i>
    <separator name="electronic convergence detail" >
     <i type="logical" name="LDIAG"> T  </i>
     <i type="logical" name="LSUBROT"> F  </i>
     <i name="WEIMIN">      0.00100000</i>
     <i name="EBREAK">      0.00000000</i>
     <i name="DEPER">      0.30000000</i>
     <i type="int" name="NRMM">     4</i>
     <i name="TIME">      0.40000000</i>
    </separator>
   </separator>
   <separator name="electronic mixer" >
    <i name="AMIX">      0.40000000</i>
    <i name="BMIX">      1.00000000</i>
    <i name="AMIN">      0.10000000</i>
    <i name="AMIX_MAG">      1.60000000</i>
    <i name="BMIX_MAG">      1.00000000</i>
    <separator name="electronic mixer details" >
     <i type="int" name="IMIX">     4</i>
     <i type="logical" name="MIXFIRST"> F  </i>
     <i type="int" name="MAXMIX">   -45</i>
     <i name="WC">    100.00000000</i>
     <i type="int" name="INIMIX">     1</i>
     <i type="int" name="MIXPRE">     1</i>
     <i type="int" name="MREMOVE">     5</i>
    </separator>
   </separator>
   <separator name="electronic dipolcorrection" >
    <i type="logical" name="LDIPOL"> F  </i>
    <i type="logical" name="LMONO"> F  </i>
    <i type="int" name="IDIPOL">     0</i>
    <i name="EPSILON">      1.00000000</i>
    <v name="DIPOL">   -100.00000000   -100.00000000   -100.00000000</v>
    <i name="EFIELD">      0.00000000</i>
   </separator>
  </separator>
  <separator name="grids" >
   <i type="int" name="NGX">    30</i>
   <i type="int" name="NGY">    30</i>
   <i type="int" name="NGZ">    30</i>
   <i type="int" name="NGXF">    60</i>
   <i type="int" name="NGYF">    60</i>
   <i type="int" name="NGZF">    60</i>
   <i type="logical" name="ADDGRID"> F  </i>
  </separator>
  <separator name="ionic" >
   <i type="int" name="NSW">     1</i>
   <i type="int" name="IBRION">     8</i>
   <i type="int" name="MDALGO">     0</i>
   <i type="int" name="ISIF">     2</i>
   <i name="PSTRESS">      0.00000000</i>
   <i name="EDIFFG">      0.00000010</i>
   <i type="int" name="NFREE">     0</i>
   <i name="POTIM">      0.50000000</i>
   <i name="SMASS">     -3.00000000</i>
   <i name="SCALEE">      1.00000000</i>
  </separator>
  <separator name="ionic md" >
   <i name="TEBEG">      0.00010000</i>
   <i name="TEEND">      0.00010000</i>
   <i type="int" name="NBLOCK">     1</i>
   <i type="int" name="KBLOCK">     1</i>
   <i type="int" name="NPACO">   256</i>
   <i name="APACO">     16.00000000</i>
  </separator>
  <separator name="symmetry" >
   <i type="int" name="ISYM">     2</i>
   <i name="SYMPREC">      0.00000001</i>
  </separator>
  <separator name="dos" >
   <i type="int" name="LORBIT">     0</i>
   <v name="RWIGS">     -1.00000000     -1.00000000</v>
   <i type="int" name="NEDOS">   301</i>
   <i name="EMIN">     10.00000000</i>
   <i name="EMAX">    -10.00000000</i>
   <i name="EFERMI">      0.00000000</i>
  </separator>
  <separator name="writing" >
   <i type="int" name="NWRITE">     2</i>
   <i type="logical" name="LWAVE"> F  </i>
   <i type="logical" name="LDOWNSAMPLE"> F  </i>
   <i type="logical" name="LCHARG"> T  </i>
   <i type="logical" name="LPARD"> F  </i>
   <i type="logical" name="LVTOT"> F  </i>
   <i type="logical" name="LVHAR"> F  </i>
   <i type="logical" name="LELF"> F  </i>
   <i type="logical" name="LOPTICS"> F  </i>
   <v name="STM">      0.00000000      0.00000000      0.00000000      0.00000000      0.00000000      0.00000000      0.00000000</v>
  </separator>
  <separator name="performance" >
   <i type="int" name="NPAR">     8</i>
   <i type="int" name="NSIM">     4</i>
   <i type="int" name="NBLK">    -1</i>
   <i type="logical" name="LPLANE"> T  </i>
   <i type="logical" name="LSCALAPACK"> T  </i>
   <i type="logical" name="LSCAAWARE"> F  </i>
   <i type="logical" name="LSCALU"> F  </i>
   <i type="logical" name="LASYNC"> F  </i>
   <i type="logical" name="LORBITALREAL"> F  </i>
  </separator>
  <separator name="miscellaneous" >
   <i type="int" name="IDIOT">     3</i>
   <i type="int" name="ISPECIAL">     0</i>
   <i type="logical" name="LMUSIC"> F  </i>
   <v name="POMASS">     69.72300000     74.92200000</v>
   <v name="DARWINR">      0.00000000      0.00000000</v>
   <v name="DARWINV">      1.00000000      1.00000000</v>
   <i type="logical" name="LCORR"> T  </i>
  </separator>
  <i type="logical" name="GGA_COMPAT"> T  </i>
  <i type="logical" name="LBERRY"> F  </i>
  <i type="int" name="ICORELEVEL">     0</i>
  <i type="logical" name="LDAU"> F  </i>
  <i type="int" name="I_CONSTRAINED_M">     0</i>
  <separator name="electronic exchange-correlation" >
   <i type="string" name="GGA">--</i>
   <i type="int" name="VOSKOWN">     0</i>
   <i type="logical" name="LHFCALC"> F  </i>
   <i type="string" name="PRECFOCK"></i>
   <i type="logical" name="LSYMGRAD"> F  </i>
   <i type="logical" name="LHFONE"> F  </i>
   <i type="logical" name="LRHFCALC"> F  </i>
   <i type="logical" name="LTHOMAS"> F  </i>
   <i type="logical" name="LMODELHF"> F  </i>
   <i name="ENCUT4O">     -1.00000000</i>
   <i type="int" name="EXXOEP">     0</i>
   <i type="int" name="FOURORBIT">     0</i>
   <i name="AEXX">      0.00000000</i>
   <i name="HFALPHA">      0.00000000</i>
   <i name="MCALPHA">      0.00000000</i>
   <i name="ALDAX">      1.00000000</i>
   <i name="AGGAX">      1.00000000</i>
   <i name="ALDAC">      1.00000000</i>
   <i name="AGGAC">      1.00000000</i>
   <i type="int" name="NKREDX">     1</i>
   <i type="int" name="NKREDY">     1</i>
   <i type="int" name="NKREDZ">     1</i>
   <i type="logical" name="SHIFTRED"> F  </i>
   <i type="logical" name="ODDONLY"> F  </i>
   <i type="logical" name="EVENONLY"> F  </i>
   <i type="int" name="LMAXFOCK">     0</i>
   <i type="int" name="NMAXFOCKAE">     0</i>
   <i type="logical" name="LFOCKAEDFT"> F  </i>
   <i name="HFSCREEN">      0.00000000</i>
   <i name="HFSCREENC">      0.00000000</i>
   <i type="int" name="NBANDSGWLOW">     0</i>
  </separator>
  <separator name="vdW DFT" >
   <i type="logical" name="LUSE_VDW"> F  </i>
   <i name="Zab_VDW">     -0.84910000</i>
   <i name="PARAM1">      0.12340000</i>
   <i name="PARAM2">      1.00000000</i>
   <i name="PARAM3">      0.00000000</i>
  </separator>
  <separator name="model GW" >
   <i type="int" name="MODEL_GW">     0</i>
   <i name="MODEL_EPS0">     14.25955453</i>
   <i name="MODEL_ALPHA">      1.00000000</i>
  </separator>
  <separator name="linear response parameters" >
   <i type="logical" name="LEPSILON"> T  </i>
   <i type="logical" name="LRPA"> F  </i>
   <i type="logical" name="LNABLA"> F  </i>
   <i type="logical" name="LVEL"> F  </i>
   <i type="int" name="KINTER">     0</i>
   <i name="CSHIFT">      0.10000000</i>
   <i name="OMEGAMAX">     -1.00000000</i>
   <i name="DEG_THRESHOLD">      0.00200000</i>
   <i name="RTIME">     -0.10000000</i>
   <i name="WPLASMAI">      0.00000000</i>
   <v name="DFIELD">      0.00000000      0.00000000      0.00000000</v>
   <v name="WPLASMA">      0.00000000      0.00000000      0.00000000      0.00000000      0.00000000      0.00000000      0.00000000      0.00000000      0.00000000</v>
  </separator>
  <separator name="orbital magnetization" >
   <i type="logical" name="NUCIND"> F  </i>
   <v name="MAGPOS">      0.00000000      0.00000000      0.00000000</v>
   <i type="logical" name="LNICSALL"> T  </i>
   <i type="logical" name="ORBITALMAG"> F  </i>
   <i type="logical" name="LMAGBLOCH"> F  </i>
   <i type="logical" name="LCHIMAG"> F  </i>
   <i type="logical" name="LGAUGE"> T  </i>
   <i type="int" name="MAGATOM">     0</i>
   <v name="MAGDIPOL">      0.00000000      0.00000000      0.00000000</v>
   <v name="AVECCONST">      0.00000000      0.00000000      0.00000000</v>
  </separator>
  <separator name="response functions" >
   <i type="logical" name="LADDER"> F  </i>
   <i type="logical" name="LRPAFORCE"> F  </i>
   <i type="logical" name="LFXC"> F  </i>
   <i type="logical" name="LHARTREE"> T  </i>
   <i type="int" name="IBSE">     0</i>
   <v type="int" name="KPOINT">    -1     0     0     0</v>
   <i type="logical" name="LTCTE"> F  </i>
   <i type="logical" name="LTETE"> F  </i>
   <i type="logical" name="LTRIPLET"> F  </i>
   <i type="logical" name="LFXCEPS"> F  </i>
   <i type="logical" name="LFXHEG"> F  </i>
   <i type="int" name="NATURALO">     2</i>
   <i type="logical" name="L2ORDER"> F  </i>
   <i type="logical" name="LMP2LT"> F  </i>
   <i type="logical" name="LUSEW"> F  </i>
   <i name="ENCUTGW">     -2.00000000</i>
   <i name="ENCUTGWSOFT">     -2.00000000</i>
   <i name="ENCUTLF">     -1.00000000</i>
   <i type="int" name="LMAXMP2">    -1</i>
   <i name="SCISSOR">      0.00000000</i>
   <i type="int" name="NOMEGA">     0</i>
   <i type="int" name="NOMEGAR">     0</i>
   <i type="int" name="NBANDSGW">    -1</i>
   <i type="int" name="NBANDSO">    -1</i>
   <i type="int" name="NBANDSV">    -1</i>
   <i type="int" name="NELM">   100</i>
   <i type="int" name="NELMHF">     1</i>
   <i type="int" name="DIM">     3</i>
   <i type="int" name="ANTIRES">     0</i>
   <i name="OMEGAMAX">    -30.00000000</i>
   <i name="OMEGAMIN">    -30.00000000</i>
   <i name="OMEGATL">   -200.00000000</i>
   <i type="int" name="OMEGAGRID">   140</i>
   <i name="CSHIFT">     -0.10000000</i>
   <i type="logical" name="SELFENERGY"> F  </i>
   <i type="logical" name="LSPECTRAL"> F  </i>
   <i type="logical" name="LSPECTRALGW"> F  </i>
   <i type="logical" name="LSINGLES"> F  </i>
   <i type="logical" name="LFERMIGW"> F  </i>
   <i type="logical" name="ODDONLYGW"> F  </i>
   <i type="logical" name="EVENONLYGW"> F  </i>
   <i type="int" name="NKREDLFX">     1</i>
   <i type="int" name="NKREDLFY">     1</i>
   <i type="int" name="NKREDLFZ">     1</i>
   <i type="int" name="MAXMEM">  2800</i>
   <i type="int" name="TELESCOPE">     0</i>
   <i type="int" name="TAUPAR">     1</i>
   <i type="int" name="OMEGAPAR">    -1</i>
   <i name="LAMBDA">      1.00000000</i>
  </separator>
  <separator name="External order field" >
   <i name="OFIELD_KAPPA">      0.00000000</i>
   <v name="OFIELD_K">      0.00000000      0.00000000      0.00000000</v>
   <i name="OFIELD_Q6_NEAR">      0.00000000</i>
   <i name="OFIELD_Q6_FAR">      0.00000000</i>
   <i name="OFIELD_A">      0.00000000</i>
  </separator>
 </parameters>
 <atominfo>
  <atoms>       2 </atoms>
  <types>       2 </types>
  <array name="atoms" >
   <dimension dim="1">ion</dimension>
   <field type="string">element</field>
   <field type="int">atomtype</field>
   <set>
    <rc><c>Ga</c><c>   1</c></rc>
    <rc><c>As</c><c>   2</c></rc>
   </set>
  </array>
  <array name="atomtypes" >
   <dimension dim="1">type</dimension>
   <field type="int">atomspertype</field>
   <field type="string">element</field>
   <field>mass</field>
   <field>valence</field>
   <field type="string">pseudopotential</field>
   <set>
    <rc><c>   1</c><c>Ga</c><c>     69.72300000</c><c>     13.00000000</c><c>  PAW_PBE Ga_d 06Jul2010                </c></rc>
    <rc><c>   1</c><c>As</c><c>     74.92200000</c><c>      5.00000000</c><c>  PAW_PBE As 22Sep2009                  </c></rc>
   </set>
  </array>
 </atominfo>
 <structure name="initialpos" >
  <crystal>
   <varray name="basis" >
    <v>      -2.87509083       0.00000000       2.87509083 </v>
    <v>       0.00000000       2.87509083       2.87509083 </v>
    <v>      -2.87509083       2.87509083       0.00000000 </v>
   </varray>
   <i name="volume">     47.53184843 </i>
   <varray name="rec_basis" >
    <v>      -0.17390755      -0.17390755       0.17390755 </v>
    <v>       0.17390755       0.17390755       0.17390755 </v>
    <v>      -0.17390755       0.17390755      -0.17390755 </v>
   </varray>
  </crystal>
  <varray name="positions" >
   <v>       0.00000000       0.00000000       0.00000000 </v>
   <v>       0.25000002       0.25000010       0.24999994 </v>
  </varray>
 </structure>
 <calculation>
  <scstep>
   <time name="dav">    3.30    3.33</time>
   <time name="total">    3.32    3.35</time>
   <energy>
    <i name="alphaZ">     57.30386892 </i>
    <i name="ewald">  -1244.24620843 </i>
    <i name="hartreedc">   -737.88519709 </i>
    <i name="XCdc">     32.14417467 </i>
    <i name="pawpsdc">   1750.22014212 </i>
    <i name="pawaedc">  -2062.33627870 </i>
    <i name="eentropy">     -0.00004092 </i>
    <i name="bandstr">    -30.58333728 </i>
    <i name="atom">   2319.01339628 </i>
    <i name="e_fr_energy">     83.63051958 </i>
    <i name="e_wo_entrp">     83.63056049 </i>
    <i name="e_0_energy">     83.63054004 </i>
   </energy>
  </scstep>
  <scstep>
   <time name="dav">    3.55    3.57</time>
   <time name="total">    3.55    3.57</time>
   <energy>
    <i name="e_fr_energy">     -1.75017312 </i>
    <i name="e_wo_entrp">     -1.75017312 </i>
    <i name="e_0_energy">     -1.75017312 </i>
   </energy>
  </scstep>
  <scstep>
   <time name="dav">    3.69    3.71</time>
   <time name="total">    3.69    3.71</time>
   <energy>
    <i name="e_fr_energy">     -8.32161516 </i>
    <i name="e_wo_entrp">     -8.32161516 </i>
    <i name="e_0_energy">     -8.32161516 </i>
   </energy>
  </scstep>
  <scstep>
   <time name="dav">    3.77    3.79</time>
   <time name="total">    3.77    3.79</time>
   <energy>
    <i name="e_fr_energy">     -8.42403415 </i>
    <i name="e_wo_entrp">     -8.42403415 </i>
    <i name="e_0_energy">     -8.42403415 </i>
   </energy>
  </scstep>
  <scstep>
   <time name="dav">    3.78    3.79</time>
   <time name="total">    4.13    4.15</time>
   <energy>
    <i name="e_fr_energy">     -8.42550510 </i>
    <i name="e_wo_entrp">     -8.42550510 </i>
    <i name="e_0_energy">     -8.42550510 </i>
   </energy>
  </scstep>
  <scstep>
   <time name="dav">    4.39    4.42</time>
   <time name="total">    4.76    4.80</time>
   <energy>
    <i name="e_fr_energy">     -8.28851141 </i>
    <i name="e_wo_entrp">     -8.28851141 </i>
    <i name="e_0_energy">     -8.28851141 </i>
   </energy>
  </scstep>
  <scstep>
   <time name="dav">    3.65    3.67</time>
   <time name="total">    4.03    4.05</time>
   <energy>
    <i name="e_fr_energy">     -8.27211162 </i>
    <i name="e_wo_entrp">     -8.27211162 </i>
    <i name="e_0_energy">     -8.27211162 </i>
   </energy>
  </scstep>
  <scstep>
   <time name="dav">    3.69    3.71</time>
   <time name="total">    4.06    4.08</time>
   <energy>
    <i name="e_fr_energy">     -8.27297435 </i>
    <i name="e_wo_entrp">     -8.27297435 </i>
    <i name="e_0_energy">     -8.27297435 </i>
   </energy>
  </scstep>
  <scstep>
   <time name="dav">    3.78    3.80</time>
   <time name="total">    4.15    4.17</time>
   <energy>
    <i name="e_fr_energy">     -8.27336117 </i>
    <i name="e_wo_entrp">     -8.27336117 </i>
    <i name="e_0_energy">     -8.27336117 </i>
   </energy>
  </scstep>
  <scstep>
   <time name="dav">    3.98    4.01</time>
   <time name="total">    4.34    4.38</time>
   <energy>
    <i name="e_fr_energy">     -8.27342969 </i>
    <i name="e_wo_entrp">     -8.27342969 </i>
    <i name="e_0_energy">     -8.27342969 </i>
   </energy>
  </scstep>
  <scstep>
   <time name="dav">    3.49    3.52</time>
   <time name="total">    3.86    3.89</time>
   <energy>
    <i name="e_fr_energy">     -8.27348286 </i>
    <i name="e_wo_entrp">     -8.27348286 </i>
    <i name="e_0_energy">     -8.27348286 </i>
   </energy>
  </scstep>
  <scstep>
   <time name="dav">    3.87    3.89</time>
   <time name="total">    4.24    4.25</time>
   <energy>
    <i name="e_fr_energy">     -8.27348317 </i>
    <i name="e_wo_entrp">     -8.27348317 </i>
    <i name="e_0_energy">     -8.27348317 </i>
   </energy>
  </scstep>
  <scstep>
   <time name="dav">    3.70    3.72</time>
   <time name="total">    4.06    4.09</time>
   <energy>
    <i name="e_fr_energy">     -8.27348358 </i>
    <i name="e_wo_entrp">     -8.27348358 </i>
    <i name="e_0_energy">     -8.27348358 </i>
   </energy>
  </scstep>
  <scstep>
   <time name="dav">    3.45    3.47</time>
   <time name="total">    3.47    3.49</time>
   <energy>
    <i name="alphaZ">     57.30386892 </i>
    <i name="ewald">  -1244.24620843 </i>
    <i name="hartreedc">   -734.14273359 </i>
    <i name="XCdc">     32.27832397 </i>
    <i name="pawpsdc">   1976.42426718 </i>
    <i name="pawaedc">  -2289.37204768 </i>
    <i name="eentropy">     -0.00000000 </i>
    <i name="bandstr">   -125.53235022 </i>
    <i name="atom">   2319.01339628 </i>
    <i name="e_fr_energy">     -8.27348358 </i>
    <i name="e_wo_entrp">     -8.27348358 </i>
    <i name="e_0_energy">     -8.27348358 </i>
   </energy>
  </scstep>
  <structure>
   <crystal>
    <varray name="basis" >
     <v>      -2.87509083       0.00000000       2.87509083 </v>
     <v>       0.00000000       2.87509083       2.87509083 </v>
     <v>      -2.87509083       2.87509083       0.00000000 </v>
    </varray>
    <i name="volume">     47.53184843 </i>
    <varray name="rec_basis" >
     <v>      -0.17390755      -0.17390755       0.17390755 </v>
     <v>       0.17390755       0.17390755       0.17390755 </v>
     <v>      -0.17390755       0.17390755      -0.17390755 </v>
    </varray>
   </crystal>
   <varray name="positions" >
    <v>       0.00000000       0.00000000       0.00000000 </v>
    <v>       0.25000002       0.25000010       0.24999994 </v>
   </varray>
  </structure>
  <varray name="forces" >
   <v>       0.00000092       0.00000092       0.00000229 </v>
   <v>      -0.00000092      -0.00000092      -0.00000229 </v>
  </varray>
  <varray name="stress" >
   <v>       0.35905861      -0.00047679       0.00001899 </v>
   <v>      -0.00047679       0.35905861       0.00001899 </v>
   <v>       0.00001917       0.00001917       0.35906593 </v>
  </varray>
  <energy>
   <i name="e_fr_energy">     -8.27348358 </i>
   <i name="e_wo_entrp">     -8.27348358 </i>
   <i name="e_0_energy">     -0.00000000 </i>
  </energy>
  <scstep>
   <time name="total">    2.98    2.98</time>
   <energy>
    <i name="e_fr_energy">     -0.23257247 </i>
    <i name="e_wo_entrp">     -0.23257247 </i>
    <i name="e_0_energy">     -0.23257247 </i>
   </energy>
  </scstep>
  <scstep>
   <time name="total">    4.16    4.16</time>
   <energy>
    <i name="e_fr_energy">     -1.97527335 </i>
    <i name="e_wo_entrp">     -1.97527335 </i>
    <i name="e_0_energy">     -1.97527335 </i>
   </energy>
  </scstep>
  <scstep>
   <time name="total">    4.08    4.08</time>
   <energy>
    <i name="e_fr_energy">     -1.97751050 </i>
    <i name="e_wo_entrp">     -1.97751050 </i>
    <i name="e_0_energy">     -1.97751050 </i>
   </energy>
  </scstep>
  <scstep>
   <time name="total">    4.14    4.14</time>
   <energy>
    <i name="e_fr_energy">     -1.97752897 </i>
    <i name="e_wo_entrp">     -1.97752897 </i>
    <i name="e_0_energy">     -1.97752897 </i>
   </energy>
  </scstep>
  <scstep>
   <time name="total">    4.15    4.15</time>
   <energy>
    <i name="e_fr_energy">     -1.97753099 </i>
    <i name="e_wo_entrp">     -1.97753099 </i>
    <i name="e_0_energy">     -1.97753099 </i>
   </energy>
  </scstep>
  <scstep>
   <time name="total">    4.16    4.16</time>
   <energy>
    <i name="e_fr_energy">     -1.97753104 </i>
    <i name="e_wo_entrp">     -1.97753104 </i>
    <i name="e_0_energy">     -1.97753104 </i>
   </energy>
  </scstep>
  <scstep>
   <time name="total">    4.22    4.22</time>
   <energy>
    <i name="e_fr_energy">     -1.97753105 </i>
    <i name="e_wo_entrp">     -1.97753105 </i>
    <i name="e_0_energy">     -1.97753105 </i>
   </energy>
  </scstep>
  <scstep>
   <time name="total">    3.57    3.57</time>
   <energy>
    <i name="e_fr_energy">     -1.97753105 </i>
    <i name="e_wo_entrp">     -1.97753105 </i>
    <i name="e_0_energy">     -1.97753105 </i>
   </energy>
  </scstep>
  <scstep>
   <time name="total">    2.97    2.97</time>
   <energy>
    <i name="e_fr_energy">     -0.22350113 </i>
    <i name="e_wo_entrp">     -0.22350113 </i>
    <i name="e_0_energy">     -0.22350113 </i>
   </energy>
  </scstep>
  <scstep>
   <time name="total">    4.19    4.19</time>
   <energy>
    <i name="e_fr_energy">     -2.31161581 </i>
    <i name="e_wo_entrp">     -2.31161581 </i>
    <i name="e_0_energy">     -2.31161581 </i>
   </energy>
  </scstep>
  <scstep>
   <time name="total">    4.11    4.11</time>
   <energy>
    <i name="e_fr_energy">     -2.31386773 </i>
    <i name="e_wo_entrp">     -2.31386773 </i>
    <i name="e_0_energy">     -2.31386773 </i>
   </energy>
  </scstep>
  <scstep>
   <time name="total">    4.15    4.15</time>
   <energy>
    <i name="e_fr_energy">     -2.31388356 </i>
    <i name="e_wo_entrp">     -2.31388356 </i>
    <i name="e_0_energy">     -2.31388356 </i>
   </energy>
  </scstep>
  <scstep>
   <time name="total">    4.21    4.21</time>
   <energy>
    <i name="e_fr_energy">     -2.31388569 </i>
    <i name="e_wo_entrp">     -2.31388569 </i>
    <i name="e_0_energy">     -2.31388569 </i>
   </energy>
  </scstep>
  <scstep>
   <time name="total">    4.17    4.17</time>
   <energy>
    <i name="e_fr_energy">     -2.31388574 </i>
    <i name="e_wo_entrp">     -2.31388574 </i>
    <i name="e_0_energy">     -2.31388574 </i>
   </energy>
  </scstep>
  <scstep>
   <time name="total">    4.20    4.20</time>
   <energy>
    <i name="e_fr_energy">     -2.31388575 </i>
    <i name="e_wo_entrp">     -2.31388575 </i>
    <i name="e_0_energy">     -2.31388575 </i>
   </energy>
  </scstep>
  <scstep>
   <time name="total">    3.68    3.68</time>
   <energy>
    <i name="e_fr_energy">     -2.31388575 </i>
    <i name="e_wo_entrp">     -2.31388575 </i>
    <i name="e_0_energy">     -2.31388575 </i>
   </energy>
  </scstep>
  <scstep>
   <time name="total">    3.00    3.00</time>
   <energy>
    <i name="e_fr_energy">     -0.22752023 </i>
    <i name="e_wo_entrp">     -0.22752023 </i>
    <i name="e_0_energy">     -0.22752023 </i>
   </energy>
  </scstep>
  <scstep>
   <time name="total">    4.14    4.14</time>
   <energy>
    <i name="e_fr_energy">     -2.13744478 </i>
    <i name="e_wo_entrp">     -2.13744478 </i>
    <i name="e_0_energy">     -2.13744478 </i>
   </energy>
  </scstep>
  <scstep>
   <time name="total">    4.08    4.08</time>
   <energy>
    <i name="e_fr_energy">     -2.13971899 </i>
    <i name="e_wo_entrp">     -2.13971899 </i>
    <i name="e_0_energy">     -2.13971899 </i>
   </energy>
  </scstep>
  <scstep>
   <time name="total">    4.16    4.16</time>
   <energy>
    <i name="e_fr_energy">     -2.13973541 </i>
    <i name="e_wo_entrp">     -2.13973541 </i>
    <i name="e_0_energy">     -2.13973541 </i>
   </energy>
  </scstep>
  <scstep>
   <time name="total">    4.18    4.18</time>
   <energy>
    <i name="e_fr_energy">     -2.13973776 </i>
    <i name="e_wo_entrp">     -2.13973776 </i>
    <i name="e_0_energy">     -2.13973776 </i>
   </energy>
  </scstep>
  <scstep>
   <time name="total">    4.15    4.15</time>
   <energy>
    <i name="e_fr_energy">     -2.13973777 </i>
    <i name="e_wo_entrp">     -2.13973777 </i>
    <i name="e_0_energy">     -2.13973777 </i>
   </energy>
  </scstep>
  <scstep>
   <time name="total">    4.17    4.17</time>
   <energy>
    <i name="e_fr_energy">     -2.13973781 </i>
    <i name="e_wo_entrp">     -2.13973781 </i>
    <i name="e_0_energy">     -2.13973781 </i>
   </energy>
  </scstep>
  <scstep>
   <time name="total">    3.54    3.54</time>
   <energy>
    <i name="e_fr_energy">     -2.13973780 </i>
    <i name="e_wo_entrp">     -2.13973780 </i>
    <i name="e_0_energy">     -2.13973780 </i>
   </energy>
  </scstep>
  <varray name="epsilon_rpa" >
   <v>      17.33736202      -0.10254939      -0.00007159 </v>
   <v>      -0.10254939      17.33736202      -0.00007159 </v>
   <v>       0.00006840       0.00006840      17.29190208 </v>
  </varray>
  <kpoints>
   <generation param="Gamma">
    <v type="int" name="divisions">      12       12       12 </v>
    <v name="usershift">      0.00000000       0.00000000       0.00000000 </v>
    <v name="genvec1">      0.08333333       0.00000000       0.00000000 </v>
    <v name="genvec2">      0.00000000       0.08333333      -0.00000000 </v>
    <v name="genvec3">     -0.00000000      -0.00000000       0.08333333 </v>
    <v name="shift">      0.00000000       0.00000000       0.00000000 </v>
   </generation>
   <varray name="kpointlist" >
    <v>       0.00000000       0.00000000       0.00000000 </v>
    <v>       0.08333333       0.00000000       0.00000000 </v>
    <v>       0.16666667       0.00000000       0.00000000 </v>
    <v>       0.25000000       0.00000000      -0.00000000 </v>
    <v>       0.33333333       0.00000000       0.00000000 </v>
    <v>       0.41666667      -0.00000000      -0.00000000 </v>
    <v>       0.50000000       0.00000000      -0.00000000 </v>
    <v>       0.00000000       0.08333333      -0.00000000 </v>
    <v>       0.08333333       0.08333333       0.00000000 </v>
    <v>       0.16666667       0.08333333      -0.00000000 </v>
    <v>       0.25000000       0.08333333       0.00000000 </v>
    <v>       0.33333333       0.08333333      -0.00000000 </v>
    <v>       0.41666667       0.08333333       0.00000000 </v>
    <v>       0.50000000       0.08333333      -0.00000000 </v>
    <v>      -0.41666667       0.08333333       0.00000000 </v>
    <v>      -0.33333333       0.08333333      -0.00000000 </v>
    <v>      -0.25000000       0.08333333       0.00000000 </v>
    <v>      -0.16666667       0.08333333       0.00000000 </v>
    <v>      -0.08333333       0.08333333      -0.00000000 </v>
    <v>      -0.00000000       0.16666667       0.00000000 </v>
    <v>       0.08333333       0.16666667       0.00000000 </v>
    <v>       0.16666667       0.16666667       0.00000000 </v>
    <v>       0.25000000       0.16666667       0.00000000 </v>
    <v>       0.33333333       0.16666667       0.00000000 </v>
    <v>       0.41666667       0.16666667      -0.00000000 </v>
    <v>       0.50000000       0.16666667      -0.00000000 </v>
    <v>      -0.41666667       0.16666667       0.00000000 </v>
    <v>      -0.33333333       0.16666667       0.00000000 </v>
    <v>      -0.25000000       0.16666667       0.00000000 </v>
    <v>      -0.16666667       0.16666667       0.00000000 </v>
    <v>      -0.08333333       0.16666667       0.00000000 </v>
    <v>      -0.00000000       0.25000000       0.00000000 </v>
    <v>       0.08333333       0.25000000       0.00000000 </v>
    <v>       0.16666667       0.25000000       0.00000000 </v>
    <v>       0.25000000       0.25000000       0.00000000 </v>
    <v>       0.33333333       0.25000000       0.00000000 </v>
    <v>       0.41666667       0.25000000       0.00000000 </v>
    <v>       0.50000000       0.25000000      -0.00000000 </v>
    <v>      -0.41666667       0.25000000       0.00000000 </v>
    <v>      -0.33333333       0.25000000       0.00000000 </v>
    <v>      -0.25000000       0.25000000      -0.00000000 </v>
    <v>      -0.16666667       0.25000000       0.00000000 </v>
    <v>      -0.08333333       0.25000000       0.00000000 </v>
    <v>      -0.00000000       0.33333333       0.00000000 </v>
    <v>       0.08333333       0.33333333      -0.00000000 </v>
    <v>       0.16666667       0.33333333       0.00000000 </v>
    <v>       0.25000000       0.33333333       0.00000000 </v>
    <v>       0.33333333       0.33333333       0.00000000 </v>
    <v>       0.41666667       0.33333333       0.00000000 </v>
    <v>       0.50000000       0.33333333       0.00000000 </v>
    <v>      -0.41666667       0.33333333       0.00000000 </v>
    <v>      -0.33333333       0.33333333       0.00000000 </v>
    <v>      -0.25000000       0.33333333       0.00000000 </v>
    <v>      -0.16666667       0.33333333      -0.00000000 </v>
    <v>      -0.08333333       0.33333333      -0.00000000 </v>
    <v>       0.00000000       0.41666667      -0.00000000 </v>
    <v>       0.08333333       0.41666667      -0.00000000 </v>
    <v>       0.16666667       0.41666667       0.00000000 </v>
    <v>       0.25000000       0.41666667      -0.00000000 </v>
    <v>       0.33333333       0.41666667       0.00000000 </v>
    <v>       0.41666667       0.41666667       0.00000000 </v>
    <v>       0.50000000       0.41666667       0.00000000 </v>
    <v>      -0.41666667       0.41666667       0.00000000 </v>
    <v>      -0.33333333       0.41666667      -0.00000000 </v>
    <v>      -0.25000000       0.41666667       0.00000000 </v>
    <v>      -0.16666667       0.41666667       0.00000000 </v>
    <v>      -0.08333333       0.41666667       0.00000000 </v>
    <v>      -0.00000000       0.50000000       0.00000000 </v>
    <v>       0.08333333       0.50000000      -0.00000000 </v>
    <v>       0.16666667       0.50000000       0.00000000 </v>
    <v>       0.25000000       0.50000000       0.00000000 </v>
    <v>       0.33333333       0.50000000       0.00000000 </v>
    <v>       0.41666667       0.50000000       0.00000000 </v>
    <v>       0.50000000       0.50000000       0.00000000 </v>
    <v>       0.00000000      -0.00000000       0.08333333 </v>
    <v>       0.08333333       0.00000000       0.08333333 </v>
    <v>       0.16666667       0.00000000       0.08333333 </v>
    <v>       0.25000000      -0.00000000       0.08333333 </v>
    <v>       0.33333333      -0.00000000       0.08333333 </v>
    <v>       0.41666667      -0.00000000       0.08333333 </v>
    <v>       0.50000000      -0.00000000       0.08333333 </v>
    <v>      -0.41666667      -0.00000000       0.08333333 </v>
    <v>      -0.33333333       0.00000000       0.08333333 </v>
    <v>      -0.25000000       0.00000000       0.08333333 </v>
    <v>      -0.16666667      -0.00000000       0.08333333 </v>
    <v>      -0.08333333      -0.00000000       0.08333333 </v>
    <v>      -0.00000000       0.08333333       0.08333333 </v>
    <v>       0.08333333       0.08333333       0.08333333 </v>
    <v>       0.16666667       0.08333333       0.08333333 </v>
    <v>       0.25000000       0.08333333       0.08333333 </v>
    <v>       0.33333333       0.08333333       0.08333333 </v>
    <v>       0.41666667       0.08333333       0.08333333 </v>
    <v>       0.50000000       0.08333333       0.08333333 </v>
    <v>      -0.41666667       0.08333333       0.08333333 </v>
    <v>      -0.33333333       0.08333333       0.08333333 </v>
    <v>      -0.25000000       0.08333333       0.08333333 </v>
    <v>      -0.16666667       0.08333333       0.08333333 </v>
    <v>      -0.08333333       0.08333333       0.08333333 </v>
    <v>      -0.00000000       0.16666667       0.08333333 </v>
    <v>       0.08333333       0.16666667       0.08333333 </v>
    <v>       0.16666667       0.16666667       0.08333333 </v>
    <v>       0.25000000       0.16666667       0.08333333 </v>
    <v>       0.33333333       0.16666667       0.08333333 </v>
    <v>       0.41666667       0.16666667       0.08333333 </v>
    <v>       0.50000000       0.16666667       0.08333333 </v>
    <v>      -0.41666667       0.16666667       0.08333333 </v>
    <v>      -0.33333333       0.16666667       0.08333333 </v>
    <v>      -0.25000000       0.16666667       0.08333333 </v>
    <v>      -0.16666667       0.16666667       0.08333333 </v>
[...]
       <r>    9.5811    0.0000 </r>
       <r>   10.2648    0.0000 </r>
       <r>   13.5283    0.0000 </r>
       <r>   15.2438    0.0000 </r>
       <r>   15.6726    0.0000 </r>
      </set>
      <set comment="kpoint 471">
       <r>  -11.3257    1.0000 </r>
       <r>  -11.2344    1.0000 </r>
       <r>  -11.2295    1.0000 </r>
       <r>  -11.1959    1.0000 </r>
       <r>  -11.1841    1.0000 </r>
       <r>   -7.2185    1.0000 </r>
       <r>   -2.3763    1.0000 </r>
       <r>    0.6641    1.0000 </r>
       <r>    1.6785    1.0000 </r>
       <r>    6.1220    0.0000 </r>
       <r>    7.7492    0.0000 </r>
       <r>    8.9907    0.0000 </r>
       <r>   10.2523    0.0000 </r>
       <r>   13.1966    0.0000 </r>
       <r>   14.5865    0.0000 </r>
       <r>   15.5333    0.0000 </r>
      </set>
      <set comment="kpoint 472">
       <r>  -11.3205    1.0000 </r>
       <r>  -11.2368    1.0000 </r>
       <r>  -11.2327    1.0000 </r>
       <r>  -11.1931    1.0000 </r>
       <r>  -11.1864    1.0000 </r>
       <r>   -7.3511    1.0000 </r>
       <r>   -2.1405    1.0000 </r>
       <r>    0.4747    1.0000 </r>
       <r>    2.0721    1.0000 </r>
       <r>    6.3485    0.0000 </r>
       <r>    7.8698    0.0000 </r>
       <r>    8.9319    0.0000 </r>
       <r>   10.0153    0.0000 </r>
       <r>   12.2937    0.0000 </r>
       <r>   13.7372    0.0000 </r>
       <r>   15.5655    0.0000 </r>
      </set>
      <set comment="kpoint 473">
       <r>  -11.3183    1.0000 </r>
       <r>  -11.2366    1.0000 </r>
       <r>  -11.2351    1.0000 </r>
       <r>  -11.1906    1.0000 </r>
       <r>  -11.1888    1.0000 </r>
       <r>   -7.3978    1.0000 </r>
       <r>   -2.0293    1.0000 </r>
       <r>    0.3211    1.0000 </r>
       <r>    2.3294    1.0000 </r>
       <r>    6.0729    0.0000 </r>
       <r>    8.9367    0.0000 </r>
       <r>    9.0138    0.0000 </r>
       <r>    9.1543    0.0000 </r>
       <r>   11.8054    0.0000 </r>
       <r>   13.5520    0.0000 </r>
       <r>   15.8086    0.0000 </r>
      </set>
      <set comment="kpoint 474">
       <r>  -11.3351    1.0000 </r>
       <r>  -11.2296    1.0000 </r>
       <r>  -11.2227    1.0000 </r>
       <r>  -11.1988    1.0000 </r>
       <r>  -11.1838    1.0000 </r>
       <r>   -6.8110    1.0000 </r>
       <r>   -2.7922    1.0000 </r>
       <r>    0.1217    1.0000 </r>
       <r>    1.2506    1.0000 </r>
       <r>    5.9829    0.0000 </r>
       <r>    8.0232    0.0000 </r>
       <r>    9.4341    0.0000 </r>
       <r>   11.2227    0.0000 </r>
       <r>   12.5828    0.0000 </r>
       <r>   15.1976    0.0000 </r>
       <r>   15.9919    0.0000 </r>
      </set>
      <set comment="kpoint 475">
       <r>  -11.3370    1.0000 </r>
       <r>  -11.2300    1.0000 </r>
       <r>  -11.2197    1.0000 </r>
       <r>  -11.1985    1.0000 </r>
       <r>  -11.1850    1.0000 </r>
       <r>   -6.6397    1.0000 </r>
       <r>   -2.9120    1.0000 </r>
       <r>    0.0350    1.0000 </r>
       <r>    0.7263    1.0000 </r>
       <r>    6.9664    0.0000 </r>
       <r>    8.0475    0.0000 </r>
       <r>    9.0839    0.0000 </r>
       <r>   10.3981    0.0000 </r>
       <r>   13.2662    0.0000 </r>
       <r>   15.4250    0.0000 </r>
       <r>   16.0202    0.0000 </r>
      </set>
      <set comment="kpoint 476">
       <r>  -11.3375    1.0000 </r>
       <r>  -11.2304    1.0000 </r>
       <r>  -11.2186    1.0000 </r>
       <r>  -11.1981    1.0000 </r>
       <r>  -11.1856    1.0000 </r>
       <r>   -6.5730    1.0000 </r>
       <r>   -2.9556    1.0000 </r>
       <r>    0.1643    1.0000 </r>
       <r>    0.3555    1.0000 </r>
       <r>    7.8459    0.0000 </r>
       <r>    8.1587    0.0000 </r>
       <r>    8.7107    0.0000 </r>
       <r>    9.4788    0.0000 </r>
       <r>   14.1379    0.0000 </r>
       <r>   15.3225    0.0000 </r>
       <r>   16.4587    0.0000 </r>
      </set>
     </set>
    </set>
   </array>
  </eigenvalues>
  <separator name="orbital magnetization" >
   <v name="MAGDIPOLOUT">      0.00000000      0.00000000      0.00000000</v>
  </separator>
  <dos>
   <i name="efermi">      3.52917623 </i>
   <total>
    <array>
     <dimension dim="1">gridpoints</dimension>
     <dimension dim="2">spin</dimension>
     <field>energy</field>
     <field>total</field>
     <field>integrated</field>
     <set>
      <set comment="spin 1">
       <r>   -12.7827     0.0000     0.0000 </r>
       <r>   -12.6776     0.0000     0.0000 </r>
       <r>   -12.5724     0.0000     0.0000 </r>
       <r>   -12.4672     0.0000     0.0000 </r>
       <r>   -12.3621     0.0000     0.0000 </r>
       <r>   -12.2569     0.0000     0.0000 </r>
       <r>   -12.1518     0.0000     0.0000 </r>
       <r>   -12.0466     0.0000     0.0000 </r>
       <r>   -11.9415     0.0000     0.0000 </r>
       <r>   -11.8363     0.0000     0.0000 </r>
       <r>   -11.7312     0.0000     0.0000 </r>
       <r>   -11.6260     0.0000     0.0000 </r>
       <r>   -11.5209     0.0000     0.0000 </r>
       <r>   -11.4157     0.0000     0.0000 </r>
       <r>   -11.3106    14.5731     1.5324 </r>
       <r>   -11.2054    41.3705     6.2472 </r>
       <r>   -11.1003     0.7594    10.0000 </r>
       <r>   -10.9951     0.0000    10.0000 </r>
       <r>   -10.8900     0.0000    10.0000 </r>
       <r>   -10.7848     0.0000    10.0000 </r>
       <r>   -10.6796     0.0000    10.0000 </r>
       <r>   -10.5745     0.0000    10.0000 </r>
       <r>   -10.4693     0.0000    10.0000 </r>
       <r>   -10.3642     0.0000    10.0000 </r>
       <r>   -10.2590     0.0000    10.0000 </r>
       <r>   -10.1539     0.0000    10.0000 </r>
       <r>   -10.0487     0.0000    10.0000 </r>
       <r>    -9.9436     0.0000    10.0000 </r>
       <r>    -9.8384     0.0000    10.0000 </r>
       <r>    -9.7333     0.0000    10.0000 </r>
       <r>    -9.6281     0.0000    10.0000 </r>
       <r>    -9.5230     0.0000    10.0000 </r>
       <r>    -9.4178     0.0000    10.0000 </r>
       <r>    -9.3127     0.0000    10.0000 </r>
       <r>    -9.2075     0.0000    10.0000 </r>
       <r>    -9.1023     0.0000    10.0000 </r>
       <r>    -8.9972     0.0000    10.0000 </r>
       <r>    -8.8920     0.0108    10.0011 </r>
       <r>    -8.7869     0.1539    10.0173 </r>
       <r>    -8.6817     0.1321    10.0312 </r>
       <r>    -8.5766     0.3522    10.0683 </r>
       <r>    -8.4714     0.0661    10.0752 </r>
       <r>    -8.3663     0.5283    10.1308 </r>
       <r>    -8.2611     0.3715    10.1698 </r>
       <r>    -8.1560     0.0297    10.1987 </r>
       <r>    -8.0508     0.8102    10.2947 </r>
       <r>    -7.9457     0.2704    10.3282 </r>
       <r>    -7.8405     0.3421    10.3913 </r>
       <r>    -7.7354     0.4928    10.4442 </r>
       <r>    -7.6302     0.7924    10.5590 </r>
       <r>    -7.5250     0.6363    10.6259 </r>
       <r>    -7.4199     0.4252    10.6871 </r>
       <r>    -7.3147     1.3735    10.8724 </r>
       <r>    -7.2096     1.0020    11.0324 </r>
       <r>    -7.1044     1.0539    11.1490 </r>
       <r>    -6.9993     1.8675    11.3457 </r>
       <r>    -6.8941     0.7298    11.4760 </r>
       <r>    -6.7890     1.8174    11.6807 </r>
       <r>    -6.6838     0.6950    11.7988 </r>
       <r>    -6.5787     1.2108    11.9919 </r>
       <r>    -6.4735     0.0000    12.0000 </r>
       <r>    -6.3684     0.0000    12.0000 </r>
       <r>    -6.2632     0.0000    12.0000 </r>
       <r>    -6.1581     0.0000    12.0000 </r>
       <r>    -6.0529     0.0000    12.0000 </r>
       <r>    -5.9478     0.0000    12.0000 </r>
       <r>    -5.8426     0.0000    12.0000 </r>
       <r>    -5.7374     0.0000    12.0000 </r>
       <r>    -5.6323     0.0000    12.0000 </r>
       <r>    -5.5271     0.0000    12.0000 </r>
       <r>    -5.4220     0.0000    12.0000 </r>
       <r>    -5.3168     0.0000    12.0000 </r>
       <r>    -5.2117     0.0000    12.0000 </r>
       <r>    -5.1065     0.0000    12.0000 </r>
       <r>    -5.0014     0.0000    12.0000 </r>
       <r>    -4.8962     0.0000    12.0000 </r>
       <r>    -4.7911     0.0000    12.0000 </r>
       <r>    -4.6859     0.0000    12.0000 </r>
       <r>    -4.5808     0.0000    12.0000 </r>
       <r>    -4.4756     0.0000    12.0000 </r>
       <r>    -4.3705     0.0000    12.0000 </r>
       <r>    -4.2653     0.0000    12.0000 </r>
       <r>    -4.1601     0.0000    12.0000 </r>
       <r>    -4.0550     0.0000    12.0000 </r>
       <r>    -3.9498     0.0000    12.0000 </r>
       <r>    -3.8447     0.0000    12.0000 </r>
       <r>    -3.7395     0.0000    12.0000 </r>
       <r>    -3.6344     0.0000    12.0000 </r>
       <r>    -3.5292     0.0000    12.0000 </r>
       <r>    -3.4241     0.0000    12.0000 </r>
       <r>    -3.3189     0.0000    12.0000 </r>
       <r>    -3.2138     0.0000    12.0000 </r>
       <r>    -3.1086     0.0321    12.0034 </r>
       <r>    -3.0035     0.2993    12.0488 </r>
       <r>    -2.8983     1.6594    12.2474 </r>
       <r>    -2.7932     2.0285    12.4645 </r>
       <r>    -2.6880     1.8578    12.7382 </r>
       <r>    -2.5829     0.8331    12.8874 </r>
       <r>    -2.4777     1.0567    13.0035 </r>
       <r>    -2.3725     0.8993    13.0980 </r>
       <r>    -2.2674     0.7925    13.1979 </r>
       <r>    -2.1622     0.2647    13.2257 </r>
       <r>    -2.0571     0.4182    13.3252 </r>
       <r>    -1.9519     0.1321    13.3785 </r>
       <r>    -1.8468     0.2642    13.4062 </r>
       <r>    -1.7416     0.6295    13.4724 </r>
       <r>    -1.6365     0.5283    13.5336 </r>
       <r>    -1.5313     0.0000    13.5336 </r>
       <r>    -1.4262     0.4953    13.5856 </r>
       <r>    -1.3210     0.2870    13.6193 </r>
       <r>    -1.2159     0.0000    13.6447 </r>
       <r>    -1.1107     0.2642    13.6725 </r>
       <r>    -1.0056     0.2610    13.6999 </r>
       <r>    -0.9004     0.0000    13.7002 </r>
       <r>    -0.7952     0.2642    13.7280 </r>
       <r>    -0.6901     0.5283    13.7836 </r>
       <r>    -0.5849     0.1696    13.8014 </r>
       <r>    -0.4798     0.0000    13.8137 </r>
       <r>    -0.3746     0.0000    13.8137 </r>
       <r>    -0.2695     0.0000    13.8137 </r>
       <r>    -0.1643     0.4341    13.8593 </r>
       <r>    -0.0592     1.2771    14.0174 </r>
       <r>     0.0460     1.0956    14.1372 </r>
       <r>     0.1511     1.2877    14.2963 </r>
       <r>     0.2563     0.5767    14.3674 </r>
       <r>     0.3614     1.6355    14.5481 </r>
       <r>     0.4666     1.2576    14.6820 </r>
       <r>     0.5717     0.3256    14.7923 </r>
       <r>     0.6769     0.5099    14.8673 </r>
       <r>     0.7820     1.1460    14.9897 </r>
       <r>     0.8872     0.2773    15.1090 </r>
       <r>     0.9924     1.7242    15.3167 </r>
       <r>     1.0975     1.4738    15.5196 </r>
       <r>     1.2027     0.9244    15.6701 </r>
       <r>     1.3078     2.3689    15.9192 </r>
       <r>     1.4130     1.1236    16.0383 </r>
       <r>     1.5181     0.3207    16.1483 </r>
       <r>     1.6233     0.7933    16.2674 </r>
       <r>     1.7284     2.5772    16.5523 </r>
       <r>     1.8336     1.2621    16.6917 </r>
       <r>     1.9387     0.5430    16.8106 </r>
       <r>     2.0439     1.0591    16.9343 </r>
       <r>     2.1490     1.6348    17.1337 </r>
       <r>     2.2542     0.7171    17.2386 </r>
       <r>     2.3593     1.4555    17.4366 </r>
       <r>     2.4645     0.5210    17.5467 </r>
       <r>     2.5697     0.1695    17.5653 </r>
       <r>     2.6748     1.4690    17.7436 </r>
       <r>     2.7800     0.0000    17.7465 </r>
       <r>     2.8851     1.0881    17.8609 </r>
       <r>     2.9903     0.3941    17.9037 </r>
       <r>     3.0954     0.0004    17.9040 </r>
       <r>     3.2006     0.3962    17.9641 </r>
       <r>     3.3057     0.0000    17.9641 </r>
       <r>     3.4109     0.3082    17.9965 </r>
       <r>     3.5160     0.0330    18.0000 </r>
       <r>     3.6212     0.0103    18.0011 </r>
       <r>     3.7263     0.0000    18.0012 </r>
       <r>     3.8315     0.0000    18.0012 </r>
       <r>     3.9366     0.0000    18.0012 </r>
       <r>     4.0418     0.0000    18.0012 </r>
       <r>     4.1470     0.0000    18.0012 </r>
       <r>     4.2521     0.0000    18.0012 </r>
       <r>     4.3573     0.0441    18.0058 </r>
       <r>     4.4624     0.0000    18.0150 </r>
       <r>     4.5676     0.1445    18.0302 </r>
       <r>     4.6727     0.0000    18.0336 </r>
       <r>     4.7779     0.0880    18.0428 </r>
       <r>     4.8830     0.0092    18.0438 </r>
       <r>     4.9882     0.6604    18.1215 </r>
       <r>     5.0933     0.6288    18.1876 </r>
       <r>     5.1985     0.3049    18.2335 </r>
       <r>     5.3036     0.1321    18.3299 </r>
       <r>     5.4088     0.6038    18.3933 </r>
       <r>     5.5139     0.9943    18.5455 </r>
       <r>     5.6191     0.2978    18.5834 </r>
       <r>     5.7242     1.8503    18.8717 </r>
       <r>     5.8294     1.1016    19.0290 </r>
       <r>     5.9346     2.7822    19.3307 </r>
       <r>     6.0397     1.0566    19.4618 </r>
       <r>     6.1449     1.7047    19.6411 </r>
       <r>     6.2500     0.5282    19.7604 </r>
       <r>     6.3552     0.7854    19.8430 </r>
       <r>     6.4603     0.3302    19.9062 </r>
       <r>     6.5655     0.2639    19.9340 </r>
       <r>     6.6706     0.4623    19.9826 </r>
       <r>     6.7758     1.7573    20.1674 </r>
       <r>     6.8809     0.4623    20.2396 </r>
       <r>     6.9861     1.8540    20.4345 </r>
       <r>     7.0912     0.2730    20.4905 </r>
       <r>     7.1964     0.7872    20.6557 </r>
       <r>     7.3015     0.4224    20.7319 </r>
       <r>     7.4067     0.3082    20.7708 </r>
       <r>     7.5119     0.2642    20.7986 </r>
       <r>     7.6170     0.1114    20.8103 </r>
       <r>     7.7222     1.8720    21.0649 </r>
       <r>     7.8273     1.5763    21.2468 </r>
       <r>     7.9325     2.2454    21.4907 </r>
       <r>     8.0376     2.5551    21.7594 </r>
       <r>     8.1428     1.2358    21.9540 </r>
       <r>     8.2479     0.0132    22.0454 </r>
       <r>     8.3531     0.0026    22.0998 </r>
       <r>     8.4582     0.8060    22.2121 </r>
       <r>     8.5634     0.5283    22.2940 </r>
       <r>     8.6685     0.4250    22.3664 </r>
       <r>     8.7737     2.2469    22.6275 </r>
       <r>     8.8788     2.1550    22.8748 </r>
       <r>     8.9840     1.0148    23.0882 </r>
       <r>     9.0891     1.6019    23.3166 </r>
       <r>     9.1943     0.8787    23.4489 </r>
       <r>     9.2995     0.3644    23.4874 </r>
       <r>     9.4046     0.6601    23.5740 </r>
       <r>     9.5098     1.5871    23.7548 </r>
       <r>     9.6149     2.1899    24.0196 </r>
       <r>     9.7201     0.2637    24.1226 </r>
       <r>     9.8252     0.2642    24.1505 </r>
       <r>     9.9304     0.6604    24.2199 </r>
       <r>    10.0355     0.7913    24.3031 </r>
       <r>    10.1407     0.0000    24.3032 </r>
       <r>    10.2458     0.8790    24.3957 </r>
       <r>    10.3510     0.5711    24.5300 </r>
       <r>    10.4561     1.4881    24.7236 </r>
       <r>    10.5613     0.9687    24.8588 </r>
       <r>    10.6664     0.1804    24.9148 </r>
       <r>    10.7716     1.9874    25.1465 </r>
       <r>    10.8768     1.0566    25.2639 </r>
       <r>    10.9819     0.2302    25.2892 </r>
       <r>    11.0871     0.3305    25.3345 </r>
       <r>    11.1922     1.1112    25.4861 </r>
       <r>    11.2974     2.0964    25.7147 </r>
       <r>    11.4025     0.0881    25.7396 </r>
       <r>    11.5077     0.8157    25.8254 </r>
       <r>    11.6128     0.7926    25.9826 </r>
       <r>    11.7180     0.7953    26.0940 </r>
       <r>    11.8231     0.7256    26.1978 </r>
       <r>    11.9283     1.2076    26.3249 </r>
       <r>    12.0334     0.3257    26.4127 </r>
       <r>    12.1386     0.8892    26.5136 </r>
       <r>    12.2437     0.8833    26.6195 </r>
       <r>    12.3489     2.2498    26.8905 </r>
       <r>    12.4541     1.2048    27.0538 </r>
       <r>    12.5592     1.1620    27.2530 </r>
       <r>    12.6644     0.8419    27.3999 </r>
       <r>    12.7695     0.8009    27.4882 </r>
       <r>    12.8747     0.4042    27.5575 </r>
       <r>    12.9798     1.0973    27.7346 </r>
       <r>    13.0850     0.8459    27.8517 </r>
       <r>    13.1901     1.4790    28.0340 </r>
       <r>    13.2953     1.1482    28.2145 </r>
       <r>    13.4004     1.1685    28.3625 </r>
       <r>    13.5056     0.0657    28.4965 </r>
       <r>    13.6107     0.6139    28.5889 </r>
       <r>    13.7159     1.0770    28.7139 </r>
       <r>    13.8210     1.3284    28.9626 </r>
       <r>    13.9262     0.9704    29.1055 </r>
       <r>    14.0313     0.6235    29.1871 </r>
       <r>    14.1365     0.6015    29.3132 </r>
       <r>    14.2417     0.7477    29.4235 </r>
       <r>    14.3468     0.5133    29.5378 </r>
       <r>    14.4520     0.3274    29.5738 </r>
       <r>    14.5571     1.2910    29.7098 </r>
       <r>    14.6623     1.0567    29.8310 </r>
       <r>    14.7674     0.2643    29.8588 </r>
       <r>    14.8726     1.2144    30.0143 </r>
       <r>    14.9777     1.2532    30.1989 </r>
       <r>    15.0829     0.8765    30.2982 </r>
       <r>    15.1880     0.3765    30.3938 </r>
       <r>    15.2932     1.3137    30.6381 </r>
       <r>    15.3983     1.3430    30.7801 </r>
       <r>    15.5035     1.0814    30.9401 </r>
       <r>    15.6086     1.0567    31.0903 </r>
       <r>    15.7138     0.5282    31.1458 </r>
       <r>    15.8190     0.6505    31.2142 </r>
       <r>    15.9241     0.2650    31.2709 </r>
       <r>    16.0293     1.2678    31.4597 </r>
       <r>    16.1344     0.5944    31.5278 </r>
       <r>    16.2396     0.5943    31.5903 </r>
       <r>    16.3447     0.6672    31.6639 </r>
       <r>    16.4499     0.0069    31.6778 </r>
       <r>    16.5550     0.2738    31.7128 </r>
       <r>    16.6602     0.5432    31.7863 </r>
       <r>    16.7653     0.2642    31.8194 </r>
       <r>    16.8705     0.9457    31.9189 </r>
       <r>    16.9756     0.5281    31.9861 </r>
       <r>    17.0808     0.0000    31.9861 </r>
       <r>    17.1859     0.0000    31.9861 </r>
       <r>    17.2911     0.0000    31.9861 </r>
       <r>    17.3962     0.1321    32.0000 </r>
       <r>    17.5014     0.0000    32.0000 </r>
       <r>    17.6066     0.0000    32.0000 </r>
       <r>    17.7117     0.0000    32.0000 </r>
       <r>    17.8169     0.0000    32.0000 </r>
       <r>    17.9220     0.0000    32.0000 </r>
       <r>    18.0272     0.0000    32.0000 </r>
       <r>    18.1323     0.0000    32.0000 </r>
       <r>    18.2375     0.0000    32.0000 </r>
       <r>    18.3426     0.0000    32.0000 </r>
       <r>    18.4478     0.0000    32.0000 </r>
       <r>    18.5529     0.0000    32.0000 </r>
       <r>    18.6581     0.0000    32.0000 </r>
       <r>    18.7632     0.0000    32.0000 </r>
      </set>
     </set>
    </array>
   </total>
  </dos>
 </calculation>
 <structure name="finalpos" >
  <crystal>
   <varray name="basis" >
    <v>      -2.87509083       0.00000000       2.87509083 </v>
    <v>       0.00000000       2.87509083       2.87509083 </v>
    <v>      -2.87509083       2.87509083       0.00000000 </v>
   </varray>
   <i name="volume">     47.53184843 </i>
   <varray name="rec_basis" >
    <v>      -0.17390755      -0.17390755       0.17390755 </v>
    <v>       0.17390755       0.17390755       0.17390755 </v>
    <v>      -0.17390755       0.17390755      -0.17390755 </v>
   </varray>
  </crystal>
  <varray name="positions" >
   <v>       0.00000000       0.00000000       0.00000000 </v>
   <v>       0.25000002       0.25000010       0.24999994 </v>
  </varray>
 </structure>
</modeling>
