 vasp.5.4.4.18Apr17-6-g9f103f2a35 (build Aug 24 2017 11:22:49) complex          
  
 executed on             LinuxIFC date 2023.12.25  13:07:20
 running on    8 total cores
 distrk:  each k-point on    8 cores,    1 groups
 distr:  one band on NCORES_PER_BAND=   1 cores,    8 groups


--------------------------------------------------------------------------------------------------------


 INCAR:
 POTCAR:    PAW_PBE Ba_sv 06Sep2000               
 POTCAR:    PAW_PBE Se 06Sep2000                  

 ----------------------------------------------------------------------------- 
|                                                                             |
|           W    W    AA    RRRRR   N    N  II  N    N   GGGG   !!!           |
|           W    W   A  A   R    R  NN   N  II  NN   N  G    G  !!!           |
|           W    W  A    A  R    R  N N  N  II  N N  N  G       !!!           |
|           W WW W  AAAAAA  RRRRR   N  N N  II  N  N N  G  GGG   !            |
|           WW  WW  A    A  R   R   N   NN  II  N   NN  G    G                |
|           W    W  A    A  R    R  N    N  II  N    N   GGGG   !!!           |
|                                                                             |
|      For optimal performance we recommend to set                            |
|        NCORE= 4 - approx SQRT( number of cores)                             |
|      NCORE specifies how many cores store one orbital (NPAR=cpu/NCORE).     |
|      This setting can  greatly improve the performance of VASP for DFT.     |
|      The default,   NCORE=1            might be grossly inefficient         |
|      on modern multi-core architectures or massively parallel machines.     |
|      Do your own testing !!!!                                               |
|      Unfortunately you need to use the default for GW and RPA calculations. |
|      (for HF NCORE is supported but not extensively tested yet)             |
|                                                                             |
 ----------------------------------------------------------------------------- 

 POTCAR:    PAW_PBE Ba_sv 06Sep2000               
   VRHFIN =Ba: 5s5p6s                                                           
   LEXCH  = PE                                                                  
   EATOM  =   700.8560 eV,   51.5115 Ry                                         
                                                                                
   TITEL  = PAW_PBE Ba_sv 06Sep2000                                             
   LULTRA =        F    use ultrasoft PP ?                                      
   IUNSCR =        1    unscreen: 0-lin 1-nonlin 2-no                           
   RPACOR =    2.400    partial core radius                                     
   POMASS =  137.327; ZVAL   =   10.000    mass and valenz                      
   RCORE  =    2.800    outmost cutoff radius                                   
   RWIGS  =    3.740; RWIGS  =    1.979    wigner-seitz radius (au A)           
   ENMAX  =  187.181; ENMIN  =  140.386 eV                                      
   RCLOC  =    2.516    cutoff for local pot                                    
   LCOR   =        T    correct aug charges                                     
   LPAW   =        T    paw PP                                                  
   EAUG   =  351.165                                                            
   DEXC   =    0.000                                                            
   RMAX   =    2.865    core radius for proj-oper                               
   RAUG   =    1.300    factor for augmentation sphere                          
   RDEP   =    2.976    radius for radial grids                                 
   RDEPT  =    2.289    core radius for aug-charge                              
                                                                                
   Atomic configuration                                                         
   13 entries                                                                   
     n  l   j            E        occ.                                          
     1  0  0.50    -37249.5946   2.0000                                         
     2  0  0.50     -5887.1925   2.0000                                         
     2  1  1.50     -5278.3977   6.0000                                         
     3  0  0.50     -1242.7293   2.0000                                         
     3  1  1.50     -1047.6609   6.0000                                         
     3  2  2.50      -764.6158  10.0000                                         
     4  0  0.50      -243.8228   2.0000                                         
     4  1  1.50      -180.9218   6.0000                                         
     4  2  2.50       -89.6477  10.0000                                         
     5  0  0.50       -33.6549   2.0000                                         
     6  0  0.50        -3.2247   1.9900                                         
     5  1  1.50       -18.7193   6.0000                                         
     5  2  2.50        -2.0115   0.0100                                         
   Description                                                                  
     l       E           TYP  RCUT    TYP  RCUT                                 
     0    -33.6549039     23  2.800                                             
     0     -3.2246942     23  2.800                                             
     1    -18.7193050     23  2.700                                             
     1     27.2116520     23  2.700                                             
     2     -2.0115002     23  2.700                                             
     2      0.3057420     23  2.700                                             
  local pseudopotential read in
  partial core-charges read in
  partial kinetic energy density read in
  atomic valenz-charges read in
  non local Contribution for L=           0  read in
    real space projection operators read in
  non local Contribution for L=           0  read in
    real space projection operators read in
  non local Contribution for L=           1  read in
    real space projection operators read in
  non local Contribution for L=           1  read in
    real space projection operators read in
  non local Contribution for L=           2  read in
    real space projection operators read in
  non local Contribution for L=           2  read in
    real space projection operators read in
    PAW grid and wavefunctions read in
 
   number of l-projection  operators is LMAX  =           6
   number of lm-projection operators is LMMAX =          18
 
 POTCAR:    PAW_PBE Se 06Sep2000                  
   VRHFIN =Se: s2p4                                                             
   LEXCH  = PE                                                                  
   EATOM  =   257.1286 eV,   18.8984 Ry                                         
                                                                                
   TITEL  = PAW_PBE Se 06Sep2000                                                
   LULTRA =        F    use ultrasoft PP ?                                      
   IUNSCR =        1    unscreen: 0-lin 1-nonlin 2-no                           
   RPACOR =    1.900    partial core radius                                     
   POMASS =   78.960; ZVAL   =    6.000    mass and valenz                      
   RCORE  =    2.100    outmost cutoff radius                                   
   RWIGS  =    2.200; RWIGS  =    1.164    wigner-seitz radius (au A)           
   ENMAX  =  211.555; ENMIN  =  158.666 eV                                      
   ICORE  =        3    local potential                                         
   LCOR   =        T    correct aug charges                                     
   LPAW   =        T    paw PP                                                  
   EAUG   =  446.842                                                            
   DEXC   =    0.000                                                            
   RMAX   =    2.147    core radius for proj-oper                               
   RAUG   =    1.300    factor for augmentation sphere                          
   RDEP   =    2.177    radius for radial grids                                 
   RDEPT  =    1.928    core radius for aug-charge                              
                                                                                
   Atomic configuration                                                         
   10 entries                                                                   
     n  l   j            E        occ.                                          
     1  0  0.50    -12503.4787   2.0000                                         
     2  0  0.50     -1606.9547   2.0000                                         
     2  1  1.50     -1413.3140   6.0000                                         
     3  0  0.50      -213.4885   2.0000                                         
     3  1  1.50      -152.9538   6.0000                                         
     3  2  2.50       -53.1221  10.0000                                         
     4  0  0.50       -17.2865   2.0000                                         
     4  1  0.50        -6.5110   4.0000                                         
     4  2  2.50        -6.8029   0.0000                                         
     4  3  2.50        -6.8029   0.0000                                         
   Description                                                                  
     l       E           TYP  RCUT    TYP  RCUT                                 
     0    -17.2865377     23  2.100                                             
     0    -15.3094411     23  2.100                                             
     1     -6.5110275     23  2.100                                             
     1     -0.0695192     23  2.100                                             
     2     -6.8029130     23  2.100                                             
     3     -1.3605826      7  2.100                                             
  local pseudopotential read in
  partial core-charges read in
  partial kinetic energy density read in
  atomic valenz-charges read in
  non local Contribution for L=           0  read in
    real space projection operators read in
  non local Contribution for L=           0  read in
    real space projection operators read in
  non local Contribution for L=           1  read in
    real space projection operators read in
  non local Contribution for L=           1  read in
    real space projection operators read in
  non local Contribution for L=           2  read in
    real space projection operators read in
    PAW grid and wavefunctions read in
 
   number of l-projection  operators is LMAX  =           5
   number of lm-projection operators is LMMAX =          13
 
  PAW_PBE Ba_sv 06Sep2000               :
 energy of atom  1       EATOM= -700.8560
 kinetic energy error for atom=    0.0005 (will be added to EATOM!!)
  PAW_PBE Se 06Sep2000                  :
 energy of atom  2       EATOM= -257.1286
 kinetic energy error for atom=    0.0007 (will be added to EATOM!!)
 
 
 POSCAR: Ba1 Se1                                 
  positions in direct lattice
  No initial velocities read in
 exchange correlation table for  LEXCH =        8
   RHO(1)=    0.500       N(1)  =     2000
   RHO(2)=  100.500       N(2)  =     4000
 


--------------------------------------------------------------------------------------------------------


 ion  position               nearest neighbor table
   1  0.000  0.000  0.000-   2 3.33   2 3.33   2 3.33   2 3.33   2 3.33   2 3.33
   2  0.500  0.500  0.500-   1 3.33   1 3.33   1 3.33   1 3.33   1 3.33   1 3.33
 
  LATTYP: Found a face centered cubic cell.
 ALAT       =     6.6672432606
  
  Lattice vectors:
  
 A1 = (  -3.3336216303,   0.0000000000,   3.3336216303)
 A2 = (   0.0000000000,   3.3336216303,   3.3336216303)
 A3 = (  -3.3336216303,   3.3336216303,   0.0000000000)


Analysis of symmetry for initial positions (statically):
=====================================================================
 Subroutine PRICEL returns:
 Original cell was already a primitive cell.
 

 Routine SETGRP: Setting up the symmetry group for a 
 face centered cubic supercell.


 Subroutine GETGRP returns: Found  8 space group operations
 (whereof  8 operations were pure point group operations)
 out of a pool of 48 trial point group operations.


The static configuration has the point symmetry C_4v.


Analysis of symmetry for dynamics (positions and initial velocities):
=====================================================================
 Subroutine PRICEL returns:
 Original cell was already a primitive cell.
 

 Routine SETGRP: Setting up the symmetry group for a 
 face centered cubic supercell.


 Subroutine GETGRP returns: Found  8 space group operations
 (whereof  8 operations were pure point group operations)
 out of a pool of 48 trial point group operations.


The dynamic configuration has the point symmetry C_4v.


 Subroutine INISYM returns: Found  8 space group operations
 (whereof  8 operations are pure point group operations),
 and found     1 'primitive' translations

 
 
 KPOINTS: pymatgen with grid density = 3000 / numb

Automatic generation of k-mesh.
Space group operators:
 irot       det(A)        alpha          n_x          n_y          n_z        tau_x        tau_y        tau_z
    1     1.000000     0.000000     1.000000     0.000000     0.000000     0.000000     0.000000     0.000000
    2     1.000000    90.000000    -1.000000     0.000000     0.000000     0.000000     0.000000     0.000000
    3    -1.000000   180.000000    -0.000000    -0.000000     1.000000     0.000000     0.000000     0.000000
    4    -1.000000   180.000000     0.000000     0.707107     0.707107     0.000000     0.000000     0.000000
    5    -1.000000   180.000000     0.000000     1.000000     0.000000     0.000000     0.000000     0.000000
    6     1.000000    90.000000     1.000000     0.000000     0.000000     0.000000     0.000000     0.000000
    7     1.000000   180.000000     1.000000     0.000000     0.000000     0.000000     0.000000     0.000000
    8    -1.000000   180.000000    -0.000000    -0.707107     0.707107     0.000000     0.000000     0.000000
 
 Subroutine IBZKPT returns following result:
 ===========================================
 
 Found    163 irreducible k-points:
 
 Following reciprocal coordinates:
            Coordinates               Weight
  0.000000  0.000000  0.000000      1.000000
  0.083333  0.000000  0.000000      8.000000
  0.166667 -0.000000 -0.000000      8.000000
  0.250000 -0.000000 -0.000000      8.000000
  0.333333  0.000000  0.000000      8.000000
  0.416667 -0.000000 -0.000000      8.000000
  0.500000 -0.000000 -0.000000      4.000000
  0.083333  0.083333  0.000000      4.000000
  0.166667  0.083333  0.000000     16.000000
  0.250000  0.083333 -0.000000     16.000000
  0.333333  0.083333  0.000000     16.000000
  0.416667  0.083333 -0.000000     16.000000
  0.500000  0.083333 -0.000000     16.000000
 -0.416667  0.083333  0.000000     16.000000
 -0.333333  0.083333  0.000000     16.000000
 -0.250000  0.083333  0.000000     16.000000
 -0.166667  0.083333  0.000000     16.000000
 -0.083333  0.083333  0.000000      8.000000
  0.166667  0.166667  0.000000      4.000000
  0.250000  0.166667  0.000000     16.000000
  0.333333  0.166667  0.000000     16.000000
  0.416667  0.166667 -0.000000     16.000000
  0.500000  0.166667 -0.000000     16.000000
 -0.416667  0.166667  0.000000     16.000000
 -0.333333  0.166667  0.000000     16.000000
 -0.250000  0.166667  0.000000     16.000000
 -0.166667  0.166667  0.000000      8.000000
  0.250000  0.250000  0.000000      4.000000
  0.333333  0.250000  0.000000     16.000000
  0.416667  0.250000  0.000000     16.000000
  0.500000  0.250000  0.000000     16.000000
 -0.416667  0.250000 -0.000000     16.000000
 -0.333333  0.250000 -0.000000     16.000000
 -0.250000  0.250000  0.000000      8.000000
  0.333333  0.333333  0.000000      4.000000
  0.416667  0.333333  0.000000     16.000000
  0.500000  0.333333  0.000000     16.000000
 -0.416667  0.333333  0.000000     16.000000
 -0.333333  0.333333  0.000000      8.000000
  0.416667  0.416667  0.000000      4.000000
  0.500000  0.416667  0.000000     16.000000
 -0.416667  0.416667  0.000000      8.000000
  0.500000  0.500000  0.000000      2.000000
  0.083333  0.000000  0.083333      2.000000
  0.166667  0.000000  0.083333      8.000000
  0.250000 -0.000000  0.083333      8.000000
  0.333333 -0.000000  0.083333      8.000000
  0.416667 -0.000000  0.083333      8.000000
  0.500000 -0.000000  0.083333      8.000000
 -0.416667  0.000000  0.083333      8.000000
 -0.333333  0.000000  0.083333      8.000000
 -0.250000 -0.000000  0.083333      8.000000
 -0.166667  0.000000  0.083333      8.000000
 -0.083333  0.000000  0.083333      4.000000
  0.250000  0.166667  0.083333      8.000000
  0.333333  0.166667  0.083333     16.000000
  0.416667  0.166667  0.083333     16.000000
  0.500000  0.166667  0.083333     16.000000
 -0.416667  0.166667  0.083333      8.000000
  0.166667  0.250000  0.083333      8.000000
  0.333333  0.250000  0.083333      8.000000
  0.416667  0.250000  0.083333     16.000000
  0.500000  0.250000  0.083333     16.000000
 -0.416667  0.250000  0.083333     16.000000
 -0.333333  0.250000  0.083333     16.000000
 -0.250000  0.250000  0.083333     16.000000
 -0.166667  0.250000  0.083333      8.000000
  0.166667  0.333333  0.083333     16.000000
  0.250000  0.333333  0.083333      8.000000
  0.416667  0.333333  0.083333      8.000000
  0.500000  0.333333  0.083333     16.000000
 -0.416667  0.333333  0.083333     16.000000
 -0.333333  0.333333  0.083333     16.000000
 -0.250000  0.333333  0.083333      8.000000
  0.166667  0.416667  0.083333     16.000000
  0.250000  0.416667  0.083333     16.000000
  0.333333  0.416667  0.083333      8.000000
  0.500000  0.416667  0.083333      8.000000
 -0.416667  0.416667  0.083333     16.000000
 -0.333333  0.416667  0.083333      8.000000
  0.166667  0.500000  0.083333     16.000000
  0.250000  0.500000  0.083333     16.000000
  0.333333  0.500000  0.083333     16.000000
  0.416667  0.500000  0.083333      8.000000
 -0.416667  0.500000  0.083333      4.000000
  0.166667 -0.416667  0.083333     16.000000
  0.250000 -0.416667  0.083333     16.000000
  0.333333 -0.416667  0.083333     16.000000
  0.416667 -0.416667  0.083333     16.000000
  0.500000 -0.416667  0.083333      4.000000
  0.166667 -0.333333  0.083333     16.000000
  0.250000 -0.333333  0.083333     16.000000
  0.333333 -0.333333  0.083333     16.000000
  0.416667 -0.333333  0.083333      8.000000
  0.166667 -0.250000  0.083333     16.000000
  0.250000 -0.250000  0.083333     16.000000
  0.333333 -0.250000  0.083333      8.000000
  0.166667 -0.166667  0.083333     16.000000
  0.250000 -0.166667  0.083333      8.000000
  0.166667 -0.083333  0.083333      8.000000
  0.166667  0.000000  0.166667      2.000000
  0.250000  0.000000  0.166667      8.000000
  0.333333  0.000000  0.166667      8.000000
  0.416667  0.000000  0.166667      8.000000
  0.500000  0.000000  0.166667      8.000000
 -0.416667  0.000000  0.166667      8.000000
 -0.333333  0.000000  0.166667      8.000000
 -0.250000  0.000000  0.166667      8.000000
 -0.166667  0.000000  0.166667      4.000000
  0.500000  0.333333  0.166667      8.000000
 -0.416667  0.333333  0.166667     16.000000
 -0.333333  0.333333  0.166667      8.000000
  0.250000  0.416667  0.166667      8.000000
 -0.416667  0.416667  0.166667      8.000000
 -0.333333  0.416667  0.166667     16.000000
 -0.250000  0.416667  0.166667      8.000000
  0.250000  0.500000  0.166667     16.000000
  0.333333  0.500000  0.166667      8.000000
 -0.333333  0.500000  0.166667      4.000000
  0.250000 -0.416667  0.166667     16.000000
  0.333333 -0.416667  0.166667     16.000000
  0.416667 -0.416667  0.166667      8.000000
  0.250000 -0.333333  0.166667     16.000000
  0.333333 -0.333333  0.166667     16.000000
  0.416667 -0.333333  0.166667     16.000000
  0.500000 -0.333333  0.166667      4.000000
  0.250000 -0.250000  0.166667     16.000000
  0.333333 -0.250000  0.166667     16.000000
  0.416667 -0.250000  0.166667      8.000000
  0.250000 -0.166667  0.166667     16.000000
  0.333333 -0.166667  0.166667      8.000000
  0.250000 -0.083333  0.166667      8.000000
  0.250000  0.000000  0.250000      2.000000
  0.333333  0.000000  0.250000      8.000000
  0.416667  0.000000  0.250000      8.000000
  0.500000  0.000000  0.250000      8.000000
 -0.416667 -0.000000  0.250000      8.000000
 -0.333333 -0.000000  0.250000      8.000000
 -0.250000  0.000000  0.250000      4.000000
 -0.250000  0.500000  0.250000      2.000000
  0.333333 -0.416667  0.250000      8.000000
  0.333333 -0.333333  0.250000     16.000000
  0.416667 -0.333333  0.250000      8.000000
  0.333333 -0.250000  0.250000     16.000000
  0.416667 -0.250000  0.250000     16.000000
  0.500000 -0.250000  0.250000      4.000000
  0.333333 -0.166667  0.250000     16.000000
  0.416667 -0.166667  0.250000      8.000000
  0.333333 -0.083333  0.250000      8.000000
  0.333333  0.000000  0.333333      2.000000
  0.416667  0.000000  0.333333      8.000000
  0.500000  0.000000  0.333333      8.000000
 -0.416667  0.000000  0.333333      8.000000
 -0.333333 -0.000000  0.333333      4.000000
  0.416667 -0.250000  0.333333      8.000000
  0.416667 -0.166667  0.333333     16.000000
  0.500000 -0.166667  0.333333      4.000000
  0.416667 -0.083333  0.333333      8.000000
  0.416667  0.000000  0.416667      2.000000
  0.500000  0.000000  0.416667      8.000000
 -0.416667  0.000000  0.416667      4.000000
  0.500000 -0.083333  0.416667      4.000000
  0.500000  0.000000  0.500000      1.000000
 
 Following cartesian coordinates:
            Coordinates               Weight
  0.000000  0.000000  0.000000      1.000000
 -0.012499 -0.012499  0.012499      8.000000
 -0.024998 -0.024998  0.024998      8.000000
 -0.037497 -0.037497  0.037497      8.000000
 -0.049996 -0.049996  0.049996      8.000000
 -0.062495 -0.062495  0.062495      8.000000
 -0.074994 -0.074994  0.074994      4.000000
  0.000000  0.000000  0.024998      4.000000
 -0.012499 -0.012499  0.037497     16.000000
 -0.024998 -0.024998  0.049996     16.000000
 -0.037497 -0.037497  0.062495     16.000000
 -0.049996 -0.049996  0.074994     16.000000
 -0.062495 -0.062495  0.087492     16.000000
  0.074994  0.074994 -0.049996     16.000000
  0.062495  0.062495 -0.037497     16.000000
  0.049996  0.049996 -0.024998     16.000000
  0.037497  0.037497 -0.012499     16.000000
  0.024998  0.024998  0.000000      8.000000
  0.000000  0.000000  0.049996      4.000000
 -0.012499 -0.012499  0.062495     16.000000
 -0.024998 -0.024998  0.074994     16.000000
 -0.037497 -0.037497  0.087492     16.000000
 -0.049996 -0.049996  0.099991     16.000000
  0.087492  0.087492 -0.037497     16.000000
  0.074994  0.074994 -0.024998     16.000000
  0.062495  0.062495 -0.012499     16.000000
  0.049996  0.049996  0.000000      8.000000
  0.000000  0.000000  0.074994      4.000000
 -0.012499 -0.012499  0.087492     16.000000
 -0.024998 -0.024998  0.099991     16.000000
 -0.037497 -0.037497  0.112490     16.000000
  0.099991  0.099991 -0.024998     16.000000
  0.087492  0.087492 -0.012499     16.000000
  0.074994  0.074994  0.000000      8.000000
  0.000000  0.000000  0.099991      4.000000
 -0.012499 -0.012499  0.112490     16.000000
 -0.024998 -0.024998  0.124989     16.000000
  0.112490  0.112490 -0.012499     16.000000
  0.099991  0.099991  0.000000      8.000000
  0.000000  0.000000  0.124989      4.000000
 -0.012499 -0.012499  0.137488     16.000000
  0.124989  0.124989  0.000000      8.000000
  0.000000  0.000000  0.149987      2.000000
 -0.024998  0.000000  0.000000      2.000000
 -0.037497 -0.012499  0.012499      8.000000
 -0.049996 -0.024998  0.024998      8.000000
 -0.062495 -0.037497  0.037497      8.000000
 -0.074994 -0.049996  0.049996      8.000000
 -0.087492 -0.062495  0.062495      8.000000
  0.049996  0.074994 -0.074994      8.000000
  0.037497  0.062495 -0.062495      8.000000
  0.024998  0.049996 -0.049996      8.000000
  0.012499  0.037497 -0.037497      8.000000
  0.000000  0.024998 -0.024998      4.000000
 -0.024998  0.000000  0.049996      8.000000
 -0.037497 -0.012499  0.062495     16.000000
 -0.049996 -0.024998  0.074994     16.000000
 -0.062495 -0.037497  0.087492     16.000000
  0.074994  0.099991 -0.049996      8.000000
 -0.000000  0.024998  0.049996      8.000000
 -0.024998  0.000000  0.074994      8.000000
 -0.037497 -0.012499  0.087492     16.000000
 -0.049996 -0.024998  0.099991     16.000000
  0.087492  0.112490 -0.037497     16.000000
  0.074994  0.099991 -0.024998     16.000000
  0.062495  0.087492 -0.012499     16.000000
  0.049996  0.074994  0.000000      8.000000
  0.012499  0.037497  0.062495     16.000000
 -0.000000  0.024998  0.074994      8.000000
 -0.024998 -0.000000  0.099991      8.000000
 -0.037497 -0.012499  0.112490     16.000000
  0.099991  0.124989 -0.024998     16.000000
  0.087492  0.112490 -0.012499     16.000000
  0.074994  0.099991  0.000000      8.000000
  0.024998  0.049996  0.074994     16.000000
  0.012499  0.037497  0.087492     16.000000
  0.000000  0.024998  0.099991      8.000000
 -0.024998  0.000000  0.124989      8.000000
  0.112490  0.137488 -0.012499     16.000000
  0.099991  0.124989  0.000000      8.000000
  0.037497  0.062495  0.087492     16.000000
  0.024998  0.049996  0.099991     16.000000
  0.012499  0.037497  0.112490     16.000000
  0.000000  0.024998  0.124989      8.000000
  0.124989  0.149987  0.000000      4.000000
 -0.099991 -0.074994 -0.049996     16.000000
 -0.112490 -0.087492 -0.037497     16.000000
 -0.124989 -0.099991 -0.024998     16.000000
 -0.137488 -0.112490 -0.012499     16.000000
 -0.149987 -0.124989  0.000000      4.000000
 -0.087492 -0.062495 -0.037497     16.000000
 -0.099991 -0.074994 -0.024998     16.000000
 -0.112490 -0.087492 -0.012499     16.000000
 -0.124989 -0.099991  0.000000      8.000000
 -0.074994 -0.049996 -0.024998     16.000000
 -0.087492 -0.062495 -0.012499     16.000000
 -0.099991 -0.074994  0.000000      8.000000
 -0.062495 -0.037497 -0.012499     16.000000
 -0.074994 -0.049996  0.000000      8.000000
 -0.049996 -0.024998  0.000000      8.000000
 -0.049996  0.000000  0.000000      2.000000
 -0.062495 -0.012499  0.012499      8.000000
 -0.074994 -0.024998  0.024998      8.000000
 -0.087492 -0.037497  0.037497      8.000000
 -0.099991 -0.049996  0.049996      8.000000
  0.037497  0.087492 -0.087492      8.000000
  0.024998  0.074994 -0.074994      8.000000
  0.012499  0.062495 -0.062495      8.000000
 -0.000000  0.049996 -0.049996      4.000000
 -0.049996  0.000000  0.099991      8.000000
  0.087492  0.137488 -0.037497     16.000000
  0.074994  0.124989 -0.024998      8.000000
  0.000000  0.049996  0.074994      8.000000
  0.099991  0.149987 -0.024998      8.000000
  0.087492  0.137488 -0.012499     16.000000
  0.074994  0.124989  0.000000      8.000000
  0.012499  0.062495  0.087492     16.000000
  0.000000  0.049996  0.099991      8.000000
  0.099991  0.149987  0.000000      4.000000
 -0.124989 -0.074994 -0.049996     16.000000
 -0.137488 -0.087492 -0.037497     16.000000
 -0.149987 -0.099991 -0.024998      8.000000
 -0.112490 -0.062495 -0.037497     16.000000
 -0.124989 -0.074994 -0.024998     16.000000
 -0.137488 -0.087492 -0.012499     16.000000
 -0.149987 -0.099991 -0.000000      4.000000
 -0.099991 -0.049996 -0.024998     16.000000
 -0.112490 -0.062495 -0.012499     16.000000
 -0.124989 -0.074994 -0.000000      8.000000
 -0.087492 -0.037497 -0.012499     16.000000
 -0.099991 -0.049996 -0.000000      8.000000
 -0.074994 -0.024998 -0.000000      8.000000
 -0.074994  0.000000  0.000000      2.000000
 -0.087492 -0.012499  0.012499      8.000000
 -0.099991 -0.024998  0.024998      8.000000
 -0.112490 -0.037497  0.037497      8.000000
  0.024998  0.099991 -0.099991      8.000000
  0.012499  0.087492 -0.087492      8.000000
  0.000000  0.074994 -0.074994      4.000000
  0.074994  0.149987  0.000000      2.000000
 -0.149987 -0.074994 -0.049996      8.000000
 -0.137488 -0.062495 -0.037497     16.000000
 -0.149987 -0.074994 -0.024998      8.000000
 -0.124989 -0.049996 -0.024998     16.000000
 -0.137488 -0.062495 -0.012499     16.000000
 -0.149987 -0.074994  0.000000      4.000000
 -0.112490 -0.037497 -0.012499     16.000000
 -0.124989 -0.049996  0.000000      8.000000
 -0.099991 -0.024998  0.000000      8.000000
 -0.099991  0.000000  0.000000      2.000000
 -0.112490 -0.012499  0.012499      8.000000
 -0.124989 -0.024998  0.024998      8.000000
  0.012499  0.112490 -0.112490      8.000000
 -0.000000  0.099991 -0.099991      4.000000
 -0.149987 -0.049996 -0.024998      8.000000
 -0.137488 -0.037497 -0.012499     16.000000
 -0.149987 -0.049996  0.000000      4.000000
 -0.124989 -0.024998  0.000000      8.000000
 -0.124989  0.000000  0.000000      2.000000
 -0.137488 -0.012499  0.012499      8.000000
  0.000000  0.124989 -0.124989      4.000000
 -0.149987 -0.024998  0.000000      4.000000
 -0.149987  0.000000  0.000000      1.000000
 
 
 Subroutine IBZKPT_HF returns following result:
 ==============================================
 
 Found   1728 k-points in 1st BZ
 the following   1728 k-points will be used (e.g. in the exchange kernel)
 Following reciprocal coordinates:   # in IRBZ
  0.000000  0.000000  0.000000    0.00057870   1 t-inv F
  0.083333  0.000000  0.000000    0.00057870   2 t-inv F
  0.166667 -0.000000 -0.000000    0.00057870   3 t-inv F
  0.250000 -0.000000 -0.000000    0.00057870   4 t-inv F
  0.333333  0.000000  0.000000    0.00057870   5 t-inv F
  0.416667 -0.000000 -0.000000    0.00057870   6 t-inv F
  0.500000 -0.000000 -0.000000    0.00057870   7 t-inv F
  0.083333  0.083333  0.000000    0.00057870   8 t-inv F
  0.166667  0.083333  0.000000    0.00057870   9 t-inv F
  0.250000  0.083333 -0.000000    0.00057870  10 t-inv F
  0.333333  0.083333  0.000000    0.00057870  11 t-inv F
  0.416667  0.083333 -0.000000    0.00057870  12 t-inv F
  0.500000  0.083333 -0.000000    0.00057870  13 t-inv F
 -0.416667  0.083333  0.000000    0.00057870  14 t-inv F
 -0.333333  0.083333  0.000000    0.00057870  15 t-inv F
 -0.250000  0.083333  0.000000    0.00057870  16 t-inv F
 -0.166667  0.083333  0.000000    0.00057870  17 t-inv F
 -0.083333  0.083333  0.000000    0.00057870  18 t-inv F
  0.166667  0.166667  0.000000    0.00057870  19 t-inv F
  0.250000  0.166667  0.000000    0.00057870  20 t-inv F
  0.333333  0.166667  0.000000    0.00057870  21 t-inv F
  0.416667  0.166667 -0.000000    0.00057870  22 t-inv F
  0.500000  0.166667 -0.000000    0.00057870  23 t-inv F
 -0.416667  0.166667  0.000000    0.00057870  24 t-inv F
 -0.333333  0.166667  0.000000    0.00057870  25 t-inv F
 -0.250000  0.166667  0.000000    0.00057870  26 t-inv F
 -0.166667  0.166667  0.000000    0.00057870  27 t-inv F
  0.250000  0.250000  0.000000    0.00057870  28 t-inv F
  0.333333  0.250000  0.000000    0.00057870  29 t-inv F
  0.416667  0.250000  0.000000    0.00057870  30 t-inv F
  0.500000  0.250000  0.000000    0.00057870  31 t-inv F
 -0.416667  0.250000 -0.000000    0.00057870  32 t-inv F
 -0.333333  0.250000 -0.000000    0.00057870  33 t-inv F
 -0.250000  0.250000  0.000000    0.00057870  34 t-inv F
  0.333333  0.333333  0.000000    0.00057870  35 t-inv F
  0.416667  0.333333  0.000000    0.00057870  36 t-inv F
  0.500000  0.333333  0.000000    0.00057870  37 t-inv F
 -0.416667  0.333333  0.000000    0.00057870  38 t-inv F
 -0.333333  0.333333  0.000000    0.00057870  39 t-inv F
  0.416667  0.416667  0.000000    0.00057870  40 t-inv F
  0.500000  0.416667  0.000000    0.00057870  41 t-inv F
 -0.416667  0.416667  0.000000    0.00057870  42 t-inv F
  0.500000  0.500000  0.000000    0.00057870  43 t-inv F
  0.083333  0.000000  0.083333    0.00057870  44 t-inv F
  0.166667  0.000000  0.083333    0.00057870  45 t-inv F
  0.250000 -0.000000  0.083333    0.00057870  46 t-inv F
  0.333333 -0.000000  0.083333    0.00057870  47 t-inv F
  0.416667 -0.000000  0.083333    0.00057870  48 t-inv F
  0.500000 -0.000000  0.083333    0.00057870  49 t-inv F
 -0.416667  0.000000  0.083333    0.00057870  50 t-inv F
 -0.333333  0.000000  0.083333    0.00057870  51 t-inv F
 -0.250000 -0.000000  0.083333    0.00057870  52 t-inv F
 -0.166667  0.000000  0.083333    0.00057870  53 t-inv F
 -0.083333  0.000000  0.083333    0.00057870  54 t-inv F
  0.250000  0.166667  0.083333    0.00057870  55 t-inv F
  0.333333  0.166667  0.083333    0.00057870  56 t-inv F
  0.416667  0.166667  0.083333    0.00057870  57 t-inv F
  0.500000  0.166667  0.083333    0.00057870  58 t-inv F
 -0.416667  0.166667  0.083333    0.00057870  59 t-inv F
  0.166667  0.250000  0.083333    0.00057870  60 t-inv F
  0.333333  0.250000  0.083333    0.00057870  61 t-inv F
  0.416667  0.250000  0.083333    0.00057870  62 t-inv F
  0.500000  0.250000  0.083333    0.00057870  63 t-inv F
 -0.416667  0.250000  0.083333    0.00057870  64 t-inv F
 -0.333333  0.250000  0.083333    0.00057870  65 t-inv F
 -0.250000  0.250000  0.083333    0.00057870  66 t-inv F
 -0.166667  0.250000  0.083333    0.00057870  67 t-inv F
  0.166667  0.333333  0.083333    0.00057870  68 t-inv F
  0.250000  0.333333  0.083333    0.00057870  69 t-inv F
  0.416667  0.333333  0.083333    0.00057870  70 t-inv F
  0.500000  0.333333  0.083333    0.00057870  71 t-inv F
 -0.416667  0.333333  0.083333    0.00057870  72 t-inv F
 -0.333333  0.333333  0.083333    0.00057870  73 t-inv F
 -0.250000  0.333333  0.083333    0.00057870  74 t-inv F
  0.166667  0.416667  0.083333    0.00057870  75 t-inv F
  0.250000  0.416667  0.083333    0.00057870  76 t-inv F
  0.333333  0.416667  0.083333    0.00057870  77 t-inv F
  0.500000  0.416667  0.083333    0.00057870  78 t-inv F
 -0.416667  0.416667  0.083333    0.00057870  79 t-inv F
 -0.333333  0.416667  0.083333    0.00057870  80 t-inv F
  0.166667  0.500000  0.083333    0.00057870  81 t-inv F
  0.250000  0.500000  0.083333    0.00057870  82 t-inv F
  0.333333  0.500000  0.083333    0.00057870  83 t-inv F
  0.416667  0.500000  0.083333    0.00057870  84 t-inv F
 -0.416667  0.500000  0.083333    0.00057870  85 t-inv F
  0.166667 -0.416667  0.083333    0.00057870  86 t-inv F
  0.250000 -0.416667  0.083333    0.00057870  87 t-inv F
  0.333333 -0.416667  0.083333    0.00057870  88 t-inv F
  0.416667 -0.416667  0.083333    0.00057870  89 t-inv F
  0.500000 -0.416667  0.083333    0.00057870  90 t-inv F
  0.166667 -0.333333  0.083333    0.00057870  91 t-inv F
  0.250000 -0.333333  0.083333    0.00057870  92 t-inv F
  0.333333 -0.333333  0.083333    0.00057870  93 t-inv F
  0.416667 -0.333333  0.083333    0.00057870  94 t-inv F
  0.166667 -0.250000  0.083333    0.00057870  95 t-inv F
  0.250000 -0.250000  0.083333    0.00057870  96 t-inv F
  0.333333 -0.250000  0.083333    0.00057870  97 t-inv F
  0.166667 -0.166667  0.083333    0.00057870  98 t-inv F
  0.250000 -0.166667  0.083333    0.00057870  99 t-inv F
  0.166667 -0.083333  0.083333    0.00057870 100 t-inv F
  0.166667  0.000000  0.166667    0.00057870 101 t-inv F
  0.250000  0.000000  0.166667    0.00057870 102 t-inv F
  0.333333  0.000000  0.166667    0.00057870 103 t-inv F
  0.416667  0.000000  0.166667    0.00057870 104 t-inv F
  0.500000  0.000000  0.166667    0.00057870 105 t-inv F
 -0.416667  0.000000  0.166667    0.00057870 106 t-inv F
 -0.333333  0.000000  0.166667    0.00057870 107 t-inv F
 -0.250000  0.000000  0.166667    0.00057870 108 t-inv F
 -0.166667  0.000000  0.166667    0.00057870 109 t-inv F
  0.500000  0.333333  0.166667    0.00057870 110 t-inv F
 -0.416667  0.333333  0.166667    0.00057870 111 t-inv F
 -0.333333  0.333333  0.166667    0.00057870 112 t-inv F
  0.250000  0.416667  0.166667    0.00057870 113 t-inv F
 -0.416667  0.416667  0.166667    0.00057870 114 t-inv F
 -0.333333  0.416667  0.166667    0.00057870 115 t-inv F
 -0.250000  0.416667  0.166667    0.00057870 116 t-inv F
  0.250000  0.500000  0.166667    0.00057870 117 t-inv F
  0.333333  0.500000  0.166667    0.00057870 118 t-inv F
 -0.333333  0.500000  0.166667    0.00057870 119 t-inv F
  0.250000 -0.416667  0.166667    0.00057870 120 t-inv F
  0.333333 -0.416667  0.166667    0.00057870 121 t-inv F
  0.416667 -0.416667  0.166667    0.00057870 122 t-inv F
  0.250000 -0.333333  0.166667    0.00057870 123 t-inv F
  0.333333 -0.333333  0.166667    0.00057870 124 t-inv F
  0.416667 -0.333333  0.166667    0.00057870 125 t-inv F
  0.500000 -0.333333  0.166667    0.00057870 126 t-inv F
  0.250000 -0.250000  0.166667    0.00057870 127 t-inv F
  0.333333 -0.250000  0.166667    0.00057870 128 t-inv F
  0.416667 -0.250000  0.166667    0.00057870 129 t-inv F
  0.250000 -0.166667  0.166667    0.00057870 130 t-inv F
  0.333333 -0.166667  0.166667    0.00057870 131 t-inv F
  0.250000 -0.083333  0.166667    0.00057870 132 t-inv F
  0.250000  0.000000  0.250000    0.00057870 133 t-inv F
  0.333333  0.000000  0.250000    0.00057870 134 t-inv F
  0.416667  0.000000  0.250000    0.00057870 135 t-inv F
  0.500000  0.000000  0.250000    0.00057870 136 t-inv F
 -0.416667 -0.000000  0.250000    0.00057870 137 t-inv F
 -0.333333 -0.000000  0.250000    0.00057870 138 t-inv F
 -0.250000  0.000000  0.250000    0.00057870 139 t-inv F
 -0.250000  0.500000  0.250000    0.00057870 140 t-inv F
  0.333333 -0.416667  0.250000    0.00057870 141 t-inv F
  0.333333 -0.333333  0.250000    0.00057870 142 t-inv F
  0.416667 -0.333333  0.250000    0.00057870 143 t-inv F
  0.333333 -0.250000  0.250000    0.00057870 144 t-inv F
  0.416667 -0.250000  0.250000    0.00057870 145 t-inv F
  0.500000 -0.250000  0.250000    0.00057870 146 t-inv F
  0.333333 -0.166667  0.250000    0.00057870 147 t-inv F
  0.416667 -0.166667  0.250000    0.00057870 148 t-inv F
  0.333333 -0.083333  0.250000    0.00057870 149 t-inv F
  0.333333  0.000000  0.333333    0.00057870 150 t-inv F
  0.416667  0.000000  0.333333    0.00057870 151 t-inv F
  0.500000  0.000000  0.333333    0.00057870 152 t-inv F
 -0.416667  0.000000  0.333333    0.00057870 153 t-inv F
 -0.333333 -0.000000  0.333333    0.00057870 154 t-inv F
  0.416667 -0.250000  0.333333    0.00057870 155 t-inv F
  0.416667 -0.166667  0.333333    0.00057870 156 t-inv F
  0.500000 -0.166667  0.333333    0.00057870 157 t-inv F
  0.416667 -0.083333  0.333333    0.00057870 158 t-inv F
  0.416667  0.000000  0.416667    0.00057870 159 t-inv F
  0.500000  0.000000  0.416667    0.00057870 160 t-inv F
 -0.416667  0.000000  0.416667    0.00057870 161 t-inv F
  0.500000 -0.083333  0.416667    0.00057870 162 t-inv F
  0.500000  0.000000  0.500000    0.00057870 163 t-inv F
  0.000000 -0.083333  0.000000    0.00057870   2 t-inv F
  0.083333  0.083333  0.083333    0.00057870   2 t-inv F
  0.000000 -0.000000  0.083333    0.00057870   2 t-inv F
 -0.000000 -0.166667  0.000000    0.00057870   3 t-inv F
  0.166667  0.166667  0.166667    0.00057870   3 t-inv F
  0.000000  0.000000  0.166667    0.00057870   3 t-inv F
 -0.000000 -0.250000  0.000000    0.00057870   4 t-inv F
  0.250000  0.250000  0.250000    0.00057870   4 t-inv F
  0.000000  0.000000  0.250000    0.00057870   4 t-inv F
  0.000000 -0.333333 -0.000000    0.00057870   5 t-inv F
  0.333333  0.333333  0.333333    0.00057870   5 t-inv F
 -0.000000 -0.000000  0.333333    0.00057870   5 t-inv F
 -0.000000 -0.416667  0.000000    0.00057870   6 t-inv F
  0.416667  0.416667  0.416667    0.00057870   6 t-inv F
  0.000000  0.000000  0.416667    0.00057870   6 t-inv F
 -0.000000 -0.500000  0.000000    0.00057870   7 t-inv F
  0.500000  0.500000  0.500000    0.00057870   7 t-inv F
  0.000000  0.000000  0.500000    0.00057870   7 t-inv F
  0.000000 -0.083333 -0.083333    0.00057870   8 t-inv F
 -0.083333 -0.083333  0.000000    0.00057870   8 t-inv F
  0.000000  0.083333  0.083333    0.00057870   8 t-inv F
  0.000000 -0.166667 -0.083333    0.00057870   9 t-inv F
 -0.083333 -0.166667  0.000000    0.00057870   9 t-inv F
  0.083333 -0.083333 -0.083333    0.00057870   9 t-inv F
  0.166667  0.166667  0.083333    0.00057870   9 t-inv F
  0.083333  0.166667  0.166667    0.00057870   9 t-inv F
 -0.083333 -0.083333  0.083333    0.00057870   9 t-inv F
  0.000000  0.083333  0.166667    0.00057870   9 t-inv F
 -0.000000 -0.250000 -0.083333    0.00057870  10 t-inv F
 -0.083333 -0.250000 -0.000000    0.00057870  10 t-inv F
  0.166667 -0.083333 -0.083333    0.00057870  10 t-inv F
  0.250000  0.250000  0.166667    0.00057870  10 t-inv F
  0.166667  0.250000  0.250000    0.00057870  10 t-inv F
 -0.083333 -0.083333  0.166667    0.00057870  10 t-inv F
 -0.000000  0.083333  0.250000    0.00057870  10 t-inv F
  0.000000 -0.333333 -0.083333    0.00057870  11 t-inv F
 -0.083333 -0.333333  0.000000    0.00057870  11 t-inv F
  0.250000 -0.083333 -0.083333    0.00057870  11 t-inv F
  0.333333  0.333333  0.250000    0.00057870  11 t-inv F
  0.250000  0.333333  0.333333    0.00057870  11 t-inv F
 -0.083333 -0.083333  0.250000    0.00057870  11 t-inv F
  0.000000  0.083333  0.333333    0.00057870  11 t-inv F
 -0.000000 -0.416667 -0.083333    0.00057870  12 t-inv F
 -0.083333 -0.416667 -0.000000    0.00057870  12 t-inv F
  0.333333 -0.083333 -0.083333    0.00057870  12 t-inv F
  0.416667  0.416667  0.333333    0.00057870  12 t-inv F
  0.333333  0.416667  0.416667    0.00057870  12 t-inv F
 -0.083333 -0.083333  0.333333    0.00057870  12 t-inv F
 -0.000000  0.083333  0.416667    0.00057870  12 t-inv F
 -0.000000 -0.500000 -0.083333    0.00057870  13 t-inv F
 -0.083333 -0.500000 -0.000000    0.00057870  13 t-inv F
  0.416667 -0.083333 -0.083333    0.00057870  13 t-inv F
  0.500000  0.500000  0.416667    0.00057870  13 t-inv F
  0.416667  0.500000  0.500000    0.00057870  13 t-inv F
 -0.083333 -0.083333  0.416667    0.00057870  13 t-inv F
 -0.000000  0.083333  0.500000    0.00057870  13 t-inv F
  0.000000  0.416667 -0.083333    0.00057870  14 t-inv F
 -0.083333  0.416667  0.000000    0.00057870  14 t-inv F
 -0.500000 -0.083333 -0.083333    0.00057870  14 t-inv F
 -0.416667 -0.416667 -0.500000    0.00057870  14 t-inv F
 -0.500000 -0.416667 -0.416667    0.00057870  14 t-inv F
 -0.083333 -0.083333 -0.500000    0.00057870  14 t-inv F
  0.000000  0.083333 -0.416667    0.00057870  14 t-inv F
  0.000000  0.333333 -0.083333    0.00057870  15 t-inv F
 -0.083333  0.333333  0.000000    0.00057870  15 t-inv F
 -0.416667 -0.083333 -0.083333    0.00057870  15 t-inv F
 -0.333333 -0.333333 -0.416667    0.00057870  15 t-inv F
 -0.416667 -0.333333 -0.333333    0.00057870  15 t-inv F
 -0.083333 -0.083333 -0.416667    0.00057870  15 t-inv F
  0.000000  0.083333 -0.333333    0.00057870  15 t-inv F
  0.000000  0.250000 -0.083333    0.00057870  16 t-inv F
 -0.083333  0.250000  0.000000    0.00057870  16 t-inv F
 -0.333333 -0.083333 -0.083333    0.00057870  16 t-inv F
 -0.250000 -0.250000 -0.333333    0.00057870  16 t-inv F
 -0.333333 -0.250000 -0.250000    0.00057870  16 t-inv F
 -0.083333 -0.083333 -0.333333    0.00057870  16 t-inv F
  0.000000  0.083333 -0.250000    0.00057870  16 t-inv F
  0.000000  0.166667 -0.083333    0.00057870  17 t-inv F
 -0.083333  0.166667  0.000000    0.00057870  17 t-inv F
 -0.250000 -0.083333 -0.083333    0.00057870  17 t-inv F
 -0.166667 -0.166667 -0.250000    0.00057870  17 t-inv F
 -0.250000 -0.166667 -0.166667    0.00057870  17 t-inv F
 -0.083333 -0.083333 -0.250000    0.00057870  17 t-inv F
  0.000000  0.083333 -0.166667    0.00057870  17 t-inv F
  0.000000  0.083333 -0.083333    0.00057870  18 t-inv F
 -0.166667 -0.083333 -0.083333    0.00057870  18 t-inv F
 -0.083333 -0.083333 -0.166667    0.00057870  18 t-inv F
  0.000000 -0.166667 -0.166667    0.00057870  19 t-inv F
 -0.166667 -0.166667  0.000000    0.00057870  19 t-inv F
  0.000000  0.166667  0.166667    0.00057870  19 t-inv F
  0.000000 -0.250000 -0.166667    0.00057870  20 t-inv F
 -0.166667 -0.250000  0.000000    0.00057870  20 t-inv F
  0.083333 -0.166667 -0.166667    0.00057870  20 t-inv F
  0.250000  0.250000  0.083333    0.00057870  20 t-inv F
  0.083333  0.250000  0.250000    0.00057870  20 t-inv F
 -0.166667 -0.166667  0.083333    0.00057870  20 t-inv F
  0.000000  0.166667  0.250000    0.00057870  20 t-inv F
  0.000000 -0.333333 -0.166667    0.00057870  21 t-inv F
 -0.166667 -0.333333  0.000000    0.00057870  21 t-inv F
  0.166667 -0.166667 -0.166667    0.00057870  21 t-inv F
  0.333333  0.333333  0.166667    0.00057870  21 t-inv F
  0.166667  0.333333  0.333333    0.00057870  21 t-inv F
 -0.166667 -0.166667  0.166667    0.00057870  21 t-inv F
  0.000000  0.166667  0.333333    0.00057870  21 t-inv F
 -0.000000 -0.416667 -0.166667    0.00057870  22 t-inv F
 -0.166667 -0.416667 -0.000000    0.00057870  22 t-inv F
  0.250000 -0.166667 -0.166667    0.00057870  22 t-inv F
  0.416667  0.416667  0.250000    0.00057870  22 t-inv F
  0.250000  0.416667  0.416667    0.00057870  22 t-inv F
 -0.166667 -0.166667  0.250000    0.00057870  22 t-inv F
 -0.000000  0.166667  0.416667    0.00057870  22 t-inv F
 -0.000000 -0.500000 -0.166667    0.00057870  23 t-inv F
 -0.166667 -0.500000 -0.000000    0.00057870  23 t-inv F
  0.333333 -0.166667 -0.166667    0.00057870  23 t-inv F
  0.500000  0.500000  0.333333    0.00057870  23 t-inv F
  0.333333  0.500000  0.500000    0.00057870  23 t-inv F
 -0.166667 -0.166667  0.333333    0.00057870  23 t-inv F
 -0.000000  0.166667  0.500000    0.00057870  23 t-inv F
  0.000000  0.416667 -0.166667    0.00057870  24 t-inv F
 -0.166667  0.416667  0.000000    0.00057870  24 t-inv F
 -0.583333 -0.166667 -0.166667    0.00057870  24 t-inv F
 -0.416667 -0.416667 -0.583333    0.00057870  24 t-inv F
 -0.583333 -0.416667 -0.416667    0.00057870  24 t-inv F
 -0.166667 -0.166667 -0.583333    0.00057870  24 t-inv F
  0.000000  0.166667 -0.416667    0.00057870  24 t-inv F
  0.000000  0.333333 -0.166667    0.00057870  25 t-inv F
 -0.166667  0.333333  0.000000    0.00057870  25 t-inv F
 -0.500000 -0.166667 -0.166667    0.00057870  25 t-inv F
 -0.333333 -0.333333 -0.500000    0.00057870  25 t-inv F
 -0.500000 -0.333333 -0.333333    0.00057870  25 t-inv F
 -0.166667 -0.166667 -0.500000    0.00057870  25 t-inv F
  0.000000  0.166667 -0.333333    0.00057870  25 t-inv F
  0.000000  0.250000 -0.166667    0.00057870  26 t-inv F
 -0.166667  0.250000  0.000000    0.00057870  26 t-inv F
 -0.416667 -0.166667 -0.166667    0.00057870  26 t-inv F
 -0.250000 -0.250000 -0.416667    0.00057870  26 t-inv F
 -0.416667 -0.250000 -0.250000    0.00057870  26 t-inv F
 -0.166667 -0.166667 -0.416667    0.00057870  26 t-inv F
  0.000000  0.166667 -0.250000    0.00057870  26 t-inv F
  0.000000  0.166667 -0.166667    0.00057870  27 t-inv F
 -0.333333 -0.166667 -0.166667    0.00057870  27 t-inv F
 -0.166667 -0.166667 -0.333333    0.00057870  27 t-inv F
  0.000000 -0.250000 -0.250000    0.00057870  28 t-inv F
 -0.250000 -0.250000  0.000000    0.00057870  28 t-inv F
  0.000000  0.250000  0.250000    0.00057870  28 t-inv F
  0.000000 -0.333333 -0.250000    0.00057870  29 t-inv F
 -0.250000 -0.333333  0.000000    0.00057870  29 t-inv F
  0.083333 -0.250000 -0.250000    0.00057870  29 t-inv F
  0.333333  0.333333  0.083333    0.00057870  29 t-inv F
  0.083333  0.333333  0.333333    0.00057870  29 t-inv F
 -0.250000 -0.250000  0.083333    0.00057870  29 t-inv F
  0.000000  0.250000  0.333333    0.00057870  29 t-inv F
  0.000000 -0.416667 -0.250000    0.00057870  30 t-inv F
 -0.250000 -0.416667  0.000000    0.00057870  30 t-inv F
  0.166667 -0.250000 -0.250000    0.00057870  30 t-inv F
  0.416667  0.416667  0.166667    0.00057870  30 t-inv F
  0.166667  0.416667  0.416667    0.00057870  30 t-inv F
 -0.250000 -0.250000  0.166667    0.00057870  30 t-inv F
  0.000000  0.250000  0.416667    0.00057870  30 t-inv F
  0.000000 -0.500000 -0.250000    0.00057870  31 t-inv F
 -0.250000 -0.500000  0.000000    0.00057870  31 t-inv F
  0.250000 -0.250000 -0.250000    0.00057870  31 t-inv F
  0.500000  0.500000  0.250000    0.00057870  31 t-inv F
  0.250000  0.500000  0.500000    0.00057870  31 t-inv F
 -0.250000 -0.250000  0.250000    0.00057870  31 t-inv F
  0.000000  0.250000  0.500000    0.00057870  31 t-inv F
 -0.000000  0.416667 -0.250000    0.00057870  32 t-inv F
 -0.250000  0.416667 -0.000000    0.00057870  32 t-inv F
 -0.666667 -0.250000 -0.250000    0.00057870  32 t-inv F
 -0.416667 -0.416667 -0.666667    0.00057870  32 t-inv F
 -0.666667 -0.416667 -0.416667    0.00057870  32 t-inv F
 -0.250000 -0.250000 -0.666667    0.00057870  32 t-inv F
 -0.000000  0.250000 -0.416667    0.00057870  32 t-inv F
 -0.000000  0.333333 -0.250000    0.00057870  33 t-inv F
 -0.250000  0.333333 -0.000000    0.00057870  33 t-inv F
 -0.583333 -0.250000 -0.250000    0.00057870  33 t-inv F
 -0.333333 -0.333333 -0.583333    0.00057870  33 t-inv F
 -0.583333 -0.333333 -0.333333    0.00057870  33 t-inv F
 -0.250000 -0.250000 -0.583333    0.00057870  33 t-inv F
 -0.000000  0.250000 -0.333333    0.00057870  33 t-inv F
  0.000000  0.250000 -0.250000    0.00057870  34 t-inv F
 -0.500000 -0.250000 -0.250000    0.00057870  34 t-inv F
 -0.250000 -0.250000 -0.500000    0.00057870  34 t-inv F
  0.000000 -0.333333 -0.333333    0.00057870  35 t-inv F
 -0.333333 -0.333333  0.000000    0.00057870  35 t-inv F
  0.000000  0.333333  0.333333    0.00057870  35 t-inv F
  0.000000 -0.416667 -0.333333    0.00057870  36 t-inv F
 -0.333333 -0.416667  0.000000    0.00057870  36 t-inv F
  0.083333 -0.333333 -0.333333    0.00057870  36 t-inv F
  0.416667  0.416667  0.083333    0.00057870  36 t-inv F
  0.083333  0.416667  0.416667    0.00057870  36 t-inv F
 -0.333333 -0.333333  0.083333    0.00057870  36 t-inv F
  0.000000  0.333333  0.416667    0.00057870  36 t-inv F
  0.000000 -0.500000 -0.333333    0.00057870  37 t-inv F
 -0.333333 -0.500000  0.000000    0.00057870  37 t-inv F
  0.166667 -0.333333 -0.333333    0.00057870  37 t-inv F
  0.500000  0.500000  0.166667    0.00057870  37 t-inv F
  0.166667  0.500000  0.500000    0.00057870  37 t-inv F
 -0.333333 -0.333333  0.166667    0.00057870  37 t-inv F
  0.000000  0.333333  0.500000    0.00057870  37 t-inv F
  0.000000  0.416667 -0.333333    0.00057870  38 t-inv F
 -0.333333  0.416667  0.000000    0.00057870  38 t-inv F
 -0.750000 -0.333333 -0.333333    0.00057870  38 t-inv F
 -0.416667 -0.416667 -0.750000    0.00057870  38 t-inv F
 -0.750000 -0.416667 -0.416667    0.00057870  38 t-inv F
 -0.333333 -0.333333 -0.750000    0.00057870  38 t-inv F
  0.000000  0.333333 -0.416667    0.00057870  38 t-inv F
  0.000000  0.333333 -0.333333    0.00057870  39 t-inv F
 -0.666667 -0.333333 -0.333333    0.00057870  39 t-inv F
 -0.333333 -0.333333 -0.666667    0.00057870  39 t-inv F
  0.000000 -0.416667 -0.416667    0.00057870  40 t-inv F
 -0.416667 -0.416667  0.000000    0.00057870  40 t-inv F
  0.000000  0.416667  0.416667    0.00057870  40 t-inv F
  0.000000 -0.500000 -0.416667    0.00057870  41 t-inv F
 -0.416667 -0.500000  0.000000    0.00057870  41 t-inv F
  0.083333 -0.416667 -0.416667    0.00057870  41 t-inv F
  0.500000  0.500000  0.083333    0.00057870  41 t-inv F
  0.083333  0.500000  0.500000    0.00057870  41 t-inv F
 -0.416667 -0.416667  0.083333    0.00057870  41 t-inv F
  0.000000  0.416667  0.500000    0.00057870  41 t-inv F
  0.000000  0.416667 -0.416667    0.00057870  42 t-inv F
 -0.833333 -0.416667 -0.416667    0.00057870  42 t-inv F
 -0.416667 -0.416667 -0.833333    0.00057870  42 t-inv F
  0.000000 -0.500000 -0.500000    0.00057870  43 t-inv F
  0.083333 -0.083333  0.083333    0.00057870  45 t-inv F
  0.166667  0.083333  0.166667    0.00057870  45 t-inv F
  0.083333 -0.000000  0.166667    0.00057870  45 t-inv F
  0.083333 -0.166667  0.083333    0.00057870  46 t-inv F
  0.250000  0.166667  0.250000    0.00057870  46 t-inv F
  0.083333  0.000000  0.250000    0.00057870  46 t-inv F
  0.083333 -0.250000  0.083333    0.00057870  47 t-inv F
  0.333333  0.250000  0.333333    0.00057870  47 t-inv F
  0.083333  0.000000  0.333333    0.00057870  47 t-inv F
  0.083333 -0.333333  0.083333    0.00057870  48 t-inv F
  0.416667  0.333333  0.416667    0.00057870  48 t-inv F
  0.083333  0.000000  0.416667    0.00057870  48 t-inv F
  0.083333 -0.416667  0.083333    0.00057870  49 t-inv F
  0.500000  0.416667  0.500000    0.00057870  49 t-inv F
  0.083333  0.000000  0.500000    0.00057870  49 t-inv F
  0.083333  0.500000  0.083333    0.00057870  50 t-inv F
 -0.416667 -0.500000 -0.416667    0.00057870  50 t-inv F
  0.083333 -0.000000 -0.416667    0.00057870  50 t-inv F
  0.083333  0.416667  0.083333    0.00057870  51 t-inv F
 -0.333333 -0.416667 -0.333333    0.00057870  51 t-inv F
  0.083333 -0.000000 -0.333333    0.00057870  51 t-inv F
  0.083333  0.333333  0.083333    0.00057870  52 t-inv F
 -0.250000 -0.333333 -0.250000    0.00057870  52 t-inv F
  0.083333  0.000000 -0.250000    0.00057870  52 t-inv F
  0.083333  0.250000  0.083333    0.00057870  53 t-inv F
 -0.166667 -0.250000 -0.166667    0.00057870  53 t-inv F
  0.083333 -0.000000 -0.166667    0.00057870  53 t-inv F
  0.083333  0.166667  0.083333    0.00057870  54 t-inv F
 -0.083333 -0.166667 -0.083333    0.00057870  54 t-inv F
  0.083333 -0.000000 -0.083333    0.00057870  54 t-inv F
  0.083333 -0.166667 -0.083333    0.00057870  55 t-inv F
 -0.083333 -0.166667  0.083333    0.00057870  55 t-inv F
  0.083333  0.166667  0.250000    0.00057870  55 t-inv F
  0.083333 -0.250000 -0.083333    0.00057870  56 t-inv F
 -0.083333 -0.250000  0.083333    0.00057870  56 t-inv F
  0.166667 -0.166667 -0.083333    0.00057870  56 t-inv F
  0.333333  0.250000  0.166667    0.00057870  56 t-inv F
  0.166667  0.250000  0.333333    0.00057870  56 t-inv F
 -0.083333 -0.166667  0.166667    0.00057870  56 t-inv F
  0.083333  0.166667  0.333333    0.00057870  56 t-inv F
  0.083333 -0.333333 -0.083333    0.00057870  57 t-inv F
 -0.083333 -0.333333  0.083333    0.00057870  57 t-inv F
  0.250000 -0.166667 -0.083333    0.00057870  57 t-inv F
  0.416667  0.333333  0.250000    0.00057870  57 t-inv F
  0.250000  0.333333  0.416667    0.00057870  57 t-inv F
 -0.083333 -0.166667  0.250000    0.00057870  57 t-inv F
  0.083333  0.166667  0.416667    0.00057870  57 t-inv F
  0.083333 -0.416667 -0.083333    0.00057870  58 t-inv F
 -0.083333 -0.416667  0.083333    0.00057870  58 t-inv F
  0.333333 -0.166667 -0.083333    0.00057870  58 t-inv F
  0.500000  0.416667  0.333333    0.00057870  58 t-inv F
  0.333333  0.416667  0.500000    0.00057870  58 t-inv F
 -0.083333 -0.166667  0.333333    0.00057870  58 t-inv F
  0.083333  0.166667  0.500000    0.00057870  58 t-inv F
  0.083333  0.500000 -0.083333    0.00057870  59 t-inv F
 -0.083333  0.500000  0.083333    0.00057870  59 t-inv F
 -0.583333 -0.166667 -0.083333    0.00057870  59 t-inv F
 -0.416667 -0.500000 -0.583333    0.00057870  59 t-inv F
 -0.583333 -0.500000 -0.416667    0.00057870  59 t-inv F
 -0.083333 -0.166667 -0.583333    0.00057870  59 t-inv F
  0.083333  0.166667 -0.416667    0.00057870  59 t-inv F
  0.083333 -0.083333 -0.166667    0.00057870  60 t-inv F
 -0.166667 -0.083333  0.083333    0.00057870  60 t-inv F
 -0.083333 -0.250000 -0.166667    0.00057870  60 t-inv F
  0.166667  0.083333 -0.083333    0.00057870  60 t-inv F
 -0.083333  0.083333  0.166667    0.00057870  60 t-inv F
 -0.166667 -0.250000 -0.083333    0.00057870  60 t-inv F
  0.083333  0.250000  0.166667    0.00057870  60 t-inv F
  0.083333 -0.250000 -0.166667    0.00057870  61 t-inv F
 -0.166667 -0.250000  0.083333    0.00057870  61 t-inv F
  0.083333  0.250000  0.333333    0.00057870  61 t-inv F
  0.083333 -0.333333 -0.166667    0.00057870  62 t-inv F
 -0.166667 -0.333333  0.083333    0.00057870  62 t-inv F
  0.166667 -0.250000 -0.166667    0.00057870  62 t-inv F
  0.416667  0.333333  0.166667    0.00057870  62 t-inv F
  0.166667  0.333333  0.416667    0.00057870  62 t-inv F
 -0.166667 -0.250000  0.166667    0.00057870  62 t-inv F
  0.083333  0.250000  0.416667    0.00057870  62 t-inv F
  0.083333 -0.416667 -0.166667    0.00057870  63 t-inv F
 -0.166667 -0.416667  0.083333    0.00057870  63 t-inv F
  0.250000 -0.250000 -0.166667    0.00057870  63 t-inv F
  0.500000  0.416667  0.250000    0.00057870  63 t-inv F
  0.250000  0.416667  0.500000    0.00057870  63 t-inv F
 -0.166667 -0.250000  0.250000    0.00057870  63 t-inv F
  0.083333  0.250000  0.500000    0.00057870  63 t-inv F
  0.083333  0.500000 -0.166667    0.00057870  64 t-inv F
 -0.166667  0.500000  0.083333    0.00057870  64 t-inv F
 -0.666667 -0.250000 -0.166667    0.00057870  64 t-inv F
 -0.416667 -0.500000 -0.666667    0.00057870  64 t-inv F
 -0.666667 -0.500000 -0.416667    0.00057870  64 t-inv F
 -0.166667 -0.250000 -0.666667    0.00057870  64 t-inv F
  0.083333  0.250000 -0.416667    0.00057870  64 t-inv F
  0.083333  0.416667 -0.166667    0.00057870  65 t-inv F
 -0.166667  0.416667  0.083333    0.00057870  65 t-inv F
 -0.583333 -0.250000 -0.166667    0.00057870  65 t-inv F
 -0.333333 -0.416667 -0.583333    0.00057870  65 t-inv F
 -0.583333 -0.416667 -0.333333    0.00057870  65 t-inv F
 -0.166667 -0.250000 -0.583333    0.00057870  65 t-inv F
  0.083333  0.250000 -0.333333    0.00057870  65 t-inv F
  0.083333  0.333333 -0.166667    0.00057870  66 t-inv F
 -0.166667  0.333333  0.083333    0.00057870  66 t-inv F
 -0.500000 -0.250000 -0.166667    0.00057870  66 t-inv F
 -0.250000 -0.333333 -0.500000    0.00057870  66 t-inv F
 -0.500000 -0.333333 -0.250000    0.00057870  66 t-inv F
 -0.166667 -0.250000 -0.500000    0.00057870  66 t-inv F
  0.083333  0.250000 -0.250000    0.00057870  66 t-inv F
  0.083333  0.250000 -0.166667    0.00057870  67 t-inv F
 -0.416667 -0.250000 -0.166667    0.00057870  67 t-inv F
 -0.166667 -0.250000 -0.416667    0.00057870  67 t-inv F
  0.083333 -0.083333 -0.250000    0.00057870  68 t-inv F
 -0.250000 -0.083333  0.083333    0.00057870  68 t-inv F
 -0.166667 -0.333333 -0.250000    0.00057870  68 t-inv F
  0.166667  0.083333 -0.166667    0.00057870  68 t-inv F
 -0.166667  0.083333  0.166667    0.00057870  68 t-inv F
 -0.250000 -0.333333 -0.166667    0.00057870  68 t-inv F
  0.083333  0.333333  0.166667    0.00057870  68 t-inv F
  0.083333 -0.166667 -0.250000    0.00057870  69 t-inv F
 -0.250000 -0.166667  0.083333    0.00057870  69 t-inv F
 -0.083333 -0.333333 -0.250000    0.00057870  69 t-inv F
  0.250000  0.166667 -0.083333    0.00057870  69 t-inv F
 -0.083333  0.166667  0.250000    0.00057870  69 t-inv F
 -0.250000 -0.333333 -0.083333    0.00057870  69 t-inv F
  0.083333  0.333333  0.250000    0.00057870  69 t-inv F
  0.083333 -0.333333 -0.250000    0.00057870  70 t-inv F
 -0.250000 -0.333333  0.083333    0.00057870  70 t-inv F
  0.083333  0.333333  0.416667    0.00057870  70 t-inv F
  0.083333 -0.416667 -0.250000    0.00057870  71 t-inv F
 -0.250000 -0.416667  0.083333    0.00057870  71 t-inv F
  0.166667 -0.333333 -0.250000    0.00057870  71 t-inv F
  0.500000  0.416667  0.166667    0.00057870  71 t-inv F
  0.166667  0.416667  0.500000    0.00057870  71 t-inv F
 -0.250000 -0.333333  0.166667    0.00057870  71 t-inv F
  0.083333  0.333333  0.500000    0.00057870  71 t-inv F
  0.083333  0.500000 -0.250000    0.00057870  72 t-inv F
 -0.250000  0.500000  0.083333    0.00057870  72 t-inv F
 -0.750000 -0.333333 -0.250000    0.00057870  72 t-inv F
 -0.416667 -0.500000 -0.750000    0.00057870  72 t-inv F
 -0.750000 -0.500000 -0.416667    0.00057870  72 t-inv F
 -0.250000 -0.333333 -0.750000    0.00057870  72 t-inv F
  0.083333  0.333333 -0.416667    0.00057870  72 t-inv F
  0.083333  0.416667 -0.250000    0.00057870  73 t-inv F
 -0.250000  0.416667  0.083333    0.00057870  73 t-inv F
 -0.666667 -0.333333 -0.250000    0.00057870  73 t-inv F
 -0.333333 -0.416667 -0.666667    0.00057870  73 t-inv F
 -0.666667 -0.416667 -0.333333    0.00057870  73 t-inv F
 -0.250000 -0.333333 -0.666667    0.00057870  73 t-inv F
  0.083333  0.333333 -0.333333    0.00057870  73 t-inv F
  0.083333  0.333333 -0.250000    0.00057870  74 t-inv F
 -0.583333 -0.333333 -0.250000    0.00057870  74 t-inv F
 -0.250000 -0.333333 -0.583333    0.00057870  74 t-inv F
  0.083333 -0.083333 -0.333333    0.00057870  75 t-inv F
 -0.333333 -0.083333  0.083333    0.00057870  75 t-inv F
 -0.250000 -0.416667 -0.333333    0.00057870  75 t-inv F
  0.166667  0.083333 -0.250000    0.00057870  75 t-inv F
 -0.250000  0.083333  0.166667    0.00057870  75 t-inv F
 -0.333333 -0.416667 -0.250000    0.00057870  75 t-inv F
  0.083333  0.416667  0.166667    0.00057870  75 t-inv F
  0.083333 -0.166667 -0.333333    0.00057870  76 t-inv F
 -0.333333 -0.166667  0.083333    0.00057870  76 t-inv F
 -0.166667 -0.416667 -0.333333    0.00057870  76 t-inv F
  0.250000  0.166667 -0.166667    0.00057870  76 t-inv F
 -0.166667  0.166667  0.250000    0.00057870  76 t-inv F
 -0.333333 -0.416667 -0.166667    0.00057870  76 t-inv F
  0.083333  0.416667  0.250000    0.00057870  76 t-inv F
  0.083333 -0.250000 -0.333333    0.00057870  77 t-inv F
 -0.333333 -0.250000  0.083333    0.00057870  77 t-inv F
 -0.083333 -0.416667 -0.333333    0.00057870  77 t-inv F
  0.333333  0.250000 -0.083333    0.00057870  77 t-inv F
 -0.083333  0.250000  0.333333    0.00057870  77 t-inv F
 -0.333333 -0.416667 -0.083333    0.00057870  77 t-inv F
  0.083333  0.416667  0.333333    0.00057870  77 t-inv F
  0.083333 -0.416667 -0.333333    0.00057870  78 t-inv F
 -0.333333 -0.416667  0.083333    0.00057870  78 t-inv F
  0.083333  0.416667  0.500000    0.00057870  78 t-inv F
  0.083333  0.500000 -0.333333    0.00057870  79 t-inv F
 -0.333333  0.500000  0.083333    0.00057870  79 t-inv F
 -0.833333 -0.416667 -0.333333    0.00057870  79 t-inv F
 -0.416667 -0.500000 -0.833333    0.00057870  79 t-inv F
 -0.833333 -0.500000 -0.416667    0.00057870  79 t-inv F
 -0.333333 -0.416667 -0.833333    0.00057870  79 t-inv F
  0.083333  0.416667 -0.416667    0.00057870  79 t-inv F
  0.083333  0.416667 -0.333333    0.00057870  80 t-inv F
 -0.750000 -0.416667 -0.333333    0.00057870  80 t-inv F
 -0.333333 -0.416667 -0.750000    0.00057870  80 t-inv F
  0.083333 -0.083333 -0.416667    0.00057870  81 t-inv F
 -0.416667 -0.083333  0.083333    0.00057870  81 t-inv F
 -0.333333 -0.500000 -0.416667    0.00057870  81 t-inv F
  0.166667  0.083333 -0.333333    0.00057870  81 t-inv F
 -0.333333  0.083333  0.166667    0.00057870  81 t-inv F
 -0.416667 -0.500000 -0.333333    0.00057870  81 t-inv F
  0.083333  0.500000  0.166667    0.00057870  81 t-inv F
  0.083333 -0.166667 -0.416667    0.00057870  82 t-inv F
 -0.416667 -0.166667  0.083333    0.00057870  82 t-inv F
 -0.250000 -0.500000 -0.416667    0.00057870  82 t-inv F
  0.250000  0.166667 -0.250000    0.00057870  82 t-inv F
 -0.250000  0.166667  0.250000    0.00057870  82 t-inv F
 -0.416667 -0.500000 -0.250000    0.00057870  82 t-inv F
  0.083333  0.500000  0.250000    0.00057870  82 t-inv F
  0.083333 -0.250000 -0.416667    0.00057870  83 t-inv F
 -0.416667 -0.250000  0.083333    0.00057870  83 t-inv F
 -0.166667 -0.500000 -0.416667    0.00057870  83 t-inv F
  0.333333  0.250000 -0.166667    0.00057870  83 t-inv F
 -0.166667  0.250000  0.333333    0.00057870  83 t-inv F
 -0.416667 -0.500000 -0.166667    0.00057870  83 t-inv F
  0.083333  0.500000  0.333333    0.00057870  83 t-inv F
  0.083333 -0.333333 -0.416667    0.00057870  84 t-inv F
 -0.416667 -0.333333  0.083333    0.00057870  84 t-inv F
 -0.083333 -0.500000 -0.416667    0.00057870  84 t-inv F
  0.416667  0.333333 -0.083333    0.00057870  84 t-inv F
 -0.083333  0.333333  0.416667    0.00057870  84 t-inv F
 -0.416667 -0.500000 -0.083333    0.00057870  84 t-inv F
  0.083333  0.500000  0.416667    0.00057870  84 t-inv F
  0.083333  0.500000 -0.416667    0.00057870  85 t-inv F
  0.083333 -0.083333  0.500000    0.00057870  86 t-inv F
  0.500000 -0.083333  0.083333    0.00057870  86 t-inv F
  0.583333  0.416667  0.500000    0.00057870  86 t-inv F
  0.166667  0.083333  0.583333    0.00057870  86 t-inv F
  0.583333  0.083333  0.166667    0.00057870  86 t-inv F
  0.500000  0.416667  0.583333    0.00057870  86 t-inv F
  0.083333 -0.416667  0.166667    0.00057870  86 t-inv F
  0.083333 -0.166667  0.500000    0.00057870  87 t-inv F
  0.500000 -0.166667  0.083333    0.00057870  87 t-inv F
  0.666667  0.416667  0.500000    0.00057870  87 t-inv F
  0.250000  0.166667  0.666667    0.00057870  87 t-inv F
  0.666667  0.166667  0.250000    0.00057870  87 t-inv F
  0.500000  0.416667  0.666667    0.00057870  87 t-inv F
  0.083333 -0.416667  0.250000    0.00057870  87 t-inv F
  0.083333 -0.250000  0.500000    0.00057870  88 t-inv F
  0.500000 -0.250000  0.083333    0.00057870  88 t-inv F
  0.750000  0.416667  0.500000    0.00057870  88 t-inv F
  0.333333  0.250000  0.750000    0.00057870  88 t-inv F
  0.750000  0.250000  0.333333    0.00057870  88 t-inv F
  0.500000  0.416667  0.750000    0.00057870  88 t-inv F
  0.083333 -0.416667  0.333333    0.00057870  88 t-inv F
  0.083333 -0.333333  0.500000    0.00057870  89 t-inv F
  0.500000 -0.333333  0.083333    0.00057870  89 t-inv F
  0.833333  0.416667  0.500000    0.00057870  89 t-inv F
  0.416667  0.333333  0.833333    0.00057870  89 t-inv F
  0.833333  0.333333  0.416667    0.00057870  89 t-inv F
  0.500000  0.416667  0.833333    0.00057870  89 t-inv F
  0.083333 -0.416667  0.416667    0.00057870  89 t-inv F
  0.083333 -0.416667  0.500000    0.00057870  90 t-inv F
  0.916667  0.416667  0.500000    0.00057870  90 t-inv F
  0.500000  0.416667  0.916667    0.00057870  90 t-inv F
  0.083333 -0.083333  0.416667    0.00057870  91 t-inv F
  0.416667 -0.083333  0.083333    0.00057870  91 t-inv F
  0.500000  0.333333  0.416667    0.00057870  91 t-inv F
  0.166667  0.083333  0.500000    0.00057870  91 t-inv F
  0.500000  0.083333  0.166667    0.00057870  91 t-inv F
  0.416667  0.333333  0.500000    0.00057870  91 t-inv F
  0.083333 -0.333333  0.166667    0.00057870  91 t-inv F
  0.083333 -0.166667  0.416667    0.00057870  92 t-inv F
  0.416667 -0.166667  0.083333    0.00057870  92 t-inv F
  0.583333  0.333333  0.416667    0.00057870  92 t-inv F
  0.250000  0.166667  0.583333    0.00057870  92 t-inv F
  0.583333  0.166667  0.250000    0.00057870  92 t-inv F
  0.416667  0.333333  0.583333    0.00057870  92 t-inv F
  0.083333 -0.333333  0.250000    0.00057870  92 t-inv F
  0.083333 -0.250000  0.416667    0.00057870  93 t-inv F
  0.416667 -0.250000  0.083333    0.00057870  93 t-inv F
  0.666667  0.333333  0.416667    0.00057870  93 t-inv F
  0.333333  0.250000  0.666667    0.00057870  93 t-inv F
  0.666667  0.250000  0.333333    0.00057870  93 t-inv F
  0.416667  0.333333  0.666667    0.00057870  93 t-inv F
  0.083333 -0.333333  0.333333    0.00057870  93 t-inv F
  0.083333 -0.333333  0.416667    0.00057870  94 t-inv F
  0.750000  0.333333  0.416667    0.00057870  94 t-inv F
  0.416667  0.333333  0.750000    0.00057870  94 t-inv F
  0.083333 -0.083333  0.333333    0.00057870  95 t-inv F
  0.333333 -0.083333  0.083333    0.00057870  95 t-inv F
  0.416667  0.250000  0.333333    0.00057870  95 t-inv F
  0.166667  0.083333  0.416667    0.00057870  95 t-inv F
  0.416667  0.083333  0.166667    0.00057870  95 t-inv F
  0.333333  0.250000  0.416667    0.00057870  95 t-inv F
  0.083333 -0.250000  0.166667    0.00057870  95 t-inv F
  0.083333 -0.166667  0.333333    0.00057870  96 t-inv F
  0.333333 -0.166667  0.083333    0.00057870  96 t-inv F
  0.500000  0.250000  0.333333    0.00057870  96 t-inv F
  0.250000  0.166667  0.500000    0.00057870  96 t-inv F
  0.500000  0.166667  0.250000    0.00057870  96 t-inv F
  0.333333  0.250000  0.500000    0.00057870  96 t-inv F
  0.083333 -0.250000  0.250000    0.00057870  96 t-inv F
  0.083333 -0.250000  0.333333    0.00057870  97 t-inv F
  0.583333  0.250000  0.333333    0.00057870  97 t-inv F
  0.333333  0.250000  0.583333    0.00057870  97 t-inv F
  0.083333 -0.083333  0.250000    0.00057870  98 t-inv F
  0.250000 -0.083333  0.083333    0.00057870  98 t-inv F
  0.333333  0.166667  0.250000    0.00057870  98 t-inv F
  0.166667  0.083333  0.333333    0.00057870  98 t-inv F
  0.333333  0.083333  0.166667    0.00057870  98 t-inv F
  0.250000  0.166667  0.333333    0.00057870  98 t-inv F
  0.083333 -0.166667  0.166667    0.00057870  98 t-inv F
  0.083333 -0.166667  0.250000    0.00057870  99 t-inv F
  0.416667  0.166667  0.250000    0.00057870  99 t-inv F
  0.250000  0.166667  0.416667    0.00057870  99 t-inv F
  0.083333 -0.083333  0.166667    0.00057870 100 t-inv F
  0.250000  0.083333  0.166667    0.00057870 100 t-inv F
  0.166667  0.083333  0.250000    0.00057870 100 t-inv F
  0.166667 -0.083333  0.166667    0.00057870 102 t-inv F
  0.250000  0.083333  0.250000    0.00057870 102 t-inv F
  0.166667 -0.000000  0.250000    0.00057870 102 t-inv F
  0.166667 -0.166667  0.166667    0.00057870 103 t-inv F
  0.333333  0.166667  0.333333    0.00057870 103 t-inv F
  0.166667 -0.000000  0.333333    0.00057870 103 t-inv F
  0.166667 -0.250000  0.166667    0.00057870 104 t-inv F
  0.416667  0.250000  0.416667    0.00057870 104 t-inv F
  0.166667 -0.000000  0.416667    0.00057870 104 t-inv F
  0.166667 -0.333333  0.166667    0.00057870 105 t-inv F
  0.500000  0.333333  0.500000    0.00057870 105 t-inv F
  0.166667 -0.000000  0.500000    0.00057870 105 t-inv F
  0.166667  0.583333  0.166667    0.00057870 106 t-inv F
 -0.416667 -0.583333 -0.416667    0.00057870 106 t-inv F
  0.166667 -0.000000 -0.416667    0.00057870 106 t-inv F
  0.166667  0.500000  0.166667    0.00057870 107 t-inv F
 -0.333333 -0.500000 -0.333333    0.00057870 107 t-inv F
  0.166667 -0.000000 -0.333333    0.00057870 107 t-inv F
  0.166667  0.416667  0.166667    0.00057870 108 t-inv F
 -0.250000 -0.416667 -0.250000    0.00057870 108 t-inv F
  0.166667 -0.000000 -0.250000    0.00057870 108 t-inv F
  0.166667  0.333333  0.166667    0.00057870 109 t-inv F
 -0.166667 -0.333333 -0.166667    0.00057870 109 t-inv F
  0.166667 -0.000000 -0.166667    0.00057870 109 t-inv F
  0.166667 -0.333333 -0.166667    0.00057870 110 t-inv F
 -0.166667 -0.333333  0.166667    0.00057870 110 t-inv F
  0.166667  0.333333  0.500000    0.00057870 110 t-inv F
  0.166667  0.583333 -0.166667    0.00057870 111 t-inv F
 -0.166667  0.583333  0.166667    0.00057870 111 t-inv F
 -0.750000 -0.333333 -0.166667    0.00057870 111 t-inv F
 -0.416667 -0.583333 -0.750000    0.00057870 111 t-inv F
 -0.750000 -0.583333 -0.416667    0.00057870 111 t-inv F
 -0.166667 -0.333333 -0.750000    0.00057870 111 t-inv F
  0.166667  0.333333 -0.416667    0.00057870 111 t-inv F
  0.166667  0.500000 -0.166667    0.00057870 112 t-inv F
 -0.166667  0.500000  0.166667    0.00057870 112 t-inv F
 -0.666667 -0.333333 -0.166667    0.00057870 112 t-inv F
 -0.333333 -0.500000 -0.666667    0.00057870 112 t-inv F
 -0.666667 -0.500000 -0.333333    0.00057870 112 t-inv F
 -0.166667 -0.333333 -0.666667    0.00057870 112 t-inv F
  0.166667  0.333333 -0.333333    0.00057870 112 t-inv F
  0.166667 -0.083333 -0.250000    0.00057870 113 t-inv F
 -0.250000 -0.083333  0.166667    0.00057870 113 t-inv F
 -0.166667 -0.416667 -0.250000    0.00057870 113 t-inv F
  0.250000  0.083333 -0.166667    0.00057870 113 t-inv F
 -0.166667  0.083333  0.250000    0.00057870 113 t-inv F
 -0.250000 -0.416667 -0.166667    0.00057870 113 t-inv F
  0.166667  0.416667  0.250000    0.00057870 113 t-inv F
  0.166667  0.583333 -0.250000    0.00057870 114 t-inv F
 -0.250000  0.583333  0.166667    0.00057870 114 t-inv F
 -0.833333 -0.583333 -0.416667    0.00057870 114 t-inv F
  0.166667  0.500000 -0.250000    0.00057870 115 t-inv F
 -0.250000  0.500000  0.166667    0.00057870 115 t-inv F
 -0.750000 -0.416667 -0.250000    0.00057870 115 t-inv F
 -0.333333 -0.500000 -0.750000    0.00057870 115 t-inv F
 -0.750000 -0.500000 -0.333333    0.00057870 115 t-inv F
 -0.250000 -0.416667 -0.750000    0.00057870 115 t-inv F
  0.166667  0.416667 -0.333333    0.00057870 115 t-inv F
  0.166667  0.416667 -0.250000    0.00057870 116 t-inv F
 -0.666667 -0.416667 -0.250000    0.00057870 116 t-inv F
 -0.250000 -0.416667 -0.666667    0.00057870 116 t-inv F
  0.166667 -0.083333 -0.333333    0.00057870 117 t-inv F
 -0.333333 -0.083333  0.166667    0.00057870 117 t-inv F
 -0.250000 -0.500000 -0.333333    0.00057870 117 t-inv F
  0.250000  0.083333 -0.250000    0.00057870 117 t-inv F
 -0.250000  0.083333  0.250000    0.00057870 117 t-inv F
 -0.333333 -0.500000 -0.250000    0.00057870 117 t-inv F
  0.166667  0.500000  0.250000    0.00057870 117 t-inv F
  0.166667 -0.166667 -0.333333    0.00057870 118 t-inv F
 -0.333333 -0.166667  0.166667    0.00057870 118 t-inv F
 -0.166667 -0.500000 -0.333333    0.00057870 118 t-inv F
  0.333333  0.166667 -0.166667    0.00057870 118 t-inv F
 -0.166667  0.166667  0.333333    0.00057870 118 t-inv F
 -0.333333 -0.500000 -0.166667    0.00057870 118 t-inv F
  0.166667  0.500000  0.333333    0.00057870 118 t-inv F
  0.166667  0.500000 -0.333333    0.00057870 119 t-inv F
  0.166667 -0.083333  0.583333    0.00057870 120 t-inv F
  0.583333 -0.083333  0.166667    0.00057870 120 t-inv F
  0.666667  0.416667  0.583333    0.00057870 120 t-inv F
  0.250000  0.083333  0.666667    0.00057870 120 t-inv F
  0.666667  0.083333  0.250000    0.00057870 120 t-inv F
  0.583333  0.416667  0.666667    0.00057870 120 t-inv F
  0.166667 -0.416667  0.250000    0.00057870 120 t-inv F
  0.166667 -0.166667  0.583333    0.00057870 121 t-inv F
  0.583333 -0.166667  0.166667    0.00057870 121 t-inv F
  0.750000  0.416667  0.583333    0.00057870 121 t-inv F
  0.333333  0.166667  0.750000    0.00057870 121 t-inv F
  0.750000  0.166667  0.333333    0.00057870 121 t-inv F
  0.583333  0.416667  0.750000    0.00057870 121 t-inv F
  0.166667 -0.416667  0.333333    0.00057870 121 t-inv F
  0.166667 -0.250000  0.583333    0.00057870 122 t-inv F
  0.583333 -0.250000  0.166667    0.00057870 122 t-inv F
  0.833333  0.416667  0.583333    0.00057870 122 t-inv F
  0.416667  0.250000  0.833333    0.00057870 122 t-inv F
  0.833333  0.250000  0.416667    0.00057870 122 t-inv F
  0.583333  0.416667  0.833333    0.00057870 122 t-inv F
  0.166667 -0.416667  0.416667    0.00057870 122 t-inv F
  0.166667 -0.083333  0.500000    0.00057870 123 t-inv F
  0.500000 -0.083333  0.166667    0.00057870 123 t-inv F
  0.583333  0.333333  0.500000    0.00057870 123 t-inv F
  0.250000  0.083333  0.583333    0.00057870 123 t-inv F
  0.583333  0.083333  0.250000    0.00057870 123 t-inv F
  0.500000  0.333333  0.583333    0.00057870 123 t-inv F
  0.166667 -0.333333  0.250000    0.00057870 123 t-inv F
  0.166667 -0.166667  0.500000    0.00057870 124 t-inv F
  0.500000 -0.166667  0.166667    0.00057870 124 t-inv F
  0.666667  0.333333  0.500000    0.00057870 124 t-inv F
  0.333333  0.166667  0.666667    0.00057870 124 t-inv F
  0.666667  0.166667  0.333333    0.00057870 124 t-inv F
  0.500000  0.333333  0.666667    0.00057870 124 t-inv F
  0.166667 -0.333333  0.333333    0.00057870 124 t-inv F
  0.166667 -0.250000  0.500000    0.00057870 125 t-inv F
  0.500000 -0.250000  0.166667    0.00057870 125 t-inv F
  0.750000  0.333333  0.500000    0.00057870 125 t-inv F
  0.416667  0.250000  0.750000    0.00057870 125 t-inv F
  0.750000  0.250000  0.416667    0.00057870 125 t-inv F
  0.500000  0.333333  0.750000    0.00057870 125 t-inv F
  0.166667 -0.333333  0.416667    0.00057870 125 t-inv F
  0.166667 -0.333333  0.500000    0.00057870 126 t-inv F
  0.833333  0.333333  0.500000    0.00057870 126 t-inv F
  0.500000  0.333333  0.833333    0.00057870 126 t-inv F
  0.166667 -0.083333  0.416667    0.00057870 127 t-inv F
  0.416667 -0.083333  0.166667    0.00057870 127 t-inv F
  0.500000  0.250000  0.416667    0.00057870 127 t-inv F
  0.250000  0.083333  0.500000    0.00057870 127 t-inv F
  0.500000  0.083333  0.250000    0.00057870 127 t-inv F
  0.416667  0.250000  0.500000    0.00057870 127 t-inv F
  0.166667 -0.250000  0.250000    0.00057870 127 t-inv F
  0.166667 -0.166667  0.416667    0.00057870 128 t-inv F
  0.416667 -0.166667  0.166667    0.00057870 128 t-inv F
  0.583333  0.250000  0.416667    0.00057870 128 t-inv F
  0.333333  0.166667  0.583333    0.00057870 128 t-inv F
  0.583333  0.166667  0.333333    0.00057870 128 t-inv F
  0.416667  0.250000  0.583333    0.00057870 128 t-inv F
  0.166667 -0.250000  0.333333    0.00057870 128 t-inv F
  0.166667 -0.250000  0.416667    0.00057870 129 t-inv F
  0.666667  0.250000  0.416667    0.00057870 129 t-inv F
  0.416667  0.250000  0.666667    0.00057870 129 t-inv F
  0.166667 -0.083333  0.333333    0.00057870 130 t-inv F
  0.333333 -0.083333  0.166667    0.00057870 130 t-inv F
  0.416667  0.166667  0.333333    0.00057870 130 t-inv F
  0.250000  0.083333  0.416667    0.00057870 130 t-inv F
  0.416667  0.083333  0.250000    0.00057870 130 t-inv F
  0.333333  0.166667  0.416667    0.00057870 130 t-inv F
  0.166667 -0.166667  0.250000    0.00057870 130 t-inv F
  0.166667 -0.166667  0.333333    0.00057870 131 t-inv F
  0.500000  0.166667  0.333333    0.00057870 131 t-inv F
  0.333333  0.166667  0.500000    0.00057870 131 t-inv F
  0.166667 -0.083333  0.250000    0.00057870 132 t-inv F
  0.333333  0.083333  0.250000    0.00057870 132 t-inv F
  0.250000  0.083333  0.333333    0.00057870 132 t-inv F
  0.250000 -0.083333  0.250000    0.00057870 134 t-inv F
  0.333333  0.083333  0.333333    0.00057870 134 t-inv F
  0.250000 -0.000000  0.333333    0.00057870 134 t-inv F
  0.250000 -0.166667  0.250000    0.00057870 135 t-inv F
  0.416667  0.166667  0.416667    0.00057870 135 t-inv F
  0.250000 -0.000000  0.416667    0.00057870 135 t-inv F
  0.250000 -0.250000  0.250000    0.00057870 136 t-inv F
  0.500000  0.250000  0.500000    0.00057870 136 t-inv F
  0.250000 -0.000000  0.500000    0.00057870 136 t-inv F
  0.250000  0.666667  0.250000    0.00057870 137 t-inv F
 -0.416667 -0.666667 -0.416667    0.00057870 137 t-inv F
  0.250000  0.000000 -0.416667    0.00057870 137 t-inv F
  0.250000  0.583333  0.250000    0.00057870 138 t-inv F
 -0.333333 -0.583333 -0.333333    0.00057870 138 t-inv F
  0.250000  0.000000 -0.333333    0.00057870 138 t-inv F
  0.250000  0.500000  0.250000    0.00057870 139 t-inv F
 -0.250000 -0.500000 -0.250000    0.00057870 139 t-inv F
  0.250000 -0.000000 -0.250000    0.00057870 139 t-inv F
  0.250000  0.500000 -0.250000    0.00057870 140 t-inv F
  0.250000 -0.083333  0.666667    0.00057870 141 t-inv F
  0.666667 -0.083333  0.250000    0.00057870 141 t-inv F
  0.750000  0.416667  0.666667    0.00057870 141 t-inv F
  0.333333  0.083333  0.750000    0.00057870 141 t-inv F
  0.750000  0.083333  0.333333    0.00057870 141 t-inv F
  0.666667  0.416667  0.750000    0.00057870 141 t-inv F
  0.250000 -0.416667  0.333333    0.00057870 141 t-inv F
  0.250000 -0.083333  0.583333    0.00057870 142 t-inv F
  0.583333 -0.083333  0.250000    0.00057870 142 t-inv F
  0.666667  0.333333  0.583333    0.00057870 142 t-inv F
  0.333333  0.083333  0.666667    0.00057870 142 t-inv F
  0.666667  0.083333  0.333333    0.00057870 142 t-inv F
  0.583333  0.333333  0.666667    0.00057870 142 t-inv F
  0.250000 -0.333333  0.333333    0.00057870 142 t-inv F
  0.250000 -0.166667  0.583333    0.00057870 143 t-inv F
  0.583333 -0.166667  0.250000    0.00057870 143 t-inv F
  0.750000  0.333333  0.583333    0.00057870 143 t-inv F
  0.416667  0.166667  0.750000    0.00057870 143 t-inv F
  0.750000  0.166667  0.416667    0.00057870 143 t-inv F
  0.583333  0.333333  0.750000    0.00057870 143 t-inv F
  0.250000 -0.333333  0.416667    0.00057870 143 t-inv F
  0.250000 -0.083333  0.500000    0.00057870 144 t-inv F
  0.500000 -0.083333  0.250000    0.00057870 144 t-inv F
  0.583333  0.250000  0.500000    0.00057870 144 t-inv F
  0.333333  0.083333  0.583333    0.00057870 144 t-inv F
  0.583333  0.083333  0.333333    0.00057870 144 t-inv F
[...]
      5       0.0002      0.00000
      6       0.0001      0.00000
      7       0.0002      0.00000
      8       0.0001      0.00000
      9       0.0000      0.00000
     10       0.0000      0.00000
     11      -0.0001      0.00000
     12       0.0000      0.00000
     13       0.0000      0.00000
     14       0.0000      0.00000
     15       0.0001      0.00000
     16       0.0000      0.00000

 k-point 465 :       0.7500    0.2500    0.5000
  band No.  band energies     occupation 
      1      -0.0001      0.00000
      2      -0.0000      0.00000
      3      -0.0001      0.00000
      4      -0.0000      0.00000
      5       0.0002      0.00000
      6       0.0001      0.00000
      7       0.0002      0.00000
      8       0.0001      0.00000
      9       0.0000      0.00000
     10       0.0000      0.00000
     11      -0.0000      0.00000
     12      -0.0000      0.00000
     13      -0.0001      0.00000
     14       0.0000      0.00000
     15       0.0001      0.00000
     16       0.0564      0.00000

 k-point 466 :      -0.1667    0.2500   -0.5000
  band No.  band energies     occupation 
      1      -0.0001      0.00000
      2      -0.0000      0.00000
      3      -0.0001      0.00000
      4      -0.0001      0.00000
      5       0.0002      0.00000
      6       0.0001      0.00000
      7       0.0001      0.00000
      8       0.0002      0.00000
      9       0.0000      0.00000
     10       0.0000      0.00000
     11      -0.0000      0.00000
     12      -0.0000      0.00000
     13      -0.0001      0.00000
     14       0.0000      0.00000
     15       0.0000      0.00000
     16       0.0001      0.00000

 k-point 467 :      -0.0833    0.2500   -0.5000
  band No.  band energies     occupation 
      1      -0.0001      0.00000
      2       0.0000      0.00000
      3      -0.0001      0.00000
      4      -0.0001      0.00000
      5       0.0002      0.00000
      6       0.0001      0.00000
      7       0.0001      0.00000
      8       0.0002      0.00000
      9       0.0000      0.00000
     10       0.0000      0.00000
     11      -0.0000      0.00000
     12      -0.0000      0.00000
     13      -0.0000      0.00000
     14       0.0000      0.00000
     15       0.0000      0.00000
     16       0.0001      0.00000

 k-point 468 :       0.0000    0.3333    0.5000
  band No.  band energies     occupation 
      1      -0.0001      0.00000
      2      -0.0000      0.00000
      3      -0.0001      0.00000
      4      -0.0001      0.00000
      5       0.0002      0.00000
      6       0.0001      0.00000
      7       0.0002      0.00000
      8       0.0002      0.00000
      9       0.0000      0.00000
     10       0.0000      0.00000
     11       0.0000      0.00000
     12      -0.0000      0.00000
     13      -0.0000      0.00000
     14      -0.0000      0.00000
     15       0.0000      0.00000
     16       0.0001      0.00000

 k-point 469 :       0.0833    0.3333    0.5000
  band No.  band energies     occupation 
      1      -0.0001      0.00000
      2       0.0000      0.00000
      3      -0.0001      0.00000
      4      -0.0001      0.00000
      5       0.0002      0.00000
      6       0.0001      0.00000
      7       0.0002      0.00000
      8       0.0001      0.00000
      9       0.0000      0.00000
     10       0.0000      0.00000
     11       0.0000      0.00000
     12       0.0000      0.00000
     13      -0.0001      0.00000
     14       0.0000      0.00000
     15       0.0000      0.00000
     16       0.0000      0.00000

 k-point 470 :       0.1667    0.3333    0.5000
  band No.  band energies     occupation 
      1      -0.0001      0.00000
      2       0.0000      0.00000
      3      -0.0001      0.00000
      4      -0.0001      0.00000
      5       0.0002      0.00000
      6       0.0001      0.00000
      7       0.0002      0.00000
      8       0.0001      0.00000
      9       0.0000      0.00000
     10       0.0000      0.00000
     11       0.0000      0.00000
     12      -0.0000      0.00000
     13       0.0000      0.00000
     14       0.0001      0.00000
     15       0.0000      0.00000
     16       0.0000      0.00000

 k-point 471 :       0.8333    0.3333    0.5000
  band No.  band energies     occupation 
      1      -0.0001      0.00000
      2      -0.0000      0.00000
      3      -0.0001      0.00000
      4      -0.0001      0.00000
      5       0.0002      0.00000
      6       0.0001      0.00000
      7       0.0001      0.00000
      8       0.0002      0.00000
      9       0.0000      0.00000
     10      -0.0000      0.00000
     11       0.0000      0.00000
     12      -0.0000      0.00000
     13      -0.0001      0.00000
     14       0.0000      0.00000
     15       0.0001      0.00000
     16       0.0001      0.00000

 k-point 472 :      -0.0833    0.3333   -0.5000
  band No.  band energies     occupation 
      1      -0.0001      0.00000
      2      -0.0000      0.00000
      3      -0.0001      0.00000
      4      -0.0001      0.00000
      5       0.0002      0.00000
      6       0.0001      0.00000
      7       0.0001      0.00000
      8       0.0002      0.00000
      9       0.0000      0.00000
     10       0.0000      0.00000
     11      -0.0000      0.00000
     12      -0.0000      0.00000
     13      -0.0001      0.00000
     14       0.0000      0.00000
     15       0.0000      0.00000
     16       0.0001      0.00000

 k-point 473 :       0.0000    0.4167    0.5000
  band No.  band energies     occupation 
      1      -0.0001      0.00000
      2      -0.0001      0.00000
      3      -0.0001      0.00000
      4      -0.0001      0.00000
      5       0.0002      0.00000
      6       0.0001      0.00000
      7       0.0002      0.00000
      8       0.0002      0.00000
      9       0.0000      0.00000
     10       0.0000      0.00000
     11       0.0000      0.00000
     12      -0.0000      0.00000
     13      -0.0001      0.00000
     14      -0.0000      0.00000
     15       0.0001      0.00000
     16       0.0000      0.00000

 k-point 474 :       0.0833    0.4167    0.5000
  band No.  band energies     occupation 
      1      -0.0001      0.00000
      2      -0.0000      0.00000
      3      -0.0001      0.00000
      4      -0.0001      0.00000
      5       0.0002      0.00000
      6       0.0001      0.00000
      7       0.0002      0.00000
      8       0.0001      0.00000
      9       0.0000      0.00000
     10       0.0000      0.00000
     11       0.0000      0.00000
     12      -0.0000      0.00000
     13      -0.0001      0.00000
     14      -0.0000      0.00000
     15       0.0001      0.00000
     16       0.0000      0.00000

 k-point 475 :       0.9167    0.4167    0.5000
  band No.  band energies     occupation 
      1      -0.0001      0.00000
      2      -0.0001      0.00000
      3      -0.0000      0.00000
      4      -0.0001      0.00000
      5       0.0002      0.00000
      6       0.0001      0.00000
      7       0.0001      0.00000
      8       0.0002      0.00000
      9       0.0000      0.00000
     10       0.0000      0.00000
     11       0.0000      0.00000
     12      -0.0000      0.00000
     13      -0.0000      0.00000
     14      -0.0001      0.00000
     15       0.0001      0.00000
     16       0.0002      0.00000

 k-point 476 :       0.0000   -0.5000   -0.5000
  band No.  band energies     occupation 
      1      -0.0001      0.00000
      2      -0.0001      0.00000
      3      -0.0001      0.00000
      4      -0.0001      0.00000
      5       0.0002      0.00000
      6       0.0001      0.00000
      7       0.0002      0.00000
      8       0.0002      0.00000
      9       0.0000      0.00000
     10       0.0000      0.00000
     11      -0.0000      0.00000
     12      -0.0001      0.00000
     13      -0.0001      0.00000
     14      -0.0000      0.00000
     15       0.0001      0.00000
     16       0.0001      0.00000


------------------------ aborting loop because EDIFF is reached ----------------------------------------


    FORLOC:  cpu time    0.0033: real time    0.0033
    FORNL :  cpu time    0.5062: real time    0.5062
    STRESS:  cpu time    4.6114: real time    4.6348
    FORCOR:  cpu time    0.0222: real time    0.0222
    OFIELD:  cpu time    0.0001: real time    0.0001
    FORLOC:  cpu time    0.0041: real time    0.0041
    FORNL :  cpu time    0.5051: real time    0.5051
    STRESS:  cpu time    4.5713: real time    4.5869
    FORCOR:  cpu time    0.0222: real time    0.0222
    OFIELD:  cpu time    0.0001: real time    0.0001
    FORLOC:  cpu time    0.0047: real time    0.0047
    FORNL :  cpu time    0.4884: real time    0.4884
    STRESS:  cpu time    4.5626: real time    4.5841
    FORCOR:  cpu time    0.0222: real time    0.0222
    OFIELD:  cpu time    0.0001: real time    0.0001
    FORLOC:  cpu time    0.0017: real time    0.0017
    FORNL :  cpu time    0.4968: real time    0.4969
    STRESS:  cpu time    4.5826: real time    4.6080
    FORCOR:  cpu time    0.0228: real time    0.0228
    OFIELD:  cpu time    0.0001: real time    0.0001

 INTERNAL STRAIN TENSOR  FOR ION    2  DIRECTION 2   (eV/Angst):
 -----------------------------------------------------------------------------
     0.00044 -0.00140  0.00000
    -0.00140  0.00058  0.00000
     0.00000  0.00000  0.00004


 POSITION                   FORCE-CONSTANT FOR ION    2 DIRECTION 2 (eV/Angst/Angst)
 -----------------------------------------------------------------------------------
      0.00000      0.00000      0.00000        -0.000002      1.922611     -0.000000
     -3.33362      3.33362      3.33362         0.000002     -1.922611      0.000000
 -----------------------------------------------------------------------------------
    total drift:                                0.000000      0.000000      0.000000


 BORN EFFECTIVE CHARGE FOR ION    2 DIRECTION 2 :  -0.000  -2.595  -0.000
                   rigid augmentation           :   0.000   1.112   0.000
                   ionic contribution           :   0.000   6.000   0.000
                   Berry contribution           :  -0.000  -9.707  -0.000


--------------------------------------------------------------------------------------------------------


  LATTYP: Found a face centered cubic cell.
 ALAT       =     6.6672432606
  
  Lattice vectors:
  
 A1 = (  -3.3336216303,   0.0000000000,   3.3336216303)
 A2 = (   0.0000000000,   3.3336216303,   3.3336216303)
 A3 = (  -3.3336216303,   3.3336216303,   0.0000000000)


Analysis of symmetry for initial positions (statically):
=====================================================================
 Subroutine PRICEL returns:
 Original cell was already a primitive cell.
 

 Routine SETGRP: Setting up the symmetry group for a 
 face centered cubic supercell.


 Subroutine GETGRP returns: Found  8 space group operations
 (whereof  8 operations were pure point group operations)
 out of a pool of 48 trial point group operations.


The static configuration has the point symmetry C_4v.


Analysis of symmetry for dynamics (positions and initial velocities):
=====================================================================
 Subroutine PRICEL returns:
 Original cell was already a primitive cell.
 

 Routine SETGRP: Setting up the symmetry group for a 
 face centered cubic supercell.


 Subroutine GETGRP returns: Found  8 space group operations
 (whereof  8 operations were pure point group operations)
 out of a pool of 48 trial point group operations.


The dynamic configuration has the point symmetry C_4v.


 Subroutine INISYM returns: Found  8 space group operations
 (whereof  8 operations are pure point group operations),
 and found     1 'primitive' translations



--------------------------------------------------------------------------------------------------------




 MACROSCOPIC STATIC DIELECTRIC TENSOR (including local field effects in DFT)
 ------------------------------------------------------
           5.314691     0.000000    -0.000000
           0.000000     5.315298     0.000000
          -0.000000     0.000000     5.315298
 ------------------------------------------------------


 PIEZOELECTRIC TENSOR  for field in x, y, z        (e  Angst)
          XX          YY          ZZ          XY          YZ          ZX
  --------------------------------------------------------------------------------
  x     0.00017     0.00008     0.00008     0.00000     0.00000    -0.00000
  y    -0.00004     0.00010    -0.00013     0.00054     0.00000     0.00000
  z     0.00001    -0.00002     0.00005     0.00000     0.00000    -0.00017

 PIEZOELECTRIC TENSOR  for field in x, y, z        (C/m^2)
          XX          YY          ZZ          XY          YZ          ZX
  --------------------------------------------------------------------------------
  x     0.00004     0.00002     0.00002     0.00000     0.00000    -0.00000
  y     0.00000     0.00000     0.00000     0.00004    -0.00000     0.00000
  z    -0.00000     0.00000     0.00000     0.00000     0.00000     0.00004
 
 BORN EFFECTIVE CHARGES (in e, cummulative output)
 -------------------------------------------------
 ion    1
    1     2.59490     0.00000     0.00000
    2    -0.00007     2.59524     0.00000
    3     0.00002     0.00000     2.59513
 ion    2
    1    -2.59490    -0.00000    -0.00000
    2     0.00007    -2.59524    -0.00000
    3    -0.00002    -0.00000    -2.59513

 INTERNAL STRAIN TENSOR FOR ION    1 for displacements in x,y,z  (eV/Angst):
          X           Y           Z          XY          YZ          ZX
  --------------------------------------------------------------------------------
  x     0.00205    -0.00024    -0.00024     0.00000    -0.00000    -0.00000
  y    -0.00000     0.00000     0.00000    -0.00126     0.00000    -0.00000
  z     0.00000    -0.00000     0.00000    -0.00000    -0.00000    -0.00126

 INTERNAL STRAIN TENSOR FOR ION    2 for displacements in x,y,z  (eV/Angst):
          X           Y           Z          XY          YZ          ZX
  --------------------------------------------------------------------------------
  x    -0.00140    -0.00013    -0.00013    -0.00000    -0.00000     0.00000
  y     0.00000     0.00000     0.00000    -0.00140     0.00000    -0.00000
  z    -0.00000     0.00000     0.00000    -0.00000    -0.00000    -0.00140


--------------------------------------------------------------------------------------------------------


 
 SECOND DERIVATIVES (NOT SYMMETRIZED)
 ------------------------------------
               1X          1Y          1Z          2X          2Y          2Z 
  1X    -1.928352   -0.000000    0.000000    1.928352    0.000000   -0.000000
  1Y    -0.000000   -1.928685   -0.000000    0.000000    1.928685    0.000000
  1Z     0.000000   -0.000000   -1.928685   -0.000000    0.000000    1.928685
  2X     1.922864    0.000000   -0.000000   -1.922864   -0.000000    0.000000
  2Y     0.000000    1.922611    0.000000   -0.000000   -1.922611   -0.000000
  2Z    -0.000000    0.000000    1.922611    0.000000   -0.000000   -1.922611
 
 
 Eigenvectors and eigenvalues of the dynamical matrix
 ----------------------------------------------------
 
 
   1 f  =    3.063267 THz    19.247076 2PiTHz  102.179596 cm-1    12.668660 meV
             X         Y         Z           dx          dy          dz
      0.000000  0.000000  0.000000    -0.604757    0.000000   -0.000000  
     -3.333621  3.333622  3.333622     0.796410   -0.000000   -0.000000  
 
   2 f  =    3.063236 THz    19.246882 2PiTHz  102.178566 cm-1    12.668532 meV
             X         Y         Z           dx          dy          dz
      0.000000  0.000000  0.000000     0.000000    0.604816   -0.000000  
     -3.333621  3.333622  3.333622    -0.000000   -0.796365   -0.000000  
 
   3 f  =    3.063236 THz    19.246882 2PiTHz  102.178566 cm-1    12.668532 meV
             X         Y         Z           dx          dy          dz
      0.000000  0.000000  0.000000     0.000000   -0.000000   -0.604816  
     -3.333621  3.333622  3.333622    -0.000000   -0.000000    0.796365  
 
   4 f/i=    0.002103 THz     0.013211 2PiTHz    0.070137 cm-1     0.008696 meV
             X         Y         Z           dx          dy          dz
      0.000000  0.000000  0.000000     0.796410   -0.000000    0.000000  
     -3.333621  3.333622  3.333622     0.604757   -0.000000    0.000000  
 
   5 f/i=    0.002327 THz     0.014619 2PiTHz    0.077610 cm-1     0.009622 meV
             X         Y         Z           dx          dy          dz
      0.000000  0.000000  0.000000     0.000000    0.794783    0.050172  
     -3.333621  3.333622  3.333622     0.000000    0.603614    0.038104  
 
   6 f/i=    0.002327 THz     0.014619 2PiTHz    0.077610 cm-1     0.009622 meV
             X         Y         Z           dx          dy          dz
      0.000000  0.000000  0.000000    -0.000000   -0.050172    0.794783  
     -3.333621  3.333622  3.333622    -0.000000   -0.038104    0.603614  
 


--------------------------------------------------------------------------------------------------------




 MACROSCOPIC STATIC DIELECTRIC TENSOR IONIC CONTRIBUTION
 ------------------------------------------------------
           8.540051    -0.000234     0.000055
          -0.000234     8.542109    -0.000000
           0.000055    -0.000000     8.541372
 ------------------------------------------------------


 ELASTIC MODULI IONIC CONTR (kBar)
 Direction    XX          YY          ZZ          XY          YZ          ZX
 --------------------------------------------------------------------------------
 XX          -0.0000      0.0000      0.0000      0.0000      0.0000     -0.0000
 YY           0.0000     -0.0000     -0.0000     -0.0000     -0.0000      0.0000
 ZZ           0.0000     -0.0000     -0.0000     -0.0000     -0.0000      0.0000
 XY           0.0000     -0.0000     -0.0000     -0.0000      0.0000     -0.0000
 YZ           0.0000     -0.0000     -0.0000      0.0000     -0.0000     -0.0000
 ZX          -0.0000      0.0000      0.0000     -0.0000     -0.0000     -0.0000
 --------------------------------------------------------------------------------


 PIEZOELECTRIC TENSOR IONIC CONTR  for field in x, y, z        (C/m^2)
          XX          YY          ZZ          XY          YZ          ZX
  --------------------------------------------------------------------------------
  x     0.00050    -0.00001    -0.00001    -0.00000    -0.00000     0.00000
  y    -0.00000     0.00000     0.00000     0.00002    -0.00000     0.00000
  z     0.00000    -0.00000    -0.00000    -0.00000     0.00000     0.00002


--------------------------------------------------------------------------------------------------------


     LOOP+:  cpu time  764.2828: real time  768.4061
    4ORBIT:  cpu time    0.0000: real time    0.0000

 total amount of memory used by VASP MPI-rank0   141781. kBytes
=======================================================================

   base      :      30000. kBytes
   nonl-proj :      94703. kBytes
   fftplans  :       1814. kBytes
   grid      :       4551. kBytes
   one-center:         31. kBytes
   wavefun   :      10682. kBytes
 
  
  
 General timing and accounting informations for this job:
 ========================================================
  
                  Total CPU time used (sec):      768.035
                            User time (sec):      754.084
                          System time (sec):       13.951
                         Elapsed time (sec):      772.264
  
                   Maximum memory used (kb):      736476.
                   Average memory used (kb):           0.
  
                          Minor page faults:      1427557
                          Major page faults:           14
                 Voluntary context switches:        10604
