 
             +---------------------------------------------------+
             |                                                   |
             |                   WANNIER90                       |
             |                                                   |
             +---------------------------------------------------+
             |                                                   |
             |        Welcome to the Maximally-Localized         |
             |        Generalized Wannier Functions code         |
             |            http://www.wannier.org                 |
             |                                                   |
             |                                                   |
             |  Wannier90 Developer Group:                       |
             |    Giovanni Pizzi    (EPFL)                       |
             |    Valerio Vitale    (Cambridge)                  |
             |    David Vanderbilt  (Rutgers University)         |
             |    Nicola Marzari    (EPFL)                       |
             |    Ivo Souza         (Universidad del Pais Vasco) |
             |    Arash A. Mostofi  (Imperial College London)    |
             |    Jonathan R. Yates (University of Oxford)       |
             |                                                   |
             |  For the full list of Wannier90 3.x authors,      |
             |  please check the code documentation and the      |
             |  README on the GitHub page of the code            |
             |                                                   |
             |                                                   |
             |  Please cite                                      |
             |                                                   |
             |  [ref] "Wannier90 as a community code:            |
             |        new features and applications",            |
             |        G. Pizzi et al., J. Phys. Cond. Matt. 32,  |
             |        165902 (2020).                             |
             |        http://doi.org/10.1088/1361-648X/ab51ff    |
             |                                                   |
             |  in any publications arising from the use of      |
             |  this code. For the method please cite            |
             |                                                   |
             |  [ref] "Maximally Localized Generalised Wannier   |
             |         Functions for Composite Energy Bands"     |
             |         N. Marzari and D. Vanderbilt              |
             |         Phys. Rev. B 56 12847 (1997)              |
             |                                                   |
             |  [ref] "Maximally Localized Wannier Functions     |
             |         for Entangled Energy Bands"               |
             |         I. Souza, N. Marzari and D. Vanderbilt    |
             |         Phys. Rev. B 65 035109 (2001)             |
             |                                                   |
             |                                                   |
             | Copyright (c) 1996-2020                           |
             |        The Wannier90 Developer Group and          |
             |        individual contributors                    |
             |                                                   |
             |      Release: 3.1.0        5th March    2020      |
             |                                                   |
             | This program is free software; you can            |
             | redistribute it and/or modify it under the terms  |
             | of the GNU General Public License as published by |
             | the Free Software Foundation; either version 2 of |
             | the License, or (at your option) any later version|
             |                                                   |
             | This program is distributed in the hope that it   |
             | will be useful, but WITHOUT ANY WARRANTY; without |
             | even the implied warranty of MERCHANTABILITY or   |
             | FITNESS FOR A PARTICULAR PURPOSE. See the GNU     |
             | General Public License for more details.          |
             |                                                   |
             | You should have received a copy of the GNU General|
             | Public License along with this program; if not,   |
             | write to the Free Software Foundation, Inc.,      |
             | 675 Mass Ave, Cambridge, MA 02139, USA.           |
             |                                                   |
             +---------------------------------------------------+
             |    Execution started on  8Apr2024 at 15:12:23     |
             +---------------------------------------------------+
 
 ******************************************************************************
 * -> Using CODATA 2006 constant values                                       *
 *    (http://physics.nist.gov/cuu/Constants/index.html)                      *
 * -> Using Bohr value from CODATA                                            *
 ******************************************************************************
 

 Running in parallel on  16 CPUs

 
                                    ------
                                    SYSTEM
                                    ------
 
                              Lattice Vectors (Ang)
                    a_1    -2.285894   0.000000   2.285894
                    a_2     0.000000   2.285894   2.285894
                    a_3    -2.285894   2.285894   0.000000
 
                   Unit Cell Volume:      23.88902  (Ang^3)
 
                        Reciprocal-Space Vectors (Ang^-1)
                    b_1    -1.374339  -1.374339   1.374339
                    b_2     1.374339   1.374339   1.374339
                    b_3    -1.374339   1.374339  -1.374339
  
 *----------------------------------------------------------------------------*
 |   Site       Fractional Coordinate          Cartesian Coordinate (Ang)     |
 +----------------------------------------------------------------------------+
 | Na   1   0.00000   0.00000   0.00000   |    0.00000   0.00000   0.00000    |
 | F    1   0.50000   0.50000   0.50000   |   -2.28589   2.28589   2.28589    |
 *----------------------------------------------------------------------------*
                                ------------
                                K-POINT GRID
                                ------------
  
             Grid size = 12 x 12 x 12      Total points = 1728
  
  
 *---------------------------------- MAIN ------------------------------------*
 |  Number of Wannier Functions               :                 3             |
 |  Number of Objective Wannier Functions     :                 3             |
 |  Number of input Bloch states              :                 3             |
 |  Output verbosity (1=low, 5=high)          :                 1             |
 |  Timing Level (1=low, 5=high)              :                 1             |
 |  Optimisation (0=memory, 3=speed)          :                 3             |
 |  Length Unit                               :               Ang             |
 |  Post-processing setup (write *.nnkp)      :                 F             |
 |  Using Gamma-only branch of algorithms     :                 F             |
 *----------------------------------------------------------------------------*
 *------------------------------- WANNIERISE ---------------------------------*
 |  Total number of iterations                :               500             |
 |  Number of CG steps before reset           :                 5             |
 |  Trial step length for line search         :             2.000             |
 |  Convergence tolerence                     :         0.100E-09             |
 |  Convergence window                        :                -1             |
 |  Iterations between writing output         :                 1             |
 |  Iterations between backing up to disk     :               100             |
 |  Write r^2_nm to file                      :                 F             |
 |  Write xyz WF centres to file              :                 F             |
 |  Write on-site energies <0n|H|0n> to file  :                 F             |
 |  Use guiding centre to control phases      :                 F             |
 |  Use phases for initial projections        :                 F             |
 *----------------------------------------------------------------------------*
 Time to read parameters        0.164 (sec)

 *---------------------------------- K-MESH ----------------------------------*
 +----------------------------------------------------------------------------+
 |                    Distance to Nearest-Neighbour Shells                    |
 |                    ------------------------------------                    |
 |          Shell             Distance (Ang^-1)          Multiplicity         |
 |          -----             -----------------          ------------         |
 |             1                   0.198369                      8            |
 |             2                   0.229056                      6            |
 |             3                   0.323935                     12            |
 |             4                   0.379847                     24            |
 |             5                   0.396737                      8            |
 |             6                   0.458113                      6            |
 |             7                   0.499217                     24            |
 |             8                   0.512186                     24            |
 |             9                   0.561071                     24            |
 |            10                   0.595106                     32            |
 |            11                   0.647870                     12            |
 |            12                   0.677558                     48            |
 |            13                   0.687169                     30            |
 |            14                   0.724340                     24            |
 |            15                   0.751012                     24            |
 |            16                   0.759694                     24            |
 |            17                   0.793475                      8            |
 |            18                   0.817895                     48            |
 |            19                   0.825875                     24            |
 |            20                   0.857051                     48            |
 |            21                   0.879708                     72            |
 |            22                   0.916226                      6            |
 |            23                   0.937454                     24            |
 |            24                   0.944424                     48            |
 |            25                   0.971804                     36            |
 |            26                   0.991844                     56            |
 |            27                   0.998434                     24            |
 |            28                   1.024372                     24            |
 |            29                   1.043402                     72            |
 |            30                   1.049669                     48            |
 |            31                   1.074370                     24            |
 |            32                   1.092530                     48            |
 |            33                   1.122143                     24            |
 |            34                   1.139541                     72            |
 |            35                   1.145282                     30            |
 |            36                   1.167963                     72            |
 +----------------------------------------------------------------------------+
 | The b-vectors are chosen automatically                                     |
 | The following shells are used:   1                                         |
 +----------------------------------------------------------------------------+
 |                        Shell   # Nearest-Neighbours                        |
 |                        -----   --------------------                        |
 |                          1               8                                 |
 +----------------------------------------------------------------------------+
 | Completeness relation is fully satisfied [Eq. (B1), PRB 56, 12847 (1997)]  |
 +----------------------------------------------------------------------------+
 |                  b_k Vectors (Ang^-1) and Weights (Ang^2)                  |
 |                  ----------------------------------------                  |
 |            No.         b_k(x)      b_k(y)      b_k(z)        w_b           |
 |            ---        --------------------------------     --------        |
 |             1        -0.114528    0.114528   -0.114528     9.529826        |
 |             2         0.114528    0.114528    0.114528     9.529826        |
 |             3        -0.114528   -0.114528    0.114528     9.529826        |
 |             4        -0.114528    0.114528    0.114528     9.529826        |
 |             5         0.114528   -0.114528    0.114528     9.529826        |
 |             6        -0.114528   -0.114528   -0.114528     9.529826        |
 |             7         0.114528    0.114528   -0.114528     9.529826        |
 |             8         0.114528   -0.114528   -0.114528     9.529826        |
 +----------------------------------------------------------------------------+
 |                           b_k Directions (Ang^-1)                          |
 |                           -----------------------                          |
 |            No.           x           y           z                         |
 |            ---        --------------------------------                     |
 |             1        -0.114528    0.114528   -0.114528                     |
 |             2         0.114528    0.114528    0.114528                     |
 |             3        -0.114528   -0.114528    0.114528                     |
 |             4        -0.114528    0.114528    0.114528                     |
 +----------------------------------------------------------------------------+
  
 Time to get kmesh              0.719 (sec)
 *============================================================================*
 |                              MEMORY ESTIMATE                               |
 |         Maximum RAM allocated during each phase of the calculation         |
 *============================================================================*
 |                            Wannierise:            7.00 Mb                  |
 |                          plot_wannier:            7.00 Mb                  |
 *----------------------------------------------------------------------------*
  
 Starting a new Wannier90 calculation ...


 Reading overlaps from mp-682.mmn    :  Created on  8Apr2024 at 15:12:14

 Reading projections from mp-682.amn :  Created on  8Apr2024 at 15:12:13  with SCDM

 Time to read overlaps          0.095 (sec)

 Writing checkpoint file mp-682.chk... done

 
 *------------------------------- WANNIERISE ---------------------------------*
 +--------------------------------------------------------------------+<-- CONV
 | Iter  Delta Spread     RMS Gradient      Spread (Ang^2)      Time  |<-- CONV
 +--------------------------------------------------------------------+<-- CONV
 
 ------------------------------------------------------------------------------
 Initial State
  WF centre and spread    1  ( -0.000293, -2.286519,  0.000008 )     0.62581047
  WF centre and spread    2  ( -0.000361,  0.000578, -2.286083 )     0.62548004
  WF centre and spread    3  (  2.286595,  0.000024,  0.000099 )     0.62694089
  Sum of centres and spreads (  2.285942, -2.285917, -2.285975 )     1.87823140
 
      0     0.188E+01     0.0000000000        1.8782326571       0.00  <-- CONV
        O_D=      0.0109739 O_OD=      0.0149366 O_TOT=      1.8782327 <-- SPRD
 ------------------------------------------------------------------------------
 Cycle:      1
  WF centre and spread    1  ( -0.000041, -2.285976,  0.000001 )     0.61941641
  WF centre and spread    2  ( -0.000047,  0.000074, -2.285919 )     0.61937684
  WF centre and spread    3  (  2.285989,  0.000005,  0.000014 )     0.61962078
  Sum of centres and spreads (  2.285901, -2.285897, -2.285904 )     1.85841403
 
      1    -0.198E-01     0.0234775683        1.8584152823       0.01  <-- CONV
        O_D=      0.0011404 O_OD=      0.0049527 O_TOT=      1.8584153 <-- SPRD
 Delta: O_D= -0.9833439E-02 O_OD= -0.9983936E-02 O_TOT= -0.1981737E-01 <-- DLTA
 ------------------------------------------------------------------------------
 Cycle:      2
  WF centre and spread    1  ( -0.000024, -2.285942,  0.000000 )     0.61903984
  WF centre and spread    2  ( -0.000028,  0.000044, -2.285908 )     0.61900074
  WF centre and spread    3  (  2.285950,  0.000002,  0.000008 )     0.61920257
  Sum of centres and spreads (  2.285898, -2.285896, -2.285900 )     1.85724314
 
      2    -0.117E-02     0.0205509667        1.8572443935       0.01  <-- CONV
        O_D=      0.0006023 O_OD=      0.0043199 O_TOT=      1.8572444 <-- SPRD
 Delta: O_D= -0.5380969E-03 O_OD= -0.6327919E-03 O_TOT= -0.1170889E-02 <-- DLTA
 ------------------------------------------------------------------------------
 Cycle:      3
  WF centre and spread    1  ( -0.000014, -2.285922,  0.000000 )     0.61883687
  WF centre and spread    2  ( -0.000016,  0.000025, -2.285902 )     0.61880880
  WF centre and spread    3  (  2.285926,  0.000002,  0.000005 )     0.61896755
  Sum of centres and spreads (  2.285897, -2.285895, -2.285897 )     1.85661323
 
      3    -0.630E-03     0.0110724888        1.8566144836       0.02  <-- CONV
        O_D=      0.0002812 O_OD=      0.0040111 O_TOT=      1.8566145 <-- SPRD
 Delta: O_D= -0.3211060E-03 O_OD= -0.3088039E-03 O_TOT= -0.6299099E-03 <-- DLTA
 ------------------------------------------------------------------------------
 Cycle:      4
  WF centre and spread    1  ( -0.000006, -2.285907, -0.000000 )     0.61870379
  WF centre and spread    2  ( -0.000007,  0.000011, -2.285898 )     0.61867841
  WF centre and spread    3  (  2.285909,  0.000001,  0.000002 )     0.61881924
  Sum of centres and spreads (  2.285896, -2.285895, -2.285896 )     1.85620144
 
      4    -0.412E-03     0.0100173859        1.8562026932       0.02  <-- CONV
        O_D=      0.0000962 O_OD=      0.0037843 O_TOT=      1.8562027 <-- SPRD
 Delta: O_D= -0.1850733E-03 O_OD= -0.2267171E-03 O_TOT= -0.4117904E-03 <-- DLTA
 ------------------------------------------------------------------------------
 Cycle:      5
  WF centre and spread    1  ( -0.000003, -2.285902, -0.000000 )     0.61866553
  WF centre and spread    2  ( -0.000004,  0.000007, -2.285896 )     0.61864117
  WF centre and spread    3  (  2.285903,  0.000000,  0.000001 )     0.61877578
  Sum of centres and spreads (  2.285896, -2.285894, -2.285895 )     1.85608248
 
      5    -0.119E-03     0.0059388130        1.8560837337       0.03  <-- CONV
        O_D=      0.0000431 O_OD=      0.0037185 O_TOT=      1.8560837 <-- SPRD
 Delta: O_D= -0.5309239E-04 O_OD= -0.6586706E-04 O_TOT= -0.1189594E-03 <-- DLTA
 ------------------------------------------------------------------------------
 Cycle:      6
  WF centre and spread    1  ( -0.000002, -2.285899, -0.000000 )     0.61864790
  WF centre and spread    2  ( -0.000002,  0.000004, -2.285896 )     0.61862457
  WF centre and spread    3  (  2.285899,  0.000000,  0.000001 )     0.61875536
  Sum of centres and spreads (  2.285895, -2.285894, -2.285895 )     1.85602783
 
      6    -0.546E-04     0.0036004423        1.8560290863       0.03  <-- CONV
        O_D=      0.0000159 O_OD=      0.0036910 O_TOT=      1.8560291 <-- SPRD
 Delta: O_D= -0.2720898E-04 O_OD= -0.2743845E-04 O_TOT= -0.5464743E-04 <-- DLTA
 ------------------------------------------------------------------------------
 Cycle:      7
  WF centre and spread    1  ( -0.000002, -2.285898, -0.000000 )     0.61864264
  WF centre and spread    2  ( -0.000002,  0.000004, -2.285896 )     0.61861926
  WF centre and spread    3  (  2.285899,  0.000000,  0.000001 )     0.61874961
  Sum of centres and spreads (  2.285895, -2.285894, -2.285895 )     1.85601150
 
      7    -0.163E-04     0.0025673140        1.8560127588       0.04  <-- CONV
        O_D=      0.0000089 O_OD=      0.0036817 O_TOT=      1.8560128 <-- SPRD
 Delta: O_D= -0.6992057E-05 O_OD= -0.9335461E-05 O_TOT= -0.1632752E-04 <-- DLTA
 ------------------------------------------------------------------------------
 Cycle:      8
  WF centre and spread    1  ( -0.000001, -2.285898, -0.000000 )     0.61863928
  WF centre and spread    2  ( -0.000002,  0.000003, -2.285895 )     0.61861608
  WF centre and spread    3  (  2.285898,  0.000000,  0.000001 )     0.61874572
  Sum of centres and spreads (  2.285895, -2.285894, -2.285895 )     1.85600109
 
      8    -0.104E-04     0.0015069962        1.8560023416       0.04  <-- CONV
        O_D=      0.0000039 O_OD=      0.0036762 O_TOT=      1.8560023 <-- SPRD
 Delta: O_D= -0.4946660E-05 O_OD= -0.5470504E-05 O_TOT= -0.1041716E-04 <-- DLTA
 ------------------------------------------------------------------------------
 Cycle:      9
  WF centre and spread    1  ( -0.000001, -2.285897,  0.000000 )     0.61863739
  WF centre and spread    2  ( -0.000001,  0.000003, -2.285895 )     0.61861430
  WF centre and spread    3  (  2.285897,  0.000000,  0.000001 )     0.61874351
  Sum of centres and spreads (  2.285895, -2.285894, -2.285894 )     1.85599520
 
      9    -0.589E-05     0.0011968449        1.8559964560       0.05  <-- CONV
        O_D=      0.0000014 O_OD=      0.0036729 O_TOT=      1.8559965 <-- SPRD
 Delta: O_D= -0.2544319E-05 O_OD= -0.3341283E-05 O_TOT= -0.5885602E-05 <-- DLTA
 ------------------------------------------------------------------------------
 Cycle:     10
  WF centre and spread    1  ( -0.000001, -2.285897,  0.000000 )     0.61863679
  WF centre and spread    2  ( -0.000001,  0.000002, -2.285895 )     0.61861375
  WF centre and spread    3  (  2.285897,  0.000000,  0.000001 )     0.61874280
  Sum of centres and spreads (  2.285895, -2.285894, -2.285894 )     1.85599334
 
     10    -0.186E-05     0.0007427907        1.8559945916       0.05  <-- CONV
        O_D=      0.0000006 O_OD=      0.0036718 O_TOT=      1.8559946 <-- SPRD
 Delta: O_D= -0.7658747E-06 O_OD= -0.1098487E-05 O_TOT= -0.1864362E-05 <-- DLTA
 ------------------------------------------------------------------------------
 Cycle:     11
  WF centre and spread    1  ( -0.000001, -2.285896, -0.000000 )     0.61863656
  WF centre and spread    2  ( -0.000001,  0.000002, -2.285895 )     0.61861355
  WF centre and spread    3  (  2.285896,  0.000000,  0.000001 )     0.61874248
  Sum of centres and spreads (  2.285895, -2.285894, -2.285894 )     1.85599260
 
     11    -0.739E-06     0.0004245951        1.8559938525       0.06  <-- CONV
        O_D=      0.0000003 O_OD=      0.0036714 O_TOT=      1.8559939 <-- SPRD
 Delta: O_D= -0.3320398E-06 O_OD= -0.4071176E-06 O_TOT= -0.7391574E-06 <-- DLTA
 ------------------------------------------------------------------------------
 Cycle:     12
  WF centre and spread    1  ( -0.000001, -2.285896, -0.000000 )     0.61863641
  WF centre and spread    2  ( -0.000001,  0.000002, -2.285895 )     0.61861343
  WF centre and spread    3  (  2.285896,  0.000000,  0.000000 )     0.61874225
  Sum of centres and spreads (  2.285895, -2.285894, -2.285894 )     1.85599209
 
     12    -0.507E-06     0.0003270434        1.8559933455       0.06  <-- CONV
        O_D=      0.0000001 O_OD=      0.0036711 O_TOT=      1.8559933 <-- SPRD
 Delta: O_D= -0.2030544E-06 O_OD= -0.3039504E-06 O_TOT= -0.5070048E-06 <-- DLTA
 ------------------------------------------------------------------------------
 Cycle:     13
  WF centre and spread    1  ( -0.000000, -2.285896, -0.000000 )     0.61863638
  WF centre and spread    2  ( -0.000001,  0.000001, -2.285895 )     0.61861340
  WF centre and spread    3  (  2.285896,  0.000000,  0.000000 )     0.61874222
  Sum of centres and spreads (  2.285895, -2.285894, -2.285894 )     1.85599200
 
     13    -0.963E-07     0.0001878893        1.8559932492       0.07  <-- CONV
        O_D=      0.0000000 O_OD=      0.0036710 O_TOT=      1.8559932 <-- SPRD
 Delta: O_D= -0.3823887E-07 O_OD= -0.5802843E-07 O_TOT= -0.9626730E-07 <-- DLTA
 ------------------------------------------------------------------------------
 Cycle:     14
  WF centre and spread    1  ( -0.000000, -2.285896, -0.000000 )     0.61863637
  WF centre and spread    2  ( -0.000001,  0.000001, -2.285895 )     0.61861338
  WF centre and spread    3  (  2.285896,  0.000000,  0.000000 )     0.61874220
  Sum of centres and spreads (  2.285895, -2.285894, -2.285894 )     1.85599195
 
     14    -0.479E-07     0.0001080268        1.8559932013       0.07  <-- CONV
        O_D=      0.0000000 O_OD=      0.0036710 O_TOT=      1.8559932 <-- SPRD
 Delta: O_D= -0.1495731E-07 O_OD= -0.3297790E-07 O_TOT= -0.4793521E-07 <-- DLTA
 ------------------------------------------------------------------------------
 Cycle:     15
  WF centre and spread    1  ( -0.000000, -2.285895, -0.000000 )     0.61863635
  WF centre and spread    2  ( -0.000000,  0.000001, -2.285895 )     0.61861336
  WF centre and spread    3  (  2.285895,  0.000000,  0.000000 )     0.61874219
  Sum of centres and spreads (  2.285895, -2.285894, -2.285894 )     1.85599191
 
     15    -0.369E-07     0.0000838559        1.8559931644       0.07  <-- CONV
        O_D=      0.0000000 O_OD=      0.0036710 O_TOT=      1.8559932 <-- SPRD
 Delta: O_D= -0.5224112E-08 O_OD= -0.3169558E-07 O_TOT= -0.3691970E-07 <-- DLTA
 ------------------------------------------------------------------------------
 Cycle:     16
  WF centre and spread    1  ( -0.000000, -2.285895, -0.000000 )     0.61863634
  WF centre and spread    2  ( -0.000000,  0.000001, -2.285895 )     0.61861335
  WF centre and spread    3  (  2.285895,  0.000000,  0.000000 )     0.61874219
  Sum of centres and spreads (  2.285895, -2.285894, -2.285894 )     1.85599188
 
     16    -0.274E-07     0.0000778156        1.8559931370       0.08  <-- CONV
        O_D=      0.0000000 O_OD=      0.0036709 O_TOT=      1.8559931 <-- SPRD
 Delta: O_D= -0.3040314E-08 O_OD= -0.2433525E-07 O_TOT= -0.2737557E-07 <-- DLTA
 ------------------------------------------------------------------------------
 Cycle:     17
  WF centre and spread    1  (  0.000000, -2.285895, -0.000000 )     0.61863634
  WF centre and spread    2  (  0.000000,  0.000000, -2.285894 )     0.61861334
  WF centre and spread    3  (  2.285895,  0.000000,  0.000000 )     0.61874219
  Sum of centres and spreads (  2.285895, -2.285894, -2.285894 )     1.85599186
 
     17    -0.183E-07     0.0000619946        1.8559931187       0.08  <-- CONV
        O_D=      0.0000000 O_OD=      0.0036709 O_TOT=      1.8559931 <-- SPRD
 Delta: O_D= -0.2785584E-08 O_OD= -0.1552078E-07 O_TOT= -0.1830637E-07 <-- DLTA
 ------------------------------------------------------------------------------
 Cycle:     18
  WF centre and spread    1  (  0.000000, -2.285894, -0.000000 )     0.61863633
  WF centre and spread    2  (  0.000000,  0.000000, -2.285894 )     0.61861333
  WF centre and spread    3  (  2.285894, -0.000000,  0.000000 )     0.61874219
  Sum of centres and spreads (  2.285895, -2.285894, -2.285894 )     1.85599185
 
     18    -0.141E-07     0.0000546568        1.8559931046       0.09  <-- CONV
        O_D=      0.0000000 O_OD=      0.0036709 O_TOT=      1.8559931 <-- SPRD
 Delta: O_D= -0.2453077E-08 O_OD= -0.1166125E-07 O_TOT= -0.1411433E-07 <-- DLTA
 ------------------------------------------------------------------------------
 Cycle:     19
  WF centre and spread    1  (  0.000000, -2.285894, -0.000000 )     0.61863633
  WF centre and spread    2  (  0.000000,  0.000000, -2.285894 )     0.61861332
  WF centre and spread    3  (  2.285894, -0.000000,  0.000000 )     0.61874219
  Sum of centres and spreads (  2.285895, -2.285894, -2.285894 )     1.85599184
 
     19    -0.647E-08     0.0000503863        1.8559930981       0.09  <-- CONV
        O_D=      0.0000000 O_OD=      0.0036709 O_TOT=      1.8559931 <-- SPRD
 Delta: O_D= -0.2388263E-08 O_OD= -0.4078688E-08 O_TOT= -0.6466951E-08 <-- DLTA
 ------------------------------------------------------------------------------
 Cycle:     20
  WF centre and spread    1  (  0.000000, -2.285894, -0.000000 )     0.61863633
  WF centre and spread    2  (  0.000000,  0.000000, -2.285894 )     0.61861332
  WF centre and spread    3  (  2.285894, -0.000000,  0.000000 )     0.61874219
  Sum of centres and spreads (  2.285895, -2.285894, -2.285894 )     1.85599184
 
     20    -0.432E-08     0.0000304571        1.8559930938       0.09  <-- CONV
        O_D=      0.0000000 O_OD=      0.0036709 O_TOT=      1.8559931 <-- SPRD
 Delta: O_D= -0.8080859E-09 O_OD= -0.3508602E-08 O_TOT= -0.4316688E-08 <-- DLTA
 ------------------------------------------------------------------------------
 Cycle:     21
  WF centre and spread    1  (  0.000000, -2.285894, -0.000000 )     0.61863632
  WF centre and spread    2  (  0.000000,  0.000000, -2.285894 )     0.61861332
  WF centre and spread    3  (  2.285894, -0.000000,  0.000000 )     0.61874219
  Sum of centres and spreads (  2.285895, -2.285894, -2.285894 )     1.85599184
 
     21    -0.469E-08     0.0000286835        1.8559930891       0.10  <-- CONV
        O_D=      0.0000000 O_OD=      0.0036709 O_TOT=      1.8559931 <-- SPRD
 Delta: O_D=  0.3024052E-09 O_OD= -0.4989261E-08 O_TOT= -0.4686855E-08 <-- DLTA
 ------------------------------------------------------------------------------
 Cycle:     22
  WF centre and spread    1  (  0.000000, -2.285894, -0.000000 )     0.61863632
  WF centre and spread    2  (  0.000000,  0.000000, -2.285894 )     0.61861332
  WF centre and spread    3  (  2.285894, -0.000000,  0.000000 )     0.61874219
  Sum of centres and spreads (  2.285895, -2.285894, -2.285894 )     1.85599183
 
     22    -0.620E-08     0.0000295399        1.8559930829       0.10  <-- CONV
        O_D=      0.0000000 O_OD=      0.0036709 O_TOT=      1.8559931 <-- SPRD
 Delta: O_D=  0.1678411E-08 O_OD= -0.7877357E-08 O_TOT= -0.6198946E-08 <-- DLTA
 ------------------------------------------------------------------------------
 Cycle:     23
  WF centre and spread    1  (  0.000000, -2.285894, -0.000000 )     0.61863631
  WF centre and spread    2  (  0.000000,  0.000000, -2.285894 )     0.61861331
  WF centre and spread    3  (  2.285894, -0.000000,  0.000000 )     0.61874219
  Sum of centres and spreads (  2.285895, -2.285894, -2.285894 )     1.85599182
 
     23    -0.114E-07     0.0000420990        1.8559930715       0.10  <-- CONV
        O_D=      0.0000000 O_OD=      0.0036709 O_TOT=      1.8559931 <-- SPRD
 Delta: O_D=  0.4473676E-08 O_OD= -0.1584390E-07 O_TOT= -0.1137023E-07 <-- DLTA
 ------------------------------------------------------------------------------
 Cycle:     24
  WF centre and spread    1  (  0.000000, -2.285894, -0.000000 )     0.61863630
  WF centre and spread    2  (  0.000000, -0.000000, -2.285894 )     0.61861329
  WF centre and spread    3  (  2.285894, -0.000000,  0.000000 )     0.61874219
  Sum of centres and spreads (  2.285895, -2.285894, -2.285894 )     1.85599179
 
     24    -0.282E-07     0.0000530783        1.8559930433       0.11  <-- CONV
        O_D=      0.0000000 O_OD=      0.0036708 O_TOT=      1.8559930 <-- SPRD
 Delta: O_D=  0.1028919E-07 O_OD= -0.3847190E-07 O_TOT= -0.2818271E-07 <-- DLTA
 ------------------------------------------------------------------------------
 Cycle:     25
  WF centre and spread    1  (  0.000000, -2.285894, -0.000000 )     0.61863630
  WF centre and spread    2  (  0.000000, -0.000000, -2.285894 )     0.61861329
  WF centre and spread    3  (  2.285894, -0.000000,  0.000000 )     0.61874218
  Sum of centres and spreads (  2.285895, -2.285894, -2.285894 )     1.85599177
 
     25    -0.237E-07     0.0000923004        1.8559930196       0.11  <-- CONV
        O_D=      0.0000000 O_OD=      0.0036708 O_TOT=      1.8559930 <-- SPRD
 Delta: O_D= -0.1039286E-07 O_OD= -0.1334109E-07 O_TOT= -0.2373395E-07 <-- DLTA
 ------------------------------------------------------------------------------
 Cycle:     26
  WF centre and spread    1  (  0.000000, -2.285894, -0.000000 )     0.61863629
  WF centre and spread    2  (  0.000000, -0.000000, -2.285894 )     0.61861329
  WF centre and spread    3  (  2.285894, -0.000000,  0.000000 )     0.61874217
  Sum of centres and spreads (  2.285895, -2.285894, -2.285894 )     1.85599176
 
     26    -0.104E-07     0.0000467953        1.8559930092       0.11  <-- CONV
        O_D=      0.0000000 O_OD=      0.0036708 O_TOT=      1.8559930 <-- SPRD
 Delta: O_D= -0.4060235E-08 O_OD= -0.6371965E-08 O_TOT= -0.1043220E-07 <-- DLTA
 ------------------------------------------------------------------------------
 Cycle:     27
  WF centre and spread    1  (  0.000000, -2.285894, -0.000000 )     0.61863629
  WF centre and spread    2  (  0.000000,  0.000000, -2.285894 )     0.61861329
  WF centre and spread    3  (  2.285894, -0.000000,  0.000000 )     0.61874216
  Sum of centres and spreads (  2.285895, -2.285894, -2.285894 )     1.85599175
 
     27    -0.790E-08     0.0000398806        1.8559930013       0.12  <-- CONV
        O_D=      0.0000000 O_OD=      0.0036708 O_TOT=      1.8559930 <-- SPRD
 Delta: O_D= -0.1499207E-08 O_OD= -0.6399304E-08 O_TOT= -0.7898511E-08 <-- DLTA
 ------------------------------------------------------------------------------
 Cycle:     28
  WF centre and spread    1  (  0.000000, -2.285894, -0.000000 )     0.61863630
  WF centre and spread    2  (  0.000000,  0.000000, -2.285894 )     0.61861329
  WF centre and spread    3  (  2.285894, -0.000000,  0.000000 )     0.61874216
  Sum of centres and spreads (  2.285895, -2.285894, -2.285894 )     1.85599174
 
     28    -0.508E-08     0.0000350274        1.8559929962       0.12  <-- CONV
        O_D=      0.0000000 O_OD=      0.0036708 O_TOT=      1.8559930 <-- SPRD
 Delta: O_D= -0.2683367E-09 O_OD= -0.4816299E-08 O_TOT= -0.5084636E-08 <-- DLTA
 ------------------------------------------------------------------------------
 Cycle:     29
  WF centre and spread    1  (  0.000000, -2.285894, -0.000000 )     0.61863630
  WF centre and spread    2  (  0.000000,  0.000000, -2.285894 )     0.61861329
  WF centre and spread    3  (  2.285894, -0.000000,  0.000000 )     0.61874215
  Sum of centres and spreads (  2.285895, -2.285894, -2.285894 )     1.85599174
 
     29    -0.579E-08     0.0000292943        1.8559929904       0.12  <-- CONV
        O_D=      0.0000000 O_OD=      0.0036708 O_TOT=      1.8559930 <-- SPRD
 Delta: O_D=  0.8309574E-09 O_OD= -0.6616118E-08 O_TOT= -0.5785161E-08 <-- DLTA
 ------------------------------------------------------------------------------
 Cycle:     30
  WF centre and spread    1  (  0.000000, -2.285894, -0.000000 )     0.61863630
  WF centre and spread    2  (  0.000000,  0.000000, -2.285894 )     0.61861329
  WF centre and spread    3  (  2.285894, -0.000000,  0.000000 )     0.61874214
  Sum of centres and spreads (  2.285895, -2.285894, -2.285894 )     1.85599173
 
     30    -0.659E-08     0.0000311054        1.8559929838       0.13  <-- CONV
        O_D=      0.0000000 O_OD=      0.0036708 O_TOT=      1.8559930 <-- SPRD
 Delta: O_D=  0.2190957E-08 O_OD= -0.8783993E-08 O_TOT= -0.6593036E-08 <-- DLTA
 ------------------------------------------------------------------------------
 Cycle:     31
  WF centre and spread    1  (  0.000000, -2.285894, -0.000000 )     0.61863629
  WF centre and spread    2  (  0.000000,  0.000000, -2.285894 )     0.61861329
  WF centre and spread    3  (  2.285894, -0.000000,  0.000000 )     0.61874214
  Sum of centres and spreads (  2.285895, -2.285894, -2.285894 )     1.85599172
 
     31    -0.555E-08     0.0000497866        1.8559929783       0.13  <-- CONV
        O_D=      0.0000000 O_OD=      0.0036708 O_TOT=      1.8559930 <-- SPRD
 Delta: O_D= -0.2322363E-08 O_OD= -0.3226889E-08 O_TOT= -0.5549253E-08 <-- DLTA
 ------------------------------------------------------------------------------
 Cycle:     32
  WF centre and spread    1  (  0.000000, -2.285894, -0.000000 )     0.61863629
  WF centre and spread    2  (  0.000000,  0.000000, -2.285894 )     0.61861329
  WF centre and spread    3  (  2.285894, -0.000000,  0.000000 )     0.61874214
  Sum of centres and spreads (  2.285895, -2.285894, -2.285894 )     1.85599172
 
     32    -0.462E-08     0.0000287037        1.8559929736       0.13  <-- CONV
        O_D=      0.0000000 O_OD=      0.0036708 O_TOT=      1.8559930 <-- SPRD
 Delta: O_D= -0.1026513E-08 O_OD= -0.3596057E-08 O_TOT= -0.4622570E-08 <-- DLTA
 ------------------------------------------------------------------------------
 Cycle:     33
  WF centre and spread    1  (  0.000000, -2.285894, -0.000000 )     0.61863629
  WF centre and spread    2  (  0.000000,  0.000000, -2.285894 )     0.61861328
  WF centre and spread    3  (  2.285894, -0.000000,  0.000000 )     0.61874215
  Sum of centres and spreads (  2.285895, -2.285894, -2.285894 )     1.85599171
 
     33    -0.485E-08     0.0000251342        1.8559929688       0.13  <-- CONV
        O_D=      0.0000000 O_OD=      0.0036708 O_TOT=      1.8559930 <-- SPRD
 Delta: O_D=  0.1649553E-08 O_OD= -0.6503669E-08 O_TOT= -0.4854117E-08 <-- DLTA
 ------------------------------------------------------------------------------
 Cycle:     34
  WF centre and spread    1  (  0.000000, -2.285894, -0.000000 )     0.61863628
  WF centre and spread    2  (  0.000000,  0.000000, -2.285894 )     0.61861328
  WF centre and spread    3  (  2.285894, -0.000000,  0.000000 )     0.61874214
  Sum of centres and spreads (  2.285895, -2.285894, -2.285894 )     1.85599171
 
     34    -0.481E-08     0.0000467348        1.8559929640       0.14  <-- CONV
        O_D=      0.0000000 O_OD=      0.0036708 O_TOT=      1.8559930 <-- SPRD
 Delta: O_D= -0.2098766E-08 O_OD= -0.2710359E-08 O_TOT= -0.4809125E-08 <-- DLTA
 ------------------------------------------------------------------------------
 Cycle:     35
  WF centre and spread    1  (  0.000000, -2.285894, -0.000000 )     0.61863628
  WF centre and spread    2  (  0.000000,  0.000000, -2.285894 )     0.61861328
  WF centre and spread    3  (  2.285894, -0.000000,  0.000000 )     0.61874214
  Sum of centres and spreads (  2.285895, -2.285894, -2.285894 )     1.85599171
 
     35    -0.245E-08     0.0000214081        1.8559929615       0.14  <-- CONV
        O_D=      0.0000000 O_OD=      0.0036708 O_TOT=      1.8559930 <-- SPRD
 Delta: O_D=  0.1259213E-08 O_OD= -0.3711993E-08 O_TOT= -0.2452780E-08 <-- DLTA
 ------------------------------------------------------------------------------
 Cycle:     36
  WF centre and spread    1  (  0.000000, -2.285894, -0.000000 )     0.61863628
  WF centre and spread    2  (  0.000000,  0.000000, -2.285894 )     0.61861328
  WF centre and spread    3  (  2.285894, -0.000000,  0.000000 )     0.61874214
  Sum of centres and spreads (  2.285895, -2.285894, -2.285894 )     1.85599170
 
     36    -0.317E-08     0.0000392063        1.8559929584       0.14  <-- CONV
        O_D=      0.0000000 O_OD=      0.0036708 O_TOT=      1.8559930 <-- SPRD
 Delta: O_D= -0.1437717E-08 O_OD= -0.1736141E-08 O_TOT= -0.3173857E-08 <-- DLTA
 ------------------------------------------------------------------------------
 Cycle:     37
  WF centre and spread    1  (  0.000000, -2.285894, -0.000000 )     0.61863628
  WF centre and spread    2  (  0.000000,  0.000000, -2.285894 )     0.61861328
  WF centre and spread    3  (  2.285894, -0.000000,  0.000000 )     0.61874214
  Sum of centres and spreads (  2.285895, -2.285894, -2.285894 )     1.85599170
 
     37    -0.271E-11     0.0000203303        1.8559929584       0.14  <-- CONV
        O_D=      0.0000000 O_OD=      0.0036708 O_TOT=      1.8559930 <-- SPRD
 Delta: O_D= -0.6998032E-12 O_OD= -0.2014888E-11 O_TOT= -0.2714939E-11 <-- DLTA
 ------------------------------------------------------------------------------
 Cycle:     38
  WF centre and spread    1  (  0.000000, -2.285894, -0.000000 )     0.61863628
  WF centre and spread    2  (  0.000000,  0.000000, -2.285894 )     0.61861328
  WF centre and spread    3  (  2.285894, -0.000000,  0.000000 )     0.61874214
  Sum of centres and spreads (  2.285895, -2.285894, -2.285894 )     1.85599170
 
     38    -0.238E-08     0.0000203209        1.8559929560       0.15  <-- CONV
        O_D=      0.0000000 O_OD=      0.0036708 O_TOT=      1.8559930 <-- SPRD
 Delta: O_D=  0.1869455E-09 O_OD= -0.2566401E-08 O_TOT= -0.2379455E-08 <-- DLTA
 ------------------------------------------------------------------------------
 Cycle:     39
  WF centre and spread    1  (  0.000000, -2.285894, -0.000000 )     0.61863628
  WF centre and spread    2  (  0.000000,  0.000000, -2.285894 )     0.61861328
  WF centre and spread    3  (  2.285894, -0.000000,  0.000000 )     0.61874214
  Sum of centres and spreads (  2.285895, -2.285894, -2.285894 )     1.85599170
 
     39    -0.223E-08     0.0000252784        1.8559929537       0.15  <-- CONV
        O_D=      0.0000000 O_OD=      0.0036708 O_TOT=      1.8559930 <-- SPRD
 Delta: O_D=  0.2103809E-08 O_OD= -0.4337115E-08 O_TOT= -0.2233306E-08 <-- DLTA
 ------------------------------------------------------------------------------
 Cycle:     40
  WF centre and spread    1  (  0.000000, -2.285894, -0.000000 )     0.61863628
  WF centre and spread    2  (  0.000000,  0.000000, -2.285894 )     0.61861328
  WF centre and spread    3  (  2.285894, -0.000000,  0.000000 )     0.61874214
  Sum of centres and spreads (  2.285895, -2.285894, -2.285894 )     1.85599170
 
     40    -0.333E-08     0.0000423791        1.8559929504       0.15  <-- CONV
        O_D=      0.0000000 O_OD=      0.0036708 O_TOT=      1.8559930 <-- SPRD
 Delta: O_D=  0.3154110E-08 O_OD= -0.6481163E-08 O_TOT= -0.3327054E-08 <-- DLTA
 ------------------------------------------------------------------------------
 Cycle:     41
  WF centre and spread    1  (  0.000000, -2.285894, -0.000000 )     0.61863628
  WF centre and spread    2  (  0.000000,  0.000000, -2.285894 )     0.61861328
  WF centre and spread    3  (  2.285894, -0.000000,  0.000000 )     0.61874213
  Sum of centres and spreads (  2.285895, -2.285894, -2.285894 )     1.85599169
 
     41    -0.546E-08     0.0000498451        1.8559929449       0.16  <-- CONV
        O_D=      0.0000000 O_OD=      0.0036707 O_TOT=      1.8559929 <-- SPRD
 Delta: O_D=  0.7485196E-08 O_OD= -0.1294676E-07 O_TOT= -0.5461563E-08 <-- DLTA
 ------------------------------------------------------------------------------
 Cycle:     42
  WF centre and spread    1  (  0.000000, -2.285894, -0.000000 )     0.61863628
  WF centre and spread    2  (  0.000000,  0.000000, -2.285894 )     0.61861327
  WF centre and spread    3  (  2.285894, -0.000000,  0.000000 )     0.61874213
  Sum of centres and spreads (  2.285895, -2.285894, -2.285894 )     1.85599167
 
     42    -0.173E-07     0.0000772945        1.8559929276       0.16  <-- CONV
        O_D=      0.0000000 O_OD=      0.0036707 O_TOT=      1.8559929 <-- SPRD
 Delta: O_D= -0.8770760E-08 O_OD= -0.8573276E-08 O_TOT= -0.1734404E-07 <-- DLTA
 ------------------------------------------------------------------------------
 Cycle:     43
  WF centre and spread    1  (  0.000000, -2.285894, -0.000000 )     0.61863627
  WF centre and spread    2  (  0.000000,  0.000000, -2.285894 )     0.61861327
  WF centre and spread    3  (  2.285894, -0.000000,  0.000000 )     0.61874213
  Sum of centres and spreads (  2.285895, -2.285894, -2.285894 )     1.85599167
 
     43    -0.773E-08     0.0000531088        1.8559929199       0.16  <-- CONV
        O_D=      0.0000000 O_OD=      0.0036707 O_TOT=      1.8559929 <-- SPRD
 Delta: O_D= -0.4397100E-08 O_OD= -0.3331443E-08 O_TOT= -0.7728542E-08 <-- DLTA
 ------------------------------------------------------------------------------
 Cycle:     44
  WF centre and spread    1  (  0.000000, -2.285894, -0.000000 )     0.61863627
  WF centre and spread    2  (  0.000000,  0.000000, -2.285894 )     0.61861327
  WF centre and spread    3  (  2.285894, -0.000000,  0.000000 )     0.61874213
  Sum of centres and spreads (  2.285895, -2.285894, -2.285894 )     1.85599167
 
     44    -0.176E-11     0.0000164385        1.8559929199       0.16  <-- CONV
        O_D=      0.0000000 O_OD=      0.0036707 O_TOT=      1.8559929 <-- SPRD
 Delta: O_D= -0.1500567E-12 O_OD= -0.1611104E-11 O_TOT= -0.1761036E-11 <-- DLTA
 ------------------------------------------------------------------------------
 Cycle:     45
  WF centre and spread    1  (  0.000000, -2.285894, -0.000000 )     0.61863627
  WF centre and spread    2  (  0.000000,  0.000000, -2.285894 )     0.61861327
  WF centre and spread    3  (  2.285894, -0.000000,  0.000000 )     0.61874213
  Sum of centres and spreads (  2.285895, -2.285894, -2.285894 )     1.85599166
 
     45    -0.357E-08     0.0000164350        1.8559929163       0.16  <-- CONV
        O_D=      0.0000000 O_OD=      0.0036707 O_TOT=      1.8559929 <-- SPRD
 Delta: O_D=  0.8995147E-09 O_OD= -0.4470361E-08 O_TOT= -0.3570846E-08 <-- DLTA
 ------------------------------------------------------------------------------
 Cycle:     46
  WF centre and spread    1  (  0.000000, -2.285894, -0.000000 )     0.61863627
  WF centre and spread    2  (  0.000000,  0.000000, -2.285894 )     0.61861326
  WF centre and spread    3  (  2.285894, -0.000000,  0.000000 )     0.61874212
  Sum of centres and spreads (  2.285895, -2.285894, -2.285894 )     1.85599166
 
     46    -0.250E-08     0.0000335318        1.8559929138       0.17  <-- CONV
        O_D=      0.0000000 O_OD=      0.0036707 O_TOT=      1.8559929 <-- SPRD
 Delta: O_D= -0.8828111E-09 O_OD= -0.1612686E-08 O_TOT= -0.2495497E-08 <-- DLTA
 ------------------------------------------------------------------------------
 Cycle:     47
  WF centre and spread    1  (  0.000000, -2.285894, -0.000000 )     0.61863627
  WF centre and spread    2  (  0.000000,  0.000000, -2.285894 )     0.61861326
  WF centre and spread    3  (  2.285894, -0.000000,  0.000000 )     0.61874212
  Sum of centres and spreads (  2.285895, -2.285894, -2.285894 )     1.85599166
 
     47    -0.208E-11     0.0000180395        1.8559929138       0.17  <-- CONV
        O_D=      0.0000000 O_OD=      0.0036707 O_TOT=      1.8559929 <-- SPRD
 Delta: O_D= -0.3139694E-12 O_OD= -0.1767196E-11 O_TOT= -0.2081224E-11 <-- DLTA
 ------------------------------------------------------------------------------
 Cycle:     48
  WF centre and spread    1  (  0.000000, -2.285894, -0.000000 )     0.61863627
  WF centre and spread    2  (  0.000000,  0.000000, -2.285894 )     0.61861326
  WF centre and spread    3  (  2.285894, -0.000000,  0.000000 )     0.61874212
  Sum of centres and spreads (  2.285895, -2.285894, -2.285894 )     1.85599166
 
     48    -0.215E-08     0.0000180327        1.8559929117       0.17  <-- CONV
        O_D=      0.0000000 O_OD=      0.0036707 O_TOT=      1.8559929 <-- SPRD
 Delta: O_D=  0.8909790E-09 O_OD= -0.3044146E-08 O_TOT= -0.2153167E-08 <-- DLTA
 ------------------------------------------------------------------------------
 Cycle:     49
  WF centre and spread    1  (  0.000000, -2.285894, -0.000000 )     0.61863627
  WF centre and spread    2  (  0.000000,  0.000000, -2.285894 )     0.61861326
  WF centre and spread    3  (  2.285894, -0.000000,  0.000000 )     0.61874212
  Sum of centres and spreads (  2.285895, -2.285894, -2.285894 )     1.85599166
 
     49    -0.192E-08     0.0000323821        1.8559929097       0.17  <-- CONV
        O_D=      0.0000000 O_OD=      0.0036707 O_TOT=      1.8559929 <-- SPRD
 Delta: O_D= -0.9598246E-09 O_OD= -0.9563453E-09 O_TOT= -0.1916170E-08 <-- DLTA
 ------------------------------------------------------------------------------
 Cycle:     50
  WF centre and spread    1  (  0.000000, -2.285894, -0.000000 )     0.61863627
  WF centre and spread    2  (  0.000000,  0.000000, -2.285894 )     0.61861326
  WF centre and spread    3  (  2.285894, -0.000000,  0.000000 )     0.61874212
  Sum of centres and spreads (  2.285895, -2.285894, -2.285894 )     1.85599166
 
     50    -0.174E-11     0.0000162824        1.8559929097       0.17  <-- CONV
        O_D=      0.0000000 O_OD=      0.0036707 O_TOT=      1.8559929 <-- SPRD
 Delta: O_D= -0.8045944E-13 O_OD= -0.1655967E-11 O_TOT= -0.1736167E-11 <-- DLTA
 ------------------------------------------------------------------------------
 Cycle:     51
  WF centre and spread    1  (  0.000000, -2.285894, -0.000000 )     0.61863627
  WF centre and spread    2  (  0.000000,  0.000000, -2.285894 )     0.61861326
  WF centre and spread    3  (  2.285894, -0.000000,  0.000000 )     0.61874212
  Sum of centres and spreads (  2.285895, -2.285894, -2.285894 )     1.85599165
 
     51    -0.383E-08     0.0000162807        1.8559929059       0.18  <-- CONV
        O_D=      0.0000000 O_OD=      0.0036707 O_TOT=      1.8559929 <-- SPRD
 Delta: O_D=  0.3102123E-08 O_OD= -0.6936130E-08 O_TOT= -0.3834008E-08 <-- DLTA
 ------------------------------------------------------------------------------
 Cycle:     52
  WF centre and spread    1  (  0.000000, -2.285894, -0.000000 )     0.61863627
  WF centre and spread    2  (  0.000000,  0.000000, -2.285894 )     0.61861326
  WF centre and spread    3  (  2.285894, -0.000000,  0.000000 )     0.61874212
  Sum of centres and spreads (  2.285895, -2.285894, -2.285894 )     1.85599165
 
     52    -0.425E-08     0.0000506019        1.8559929017       0.18  <-- CONV
        O_D=      0.0000000 O_OD=      0.0036707 O_TOT=      1.8559929 <-- SPRD
 Delta: O_D= -0.3040444E-08 O_OD= -0.1208273E-08 O_TOT= -0.4248717E-08 <-- DLTA
 ------------------------------------------------------------------------------
 Cycle:     53
  WF centre and spread    1  (  0.000000, -2.285894, -0.000000 )     0.61863627
  WF centre and spread    2  (  0.000000,  0.000000, -2.285894 )     0.61861326
  WF centre and spread    3  (  2.285894, -0.000000,  0.000000 )     0.61874212
  Sum of centres and spreads (  2.285895, -2.285894, -2.285894 )     1.85599165
 
     53    -0.250E-08     0.0000177643        1.8559928991       0.18  <-- CONV
        O_D=      0.0000000 O_OD=      0.0036707 O_TOT=      1.8559929 <-- SPRD
 Delta: O_D=  0.1078154E-09 O_OD= -0.2611939E-08 O_TOT= -0.2504124E-08 <-- DLTA
 ------------------------------------------------------------------------------
 Cycle:     54
  WF centre and spread    1  (  0.000000, -2.285894, -0.000000 )     0.61863627
  WF centre and spread    2  (  0.000000,  0.000000, -2.285894 )     0.61861326
  WF centre and spread    3  (  2.285894, -0.000000,  0.000000 )     0.61874212
  Sum of centres and spreads (  2.285895, -2.285894, -2.285894 )     1.85599165
 
     54    -0.337E-11     0.0000205666        1.8559928991       0.18  <-- CONV
        O_D=      0.0000000 O_OD=      0.0036707 O_TOT=      1.8559929 <-- SPRD
 Delta: O_D= -0.6879030E-13 O_OD= -0.3303076E-11 O_TOT= -0.3371969E-11 <-- DLTA
 ------------------------------------------------------------------------------
 Cycle:     55
  WF centre and spread    1  (  0.000000, -2.285894, -0.000000 )     0.61863626
  WF centre and spread    2  (  0.000000,  0.000000, -2.285894 )     0.61861326
  WF centre and spread    3  (  2.285894, -0.000000,  0.000000 )     0.61874212
  Sum of centres and spreads (  2.285895, -2.285894, -2.285894 )     1.85599164
 
     55    -0.808E-08     0.0000205650        1.8559928911       0.19  <-- CONV
        O_D=      0.0000000 O_OD=      0.0036707 O_TOT=      1.8559929 <-- SPRD
 Delta: O_D=  0.1533377E-08 O_OD= -0.9615286E-08 O_TOT= -0.8081909E-08 <-- DLTA
 ------------------------------------------------------------------------------
 Cycle:     56
  WF centre and spread    1  (  0.000000, -2.285894, -0.000000 )     0.61863626
  WF centre and spread    2  (  0.000000,  0.000000, -2.285894 )     0.61861326
  WF centre and spread    3  (  2.285894, -0.000000,  0.000000 )     0.61874211
  Sum of centres and spreads (  2.285895, -2.285894, -2.285894 )     1.85599163
 
     56    -0.499E-08     0.0000428782        1.8559928861       0.19  <-- CONV
        O_D=      0.0000000 O_OD=      0.0036707 O_TOT=      1.8559929 <-- SPRD
 Delta: O_D= -0.1708560E-08 O_OD= -0.3284824E-08 O_TOT= -0.4993385E-08 <-- DLTA
 ------------------------------------------------------------------------------
 Cycle:     57
  WF centre and spread    1  (  0.000000, -2.285894, -0.000000 )     0.61863626
  WF centre and spread    2  (  0.000000,  0.000000, -2.285894 )     0.61861326
  WF centre and spread    3  (  2.285894, -0.000000,  0.000000 )     0.61874211
  Sum of centres and spreads (  2.285895, -2.285894, -2.285894 )     1.85599163
 
     57    -0.196E-08     0.0000182400        1.8559928841       0.19  <-- CONV
        O_D=      0.0000000 O_OD=      0.0036707 O_TOT=      1.8559929 <-- SPRD
 Delta: O_D=  0.1632352E-09 O_OD= -0.2126289E-08 O_TOT= -0.1963053E-08 <-- DLTA
 ------------------------------------------------------------------------------
 Cycle:     58
  WF centre and spread    1  (  0.000000, -2.285894, -0.000000 )     0.61863626
  WF centre and spread    2  (  0.000000,  0.000000, -2.285894 )     0.61861326
  WF centre and spread    3  (  2.285894, -0.000000,  0.000000 )     0.61874211
  Sum of centres and spreads (  2.285895, -2.285894, -2.285894 )     1.85599163
 
     58    -0.425E-11     0.0000246084        1.8559928841       0.19  <-- CONV
        O_D=      0.0000000 O_OD=      0.0036707 O_TOT=      1.8559929 <-- SPRD
 Delta: O_D=  0.2016929E-13 O_OD= -0.4272550E-11 O_TOT= -0.4252154E-11 <-- DLTA
 ------------------------------------------------------------------------------
 Cycle:     59
  WF centre and spread    1  (  0.000000, -2.285894, -0.000000 )     0.61863626
  WF centre and spread    2  (  0.000000,  0.000000, -2.285894 )     0.61861325
  WF centre and spread    3  (  2.285894, -0.000000,  0.000000 )     0.61874211
  Sum of centres and spreads (  2.285895, -2.285894, -2.285894 )     1.85599162
 
     59    -0.554E-08     0.0000246051        1.8559928786       0.19  <-- CONV
        O_D=      0.0000000 O_OD=      0.0036707 O_TOT=      1.8559929 <-- SPRD
 Delta: O_D=  0.1879443E-09 O_OD= -0.5725563E-08 O_TOT= -0.5537619E-08 <-- DLTA
 ------------------------------------------------------------------------------
 Cycle:     60
  WF centre and spread    1  (  0.000000, -2.285894, -0.000000 )     0.61863626
  WF centre and spread    2  (  0.000000,  0.000000, -2.285894 )     0.61861325
  WF centre and spread    3  (  2.285894, -0.000000,  0.000000 )     0.61874211
  Sum of centres and spreads (  2.285895, -2.285894, -2.285894 )     1.85599162
 
     60    -0.367E-08     0.0000461544        1.8559928749       0.20  <-- CONV
        O_D=      0.0000000 O_OD=      0.0036707 O_TOT=      1.8559929 <-- SPRD
 Delta: O_D= -0.4139318E-09 O_OD= -0.3255415E-08 O_TOT= -0.3669347E-08 <-- DLTA
 ------------------------------------------------------------------------------
 Cycle:     61
  WF centre and spread    1  (  0.000000, -2.285894, -0.000000 )     0.61863626
  WF centre and spread    2  (  0.000000,  0.000000, -2.285894 )     0.61861325
  WF centre and spread    3  (  2.285894, -0.000000,  0.000000 )     0.61874211
  Sum of centres and spreads (  2.285895, -2.285894, -2.285894 )     1.85599162
 
     61    -0.158E-11     0.0000155156        1.8559928749       0.20  <-- CONV
        O_D=      0.0000000 O_OD=      0.0036707 O_TOT=      1.8559929 <-- SPRD
 Delta: O_D= -0.5044884E-13 O_OD= -0.1526128E-11 O_TOT= -0.1576739E-11 <-- DLTA
 ------------------------------------------------------------------------------
 Cycle:     62
  WF centre and spread    1  (  0.000000, -2.285894, -0.000000 )     0.61863626
  WF centre and spread    2  (  0.000000,  0.000000, -2.285894 )     0.61861325
  WF centre and spread    3  (  2.285894, -0.000000,  0.000000 )     0.61874211
  Sum of centres and spreads (  2.285895, -2.285894, -2.285894 )     1.85599162
 
     62    -0.442E-08     0.0000155137        1.8559928705       0.20  <-- CONV
        O_D=      0.0000000 O_OD=      0.0036707 O_TOT=      1.8559929 <-- SPRD
 Delta: O_D=  0.6170636E-09 O_OD= -0.5038785E-08 O_TOT= -0.4421722E-08 <-- DLTA
 ------------------------------------------------------------------------------
 Cycle:     63
  WF centre and spread    1  (  0.000000, -2.285894, -0.000000 )     0.61863626
  WF centre and spread    2  (  0.000000,  0.000000, -2.285894 )     0.61861325
  WF centre and spread    3  (  2.285894, -0.000000,  0.000000 )     0.61874211
  Sum of centres and spreads (  2.285895, -2.285894, -2.285894 )     1.85599161
 
     63    -0.319E-08     0.0000400930        1.8559928673       0.20  <-- CONV
        O_D=      0.0000000 O_OD=      0.0036707 O_TOT=      1.8559929 <-- SPRD
 Delta: O_D= -0.5810319E-09 O_OD= -0.2611231E-08 O_TOT= -0.3192263E-08 <-- DLTA
 ------------------------------------------------------------------------------
 Cycle:     64
  WF centre and spread    1  (  0.000000, -2.285894, -0.000000 )     0.61863626
  WF centre and spread    2  (  0.000000,  0.000000, -2.285894 )     0.61861325
  WF centre and spread    3  (  2.285894, -0.000000,  0.000000 )     0.61874211
  Sum of centres and spreads (  2.285895, -2.285894, -2.285894 )     1.85599161
 
     64    -0.224E-11     0.0000185587        1.8559928673       0.20  <-- CONV
        O_D=      0.0000000 O_OD=      0.0036707 O_TOT=      1.8559929 <-- SPRD
 Delta: O_D= -0.1885692E-12 O_OD= -0.2056074E-11 O_TOT= -0.2244871E-11 <-- DLTA
 ------------------------------------------------------------------------------
 Cycle:     65
  WF centre and spread    1  (  0.000000, -2.285894, -0.000000 )     0.61863626
  WF centre and spread    2  (  0.000000,  0.000000, -2.285894 )     0.61861325
  WF centre and spread    3  (  2.285894, -0.000000,  0.000000 )     0.61874211
  Sum of centres and spreads (  2.285895, -2.285894, -2.285894 )     1.85599161
 
     65    -0.200E-08     0.0000185501        1.8559928653       0.21  <-- CONV
        O_D=      0.0000000 O_OD=      0.0036707 O_TOT=      1.8559929 <-- SPRD
 Delta: O_D=  0.5221174E-10 O_OD= -0.2047452E-08 O_TOT= -0.1995240E-08 <-- DLTA
 ------------------------------------------------------------------------------
 Cycle:     66
  WF centre and spread    1  (  0.000000, -2.285894, -0.000000 )     0.61863625
  WF centre and spread    2  (  0.000000,  0.000000, -2.285894 )     0.61861325
  WF centre and spread    3  (  2.285894, -0.000000,  0.000000 )     0.61874210
  Sum of centres and spreads (  2.285895, -2.285894, -2.285894 )     1.85599161
 
     66    -0.357E-08     0.0000223358        1.8559928617       0.21  <-- CONV
        O_D=      0.0000000 O_OD=      0.0036707 O_TOT=      1.8559929 <-- SPRD
 Delta: O_D=  0.2247387E-08 O_OD= -0.5814923E-08 O_TOT= -0.3567536E-08 <-- DLTA
 ------------------------------------------------------------------------------
 Cycle:     67
  WF centre and spread    1  (  0.000000, -2.285894, -0.000000 )     0.61863625
  WF centre and spread    2  (  0.000000,  0.000000, -2.285894 )     0.61861325
  WF centre and spread    3  (  2.285894, -0.000000,  0.000000 )     0.61874210
  Sum of centres and spreads (  2.285895, -2.285894, -2.285894 )     1.85599160
 
     67    -0.764E-08     0.0000605330        1.8559928541       0.21  <-- CONV
        O_D=      0.0000000 O_OD=      0.0036707 O_TOT=      1.8559929 <-- SPRD
 Delta: O_D= -0.2127985E-08 O_OD= -0.5514474E-08 O_TOT= -0.7642460E-08 <-- DLTA
 ------------------------------------------------------------------------------
 Cycle:     68
  WF centre and spread    1  (  0.000000, -2.285894, -0.000000 )     0.61863625
  WF centre and spread    2  (  0.000000,  0.000000, -2.285894 )     0.61861325
  WF centre and spread    3  (  2.285894, -0.000000,  0.000000 )     0.61874210
  Sum of centres and spreads (  2.285895, -2.285894, -2.285894 )     1.85599160
 
     68    -0.216E-08     0.0000253683        1.8559928519       0.21  <-- CONV
        O_D=      0.0000000 O_OD=      0.0036707 O_TOT=      1.8559929 <-- SPRD
 Delta: O_D= -0.5456896E-10 O_OD= -0.2103894E-08 O_TOT= -0.2158462E-08 <-- DLTA
 ------------------------------------------------------------------------------
 Cycle:     69
  WF centre and spread    1  (  0.000000, -2.285894, -0.000000 )     0.61863625
  WF centre and spread    2  (  0.000000,  0.000000, -2.285894 )     0.61861325
  WF centre and spread    3  (  2.285894, -0.000000,  0.000000 )     0.61874210
  Sum of centres and spreads (  2.285895, -2.285894, -2.285894 )     1.85599160
 
     69    -0.238E-11     0.0000196538        1.8559928519       0.21  <-- CONV
        O_D=      0.0000000 O_OD=      0.0036707 O_TOT=      1.8559929 <-- SPRD
 Delta: O_D= -0.5394768E-13 O_OD= -0.2324862E-11 O_TOT= -0.2378986E-11 <-- DLTA
 ------------------------------------------------------------------------------
 Cycle:     70
  WF centre and spread    1  (  0.000000, -2.285894, -0.000000 )     0.61863625
  WF centre and spread    2  (  0.000000,  0.000000, -2.285894 )     0.61861324
  WF centre and spread    3  (  2.285894, -0.000000,  0.000000 )     0.61874210
  Sum of centres and spreads (  2.285895, -2.285894, -2.285894 )     1.85599159
 
     70    -0.430E-08     0.0000196513        1.8559928476       0.22  <-- CONV
        O_D=      0.0000000 O_OD=      0.0036707 O_TOT=      1.8559928 <-- SPRD
 Delta: O_D=  0.1142724E-09 O_OD= -0.4414503E-08 O_TOT= -0.4300230E-08 <-- DLTA
 ------------------------------------------------------------------------------
 Cycle:     71
  WF centre and spread    1  (  0.000000, -2.285894, -0.000000 )     0.61863625
  WF centre and spread    2  (  0.000000,  0.000000, -2.285894 )     0.61861324
  WF centre and spread    3  (  2.285894, -0.000000,  0.000000 )     0.61874210
  Sum of centres and spreads (  2.285895, -2.285894, -2.285894 )     1.85599159
 
     71    -0.763E-08     0.0000332151        1.8559928400       0.22  <-- CONV
        O_D=      0.0000000 O_OD=      0.0036706 O_TOT=      1.8559928 <-- SPRD
 Delta: O_D=  0.5072360E-08 O_OD= -0.1270580E-07 O_TOT= -0.7633442E-08 <-- DLTA
 ------------------------------------------------------------------------------
 Cycle:     72
  WF centre and spread    1  (  0.000000, -2.285894, -0.000000 )     0.61863624
  WF centre and spread    2  (  0.000000,  0.000000, -2.285894 )     0.61861324
  WF centre and spread    3  (  2.285894, -0.000000,  0.000000 )     0.61874209
  Sum of centres and spreads (  2.285895, -2.285894, -2.285894 )     1.85599157
 
     72    -0.129E-07     0.0000708308        1.8559928271       0.22  <-- CONV
        O_D=      0.0000000 O_OD=      0.0036706 O_TOT=      1.8559928 <-- SPRD
 Delta: O_D= -0.5121816E-08 O_OD= -0.7780124E-08 O_TOT= -0.1290194E-07 <-- DLTA
 ------------------------------------------------------------------------------
 Cycle:     73
  WF centre and spread    1  (  0.000000, -2.285894, -0.000000 )     0.61863624
  WF centre and spread    2  (  0.000000,  0.000000, -2.285894 )     0.61861324
  WF centre and spread    3  (  2.285894, -0.000000,  0.000000 )     0.61874209
  Sum of centres and spreads (  2.285895, -2.285894, -2.285894 )     1.85599157
 
     73    -0.202E-08     0.0000284231        1.8559928251       0.22  <-- CONV
        O_D=      0.0000000 O_OD=      0.0036706 O_TOT=      1.8559928 <-- SPRD
 Delta: O_D= -0.1252032E-09 O_OD= -0.1889986E-08 O_TOT= -0.2015189E-08 <-- DLTA
 ------------------------------------------------------------------------------
 Cycle:     74
  WF centre and spread    1  (  0.000000, -2.285894, -0.000000 )     0.61863624
  WF centre and spread    2  (  0.000000,  0.000000, -2.285894 )     0.61861324
  WF centre and spread    3  (  2.285894, -0.000000,  0.000000 )     0.61874209
  Sum of centres and spreads (  2.285895, -2.285894, -2.285894 )     1.85599157
 
     74    -0.221E-11     0.0000183682        1.8559928251       0.22  <-- CONV
        O_D=      0.0000000 O_OD=      0.0036706 O_TOT=      1.8559928 <-- SPRD
 Delta: O_D= -0.1175488E-12 O_OD= -0.2091623E-11 O_TOT= -0.2209122E-11 <-- DLTA
 ------------------------------------------------------------------------------
 Cycle:     75
  WF centre and spread    1  (  0.000000, -2.285894, -0.000000 )     0.61863624
  WF centre and spread    2  (  0.000000,  0.000000, -2.285894 )     0.61861324
  WF centre and spread    3  (  2.285894, -0.000000,  0.000000 )     0.61874209
  Sum of centres and spreads (  2.285895, -2.285894, -2.285894 )     1.85599157
 
     75    -0.371E-08     0.0000183655        1.8559928214       0.23  <-- CONV
        O_D=      0.0000000 O_OD=      0.0036706 O_TOT=      1.8559928 <-- SPRD
 Delta: O_D=  0.5692017E-09 O_OD= -0.4276266E-08 O_TOT= -0.3707065E-08 <-- DLTA
 ------------------------------------------------------------------------------
 Cycle:     76
  WF centre and spread    1  (  0.000000, -2.285894, -0.000000 )     0.61863624
  WF centre and spread    2  (  0.000000,  0.000000, -2.285894 )     0.61861323
  WF centre and spread    3  (  2.285894, -0.000000,  0.000000 )     0.61874209
  Sum of centres and spreads (  2.285895, -2.285894, -2.285894 )     1.85599156
 
     76    -0.345E-08     0.0000435403        1.8559928179       0.23  <-- CONV
        O_D=      0.0000000 O_OD=      0.0036706 O_TOT=      1.8559928 <-- SPRD
 Delta: O_D= -0.5401096E-09 O_OD= -0.2907444E-08 O_TOT= -0.3447554E-08 <-- DLTA
 ------------------------------------------------------------------------------
 Cycle:     77
  WF centre and spread    1  (  0.000000, -2.285894, -0.000000 )     0.61863624
  WF centre and spread    2  (  0.000000,  0.000000, -2.285894 )     0.61861323
  WF centre and spread    3  (  2.285894, -0.000000,  0.000000 )     0.61874209
  Sum of centres and spreads (  2.285895, -2.285894, -2.285894 )     1.85599156
 
     77    -0.285E-08     0.0000191952        1.8559928151       0.23  <-- CONV
        O_D=      0.0000000 O_OD=      0.0036706 O_TOT=      1.8559928 <-- SPRD
 Delta: O_D=  0.4645777E-09 O_OD= -0.3317056E-08 O_TOT= -0.2852478E-08 <-- DLTA
 ------------------------------------------------------------------------------
 Cycle:     78
  WF centre and spread    1  (  0.000000, -2.285894, -0.000000 )     0.61863624
  WF centre and spread    2  (  0.000000,  0.000000, -2.285894 )     0.61861323
  WF centre and spread    3  (  2.285894, -0.000000,  0.000000 )     0.61874209
  Sum of centres and spreads (  2.285895, -2.285894, -2.285894 )     1.85599156
 
     78    -0.447E-11     0.0000267055        1.8559928150       0.23  <-- CONV
        O_D=      0.0000000 O_OD=      0.0036706 O_TOT=      1.8559928 <-- SPRD
 Delta: O_D= -0.1534506E-12 O_OD= -0.4314533E-11 O_TOT= -0.4467982E-11 <-- DLTA
 ------------------------------------------------------------------------------
 Cycle:     79
  WF centre and spread    1  (  0.000000, -2.285894, -0.000000 )     0.61863624
  WF centre and spread    2  (  0.000000,  0.000000, -2.285894 )     0.61861323
  WF centre and spread    3  (  2.285894, -0.000000,  0.000000 )     0.61874208
  Sum of centres and spreads (  2.285895, -2.285894, -2.285894 )     1.85599155
 
     79    -0.625E-08     0.0000267014        1.8559928088       0.23  <-- CONV
        O_D=      0.0000000 O_OD=      0.0036706 O_TOT=      1.8559928 <-- SPRD
 Delta: O_D=  0.4614478E-09 O_OD= -0.6716101E-08 O_TOT= -0.6254653E-08 <-- DLTA
 ------------------------------------------------------------------------------
 Cycle:     80
  WF centre and spread    1  (  0.000000, -2.285894, -0.000000 )     0.61863624
  WF centre and spread    2  (  0.000000,  0.000000, -2.285894 )     0.61861323
  WF centre and spread    3  (  2.285894, -0.000000,  0.000000 )     0.61874208
  Sum of centres and spreads (  2.285895, -2.285894, -2.285894 )     1.85599155
 
     80    -0.837E-08     0.0000367583        1.8559928004       0.24  <-- CONV
        O_D=      0.0000000 O_OD=      0.0036706 O_TOT=      1.8559928 <-- SPRD
 Delta: O_D=  0.6408573E-08 O_OD= -0.1477549E-07 O_TOT= -0.8366912E-08 <-- DLTA
 ------------------------------------------------------------------------------
 Cycle:     81
  WF centre and spread    1  (  0.000000, -2.285894, -0.000000 )     0.61863623
  WF centre and spread    2  (  0.000000,  0.000000, -2.285894 )     0.61861322
  WF centre and spread    3  (  2.285894, -0.000000,  0.000000 )     0.61874207
  Sum of centres and spreads (  2.285895, -2.285894, -2.285894 )     1.85599153
 
     81    -0.158E-07     0.0000782720        1.8559927846       0.24  <-- CONV
        O_D=      0.0000000 O_OD=      0.0036706 O_TOT=      1.8559928 <-- SPRD
 Delta: O_D= -0.7201966E-08 O_OD= -0.8642105E-08 O_TOT= -0.1584407E-07 <-- DLTA
 ------------------------------------------------------------------------------
 Cycle:     82
  WF centre and spread    1  (  0.000000, -2.285894, -0.000000 )     0.61863623
  WF centre and spread    2  (  0.000000,  0.000000, -2.285894 )     0.61861322
  WF centre and spread    3  (  2.285894, -0.000000,  0.000000 )     0.61874207
  Sum of centres and spreads (  2.285895, -2.285894, -2.285894 )     1.85599153
 
     82    -0.191E-08     0.0000200873        1.8559927827       0.24  <-- CONV
        O_D=      0.0000000 O_OD=      0.0036706 O_TOT=      1.8559928 <-- SPRD
 Delta: O_D=  0.7549254E-10 O_OD= -0.1981424E-08 O_TOT= -0.1905932E-08 <-- DLTA
 ------------------------------------------------------------------------------
 Cycle:     83
  WF centre and spread    1  (  0.000000, -2.285894, -0.000000 )     0.61863623
  WF centre and spread    2  (  0.000000,  0.000000, -2.285894 )     0.61861322
  WF centre and spread    3  (  2.285894, -0.000000,  0.000000 )     0.61874207
  Sum of centres and spreads (  2.285895, -2.285894, -2.285894 )     1.85599152
 
     83    -0.689E-08     0.0000259049        1.8559927758       0.24  <-- CONV
        O_D=      0.0000000 O_OD=      0.0036706 O_TOT=      1.8559928 <-- SPRD
 Delta: O_D=  0.1942287E-08 O_OD= -0.8834170E-08 O_TOT= -0.6891882E-08 <-- DLTA
 ------------------------------------------------------------------------------
 Cycle:     84
  WF centre and spread    1  (  0.000000, -2.285894, -0.000000 )     0.61863623
  WF centre and spread    2  (  0.000000,  0.000000, -2.285894 )     0.61861322
  WF centre and spread    3  (  2.285894, -0.000000,  0.000000 )     0.61874207
  Sum of centres and spreads (  2.285895, -2.285894, -2.285894 )     1.85599152
 
     84    -0.519E-08     0.0000484109        1.8559927706       0.24  <-- CONV
        O_D=      0.0000000 O_OD=      0.0036706 O_TOT=      1.8559928 <-- SPRD
 Delta: O_D= -0.1810580E-08 O_OD= -0.3378530E-08 O_TOT= -0.5189110E-08 <-- DLTA
 ------------------------------------------------------------------------------
 Cycle:     85
  WF centre and spread    1  (  0.000000, -2.285894, -0.000000 )     0.61863623
  WF centre and spread    2  (  0.000000,  0.000000, -2.285894 )     0.61861322
  WF centre and spread    3  (  2.285894, -0.000000,  0.000000 )     0.61874207
  Sum of centres and spreads (  2.285895, -2.285894, -2.285894 )     1.85599151
 
     85    -0.247E-08     0.0000235163        1.8559927681       0.25  <-- CONV
        O_D=      0.0000000 O_OD=      0.0036706 O_TOT=      1.8559928 <-- SPRD
 Delta: O_D= -0.1094830E-09 O_OD= -0.2362082E-08 O_TOT= -0.2471565E-08 <-- DLTA
 ------------------------------------------------------------------------------
 Cycle:     86
  WF centre and spread    1  (  0.000000, -2.285894, -0.000000 )     0.61863623
  WF centre and spread    2  (  0.000000,  0.000000, -2.285894 )     0.61861322
  WF centre and spread    3  (  2.285894, -0.000000,  0.000000 )     0.61874207
  Sum of centres and spreads (  2.285895, -2.285894, -2.285894 )     1.85599151
 
     86    -0.454E-08     0.0000254170        1.8559927636       0.25  <-- CONV
        O_D=      0.0000000 O_OD=      0.0036706 O_TOT=      1.8559928 <-- SPRD
 Delta: O_D=  0.8050995E-09 O_OD= -0.5343957E-08 O_TOT= -0.4538857E-08 <-- DLTA
 ------------------------------------------------------------------------------
 Cycle:     87
  WF centre and spread    1  (  0.000000, -2.285894, -0.000000 )     0.61863622
  WF centre and spread    2  (  0.000000,  0.000000, -2.285894 )     0.61861322
  WF centre and spread    3  (  2.285894, -0.000000,  0.000000 )     0.61874206
  Sum of centres and spreads (  2.285895, -2.285894, -2.285894 )     1.85599150
 
     87    -0.112E-07     0.0000259822        1.8559927524       0.25  <-- CONV
        O_D=      0.0000000 O_OD=      0.0036706 O_TOT=      1.8559928 <-- SPRD
 Delta: O_D=  0.6529372E-08 O_OD= -0.1770887E-07 O_TOT= -0.1117950E-07 <-- DLTA
 ------------------------------------------------------------------------------
 Cycle:     88
  WF centre and spread    1  (  0.000000, -2.285894, -0.000000 )     0.61863622
  WF centre and spread    2  (  0.000000,  0.000000, -2.285894 )     0.61861321
  WF centre and spread    3  (  2.285894, -0.000000,  0.000000 )     0.61874206
  Sum of centres and spreads (  2.285895, -2.285894, -2.285894 )     1.85599148
 
     88    -0.156E-07     0.0000792799        1.8559927368       0.25  <-- CONV
        O_D=      0.0000000 O_OD=      0.0036705 O_TOT=      1.8559927 <-- SPRD
 Delta: O_D= -0.6846059E-08 O_OD= -0.8765751E-08 O_TOT= -0.1561181E-07 <-- DLTA
 ------------------------------------------------------------------------------
 Cycle:     89
  WF centre and spread    1  (  0.000000, -2.285894, -0.000000 )     0.61863622
  WF centre and spread    2  (  0.000000,  0.000000, -2.285894 )     0.61861321
  WF centre and spread    3  (  2.285894, -0.000000,  0.000000 )     0.61874205
  Sum of centres and spreads (  2.285895, -2.285894, -2.285894 )     1.85599148
 
     89    -0.278E-08     0.0000336139        1.8559927340       0.25  <-- CONV
        O_D=      0.0000000 O_OD=      0.0036705 O_TOT=      1.8559927 <-- SPRD
 Delta: O_D= -0.5284732E-09 O_OD= -0.2255136E-08 O_TOT= -0.2783609E-08 <-- DLTA
 ------------------------------------------------------------------------------
 Cycle:     90
  WF centre and spread    1  (  0.000000, -2.285894, -0.000000 )     0.61863621
  WF centre and spread    2  (  0.000000,  0.000000, -2.285894 )     0.61861321
  WF centre and spread    3  (  2.285894, -0.000000,  0.000000 )     0.61874205
  Sum of centres and spreads (  2.285895, -2.285894, -2.285894 )     1.85599148
 
     90    -0.474E-08     0.0000194719        1.8559927293       0.26  <-- CONV
        O_D=      0.0000000 O_OD=      0.0036705 O_TOT=      1.8559927 <-- SPRD
 Delta: O_D=  0.8582102E-10 O_OD= -0.4829431E-08 O_TOT= -0.4743610E-08 <-- DLTA
 ------------------------------------------------------------------------------
 Cycle:     91
  WF centre and spread    1  (  0.000000, -2.285894, -0.000000 )     0.61863621
  WF centre and spread    2  (  0.000000,  0.000000, -2.285894 )     0.61861321
  WF centre and spread    3  (  2.285894, -0.000000,  0.000000 )     0.61874205
  Sum of centres and spreads (  2.285895, -2.285894, -2.285894 )     1.85599148
 
     91    -0.314E-11     0.0000183786        1.8559927293       0.26  <-- CONV
        O_D=      0.0000000 O_OD=      0.0036705 O_TOT=      1.8559927 <-- SPRD
 Delta: O_D= -0.4996591E-13 O_OD= -0.3085779E-11 O_TOT= -0.3135714E-11 <-- DLTA
 ------------------------------------------------------------------------------
 Cycle:     92
  WF centre and spread    1  (  0.000000, -2.285894, -0.000000 )     0.61863621
  WF centre and spread    2  (  0.000000,  0.000000, -2.285894 )     0.61861321
  WF centre and spread    3  (  2.285894, -0.000000,  0.000000 )     0.61874205
  Sum of centres and spreads (  2.285895, -2.285894, -2.285894 )     1.85599147
 
     92    -0.566E-08     0.0000183743        1.8559927236       0.26  <-- CONV
        O_D=      0.0000000 O_OD=      0.0036705 O_TOT=      1.8559927 <-- SPRD
 Delta: O_D=  0.1158234E-08 O_OD= -0.6814281E-08 O_TOT= -0.5656047E-08 <-- DLTA
 ------------------------------------------------------------------------------
 Cycle:     93
  WF centre and spread    1  (  0.000000, -2.285894, -0.000000 )     0.61863621
  WF centre and spread    2  (  0.000000,  0.000000, -2.285894 )     0.61861320
  WF centre and spread    3  (  2.285894, -0.000000,  0.000000 )     0.61874205
  Sum of centres and spreads (  2.285895, -2.285894, -2.285894 )     1.85599146
 
     93    -0.527E-08     0.0000519810        1.8559927183       0.26  <-- CONV
        O_D=      0.0000000 O_OD=      0.0036705 O_TOT=      1.8559927 <-- SPRD
 Delta: O_D= -0.1522327E-08 O_OD= -0.3750777E-08 O_TOT= -0.5273104E-08 <-- DLTA
 ------------------------------------------------------------------------------
 Cycle:     94
  WF centre and spread    1  (  0.000000, -2.285894, -0.000000 )     0.61863621
  WF centre and spread    2  (  0.000000,  0.000000, -2.285894 )     0.61861320
  WF centre and spread    3  (  2.285894, -0.000000,  0.000000 )     0.61874205
  Sum of centres and spreads (  2.285895, -2.285894, -2.285894 )     1.85599146
 
     94    -0.174E-08     0.0000193567        1.8559927166       0.26  <-- CONV
        O_D=      0.0000000 O_OD=      0.0036705 O_TOT=      1.8559927 <-- SPRD
 Delta: O_D=  0.2034121E-09 O_OD= -0.1942430E-08 O_TOT= -0.1739018E-08 <-- DLTA
 ------------------------------------------------------------------------------
 Cycle:     95
  WF centre and spread    1  (  0.000000, -2.285894, -0.000000 )     0.61863621
  WF centre and spread    2  (  0.000000,  0.000000, -2.285894 )     0.61861320
  WF centre and spread    3  (  2.285894, -0.000000,  0.000000 )     0.61874205
  Sum of centres and spreads (  2.285895, -2.285894, -2.285894 )     1.85599146
 
     95    -0.377E-11     0.0000245678        1.8559927166       0.26  <-- CONV
        O_D=      0.0000000 O_OD=      0.0036705 O_TOT=      1.8559927 <-- SPRD
 Delta: O_D= -0.4199779E-13 O_OD= -0.3729020E-11 O_TOT= -0.3770984E-11 <-- DLTA
 ------------------------------------------------------------------------------
 Cycle:     96
  WF centre and spread    1  (  0.000000, -2.285894, -0.000000 )     0.61863621
  WF centre and spread    2  (  0.000000,  0.000000, -2.285894 )     0.61861320
  WF centre and spread    3  (  2.285894, -0.000000,  0.000000 )     0.61874205
  Sum of centres and spreads (  2.285895, -2.285894, -2.285894 )     1.85599146
 
     96    -0.489E-08     0.0000245652        1.8559927117       0.27  <-- CONV
        O_D=      0.0000000 O_OD=      0.0036705 O_TOT=      1.8559927 <-- SPRD
 Delta: O_D=  0.1527523E-09 O_OD= -0.5038978E-08 O_TOT= -0.4886225E-08 <-- DLTA
 ------------------------------------------------------------------------------
 Cycle:     97
  WF centre and spread    1  (  0.000000, -2.285894, -0.000000 )     0.61863621
  WF centre and spread    2  (  0.000000,  0.000000, -2.285894 )     0.61861320
  WF centre and spread    3  (  2.285894, -0.000000,  0.000000 )     0.61874204
  Sum of centres and spreads (  2.285895, -2.285894, -2.285894 )     1.85599145
 
[...]
  Sum of centres and spreads (  2.285895, -2.285894, -2.285894 )     1.85598810
 
    473    -0.230E-07     0.0000985444        1.8559893576       1.09  <-- CONV
        O_D=      0.0000000 O_OD=      0.0036672 O_TOT=      1.8559894 <-- SPRD
 Delta: O_D= -0.1098696E-07 O_OD= -0.1202874E-07 O_TOT= -0.2301569E-07 <-- DLTA
 ------------------------------------------------------------------------------
 Cycle:    474
  WF centre and spread    1  (  0.000000, -2.285894, -0.000000 )     0.61863521
  WF centre and spread    2  (  0.000000,  0.000000, -2.285894 )     0.61861217
  WF centre and spread    3  (  2.285894, -0.000000,  0.000000 )     0.61874072
  Sum of centres and spreads (  2.285895, -2.285894, -2.285894 )     1.85598810
 
    474    -0.797E-08     0.0000459593        1.8559893496       1.09  <-- CONV
        O_D=      0.0000000 O_OD=      0.0036672 O_TOT=      1.8559893 <-- SPRD
 Delta: O_D= -0.1892764E-08 O_OD= -0.6082214E-08 O_TOT= -0.7974978E-08 <-- DLTA
 ------------------------------------------------------------------------------
 Cycle:    475
  WF centre and spread    1  (  0.000000, -2.285894, -0.000000 )     0.61863520
  WF centre and spread    2  (  0.000000,  0.000000, -2.285894 )     0.61861216
  WF centre and spread    3  (  2.285894, -0.000000,  0.000000 )     0.61874072
  Sum of centres and spreads (  2.285895, -2.285894, -2.285894 )     1.85598809
 
    475    -0.618E-08     0.0000315995        1.8559893434       1.09  <-- CONV
        O_D=      0.0000000 O_OD=      0.0036671 O_TOT=      1.8559893 <-- SPRD
 Delta: O_D= -0.1922823E-09 O_OD= -0.5989141E-08 O_TOT= -0.6181424E-08 <-- DLTA
 ------------------------------------------------------------------------------
 Cycle:    476
  WF centre and spread    1  (  0.000000, -2.285894, -0.000000 )     0.61863520
  WF centre and spread    2  (  0.000000,  0.000000, -2.285894 )     0.61861216
  WF centre and spread    3  (  2.285894, -0.000000,  0.000000 )     0.61874072
  Sum of centres and spreads (  2.285895, -2.285894, -2.285894 )     1.85598808
 
    476    -0.470E-08     0.0000264511        1.8559893387       1.09  <-- CONV
        O_D=      0.0000000 O_OD=      0.0036671 O_TOT=      1.8559893 <-- SPRD
 Delta: O_D=  0.2071122E-09 O_OD= -0.4903398E-08 O_TOT= -0.4696286E-08 <-- DLTA
 ------------------------------------------------------------------------------
 Cycle:    477
  WF centre and spread    1  (  0.000000, -2.285894, -0.000000 )     0.61863520
  WF centre and spread    2  (  0.000000,  0.000000, -2.285894 )     0.61861216
  WF centre and spread    3  (  2.285894, -0.000000,  0.000000 )     0.61874072
  Sum of centres and spreads (  2.285895, -2.285894, -2.285894 )     1.85598808
 
    477    -0.643E-08     0.0000358437        1.8559893323       1.10  <-- CONV
        O_D=      0.0000000 O_OD=      0.0036671 O_TOT=      1.8559893 <-- SPRD
 Delta: O_D=  0.2118146E-09 O_OD= -0.6645402E-08 O_TOT= -0.6433587E-08 <-- DLTA
 ------------------------------------------------------------------------------
 Cycle:    478
  WF centre and spread    1  (  0.000000, -2.285894, -0.000000 )     0.61863520
  WF centre and spread    2  (  0.000000,  0.000000, -2.285894 )     0.61861216
  WF centre and spread    3  (  2.285894, -0.000000,  0.000000 )     0.61874071
  Sum of centres and spreads (  2.285895, -2.285894, -2.285894 )     1.85598807
 
    478    -0.108E-07     0.0000296204        1.8559893214       1.10  <-- CONV
        O_D=      0.0000000 O_OD=      0.0036671 O_TOT=      1.8559893 <-- SPRD
 Delta: O_D=  0.4113977E-08 O_OD= -0.1495333E-07 O_TOT= -0.1083935E-07 <-- DLTA
 ------------------------------------------------------------------------------
 Cycle:    479
  WF centre and spread    1  (  0.000000, -2.285894, -0.000000 )     0.61863519
  WF centre and spread    2  (  0.000000,  0.000000, -2.285894 )     0.61861215
  WF centre and spread    3  (  2.285894, -0.000000,  0.000000 )     0.61874071
  Sum of centres and spreads (  2.285895, -2.285894, -2.285894 )     1.85598806
 
    479    -0.105E-07     0.0000704075        1.8559893109       1.10  <-- CONV
        O_D=      0.0000000 O_OD=      0.0036671 O_TOT=      1.8559893 <-- SPRD
 Delta: O_D= -0.3735207E-08 O_OD= -0.6754686E-08 O_TOT= -0.1048989E-07 <-- DLTA
 ------------------------------------------------------------------------------
 Cycle:    480
  WF centre and spread    1  (  0.000000, -2.285894, -0.000000 )     0.61863519
  WF centre and spread    2  (  0.000000,  0.000000, -2.285894 )     0.61861215
  WF centre and spread    3  (  2.285894, -0.000000,  0.000000 )     0.61874071
  Sum of centres and spreads (  2.285895, -2.285894, -2.285894 )     1.85598805
 
    480    -0.581E-08     0.0000321215        1.8559893051       1.10  <-- CONV
        O_D=      0.0000000 O_OD=      0.0036671 O_TOT=      1.8559893 <-- SPRD
 Delta: O_D= -0.7181789E-09 O_OD= -0.5089083E-08 O_TOT= -0.5807261E-08 <-- DLTA
 ------------------------------------------------------------------------------
 Cycle:    481
  WF centre and spread    1  (  0.000000, -2.285894, -0.000000 )     0.61863519
  WF centre and spread    2  (  0.000000,  0.000000, -2.285894 )     0.61861215
  WF centre and spread    3  (  2.285894, -0.000000,  0.000000 )     0.61874070
  Sum of centres and spreads (  2.285895, -2.285894, -2.285894 )     1.85598805
 
    481    -0.551E-08     0.0000367375        1.8559892996       1.10  <-- CONV
        O_D=      0.0000000 O_OD=      0.0036671 O_TOT=      1.8559893 <-- SPRD
 Delta: O_D=  0.2006554E-10 O_OD= -0.5531265E-08 O_TOT= -0.5511199E-08 <-- DLTA
 ------------------------------------------------------------------------------
 Cycle:    482
  WF centre and spread    1  (  0.000000, -2.285894, -0.000000 )     0.61863519
  WF centre and spread    2  (  0.000000,  0.000000, -2.285894 )     0.61861215
  WF centre and spread    3  (  2.285894, -0.000000,  0.000000 )     0.61874070
  Sum of centres and spreads (  2.285895, -2.285894, -2.285894 )     1.85598804
 
    482    -0.643E-08     0.0000274563        1.8559892932       1.11  <-- CONV
        O_D=      0.0000000 O_OD=      0.0036671 O_TOT=      1.8559893 <-- SPRD
 Delta: O_D=  0.1218754E-09 O_OD= -0.6553892E-08 O_TOT= -0.6432016E-08 <-- DLTA
 ------------------------------------------------------------------------------
 Cycle:    483
  WF centre and spread    1  (  0.000000, -2.285894, -0.000000 )     0.61863519
  WF centre and spread    2  (  0.000000,  0.000000, -2.285894 )     0.61861215
  WF centre and spread    3  (  2.285894, -0.000000,  0.000000 )     0.61874070
  Sum of centres and spreads (  2.285895, -2.285894, -2.285894 )     1.85598803
 
    483    -0.599E-08     0.0000341664        1.8559892872       1.11  <-- CONV
        O_D=      0.0000000 O_OD=      0.0036671 O_TOT=      1.8559893 <-- SPRD
 Delta: O_D=  0.1773393E-08 O_OD= -0.7760551E-08 O_TOT= -0.5987158E-08 <-- DLTA
 ------------------------------------------------------------------------------
 Cycle:    484
  WF centre and spread    1  (  0.000000, -2.285894, -0.000000 )     0.61863518
  WF centre and spread    2  (  0.000000,  0.000000, -2.285894 )     0.61861214
  WF centre and spread    3  (  2.285894, -0.000000,  0.000000 )     0.61874069
  Sum of centres and spreads (  2.285895, -2.285894, -2.285894 )     1.85598801
 
    484    -0.204E-07     0.0000465374        1.8559892668       1.11  <-- CONV
        O_D=      0.0000000 O_OD=      0.0036671 O_TOT=      1.8559893 <-- SPRD
 Delta: O_D=  0.1362702E-07 O_OD= -0.3405598E-07 O_TOT= -0.2042896E-07 <-- DLTA
 ------------------------------------------------------------------------------
 Cycle:    485
  WF centre and spread    1  (  0.000000, -2.285894, -0.000000 )     0.61863517
  WF centre and spread    2  (  0.000000,  0.000000, -2.285894 )     0.61861213
  WF centre and spread    3  (  2.285894, -0.000000,  0.000000 )     0.61874068
  Sum of centres and spreads (  2.285895, -2.285894, -2.285894 )     1.85598799
 
    485    -0.247E-07     0.0000937219        1.8559892421       1.11  <-- CONV
        O_D=      0.0000000 O_OD=      0.0036670 O_TOT=      1.8559892 <-- SPRD
 Delta: O_D= -0.1253428E-07 O_OD= -0.1212241E-07 O_TOT= -0.2465669E-07 <-- DLTA
 ------------------------------------------------------------------------------
 Cycle:    486
  WF centre and spread    1  (  0.000000, -2.285894, -0.000000 )     0.61863517
  WF centre and spread    2  (  0.000000,  0.000000, -2.285894 )     0.61861213
  WF centre and spread    3  (  2.285894, -0.000000,  0.000000 )     0.61874068
  Sum of centres and spreads (  2.285895, -2.285894, -2.285894 )     1.85598798
 
    486    -0.820E-08     0.0000499222        1.8559892339       1.11  <-- CONV
        O_D=      0.0000000 O_OD=      0.0036670 O_TOT=      1.8559892 <-- SPRD
 Delta: O_D= -0.2426395E-08 O_OD= -0.5773567E-08 O_TOT= -0.8199961E-08 <-- DLTA
 ------------------------------------------------------------------------------
 Cycle:    487
  WF centre and spread    1  (  0.000000, -2.285894, -0.000000 )     0.61863517
  WF centre and spread    2  (  0.000000,  0.000000, -2.285894 )     0.61861213
  WF centre and spread    3  (  2.285894, -0.000000,  0.000000 )     0.61874068
  Sum of centres and spreads (  2.285895, -2.285894, -2.285894 )     1.85598797
 
    487    -0.636E-08     0.0000359986        1.8559892276       1.11  <-- CONV
        O_D=      0.0000000 O_OD=      0.0036670 O_TOT=      1.8559892 <-- SPRD
 Delta: O_D= -0.5455027E-09 O_OD= -0.5811619E-08 O_TOT= -0.6357121E-08 <-- DLTA
 ------------------------------------------------------------------------------
 Cycle:    488
  WF centre and spread    1  (  0.000000, -2.285894, -0.000000 )     0.61863517
  WF centre and spread    2  (  0.000000,  0.000000, -2.285894 )     0.61861213
  WF centre and spread    3  (  2.285894, -0.000000,  0.000000 )     0.61874067
  Sum of centres and spreads (  2.285895, -2.285894, -2.285894 )     1.85598797
 
    488    -0.457E-08     0.0000293260        1.8559892230       1.12  <-- CONV
        O_D=      0.0000000 O_OD=      0.0036670 O_TOT=      1.8559892 <-- SPRD
 Delta: O_D= -0.2320416E-09 O_OD= -0.4335435E-08 O_TOT= -0.4567477E-08 <-- DLTA
 ------------------------------------------------------------------------------
 Cycle:    489
  WF centre and spread    1  (  0.000000, -2.285894, -0.000000 )     0.61863517
  WF centre and spread    2  (  0.000000,  0.000000, -2.285894 )     0.61861212
  WF centre and spread    3  (  2.285894, -0.000000,  0.000000 )     0.61874067
  Sum of centres and spreads (  2.285895, -2.285894, -2.285894 )     1.85598796
 
    489    -0.623E-08     0.0000354510        1.8559892168       1.12  <-- CONV
        O_D=      0.0000000 O_OD=      0.0036670 O_TOT=      1.8559892 <-- SPRD
 Delta: O_D= -0.6647668E-10 O_OD= -0.6159491E-08 O_TOT= -0.6225968E-08 <-- DLTA
 ------------------------------------------------------------------------------
 Cycle:    490
  WF centre and spread    1  (  0.000000, -2.285894, -0.000000 )     0.61863516
  WF centre and spread    2  (  0.000000,  0.000000, -2.285894 )     0.61861212
  WF centre and spread    3  (  2.285894, -0.000000,  0.000000 )     0.61874067
  Sum of centres and spreads (  2.285895, -2.285894, -2.285894 )     1.85598796
 
    490    -0.745E-08     0.0000266173        1.8559892093       1.12  <-- CONV
        O_D=      0.0000000 O_OD=      0.0036670 O_TOT=      1.8559892 <-- SPRD
 Delta: O_D=  0.1291575E-08 O_OD= -0.8736990E-08 O_TOT= -0.7445415E-08 <-- DLTA
 ------------------------------------------------------------------------------
 Cycle:    491
  WF centre and spread    1  (  0.000000, -2.285894, -0.000000 )     0.61863516
  WF centre and spread    2  (  0.000000,  0.000000, -2.285894 )     0.61861212
  WF centre and spread    3  (  2.285894, -0.000000,  0.000000 )     0.61874067
  Sum of centres and spreads (  2.285895, -2.285894, -2.285894 )     1.85598795
 
    491    -0.562E-08     0.0000469316        1.8559892037       1.12  <-- CONV
        O_D=      0.0000000 O_OD=      0.0036670 O_TOT=      1.8559892 <-- SPRD
 Delta: O_D= -0.1517144E-08 O_OD= -0.4102461E-08 O_TOT= -0.5619605E-08 <-- DLTA
 ------------------------------------------------------------------------------
 Cycle:    492
  WF centre and spread    1  (  0.000000, -2.285894, -0.000000 )     0.61863516
  WF centre and spread    2  (  0.000000,  0.000000, -2.285894 )     0.61861212
  WF centre and spread    3  (  2.285894, -0.000000,  0.000000 )     0.61874066
  Sum of centres and spreads (  2.285895, -2.285894, -2.285894 )     1.85598794
 
    492    -0.597E-08     0.0000260147        1.8559891977       1.12  <-- CONV
        O_D=      0.0000000 O_OD=      0.0036670 O_TOT=      1.8559892 <-- SPRD
 Delta: O_D=  0.1835093E-10 O_OD= -0.5993290E-08 O_TOT= -0.5974939E-08 <-- DLTA
 ------------------------------------------------------------------------------
 Cycle:    493
  WF centre and spread    1  (  0.000000, -2.285894, -0.000000 )     0.61863516
  WF centre and spread    2  (  0.000000,  0.000000, -2.285894 )     0.61861212
  WF centre and spread    3  (  2.285894, -0.000000,  0.000000 )     0.61874066
  Sum of centres and spreads (  2.285895, -2.285894, -2.285894 )     1.85598794
 
    493    -0.421E-08     0.0000314655        1.8559891935       1.13  <-- CONV
        O_D=      0.0000000 O_OD=      0.0036670 O_TOT=      1.8559892 <-- SPRD
 Delta: O_D=  0.2995299E-09 O_OD= -0.4513273E-08 O_TOT= -0.4213743E-08 <-- DLTA
 ------------------------------------------------------------------------------
 Cycle:    494
  WF centre and spread    1  (  0.000000, -2.285894, -0.000000 )     0.61863516
  WF centre and spread    2  (  0.000000,  0.000000, -2.285894 )     0.61861212
  WF centre and spread    3  (  2.285894, -0.000000,  0.000000 )     0.61874066
  Sum of centres and spreads (  2.285895, -2.285894, -2.285894 )     1.85598793
 
    494    -0.758E-08     0.0000293725        1.8559891859       1.13  <-- CONV
        O_D=      0.0000000 O_OD=      0.0036670 O_TOT=      1.8559892 <-- SPRD
 Delta: O_D=  0.1174550E-08 O_OD= -0.8758774E-08 O_TOT= -0.7584224E-08 <-- DLTA
 ------------------------------------------------------------------------------
 Cycle:    495
  WF centre and spread    1  (  0.000000, -2.285894, -0.000000 )     0.61863515
  WF centre and spread    2  (  0.000000,  0.000000, -2.285894 )     0.61861212
  WF centre and spread    3  (  2.285894, -0.000000,  0.000000 )     0.61874065
  Sum of centres and spreads (  2.285895, -2.285894, -2.285894 )     1.85598792
 
    495    -0.948E-08     0.0000387991        1.8559891765       1.13  <-- CONV
        O_D=      0.0000000 O_OD=      0.0036670 O_TOT=      1.8559892 <-- SPRD
 Delta: O_D=  0.2481486E-08 O_OD= -0.1195683E-07 O_TOT= -0.9475339E-08 <-- DLTA
 ------------------------------------------------------------------------------
 Cycle:    496
  WF centre and spread    1  (  0.000000, -2.285894, -0.000000 )     0.61863514
  WF centre and spread    2  (  0.000000,  0.000000, -2.285894 )     0.61861211
  WF centre and spread    3  (  2.285894, -0.000000,  0.000000 )     0.61874064
  Sum of centres and spreads (  2.285895, -2.285894, -2.285894 )     1.85598789
 
    496    -0.351E-07     0.0000526810        1.8559891413       1.13  <-- CONV
        O_D=      0.0000000 O_OD=      0.0036669 O_TOT=      1.8559891 <-- SPRD
 Delta: O_D=  0.1489502E-07 O_OD= -0.5004253E-07 O_TOT= -0.3514752E-07 <-- DLTA
 ------------------------------------------------------------------------------
 Cycle:    497
  WF centre and spread    1  (  0.000000, -2.285894, -0.000000 )     0.61863513
  WF centre and spread    2  (  0.000000,  0.000000, -2.285894 )     0.61861209
  WF centre and spread    3  (  2.285894, -0.000000,  0.000000 )     0.61874063
  Sum of centres and spreads (  2.285895, -2.285894, -2.285894 )     1.85598786
 
    497    -0.318E-07     0.0001124922        1.8559891096       1.13  <-- CONV
        O_D=      0.0000000 O_OD=      0.0036669 O_TOT=      1.8559891 <-- SPRD
 Delta: O_D= -0.1447169E-07 O_OD= -0.1728558E-07 O_TOT= -0.3175727E-07 <-- DLTA
 ------------------------------------------------------------------------------
 Cycle:    498
  WF centre and spread    1  (  0.000000, -2.285894, -0.000000 )     0.61863513
  WF centre and spread    2  (  0.000000,  0.000000, -2.285894 )     0.61861209
  WF centre and spread    3  (  2.285894, -0.000000,  0.000000 )     0.61874062
  Sum of centres and spreads (  2.285895, -2.285894, -2.285894 )     1.85598785
 
    498    -0.104E-07     0.0000554933        1.8559890991       1.13  <-- CONV
        O_D=      0.0000000 O_OD=      0.0036669 O_TOT=      1.8559891 <-- SPRD
 Delta: O_D= -0.2720082E-08 O_OD= -0.7694499E-08 O_TOT= -0.1041458E-07 <-- DLTA
 ------------------------------------------------------------------------------
 Cycle:    499
  WF centre and spread    1  (  0.000000, -2.285894, -0.000000 )     0.61863513
  WF centre and spread    2  (  0.000000,  0.000000, -2.285894 )     0.61861209
  WF centre and spread    3  (  2.285894, -0.000000,  0.000000 )     0.61874062
  Sum of centres and spreads (  2.285895, -2.285894, -2.285894 )     1.85598784
 
    499    -0.888E-08     0.0000401926        1.8559890903       1.14  <-- CONV
        O_D=      0.0000000 O_OD=      0.0036669 O_TOT=      1.8559891 <-- SPRD
 Delta: O_D= -0.8653058E-09 O_OD= -0.8015328E-08 O_TOT= -0.8880634E-08 <-- DLTA
 ------------------------------------------------------------------------------
 Cycle:    500
  WF centre and spread    1  (  0.000000, -2.285894, -0.000000 )     0.61863513
  WF centre and spread    2  (  0.000000,  0.000000, -2.285894 )     0.61861208
  WF centre and spread    3  (  2.285894, -0.000000,  0.000000 )     0.61874062
  Sum of centres and spreads (  2.285895, -2.285894, -2.285894 )     1.85598783
 
    500    -0.404E-08     0.0000343396        1.8559890862       1.14  <-- CONV
        O_D=      0.0000000 O_OD=      0.0036669 O_TOT=      1.8559891 <-- SPRD
 Delta: O_D= -0.5325107E-09 O_OD= -0.3510635E-08 O_TOT= -0.4043145E-08 <-- DLTA
 ------------------------------------------------------------------------------

 Writing checkpoint file mp-682.chk... done

 Final State
  WF centre and spread    1  (  0.000000, -2.285894, -0.000000 )     0.61863513
  WF centre and spread    2  (  0.000000,  0.000000, -2.285894 )     0.61861208
  WF centre and spread    3  (  2.285894, -0.000000,  0.000000 )     0.61874062
  Sum of centres and spreads (  2.285895, -2.285894, -2.285894 )     1.85598783
 
         Spreads (Ang^2)       Omega I      =     1.852322194
        ================       Omega D      =     0.000000001
                               Omega OD     =     0.003666891
    Final Spread (Ang^2)       Omega Total  =     1.855989086
 ------------------------------------------------------------------------------
 Time for wannierise            1.093 (sec)

 Writing checkpoint file mp-682.chk... done

 Time for plotting              0.000 (sec)
 Total Execution Time           2.073 (sec)

 *===========================================================================*
 |                             TIMING INFORMATION                            |
 *===========================================================================*
 |    Tag                                                Ncalls      Time (s)|
 |---------------------------------------------------------------------------|
 |kmesh: get                                        :         1         0.719|
 |overlap: allocate                                 :         1         0.001|
 |overlap: read                                     :         1         0.093|
 |wann: main                                        :         1         1.093|
 |plot: main                                        :         1         0.000|
 *---------------------------------------------------------------------------*
 
 All done: wannier90 exiting
