
     Program PWSCF v.7.1 starts on  3Jan2024 at 14:31:29 

     This program is part of the open-source Quantum ESPRESSO suite
     for quantum simulation of materials; please cite
         "P. Giannozzi et al., J. Phys.:Condens. Matter 21 395502 (2009);
         "P. Giannozzi et al., J. Phys.:Condens. Matter 29 465901 (2017);
         "P. Giannozzi et al., J. Chem. Phys. 152 154105 (2020);
          URL http://www.quantum-espresso.org", 
     in publications or presentations arising from this work. More details at
     http://www.quantum-espresso.org/quote

     Parallel version (MPI), running on     8 processors

     MPI processes distributed on     1 nodes
     245561 MiB available memory on the printing compute node when the environment starts
 
     Reading input from pw_mp-2605_nscf_k3000_E140.in
Warning: card &IONS ignored
Warning: card / ignored
Warning: card &CELL ignored
Warning: card / ignored

     Current dimensions of program PWSCF are:
     Max number of different atomic species (ntypx) = 10
     Max number of k-points (npk) =  40000
     Max angular momentum in pseudopotentials (lmaxx) =  4

     Atomic positions and unit cell read from directory:
     out/mp-2605.save/
     Atomic positions from file used, from input discarded
 
 
     R & G space division:  proc/nbgrp/npool/nimage =       8
     Subspace diagonalization in iterative solution of the eigenvalue problem:
     a serial algorithm will be used

 
     Parallelization info
     --------------------
     sticks:   dense  smooth     PW     G-vecs:    dense   smooth      PW
     Min         198     198     57                 5212     5212     820
     Max         199     199     59                 5215     5215     822
     Sum        1585    1585    463                41703    41703    6567
 
     Using Slab Decomposition
 


     bravais-lattice index     =            2
     lattice parameter (alat)  =       9.0841  a.u.
     unit-cell volume          =     187.4084 (a.u.)^3
     number of atoms/cell      =            2
     number of atomic types    =            2
     number of electrons       =        16.00
     number of Kohn-Sham states=           16
     kinetic-energy cutoff     =     140.0000  Ry
     charge density cutoff     =     560.0000  Ry
     Exchange-correlation= PBE
                           (   1   4   3   4   0   0   0)

     celldm(1)=   9.084123  celldm(2)=   0.000000  celldm(3)=   0.000000
     celldm(4)=   0.000000  celldm(5)=   0.000000  celldm(6)=   0.000000

     crystal axes: (cart. coord. in units of alat)
               a(1) = (  -0.500000   0.000000   0.500000 )  
               a(2) = (   0.000000   0.500000   0.500000 )  
               a(3) = (  -0.500000   0.500000   0.000000 )  

     reciprocal axes: (cart. coord. in units 2 pi/alat)
               b(1) = ( -1.000000 -1.000000  1.000000 )  
               b(2) = (  1.000000  1.000000  1.000000 )  
               b(3) = ( -1.000000  1.000000 -1.000000 )  


     PseudoPot. # 1 for Ca read from file:
     /usr/scratch4/magr4985/MG/devEb/pseudo/SG15/Ca.upf
     MD5 check sum: d3df06507a1658a66563533e58c348d1
     Pseudo is Norm-conserving, Zval = 10.0
     Generated using ONCVPSP code by D. R. Hamann
     Using radial grid of  602 points,  6 beta functions with: 
                l(1) =   0
                l(2) =   0
                l(3) =   1
                l(4) =   1
                l(5) =   2
                l(6) =   2

     PseudoPot. # 2 for O  read from file:
     /usr/scratch4/magr4985/MG/devEb/pseudo/SG15/O.upf
     MD5 check sum: 9d2d0a8c71a1ad34a0c43284618bc51d
     Pseudo is Norm-conserving, Zval =  6.0
     Generated using ONCVPSP code by D. R. Hamann
     Using radial grid of  602 points,  4 beta functions with: 
                l(1) =   0
                l(2) =   0
                l(3) =   1
                l(4) =   1

     atomic species   valence    mass     pseudopotential
        Ca            10.00    40.07800     Ca( 1.00)
        O              6.00    15.99940     O ( 1.00)

     48 Sym. Ops., with inversion, found



   Cartesian axes

     site n.     atom                  positions (alat units)
         1           Ca  tau(   1) = (   0.0000000   0.0000000   0.0000000  )
         2           O   tau(   2) = (  -0.5000000   0.5000000   0.5000000  )

     number of k points=    72  Gaussian smearing, width (Ry)=  0.0005
                       cart. coord. in units 2pi/alat
        k(    1) = (   0.0000000   0.0000000   0.0000000), wk =   0.0011574
        k(    2) = (  -0.0833333   0.0833333  -0.0833333), wk =   0.0092593
        k(    3) = (  -0.1666667   0.1666667  -0.1666667), wk =   0.0092593
        k(    4) = (  -0.2500000   0.2500000  -0.2500000), wk =   0.0092593
        k(    5) = (  -0.3333333   0.3333333  -0.3333333), wk =   0.0092593
        k(    6) = (  -0.4166667   0.4166667  -0.4166667), wk =   0.0092593
        k(    7) = (   0.5000000  -0.5000000   0.5000000), wk =   0.0046296
        k(    8) = (   0.0000000   0.1666667   0.0000000), wk =   0.0069444
        k(    9) = (  -0.0833333   0.2500000  -0.0833333), wk =   0.0277778
        k(   10) = (  -0.1666667   0.3333333  -0.1666667), wk =   0.0277778
        k(   11) = (  -0.2500000   0.4166667  -0.2500000), wk =   0.0277778
        k(   12) = (  -0.3333333   0.5000000  -0.3333333), wk =   0.0277778
        k(   13) = (   0.5833333  -0.4166667   0.5833333), wk =   0.0277778
        k(   14) = (   0.5000000  -0.3333333   0.5000000), wk =   0.0277778
        k(   15) = (   0.4166667  -0.2500000   0.4166667), wk =   0.0277778
        k(   16) = (   0.3333333  -0.1666667   0.3333333), wk =   0.0277778
        k(   17) = (   0.2500000  -0.0833333   0.2500000), wk =   0.0277778
        k(   18) = (   0.1666667  -0.0000000   0.1666667), wk =   0.0138889
        k(   19) = (   0.0000000   0.3333333   0.0000000), wk =   0.0069444
        k(   20) = (  -0.0833333   0.4166667  -0.0833333), wk =   0.0277778
        k(   21) = (  -0.1666667   0.5000000  -0.1666667), wk =   0.0277778
        k(   22) = (  -0.2500000   0.5833333  -0.2500000), wk =   0.0277778
        k(   23) = (   0.6666667  -0.3333333   0.6666667), wk =   0.0277778
        k(   24) = (   0.5833333  -0.2500000   0.5833333), wk =   0.0277778
        k(   25) = (   0.5000000  -0.1666667   0.5000000), wk =   0.0277778
        k(   26) = (   0.4166667  -0.0833333   0.4166667), wk =   0.0277778
        k(   27) = (   0.3333333   0.0000000   0.3333333), wk =   0.0138889
        k(   28) = (   0.0000000   0.5000000   0.0000000), wk =   0.0069444
        k(   29) = (  -0.0833333   0.5833333  -0.0833333), wk =   0.0277778
        k(   30) = (  -0.1666667   0.6666667  -0.1666667), wk =   0.0277778
        k(   31) = (   0.7500000  -0.2500000   0.7500000), wk =   0.0277778
        k(   32) = (   0.6666667  -0.1666667   0.6666667), wk =   0.0277778
        k(   33) = (   0.5833333  -0.0833333   0.5833333), wk =   0.0277778
        k(   34) = (   0.5000000   0.0000000   0.5000000), wk =   0.0138889
        k(   35) = (   0.0000000   0.6666667   0.0000000), wk =   0.0069444
        k(   36) = (  -0.0833333   0.7500000  -0.0833333), wk =   0.0277778
        k(   37) = (   0.8333333  -0.1666667   0.8333333), wk =   0.0277778
        k(   38) = (   0.7500000  -0.0833333   0.7500000), wk =   0.0277778
        k(   39) = (   0.6666667  -0.0000000   0.6666667), wk =   0.0138889
        k(   40) = (   0.0000000   0.8333333   0.0000000), wk =   0.0069444
        k(   41) = (   0.9166667  -0.0833333   0.9166667), wk =   0.0277778
        k(   42) = (   0.8333333   0.0000000   0.8333333), wk =   0.0138889
        k(   43) = (   0.0000000  -1.0000000   0.0000000), wk =   0.0034722
        k(   44) = (  -0.1666667   0.3333333   0.0000000), wk =   0.0277778
        k(   45) = (  -0.2500000   0.4166667  -0.0833333), wk =   0.0555556
        k(   46) = (  -0.3333333   0.5000000  -0.1666667), wk =   0.0555556
        k(   47) = (   0.5833333  -0.4166667   0.7500000), wk =   0.0555556
        k(   48) = (   0.5000000  -0.3333333   0.6666667), wk =   0.0277778
        k(   49) = (  -0.1666667   0.5000000   0.0000000), wk =   0.0277778
        k(   50) = (  -0.2500000   0.5833333  -0.0833333), wk =   0.0555556
        k(   51) = (   0.6666667  -0.3333333   0.8333333), wk =   0.0555556
        k(   52) = (   0.5833333  -0.2500000   0.7500000), wk =   0.0555556
        k(   53) = (   0.5000000  -0.1666667   0.6666667), wk =   0.0555556
        k(   54) = (   0.4166667  -0.0833333   0.5833333), wk =   0.0555556
        k(   55) = (   0.3333333   0.0000000   0.5000000), wk =   0.0277778
        k(   56) = (  -0.1666667   0.6666667   0.0000000), wk =   0.0277778
        k(   57) = (   0.7500000  -0.2500000   0.9166667), wk =   0.0555556
        k(   58) = (   0.6666667  -0.1666667   0.8333333), wk =   0.0555556
        k(   59) = (   0.5833333  -0.0833333   0.7500000), wk =   0.0555556
        k(   60) = (   0.5000000   0.0000000   0.6666667), wk =   0.0277778
        k(   61) = (   0.8333333  -0.1666667   1.0000000), wk =   0.0277778
        k(   62) = (   0.7500000  -0.0833333   0.9166667), wk =   0.0555556
        k(   63) = (   0.6666667  -0.0000000   0.8333333), wk =   0.0277778
        k(   64) = (  -0.1666667  -1.0000000  -0.0000000), wk =   0.0138889
        k(   65) = (   0.6666667  -0.3333333   1.0000000), wk =   0.0277778
        k(   66) = (   0.5833333  -0.2500000   0.9166667), wk =   0.0555556
        k(   67) = (   0.5000000  -0.1666667   0.8333333), wk =   0.0277778
        k(   68) = (   0.6666667  -0.1666667   1.0000000), wk =   0.0277778
        k(   69) = (   0.5833333  -0.0833333   0.9166667), wk =   0.0555556
        k(   70) = (   0.5000000   0.0000000   0.8333333), wk =   0.0277778
        k(   71) = (  -0.3333333  -1.0000000   0.0000000), wk =   0.0138889
        k(   72) = (  -0.5000000  -1.0000000   0.0000000), wk =   0.0069444

     Dense  grid:    41703 G-vectors     FFT dimensions: (  50,  50,  50)

     Estimated max dynamical RAM per process >      18.47 MB

     Estimated total dynamical RAM >     147.73 MB

     The potential is recalculated from file :
     out/mp-2605.save/charge-density

     Starting wfcs are random

     Band Structure Calculation
     Davidson diagonalization with overlap

     ethr =  5.00E-06,  avg # of iterations = 18.6

     total cpu time spent up to now is        7.8 secs

     End of band structure calculation

          k = 0.0000 0.0000 0.0000 (  5209 PWs)   bands (ev):

   -29.8978 -10.6671 -10.6671 -10.6671  -7.7191   7.7692   7.7692   7.7692
    12.5090  13.9964  13.9964  13.9964  15.4925  15.4925  22.8677  30.1847

          k =-0.0833 0.0833-0.0833 (  5179 PWs)   bands (ev):

   -29.8911 -10.7644 -10.6707 -10.6707  -7.6173   7.5135   7.6718   7.6718
    12.8328  13.9707  14.1149  14.1149  15.6596  15.6596  23.1497  29.6738

          k =-0.1667 0.1667-0.1667 (  5213 PWs)   bands (ev):

   -29.8726 -11.0035 -10.6806 -10.6806  -7.3652   6.9183   7.4224   7.4224
    13.6076  13.9774  14.4506  14.4506  16.1115  16.1115  23.7005  28.7930

          k =-0.2500 0.2500-0.2500 (  5228 PWs)   bands (ev):

   -29.8473 -11.2863 -10.6939 -10.6939  -7.0635   6.2468   7.1137   7.1137
    14.0284  14.6381  14.9447  14.9447  16.7320  16.7320  23.7099  27.6936

          k =-0.3333 0.3333-0.3333 (  5261 PWs)   bands (ev):

   -29.8218 -11.5354 -10.7071 -10.7071  -6.7937   5.6682   6.8339   6.8339
    14.3051  15.4914  15.4914  15.5251  17.3880  17.3880  22.9836  26.2746

          k =-0.4167 0.4167-0.4167 (  5234 PWs)   bands (ev):

   -29.8031 -11.7024 -10.7168 -10.7168  -6.6105   5.2828   6.6438   6.6438
    14.6410  15.9323  15.9323  16.1105  17.9311  17.9311  22.2610  25.1695

          k = 0.5000-0.5000 0.5000 (  5210 PWs)   bands (ev):

   -29.7962 -11.7609 -10.7203 -10.7203  -6.5457   5.1479   6.5769   6.5769
    14.8087  16.1032  16.1032  16.2924  18.1568  18.1568  21.9889  24.7366

          k = 0.0000 0.1667 0.0000 (  5173 PWs)   bands (ev):

   -29.8888 -10.7718 -10.6822 -10.6822  -7.5909   7.3347   7.7107   7.7107
    12.8971  13.7475  14.2581  14.2581  15.5612  15.8690  23.2510  29.4849

          k =-0.0833 0.2500-0.0833 (  5213 PWs)   bands (ev):

   -29.8744 -10.9450 -10.6989 -10.6888  -7.4086   6.8821   7.5248   7.5728
    13.4445  13.6024  14.5542  14.6051  15.7891  16.3456  23.7476  28.5722

          k =-0.1667 0.3333-0.1667 (  5222 PWs)   bands (ev):

   -29.8514 -11.1978 -10.7162 -10.6980  -7.1495   6.3494   7.1905   7.3148
    13.6197  14.3286  14.9433  15.0942  16.2828  16.9539  23.9672  27.5471

          k =-0.2500 0.4167-0.2500 (  5247 PWs)   bands (ev):

   -29.8260 -11.4441 -10.7295 -10.7141  -6.8941   5.8435   6.8709   7.0247
    13.8729  15.1425  15.5006  15.6195  16.9298  17.5616  23.3288  26.3326

          k =-0.3333 0.5000-0.3333 (  5255 PWs)   bands (ev):

   -29.8050 -11.6287 -10.7352 -10.7331  -6.6996   5.4574   6.6566   6.7789
    14.2965  15.4696  16.0272  16.2840  17.5890  18.0615  22.4511  25.3090

          k = 0.5833-0.4167 0.5833 (  5239 PWs)   bands (ev):

   -29.7942 -11.7191 -10.7495 -10.7320  -6.6018   5.2622   6.5816   6.6286
    14.7093  15.4938  16.1669  16.7541  18.0505  18.3269  21.9529  24.6306

          k = 0.5000-0.3333 0.5000 (  5253 PWs)   bands (ev):

   -29.7965 -11.7014 -10.7588 -10.7207  -6.6174   5.2949   6.6003   6.6499
    14.6889  15.5229  15.9751  16.6773  18.1139  18.1691  22.0554  24.5375

          k = 0.4167-0.2500 0.4167 (  5245 PWs)   bands (ev):

   -29.8112 -11.5789 -10.7579 -10.7042  -6.7442   5.5539   6.6991   6.8458
    14.3108  15.4551  15.5261  16.1553  17.5955  17.7980  22.7140  25.1302

          k = 0.3333-0.1667 0.3333 (  5238 PWs)   bands (ev):

   -29.8344 -11.3720 -10.7464 -10.6869  -6.9611   6.0002   6.9086   7.1310
    13.9730  14.9091  14.9859  15.5436  16.8793  17.2556  23.5877  26.0805

          k = 0.2500-0.0833 0.2500 (  5231 PWs)   bands (ev):

   -29.8598 -11.1208 -10.7258 -10.6735  -7.2262   6.5605   7.1886   7.4340
    13.8074  14.0575  14.5108  15.0011  16.2362  16.6285  23.9363  27.2480

          k = 0.1667-0.0000 0.1667 (  5206 PWs)   bands (ev):

   -29.8805 -10.8911 -10.6980 -10.6676  -7.4736   7.1252   7.4722   7.6442
    13.2677  13.8523  14.2029  14.4995  15.7937  16.0514  23.5345  28.6487

          k = 0.0000 0.3333 0.0000 (  5237 PWs)   bands (ev):

   -29.8645 -10.9890 -10.7235 -10.7235  -7.3422   6.5715   7.5836   7.5836
    13.1549  13.6295  14.9436  14.9436  15.7542  16.8119  24.1636  28.1555

          k =-0.0833 0.4167-0.0833 (  5228 PWs)   bands (ev):

   -29.8456 -11.1458 -10.7476 -10.7410  -7.1973   6.2409   7.3929   7.4501
    12.9632  14.1914  15.3593  15.4041  16.0245  17.3557  24.5028  27.0535

          k =-0.1667 0.5000-0.1667 (  5237 PWs)   bands (ev):

   -29.8226 -11.3381 -10.7650 -10.7614  -7.0242   5.9600   7.0538   7.2227
    13.0761  14.9589  15.7782  15.8827  16.5423  17.8767  23.8921  26.0416

          k =-0.2500 0.5833-0.2500 (  5245 PWs)   bands (ev):

   -29.8018 -11.5023 -10.7923 -10.7709  -6.8672   5.7377   6.7495   6.9751
    13.4673  15.4402  16.2387  16.3188  17.1886  18.3684  22.7612  25.1863

          k = 0.6667-0.3333 0.6667 (  5229 PWs)   bands (ev):

   -29.7887 -11.6021 -10.8266 -10.7639  -6.7585   5.5752   6.6062   6.7716
    14.0532  15.3526  16.3484  16.8013  17.7673  18.8580  21.9391  24.3261

          k = 0.5833-0.2500 0.5833 (  5253 PWs)   bands (ev):

   -29.7870 -11.6209 -10.8524 -10.7459  -6.7189   5.5084   6.6450   6.6555
    14.6429  14.9790  16.1542  16.7905  18.0794  19.0424  21.7803  23.8182

          k = 0.5000-0.1667 0.5000 (  5253 PWs)   bands (ev):

   -29.7970 -11.5592 -10.8586 -10.7215  -6.7584   5.5799   6.6481   6.8225
    14.3966  15.1603  15.7247  16.3920  18.0485  18.4933  22.3890  23.9175

          k = 0.4167-0.0833 0.4167 (  5242 PWs)   bands (ev):

   -29.8162 -11.4335 -10.8379 -10.6972  -6.8736   5.7998   6.7507   7.0739
    14.0111  15.0695  15.2178  15.9780  17.5712  17.7253  23.3898  24.4542

          k = 0.3333 0.0000 0.3333 (  5250 PWs)   bands (ev):

   -29.8391 -11.2746 -10.7895 -10.6796  -7.0433   6.1444   6.9443   7.3119
    13.8140  14.5633  14.7816  15.5748  16.7401  17.2110  24.0135  25.5704

          k = 0.0000 0.5000 0.0000 (  5297 PWs)   bands (ev):

   -29.8314 -11.1735 -10.7797 -10.7797  -7.1985   6.0985   7.4702   7.4702
    12.4850  14.3959  15.8178  15.8178  16.0319  17.7726  25.1377  26.6120

          k =-0.0833 0.5833-0.0833 (  5238 PWs)   bands (ev):

   -29.8126 -11.2668 -10.8095 -10.8039  -7.1551   6.0143   7.3026   7.3676
    12.3539  14.9182  16.2025  16.2178  16.3407  18.1518  24.6373  25.4097

          k =-0.1667 0.6667-0.1667 (  5243 PWs)   bands (ev):

   -29.7942 -11.3677 -10.8568 -10.8139  -7.0772   5.9961   6.9778   7.1813
    12.5899  15.4984  16.4273  16.5127  16.8516  18.6158  23.1686  24.8022

          k = 0.7500-0.2500 0.7500 (  5239 PWs)   bands (ev):

   -29.7812 -11.4390 -10.9205 -10.8071  -6.9826   5.9864   6.6903   6.9719
    13.1234  15.6166  16.5874  16.6144  17.3953  19.3324  22.1158  23.9381

          k = 0.6667-0.1667 0.6667 (  5251 PWs)   bands (ev):

   -29.7771 -11.4720 -10.9738 -10.7853  -6.8943   5.8856   6.6251   6.7946
    13.8415  15.2177  16.4412  16.6135  17.8403  20.1067  21.5759  23.0985

          k = 0.5833-0.0833 0.5833 (  5243 PWs)   bands (ev):

   -29.7830 -11.4774 -10.9824 -10.7541  -6.8366   5.7564   6.6880   6.7476
    14.5647  14.6974  16.0554  16.3911  18.0679  19.8197  22.0046  22.8266

          k = 0.5000 0.0000 0.5000 (  5258 PWs)   bands (ev):

   -29.7973 -11.4661 -10.9302 -10.7218  -6.8279   5.7156   6.6724   6.9260
    14.2607  15.0320  15.6027  16.1430  18.0232  18.6898  23.0153  23.1459

          k = 0.0000 0.6667 0.0000 (  5209 PWs)   bands (ev):

   -29.7986 -11.2615 -10.8359 -10.8359  -7.2505   6.0786   7.4099   7.4099
    11.9195  15.1357  16.3279  16.6084  16.6084  18.3374  24.1102  25.8521

          k =-0.0833 0.7500-0.0833 (  5248 PWs)   bands (ev):

   -29.7843 -11.2871 -10.8793 -10.8526  -7.2768   6.1796   7.2613   7.3372
    11.8967  15.5414  16.5666  16.7653  16.8885  18.6661  22.9494  25.0912

          k = 0.8333-0.1667 0.8333 (  5245 PWs)   bands (ev):

   -29.7736 -11.2958 -10.9740 -10.8498  -7.2221   6.3011   6.9235   7.1786
    12.2702  15.9041  16.5189  16.8731  17.0693  19.4170  22.0573  24.0829

          k = 0.7500-0.0833 0.7500 (  5252 PWs)   bands (ev):

   -29.7694 -11.2864 -11.0884 -10.8281  -7.1047   6.3427   6.6069   6.9856
    12.9365  15.7284  16.3757  16.7734  17.4696  20.4748  21.6313  22.8497

          k = 0.6667-0.0000 0.6667 (  5234 PWs)   bands (ev):

   -29.7729 -11.3572 -11.0881 -10.7932  -6.9626   6.0509   6.6436   6.8089
    13.7624  15.1712  16.3987  16.4444  17.8527  21.1914  21.5495  21.9667

          k = 0.0000 0.8333 0.0000 (  5237 PWs)   bands (ev):

   -29.7747 -11.2704 -10.8770 -10.8770  -7.4037   6.3193   7.3936   7.3936
    11.5522  15.6563  16.5582  17.1102  17.1102  18.7058  22.1561  25.8161

          k = 0.9167-0.0833 0.9167 (  5246 PWs)   bands (ev):

   -29.7681 -11.2563 -10.9313 -10.8807  -7.4108   6.4298   7.2455   7.3346
    11.6557  15.8618  16.7370  16.9519  17.1825  19.2175  21.5137  24.9820

          k = 0.8333 0.0000 0.8333 (  5250 PWs)   bands (ev):

   -29.7662 -11.2135 -11.0630 -10.8629  -7.2966   6.5020   6.8753   7.1830
    12.1599  16.1091  16.3771  17.0544  17.0683  20.0282  21.3310  23.8431

          k = 0.0000-1.0000 0.0000 (  5218 PWs)   bands (ev):

   -29.7661 -11.2613 -10.8920 -10.8920  -7.4835   6.4630   7.3928   7.3928
    11.4257  15.8064  16.6457  17.2716  17.2716  19.0313  21.2371  25.7488

          k =-0.1667 0.3333 0.0000 (  5221 PWs)   bands (ev):

   -29.8577 -11.0955 -10.7412 -10.6923  -7.2428   6.4733   7.3061   7.4983
    13.4111  13.9680  14.8197  15.1262  16.0409  16.8878  24.1385  27.1070

          k =-0.2500 0.4167-0.0833 (  5232 PWs)   bands (ev):

   -29.8347 -11.2949 -10.7788 -10.7021  -7.0382   6.0722   7.0128   7.2772
    13.4707  14.6836  15.1967  15.6477  16.5794  17.4743  23.9999  25.7431

          k =-0.3333 0.5000-0.1667 (  5241 PWs)   bands (ev):

   -29.8116 -11.4818 -10.8018 -10.7207  -6.8530   5.7375   6.7629   7.0021
    13.7749  15.2572  15.6825  16.1057  17.2892  18.0227  23.0702  24.8909

          k = 0.5833-0.4167 0.7500 (  5248 PWs)   bands (ev):

   -29.7947 -11.6110 -10.8111 -10.7402  -6.7270   5.5117   6.6258   6.7695
    14.2645  15.2896  16.1032  16.6153  17.8670  18.5323  22.1630  24.3290

          k = 0.5000-0.3333 0.6667 (  5240 PWs)   bands (ev):

   -29.7884 -11.6569 -10.8125 -10.7492  -6.6826   5.4313   6.6117   6.6527
    14.6880  15.0238  16.2542  16.8780  18.0542  18.8046  21.7948  24.1368

          k =-0.1667 0.5000 0.0000 (  5247 PWs)   bands (ev):

   -29.8267 -11.2535 -10.8000 -10.7497  -7.1088   6.0400   7.2137   7.3636
    12.8011  14.6717  15.7261  15.8849  16.3318  17.8351  24.5797  25.4627

          k =-0.2500 0.5833-0.0833 (  5241 PWs)   bands (ev):

   -29.8061 -11.3756 -10.8435 -10.7683  -7.0042   5.9115   6.9430   7.1665
    12.9669  15.2243  16.0963  16.1917  16.9228  18.3291  23.6100  24.5729

          k = 0.6667-0.3333 0.8333 (  5251 PWs)   bands (ev):

   -29.7893 -11.4737 -10.8764 -10.7894  -6.9089   5.8345   6.7103   6.9444
    13.4138  15.4000  16.4241  16.4442  17.5061  18.9534  22.4241  24.0793

          k = 0.5833-0.2500 0.7500 (  5252 PWs)   bands (ev):

   -29.7807 -11.5250 -10.9060 -10.7917  -6.8429   5.7681   6.6288   6.7703
    14.0493  15.0233  16.5097  16.6866  17.8621  19.6160  21.7007  23.6099

          k = 0.5000-0.1667 0.6667 (  5249 PWs)   bands (ev):

   -29.7829 -11.5224 -10.9224 -10.7724  -6.8209   5.7221   6.6629   6.7396
    14.4387  14.7226  16.3277  16.5583  17.9907  19.5849  21.8249  23.3731

          k = 0.4167-0.0833 0.5833 (  5247 PWs)   bands (ev):

   -29.7951 -11.4728 -10.9076 -10.7430  -6.8503   5.7443   6.6932   6.9246
    13.9177  15.1386  15.9498  16.2272  17.8278  18.7842  22.7305  23.5625

          k = 0.3333 0.0000 0.5000 (  5243 PWs)   bands (ev):

   -29.8141 -11.3916 -10.8552 -10.7163  -6.9283   5.8605   6.8191   7.1363
    13.5733  15.0395  15.5325  16.0017  17.2464  18.0313  23.7545  24.1801

          k =-0.1667 0.6667 0.0000 (  5250 PWs)   bands (ev):

   -29.7961 -11.3076 -10.8587 -10.8242  -7.1613   6.0477   7.1735   7.2843
    12.2764  15.3199  16.4026  16.5601  16.6875  18.5116  23.7244  24.6605

          k = 0.7500-0.2500 0.9167 (  5246 PWs)   bands (ev):

   -29.7816 -11.3411 -10.9176 -10.8495  -7.1221   6.1297   6.9106   7.1191
    12.5704  15.6343  16.3689  16.8029  17.1328  19.1409  22.6199  24.0236

          k = 0.6667-0.1667 0.8333 (  5247 PWs)   bands (ev):

   -29.7731 -11.3556 -10.9983 -10.8467  -7.0482   6.1823   6.6666   6.9399
    13.1532  15.4137  16.3974  16.8513  17.5435  20.0714  21.8761  23.2205

          k = 0.5833-0.0833 0.7500 (  5249 PWs)   bands (ev):

   -29.7729 -11.3750 -11.0446 -10.8193  -6.9622   6.0540   6.6578   6.7901
    13.9066  14.8428  16.4127  16.6650  17.8408  20.8689  21.5142  22.4842

          k = 0.5000 0.0000 0.6667 (  5241 PWs)   bands (ev):

   -29.7809 -11.4256 -11.0048 -10.7800  -6.8896   5.8631   6.7009   6.7910
    14.2962  14.6514  16.3018  16.3195  17.9727  19.9645  22.4180  22.4271

          k = 0.8333-0.1667 1.0000 (  5248 PWs)   bands (ev):

   -29.7739 -11.2739 -10.9016 -10.9016  -7.3099   6.3184   7.1600   7.2542
    11.9341  15.7865  16.6123  16.8527  17.0979  19.1318  22.1278  24.6305

          k = 0.7500-0.0833 0.9167 (  5253 PWs)   bands (ev):

   -29.7677 -11.2343 -11.0214 -10.8964  -7.2491   6.4505   6.8579   7.1097
    12.3587  15.9255  16.2067  17.1334  17.2005  19.9913  21.6077  23.7542

          k = 0.6667-0.0000 0.8333 (  5251 PWs)   bands (ev):

   -29.7673 -11.2007 -11.1486 -10.8656  -7.1190   6.4482   6.5739   6.9443
    13.0611  15.4148  16.2629  16.9805  17.5445  20.9237  21.5267  22.5977

          k =-0.1667-1.0000-0.0000 (  5260 PWs)   bands (ev):

   -29.7658 -11.2371 -10.9434 -10.9173  -7.3868   6.4826   7.1511   7.2484
    11.8162  15.9440  16.6318  16.8862  17.2730  19.6138  21.2836  24.6296

          k = 0.6667-0.3333 1.0000 (  5256 PWs)   bands (ev):

   -29.7895 -11.3927 -10.9207 -10.7989  -6.9834   5.9421   6.8032   7.0244
    13.1791  15.3181  16.2158  16.4370  17.4571  19.0115  23.0424  23.4632

          k = 0.5833-0.2500 0.9167 (  5244 PWs)   bands (ev):

   -29.7773 -11.3928 -10.9737 -10.8386  -6.9677   6.0153   6.7037   6.8545
    13.6569  14.9612  16.3261  16.7264  17.7530  19.9537  22.1403  23.0346

          k = 0.5000-0.1667 0.8333 (  5246 PWs)   bands (ev):

   -29.7729 -11.3900 -10.9917 -10.8577  -6.9618   6.0571   6.6781   6.7653
    14.3047  14.3073  16.4268  16.8392  17.8317  20.6489  21.5182  22.9102

          k = 0.6667-0.1667 1.0000 (  5228 PWs)   bands (ev):

   -29.7718 -11.2874 -10.9685 -10.9243  -7.1252   6.2875   6.7873   6.9731
    12.9004  15.4059  16.1965  17.0633  17.4505  19.9943  22.1234  23.2879

          k = 0.5833-0.0833 0.9167 (  5241 PWs)   bands (ev):

   -29.7672 -11.2293 -11.0577 -10.9434  -7.0905   6.3829   6.6609   6.8365
    13.4975  14.7947  16.2094  17.1491  17.6737  21.0180  21.7638  22.5431

          k = 0.5000 0.0000 0.8333 (  5249 PWs)   bands (ev):

   -29.7693 -11.2792 -11.0590 -10.9016  -7.0326   6.2362   6.7269   6.7469
    14.1488  14.2446  16.2580  17.0157  17.7805  21.0951  22.0348  22.0669

          k =-0.3333-1.0000 0.0000 (  5250 PWs)   bands (ev):

   -29.7653 -11.1706 -11.0396 -10.9860  -7.1976   6.5549   6.7028   6.9599
    12.8023  15.4291  16.0946  17.2758  17.4432  20.6792  21.4904  23.2438

          k =-0.5000-1.0000 0.0000 (  5220 PWs)   bands (ev):

   -29.7651 -11.0849 -11.0788 -11.0788  -7.1047   6.4928   6.7096   6.7096
    14.0849  14.0849  16.1426  17.2772  17.7195  21.6906  21.9075  21.9075

     the Fermi energy is     9.5508 ev
     (compare with:     9.5510 eV, computed in scf)

     Writing all to output data dir out/mp-2605.save/
 
     init_run     :      0.07s CPU      0.08s WALL (       1 calls)
     electrons    :      7.26s CPU      7.49s WALL (       1 calls)

     Called by init_run:
     wfcinit      :      0.00s CPU      0.00s WALL (       1 calls)
     potinit      :      0.02s CPU      0.02s WALL (       1 calls)
     hinit0       :      0.01s CPU      0.02s WALL (       1 calls)

     Called by electrons:
     c_bands      :      7.26s CPU      7.49s WALL (       1 calls)
     v_of_rho     :      0.01s CPU      0.01s WALL (       1 calls)

     Called by c_bands:
     init_us_2    :      0.01s CPU      0.02s WALL (      72 calls)
     init_us_2:cp :      0.01s CPU      0.01s WALL (      72 calls)
     cegterg      :      6.69s CPU      6.89s WALL (      87 calls)

     Called by *egterg:
     cdiaghg      :      0.50s CPU      0.51s WALL (    1413 calls)
     h_psi        :      5.86s CPU      6.05s WALL (    1500 calls)
     g_psi        :      0.06s CPU      0.06s WALL (    1341 calls)

     Called by h_psi:
     h_psi:calbec :      0.14s CPU      0.15s WALL (    1500 calls)
     vloc_psi     :      5.58s CPU      5.77s WALL (    1500 calls)
     add_vuspsi   :      0.11s CPU      0.11s WALL (    1500 calls)

     General routines
     calbec       :      0.14s CPU      0.14s WALL (    1500 calls)
     fft          :      0.00s CPU      0.01s WALL (      10 calls)
     fftw         :      4.92s CPU      5.08s WALL (   32674 calls)
 
     Parallel routines
 
     PWSCF        :      7.67s CPU      8.10s WALL

 
   This run was terminated on:  14:31:37   3Jan2024            

=------------------------------------------------------------------------------=
   JOB DONE.
=------------------------------------------------------------------------------=
