
     Program PWSCF v.7.1 starts on  3Jan2024 at 14:32:38 

     This program is part of the open-source Quantum ESPRESSO suite
     for quantum simulation of materials; please cite
         "P. Giannozzi et al., J. Phys.:Condens. Matter 21 395502 (2009);
         "P. Giannozzi et al., J. Phys.:Condens. Matter 29 465901 (2017);
         "P. Giannozzi et al., J. Chem. Phys. 152 154105 (2020);
          URL http://www.quantum-espresso.org", 
     in publications or presentations arising from this work. More details at
     http://www.quantum-espresso.org/quote

     Parallel version (MPI), running on     8 processors

     MPI processes distributed on     1 nodes
     120781 MiB available memory on the printing compute node when the environment starts
 
     Reading input from pw_mp-23268_scf_k3000_E65.in
Warning: card &CELL ignored
Warning: card / ignored

     Current dimensions of program PWSCF are:
     Max number of different atomic species (ntypx) = 10
     Max number of k-points (npk) =  40000
     Max angular momentum in pseudopotentials (lmaxx) =  4
 
     R & G space division:  proc/nbgrp/npool/nimage =       8
     Subspace diagonalization in iterative solution of the eigenvalue problem:
     a serial algorithm will be used

 
     Parallelization info
     --------------------
     sticks:   dense  smooth     PW     G-vecs:    dense   smooth      PW
     Min         166     166     47                 3984     3984     627
     Max         167     167     48                 3986     3986     631
     Sum        1333    1333    379                31879    31879    5029
 
     Using Slab Decomposition
 


     bravais-lattice index     =            2
     lattice parameter (alat)  =      12.1648  a.u.
     unit-cell volume          =     450.0393 (a.u.)^3
     number of atoms/cell      =            2
     number of atomic types    =            2
     number of electrons       =        26.00
     number of Kohn-Sham states=           26
     kinetic-energy cutoff     =      65.0000  Ry
     charge density cutoff     =     260.0000  Ry
     scf convergence threshold =      1.0E-10
     mixing beta               =       0.7000
     number of iterations used =            8  plain     mixing
     Exchange-correlation= PBE
                           (   1   4   3   4   0   0   0)

     celldm(1)=  12.164758  celldm(2)=   0.000000  celldm(3)=   0.000000
     celldm(4)=   0.000000  celldm(5)=   0.000000  celldm(6)=   0.000000

     crystal axes: (cart. coord. in units of alat)
               a(1) = (  -0.500000   0.000000   0.500000 )  
               a(2) = (   0.000000   0.500000   0.500000 )  
               a(3) = (  -0.500000   0.500000   0.000000 )  

     reciprocal axes: (cart. coord. in units 2 pi/alat)
               b(1) = ( -1.000000 -1.000000  1.000000 )  
               b(2) = (  1.000000  1.000000  1.000000 )  
               b(3) = ( -1.000000  1.000000 -1.000000 )  


     PseudoPot. # 1 for I  read from file:
     /usr/scratch4/magr4985/MG/devEb/pseudo/SG15/I.upf
     MD5 check sum: 2bc24df9af9f874725967c58cc477d99
     Pseudo is Norm-conserving, Zval = 17.0
     Generated using ONCVPSP code by D. R. Hamann
     Using radial grid of  602 points,  6 beta functions with: 
                l(1) =   0
                l(2) =   0
                l(3) =   1
                l(4) =   1
                l(5) =   2
                l(6) =   2

     PseudoPot. # 2 for Na read from file:
     /usr/scratch4/magr4985/MG/devEb/pseudo/SG15/Na.upf
     MD5 check sum: b5675fcfec0094e74c3198b687cdd8c0
     Pseudo is Norm-conserving, Zval =  9.0
     Generated using ONCVPSP code by D. R. Hamann
     Using radial grid of  602 points,  4 beta functions with: 
                l(1) =   0
                l(2) =   0
                l(3) =   1
                l(4) =   1

     atomic species   valence    mass     pseudopotential
        I             17.00   126.90450     I ( 1.00)
        Na             9.00    22.98980     Na( 1.00)

     48 Sym. Ops., with inversion, found



   Cartesian axes

     site n.     atom                  positions (alat units)
         1           Na  tau(   1) = (   0.0000000   0.0000000   0.0000000  )
         2           I   tau(   2) = (  -0.5000000   0.5000000   0.5000000  )

     number of k points=    72  Gaussian smearing, width (Ry)=  0.0005
                       cart. coord. in units 2pi/alat
        k(    1) = (   0.0000000   0.0000000   0.0000000), wk =   0.0011574
        k(    2) = (  -0.0833333   0.0833333  -0.0833333), wk =   0.0092593
        k(    3) = (  -0.1666667   0.1666667  -0.1666667), wk =   0.0092593
        k(    4) = (  -0.2500000   0.2500000  -0.2500000), wk =   0.0092593
        k(    5) = (  -0.3333333   0.3333333  -0.3333333), wk =   0.0092593
        k(    6) = (  -0.4166667   0.4166667  -0.4166667), wk =   0.0092593
        k(    7) = (   0.5000000  -0.5000000   0.5000000), wk =   0.0046296
        k(    8) = (   0.0000000   0.1666667   0.0000000), wk =   0.0069444
        k(    9) = (  -0.0833333   0.2500000  -0.0833333), wk =   0.0277778
        k(   10) = (  -0.1666667   0.3333333  -0.1666667), wk =   0.0277778
        k(   11) = (  -0.2500000   0.4166667  -0.2500000), wk =   0.0277778
        k(   12) = (  -0.3333333   0.5000000  -0.3333333), wk =   0.0277778
        k(   13) = (   0.5833333  -0.4166667   0.5833333), wk =   0.0277778
        k(   14) = (   0.5000000  -0.3333333   0.5000000), wk =   0.0277778
        k(   15) = (   0.4166667  -0.2500000   0.4166667), wk =   0.0277778
        k(   16) = (   0.3333333  -0.1666667   0.3333333), wk =   0.0277778
        k(   17) = (   0.2500000  -0.0833333   0.2500000), wk =   0.0277778
        k(   18) = (   0.1666667  -0.0000000   0.1666667), wk =   0.0138889
        k(   19) = (   0.0000000   0.3333333   0.0000000), wk =   0.0069444
        k(   20) = (  -0.0833333   0.4166667  -0.0833333), wk =   0.0277778
        k(   21) = (  -0.1666667   0.5000000  -0.1666667), wk =   0.0277778
        k(   22) = (  -0.2500000   0.5833333  -0.2500000), wk =   0.0277778
        k(   23) = (   0.6666667  -0.3333333   0.6666667), wk =   0.0277778
        k(   24) = (   0.5833333  -0.2500000   0.5833333), wk =   0.0277778
        k(   25) = (   0.5000000  -0.1666667   0.5000000), wk =   0.0277778
        k(   26) = (   0.4166667  -0.0833333   0.4166667), wk =   0.0277778
        k(   27) = (   0.3333333   0.0000000   0.3333333), wk =   0.0138889
        k(   28) = (   0.0000000   0.5000000   0.0000000), wk =   0.0069444
        k(   29) = (  -0.0833333   0.5833333  -0.0833333), wk =   0.0277778
        k(   30) = (  -0.1666667   0.6666667  -0.1666667), wk =   0.0277778
        k(   31) = (   0.7500000  -0.2500000   0.7500000), wk =   0.0277778
        k(   32) = (   0.6666667  -0.1666667   0.6666667), wk =   0.0277778
        k(   33) = (   0.5833333  -0.0833333   0.5833333), wk =   0.0277778
        k(   34) = (   0.5000000   0.0000000   0.5000000), wk =   0.0138889
        k(   35) = (   0.0000000   0.6666667   0.0000000), wk =   0.0069444
        k(   36) = (  -0.0833333   0.7500000  -0.0833333), wk =   0.0277778
        k(   37) = (   0.8333333  -0.1666667   0.8333333), wk =   0.0277778
        k(   38) = (   0.7500000  -0.0833333   0.7500000), wk =   0.0277778
        k(   39) = (   0.6666667  -0.0000000   0.6666667), wk =   0.0138889
        k(   40) = (   0.0000000   0.8333333   0.0000000), wk =   0.0069444
        k(   41) = (   0.9166667  -0.0833333   0.9166667), wk =   0.0277778
        k(   42) = (   0.8333333   0.0000000   0.8333333), wk =   0.0138889
        k(   43) = (   0.0000000  -1.0000000   0.0000000), wk =   0.0034722
        k(   44) = (  -0.1666667   0.3333333   0.0000000), wk =   0.0277778
        k(   45) = (  -0.2500000   0.4166667  -0.0833333), wk =   0.0555556
        k(   46) = (  -0.3333333   0.5000000  -0.1666667), wk =   0.0555556
        k(   47) = (   0.5833333  -0.4166667   0.7500000), wk =   0.0555556
        k(   48) = (   0.5000000  -0.3333333   0.6666667), wk =   0.0277778
        k(   49) = (  -0.1666667   0.5000000   0.0000000), wk =   0.0277778
        k(   50) = (  -0.2500000   0.5833333  -0.0833333), wk =   0.0555556
        k(   51) = (   0.6666667  -0.3333333   0.8333333), wk =   0.0555556
        k(   52) = (   0.5833333  -0.2500000   0.7500000), wk =   0.0555556
        k(   53) = (   0.5000000  -0.1666667   0.6666667), wk =   0.0555556
        k(   54) = (   0.4166667  -0.0833333   0.5833333), wk =   0.0555556
        k(   55) = (   0.3333333   0.0000000   0.5000000), wk =   0.0277778
        k(   56) = (  -0.1666667   0.6666667  -0.0000000), wk =   0.0277778
        k(   57) = (   0.7500000  -0.2500000   0.9166667), wk =   0.0555556
        k(   58) = (   0.6666667  -0.1666667   0.8333333), wk =   0.0555556
        k(   59) = (   0.5833333  -0.0833333   0.7500000), wk =   0.0555556
        k(   60) = (   0.5000000   0.0000000   0.6666667), wk =   0.0277778
        k(   61) = (   0.8333333  -0.1666667   1.0000000), wk =   0.0277778
        k(   62) = (   0.7500000  -0.0833333   0.9166667), wk =   0.0555556
        k(   63) = (   0.6666667   0.0000000   0.8333333), wk =   0.0277778
        k(   64) = (  -0.1666667  -1.0000000  -0.0000000), wk =   0.0138889
        k(   65) = (   0.6666667  -0.3333333   1.0000000), wk =   0.0277778
        k(   66) = (   0.5833333  -0.2500000   0.9166667), wk =   0.0555556
        k(   67) = (   0.5000000  -0.1666667   0.8333333), wk =   0.0277778
        k(   68) = (   0.6666667  -0.1666667   1.0000000), wk =   0.0277778
        k(   69) = (   0.5833333  -0.0833333   0.9166667), wk =   0.0555556
        k(   70) = (   0.5000000   0.0000000   0.8333333), wk =   0.0277778
        k(   71) = (  -0.3333333  -1.0000000   0.0000000), wk =   0.0138889
        k(   72) = (  -0.5000000  -1.0000000   0.0000000), wk =   0.0069444

     Dense  grid:    31879 G-vectors     FFT dimensions: (  45,  45,  45)

     Estimated max dynamical RAM per process >      20.72 MB

     Estimated total dynamical RAM >     165.73 MB

     Initial potential from superposition of free atoms

     starting charge      25.8388, renormalised to      26.0000
     Starting wfcs are random

     total cpu time spent up to now is        0.8 secs

     Self-consistent Calculation

     iteration #  1     ecut=    65.00 Ry     beta= 0.70
     Davidson diagonalization with overlap
     c_bands:  2 eigenvalues not converged
     c_bands:  1 eigenvalues not converged
     c_bands:  1 eigenvalues not converged
     c_bands:  1 eigenvalues not converged
     c_bands:  1 eigenvalues not converged
     c_bands:  1 eigenvalues not converged
     c_bands:  2 eigenvalues not converged
     c_bands:  1 eigenvalues not converged
     c_bands:  1 eigenvalues not converged
     c_bands:  1 eigenvalues not converged
     c_bands:  1 eigenvalues not converged
     c_bands:  1 eigenvalues not converged
     c_bands:  1 eigenvalues not converged
     c_bands:  1 eigenvalues not converged
     c_bands:  1 eigenvalues not converged
     c_bands:  1 eigenvalues not converged
     c_bands:  1 eigenvalues not converged
     c_bands:  1 eigenvalues not converged
     c_bands:  1 eigenvalues not converged
     c_bands:  1 eigenvalues not converged
     c_bands:  1 eigenvalues not converged
     c_bands:  1 eigenvalues not converged
     c_bands:  1 eigenvalues not converged
     c_bands:  2 eigenvalues not converged
     c_bands:  1 eigenvalues not converged
     c_bands:  1 eigenvalues not converged
     ethr =  5.00E-06,  avg # of iterations = 18.0

     total cpu time spent up to now is       10.9 secs

     total energy              =    -284.06550594 Ry
     estimated scf accuracy    <       0.01492856 Ry

     iteration #  2     ecut=    65.00 Ry     beta= 0.70
     Davidson diagonalization with overlap
     ethr =  5.74E-05,  avg # of iterations =  2.5

     total cpu time spent up to now is       13.2 secs

     total energy              =    -284.06755982 Ry
     estimated scf accuracy    <       0.00069265 Ry

     iteration #  3     ecut=    65.00 Ry     beta= 0.70
     Davidson diagonalization with overlap
     ethr =  2.66E-06,  avg # of iterations =  4.5

     total cpu time spent up to now is       15.7 secs

     total energy              =    -284.06765213 Ry
     estimated scf accuracy    <       0.00005879 Ry

     iteration #  4     ecut=    65.00 Ry     beta= 0.70
     Davidson diagonalization with overlap
     ethr =  2.26E-07,  avg # of iterations =  4.4

     total cpu time spent up to now is       19.7 secs

     total energy              =    -284.06766502 Ry
     estimated scf accuracy    <       0.00000493 Ry

     iteration #  5     ecut=    65.00 Ry     beta= 0.70
     Davidson diagonalization with overlap
     ethr =  1.90E-08,  avg # of iterations =  4.5

     total cpu time spent up to now is       22.3 secs

     total energy              =    -284.06766626 Ry
     estimated scf accuracy    <       0.00000018 Ry

     iteration #  6     ecut=    65.00 Ry     beta= 0.70
     Davidson diagonalization with overlap
     ethr =  7.05E-10,  avg # of iterations =  5.9

     total cpu time spent up to now is       25.3 secs

     total energy              =    -284.06766631 Ry
     estimated scf accuracy    <          5.2E-09 Ry

     iteration #  7     ecut=    65.00 Ry     beta= 0.70
     Davidson diagonalization with overlap
     ethr =  2.01E-11,  avg # of iterations =  6.3

     total cpu time spent up to now is       28.2 secs

     End of self-consistent calculation

          k = 0.0000 0.0000 0.0000 (  3943 PWs)   bands (ev):

   -46.5417 -39.1362 -39.1362 -39.1300 -39.1300 -39.1300 -18.4704 -18.4704
   -18.4704  -7.0838   3.9843   3.9843   3.9843   7.6670  11.9513  11.9513
    11.9513  13.8434  13.8434  14.5105  15.6652  15.6652  15.6652  20.3404
    26.6052  26.6052

          k =-0.0833 0.0833-0.0833 (  3927 PWs)   bands (ev):

   -46.5416 -39.1362 -39.1362 -39.1300 -39.1300 -39.1300 -18.4708 -18.4704
   -18.4704  -7.0634   3.7535   3.9632   3.9632   7.9267  11.7442  12.0330
    12.0330  13.5807  13.5807  14.9031  15.5742  16.1354  16.1354  20.6480
    25.1477  25.1477

          k =-0.1667 0.1667-0.1667 (  3975 PWs)   bands (ev):

   -46.5419 -39.1362 -39.1362 -39.1299 -39.1299 -39.1299 -18.4718 -18.4705
   -18.4705  -7.0067   3.2317   3.9068   3.9068   8.4874  11.4666  12.1490
    12.1490  13.3144  13.3144  14.9301  16.2776  17.1431  17.1431  21.3588
    23.2424  23.2424

          k =-0.2500 0.2500-0.2500 (  3966 PWs)   bands (ev):

   -46.5418 -39.1362 -39.1362 -39.1299 -39.1299 -39.1299 -18.4733 -18.4705
   -18.4705  -6.9266   2.6600   3.8329   3.8329   8.9523  11.5424  11.9957
    11.9957  13.6188  13.6188  14.5373  17.7405  18.3886  18.3886  21.1556
    21.4031  21.4031

          k =-0.3333 0.3333-0.3333 (  3960 PWs)   bands (ev):

   -46.5418 -39.1362 -39.1362 -39.1299 -39.1299 -39.1299 -18.4747 -18.4706
   -18.4706  -6.8431   2.1767   3.7623   3.7623   9.1083  11.7248  11.7248
    12.0719  14.2531  14.3860  14.3860  19.3905  19.5808  19.5808  19.8044
    19.8923  19.8923

          k =-0.4167 0.4167-0.4167 (  3957 PWs)   bands (ev):

   -46.5417 -39.1362 -39.1362 -39.1299 -39.1298 -39.1298 -18.4757 -18.4707
   -18.4707  -6.7796   1.8581   3.7125   3.7125   9.1003  11.5303  11.5303
    12.6522  14.2529  15.4149  15.4149  18.1011  18.1011  18.3774  21.2652
    21.2652  21.4684

          k = 0.5000-0.5000 0.5000 (  3996 PWs)   bands (ev):

   -46.5420 -39.1362 -39.1362 -39.1299 -39.1298 -39.1298 -18.4761 -18.4707
   -18.4707  -6.7559   1.7470   3.6946   3.6946   9.0835  11.4622  11.4622
    12.8535  14.4043  16.4653  16.4653  16.8761  16.8761  17.7933  22.2305
    22.2305  23.4268

          k = 0.0000 0.1667 0.0000 (  3935 PWs)   bands (ev):

   -46.5417 -39.1362 -39.1362 -39.1300 -39.1299 -39.1299 -18.4707 -18.4705
   -18.4705  -7.0567   3.7450   3.9233   3.9233   8.0141  11.5862  12.1192
    12.1192  13.1292  13.9256  15.0695  15.8274  15.8274  16.3224  20.7649
    24.7904  24.7904

          k =-0.0833 0.2500-0.0833 (  3963 PWs)   bands (ev):

   -46.5418 -39.1362 -39.1362 -39.1300 -39.1299 -39.1299 -18.4715 -18.4706
   -18.4705  -7.0124   3.3545   3.8521   3.8807   8.4810  11.2905  12.1984
    12.2958  12.7580  13.8506  15.4267  16.1189  16.4138  17.2026  21.3697
    23.1869  23.3489

          k =-0.1667 0.3333-0.1667 (  3968 PWs)   bands (ev):

   -46.5419 -39.1362 -39.1362 -39.1299 -39.1299 -39.1299 -18.4728 -18.4708
   -18.4706  -6.9405   2.8252   3.7711   3.8131   9.0063  11.2165  11.8380
    12.2780  13.1257  14.0179  15.0894  17.3574  17.4875  18.4432  21.1647
    21.3520  22.6983

          k =-0.2500 0.4167-0.2500 (  3969 PWs)   bands (ev):

   -46.5418 -39.1362 -39.1362 -39.1299 -39.1299 -39.1299 -18.4742 -18.4708
   -18.4707  -6.8582   2.3344   3.7022   3.7235   9.2709  11.4460  11.6361
    12.0289  13.8326  14.6879  14.7818  18.7737  18.9036  19.5715  19.6278
    19.9346  21.6192

          k =-0.3333 0.5000-0.3333 (  3970 PWs)   bands (ev):

   -46.5418 -39.1362 -39.1362 -39.1299 -39.1299 -39.1298 -18.4753 -18.4708
   -18.4708  -6.7880   1.9755   3.6368   3.6617   9.3022  11.2160  11.7745
    12.3460  14.3547  15.0013  15.6688  18.0084  18.1128  20.0377  20.2355
    20.7350  21.4286

          k = 0.5833-0.4167 0.5833 (  3975 PWs)   bands (ev):

   -46.5419 -39.1362 -39.1362 -39.1299 -39.1298 -39.1298 -18.4759 -18.4709
   -18.4708  -6.7507   1.8019   3.5750   3.6584   9.2881  11.1264  11.6169
    12.8838  14.5181  15.7832  16.4357  17.0102  17.2101  18.7442  21.6655
    22.0290  22.9063

          k = 0.5000-0.3333 0.5000 (  3979 PWs)   bands (ev):

   -46.5419 -39.1362 -39.1362 -39.1299 -39.1298 -39.1298 -18.4758 -18.4710
   -18.4707  -6.7585   1.8381   3.5524   3.6928   9.3013  11.1914  11.5886
    12.7876  14.5770  15.2569  16.4223  16.7468  18.3077  18.6814  20.9595
    22.1829  22.3527

          k = 0.4167-0.2500 0.4167 (  3968 PWs)   bands (ev):

   -46.5418 -39.1362 -39.1362 -39.1299 -39.1299 -39.1299 -18.4750 -18.4710
   -18.4706  -6.8088   2.0782   3.5750   3.7574   9.3253  11.4019  11.6995
    12.1551  14.1863  14.6277  15.5333  17.8602  19.4445  19.8408  19.9073
    20.4288  20.9715

          k = 0.3333-0.1667 0.3333 (  3979 PWs)   bands (ev):

   -46.5419 -39.1362 -39.1362 -39.1299 -39.1299 -39.1299 -18.4737 -18.4710
   -18.4705  -6.8856   2.4865   3.6404   3.8371   9.2376  11.5047  11.7259
    11.9429  13.3336  14.5802  14.8924  17.9220  18.6802  19.4891  19.5212
    21.4326  21.5508

          k = 0.2500-0.0833 0.2500 (  3974 PWs)   bands (ev):

   -46.5419 -39.1362 -39.1362 -39.1299 -39.1299 -39.1299 -18.4724 -18.4708
   -18.4704  -6.9667   2.9937   3.7389   3.9115   8.8489  11.2875  12.0622
    12.2289  12.8103  13.8910  15.2745  16.6307  17.2117  18.1932  21.1157
    22.1748  23.3489

          k = 0.1667-0.0000 0.1667 (  3949 PWs)   bands (ev):

   -46.5417 -39.1362 -39.1362 -39.1300 -39.1299 -39.1299 -18.4713 -18.4706
   -18.4704  -7.0310   3.4768   3.8579   3.9586   8.2895  11.4837  12.1394
    12.1705  13.0350  13.6537  15.3623  15.8554  16.1450  17.0305  21.1001
    23.2736  24.7781

          k = 0.0000 0.3333 0.0000 (  3947 PWs)   bands (ev):

   -46.5417 -39.1362 -39.1362 -39.1300 -39.1299 -39.1299 -18.4716 -18.4708
   -18.4708  -6.9826   3.2386   3.7655   3.7655   8.7796  10.9322  12.0864
    12.5875  12.5875  14.1680  16.3048  16.3206  16.3206  17.3354  21.8540
    22.8610  22.8610

          k =-0.0833 0.4167-0.0833 (  3971 PWs)   bands (ev):

   -46.5419 -39.1362 -39.1362 -39.1300 -39.1299 -39.1299 -18.4725 -18.4710
   -18.4709  -6.9239   2.8795   3.6728   3.6772   9.2075  10.7073  11.6306
    12.7607  13.0587  14.3683  16.1478  16.9925  17.3975  18.2843  21.2462
    21.3707  22.8056

          k =-0.1667 0.5000-0.1667 (  3993 PWs)   bands (ev):

   -46.5420 -39.1362 -39.1361 -39.1300 -39.1298 -39.1298 -18.4737 -18.4711
   -18.4710  -6.8504   2.4735   3.5595   3.5982   9.5197  10.8096  11.2994
    12.5935  13.7667  14.9777  15.8678  18.0837  18.7292  19.4624  19.6541
    19.8434  23.3714

          k =-0.2500 0.5833-0.2500 (  3980 PWs)   bands (ev):

   -46.5419 -39.1362 -39.1361 -39.1299 -39.1298 -39.1298 -18.4747 -18.4712
   -18.4712  -6.7813   2.1423   3.4198   3.5590   9.6110  10.8496  11.5984
    12.3035  14.4759  15.7972  15.9327  18.0530  18.0850  19.3881  20.3058
    21.2677  21.9947

          k = 0.6667-0.3333 0.6667 (  3982 PWs)   bands (ev):

   -46.5419 -39.1362 -39.1362 -39.1299 -39.1298 -39.1298 -18.4754 -18.4715
   -18.4711  -6.7366   1.9503   3.2957   3.5632   9.6602  10.7210  12.0631
    12.3392  14.7772  15.9193  16.4442  17.2816  17.3963  20.4481  20.7815
    21.5979  22.4346

          k = 0.5833-0.2500 0.5833 (  3985 PWs)   bands (ev):

   -46.5419 -39.1362 -39.1362 -39.1299 -39.1298 -39.1298 -18.4754 -18.4717
   -18.4709  -6.7301   1.9286   3.2209   3.6099   9.7494  10.7104  11.9304
    12.6367  15.0481  15.2383  15.7071  17.7676  18.5793  19.4666  20.5652
    22.0497  23.2907

          k = 0.5000-0.1667 0.5000 (  3981 PWs)   bands (ev):

   -46.5419 -39.1362 -39.1362 -39.1299 -39.1298 -39.1298 -18.4750 -18.4718
   -18.4707  -6.7639   2.0754   3.2195   3.6891   9.8467  10.8661  11.9261
    12.0713  14.1558  15.5747  16.1281  17.1361  19.0444  20.1046  20.2036
    21.5477  22.0989

          k = 0.4167-0.0833 0.4167 (  3987 PWs)   bands (ev):

   -46.5420 -39.1362 -39.1362 -39.1299 -39.1299 -39.1299 -18.4741 -18.4717
   -18.4705  -6.8273   2.3523   3.3087   3.7823   9.8125  11.1947  11.3739
    12.0563  13.2899  15.7717  15.8884  17.4387  17.8961  19.7916  20.7996
    21.6520  21.7746

          k = 0.3333 0.0000 0.3333 (  3983 PWs)   bands (ev):

   -46.5420 -39.1362 -39.1362 -39.1299 -39.1299 -39.1299 -18.4731 -18.4713
   -18.4704  -6.9016   2.6856   3.4952   3.8647   9.4123  11.1336  11.6504
    12.2915  12.7018  14.7425  16.1139  16.4320  18.3016  19.4058  19.4358
    22.9027  22.9730

          k = 0.0000 0.5000 0.0000 (  3976 PWs)   bands (ev):

   -46.5419 -39.1362 -39.1361 -39.1300 -39.1298 -39.1298 -18.4727 -18.4713
   -18.4713  -6.8807   2.7317   3.5676   3.5676   9.3199  10.3372  11.6264
    13.2741  13.2741  14.5551  17.1515  17.1515  17.8661  18.3748  21.1219
    21.1219  21.7850

          k =-0.0833 0.5833-0.0833 (  3994 PWs)   bands (ev):

   -46.5420 -39.1362 -39.1361 -39.1300 -39.1298 -39.1298 -18.4735 -18.4715
   -18.4715  -6.8213   2.4767   3.4437   3.4828   9.3694  10.2098  11.6785
    13.3603  13.8397  15.0634  17.1817  17.8871  18.9648  19.3471  19.7430
    19.7752  21.7149

          k =-0.1667 0.6667-0.1667 (  3990 PWs)   bands (ev):

   -46.5420 -39.1362 -39.1361 -39.1300 -39.1298 -39.1298 -18.4742 -18.4717
   -18.4715  -6.7610   2.2510   3.2516   3.4375   9.4084  10.3996  11.7067
    13.0755  14.5737  16.0344  17.0874  18.1560  18.1992  18.9615  20.2015
    20.9039  22.0243

          k = 0.7500-0.2500 0.7500 (  3983 PWs)   bands (ev):

   -46.5419 -39.1362 -39.1361 -39.1299 -39.1298 -39.1298 -18.4747 -18.4721
   -18.4714  -6.7167   2.1226   3.0325   3.4409   9.4847  10.7254  11.8978
    12.7551  14.8361  16.5556  17.0110  17.4775  17.6092  20.1258  20.9022
    21.8009  22.4973

          k = 0.6667-0.1667 0.6667 (  3991 PWs)   bands (ev):

   -46.5420 -39.1362 -39.1361 -39.1299 -39.1298 -39.1298 -18.4748 -18.4725
   -18.4712  -6.7015   2.1104   2.8613   3.4924   9.6654  10.8915  12.2496
    12.4989  14.4592  15.3952  16.8119  18.4435  18.7751  20.0455  20.7547
    21.2331  23.0738

          k = 0.5833-0.0833 0.5833 (  3981 PWs)   bands (ev):

   -46.5419 -39.1362 -39.1362 -39.1299 -39.1298 -39.1298 -18.4746 -18.4727
   -18.4710  -6.7200   2.1803   2.8229   3.5813   9.9606  10.9408  11.9700
    12.3226  14.3665  14.8156  16.9060  18.5128  18.7062  20.3108  20.3866
    21.9169  22.6849

          k = 0.5000 0.0000 0.5000 (  3991 PWs)   bands (ev):

   -46.5420 -39.1362 -39.1362 -39.1299 -39.1299 -39.1298 -18.4743 -18.4724
   -18.4707  -6.7666   2.2615   2.9886   3.6873  10.2260  10.9090  11.4060
    12.1957  13.6302  15.9450  16.9824  17.2984  17.4912  20.9586  21.7421
    21.8712  22.0395

          k = 0.0000 0.6667 0.0000 (  3992 PWs)   bands (ev):

   -46.5420 -39.1362 -39.1361 -39.1300 -39.1298 -39.1298 -18.4737 -18.4717
   -18.4717  -6.7782   2.3421   3.3863   3.3863   9.0685   9.8901  12.2995
    14.0926  14.0926  15.0459  18.2345  18.2345  19.4509  19.6596  19.6903
    19.6903  20.1729

          k =-0.0833 0.7500-0.0833 (  4003 PWs)   bands (ev):

   -46.5421 -39.1362 -39.1361 -39.1300 -39.1298 -39.1298 -18.4742 -18.4720
   -18.4719  -6.7323   2.2061   3.2475   3.3304   8.9597   9.8606  12.6075
    14.0314  14.6746  15.8164  18.0766  18.2512  18.7405  19.2669  19.7767
    20.6209  21.0840

          k = 0.8333-0.1667 0.8333 (  3996 PWs)   bands (ev):

   -46.5420 -39.1362 -39.1361 -39.1300 -39.1298 -39.1297 -18.4744 -18.4725
   -18.4718  -6.6963   2.1630   2.9904   3.3264   9.0409  10.1618  12.6446
    13.6289  14.9212  16.7273  17.3470  17.5695  18.6282  19.8140  19.9705
    21.7223  21.7783

          k = 0.7500-0.0833 0.7500 (  3987 PWs)   bands (ev):

   -46.5419 -39.1362 -39.1361 -39.1299 -39.1298 -39.1298 -18.4742 -18.4731
   -18.4716  -6.6804   2.2502   2.6815   3.3751   9.2483  10.7043  12.5767
    13.2043  14.2864  15.7734  17.9363  18.5157  19.0543  19.4499  20.6388
    20.9973  22.6279

          k = 0.6667-0.0000 0.6667 (  3985 PWs)   bands (ev):

   -46.5419 -39.1362 -39.1361 -39.1299 -39.1298 -39.1298 -18.4740 -18.4735
   -18.4713  -6.6892   2.3759   2.4959   3.4668   9.5725  11.1589  12.2178
    12.7716  14.0615  14.9001  18.0729  18.5641  19.8120  19.8302  19.9953
    21.0584  22.5596

          k = 0.0000 0.8333 0.0000 (  3996 PWs)   bands (ev):

   -46.5420 -39.1362 -39.1361 -39.1300 -39.1297 -39.1297 -18.4744 -18.4721
   -18.4721  -6.7029   2.1066   3.2623   3.2623   8.6571   9.6163  13.3745
    14.9393  14.9393  15.5310  18.0747  18.0747  18.5331  19.9684  20.1085
    20.1085  20.7748

          k = 0.9167-0.0833 0.9167 (  3988 PWs)   bands (ev):

   -46.5419 -39.1362 -39.1361 -39.1300 -39.1297 -39.1297 -18.4746 -18.4723
   -18.4721  -6.6809   2.0757   3.1359   3.2469   8.6552   9.6832  13.5778
    14.6014  15.1439  16.4461  17.3259  17.5973  18.4497  19.8738  20.2632
    21.2026  21.7707

          k = 0.8333 0.0000 0.8333 (  3973 PWs)   bands (ev):

   -46.5418 -39.1362 -39.1361 -39.1300 -39.1297 -39.1297 -18.4744 -18.4728
   -18.4719  -6.6727   2.1512   2.8815   3.2871   8.8895  10.0828  13.3068
    13.9357  14.5887  16.4176  17.6235  18.1520  18.6191  20.0527  20.2528
    20.9552  22.4011

          k = 0.0000-1.0000 0.0000 (  3984 PWs)   bands (ev):

   -46.5419 -39.1362 -39.1361 -39.1300 -39.1297 -39.1297 -18.4747 -18.4722
   -18.4722  -6.6753   2.0288   3.2186   3.2186   8.4941   9.5243  13.9658
    15.4305  15.4305  15.7604  17.4931  17.4931  17.8099  19.5528  21.5744
    21.6812  21.6812

          k =-0.1667 0.3333 0.0000 (  3975 PWs)   bands (ev):

   -46.5419 -39.1362 -39.1362 -39.1300 -39.1299 -39.1299 -18.4722 -18.4710
   -18.4705  -6.9608   3.0319   3.6894   3.8483   8.9519  11.0326  11.9028
    12.5575  12.6738  14.1066  15.9717  16.2233  17.1200  18.1202  21.1611
    22.3325  22.9297

          k =-0.2500 0.4167-0.0833 (  3972 PWs)   bands (ev):

   -46.5419 -39.1362 -39.1362 -39.1299 -39.1299 -39.1299 -18.4733 -18.4712
   -18.4706  -6.8880   2.6160   3.5348   3.7852   9.4352  11.0295  11.4441
    12.4173  13.1289  14.7690  15.7183  17.2042  18.4333  19.3406  19.5229
    21.4516  23.2035

          k =-0.3333 0.5000-0.1667 (  3975 PWs)   bands (ev):

   -46.5419 -39.1362 -39.1362 -39.1299 -39.1299 -39.1298 -18.4745 -18.4714
   -18.4707  -6.8125   2.2321   3.4260   3.7015   9.6372  11.0525  11.5358
    12.1447  13.8803  15.4277  15.7287  17.7945  18.5995  19.8132  20.0233
    20.8655  21.8195

          k = 0.5833-0.4167 0.7500 (  3981 PWs)   bands (ev):

   -46.5419 -39.1362 -39.1362 -39.1299 -39.1298 -39.1298 -18.4753 -18.4714
   -18.4708  -6.7553   1.9684   3.3645   3.6308   9.6497  10.8131  11.9205
    12.3293  14.6306  15.3820  16.3984  16.9131  18.4414  20.0261  20.2898
    21.7289  22.1824

          k = 0.5000-0.3333 0.6667 (  3986 PWs)   bands (ev):

   -46.5419 -39.1362 -39.1362 -39.1299 -39.1298 -39.1298 -18.4756 -18.4714
   -18.4709  -6.7340   1.8750   3.3454   3.6030   9.6411  10.7288  11.8630
    12.7539  15.0179  15.2092  16.3595  16.9541  18.2098  19.3057  21.3250
    21.6860  23.4929

          k =-0.1667 0.5000 0.0000 (  3990 PWs)   bands (ev):

   -46.5420 -39.1362 -39.1361 -39.1300 -39.1298 -39.1298 -18.4732 -18.4714
   -18.4710  -6.8647   2.6154   3.4792   3.6351   9.5144  10.5257  11.3762
    13.0642  13.2685  14.9178  16.8281  16.9279  18.5491  19.1540  19.5906
    21.1944  22.0937

          k =-0.2500 0.5833-0.0833 (  3987 PWs)   bands (ev):

   -46.5420 -39.1362 -39.1361 -39.1300 -39.1298 -39.1298 -18.4740 -18.4717
   -18.4711  -6.7979   2.3421   3.3026   3.5570   9.7222  10.6387  11.2032
    12.8754  13.9227  15.8629  16.6294  17.8417  18.0594  19.7890  19.9843
    20.5929  22.0190

          k = 0.6667-0.3333 0.8333 (  3981 PWs)   bands (ev):

   -46.5419 -39.1362 -39.1361 -39.1299 -39.1298 -39.1298 -18.4747 -18.4719
   -18.4712  -6.7417   2.1344   3.1526   3.4913   9.7991  10.6886  11.5292
    12.6280  14.6089  16.3673  16.5887  17.1099  18.4898  19.3123  21.3754
    21.4899  22.3598

          k = 0.5833-0.2500 0.7500 (  3988 PWs)   bands (ev):

   -46.5419 -39.1362 -39.1361 -39.1299 -39.1298 -39.1298 -18.4750 -18.4721
   -18.4712  -6.7124   2.0391   3.0410   3.4813   9.9120  10.5567  12.1494
    12.4404  14.6413  15.7472  16.8199  17.1529  18.7545  20.3573  20.7875
    21.2691  22.8976

          k = 0.5000-0.1667 0.6667 (  3978 PWs)   bands (ev):

   -46.5419 -39.1362 -39.1362 -39.1299 -39.1299 -39.1298 -18.4749 -18.4722
   -18.4711  -6.7192   2.0715   2.9998   3.5310  10.1106  10.4787  12.1108
    12.3635  14.6193  15.2781  16.4392  17.9776  19.1462  19.6514  20.4861
    21.8732  22.7738

          k = 0.4167-0.0833 0.5833 (  3977 PWs)   bands (ev):

   -46.5419 -39.1362 -39.1362 -39.1299 -39.1298 -39.1298 -18.4745 -18.4722
   -18.4709  -6.7599   2.2097   3.0654   3.6204  10.2445  10.5974  11.4190
    12.4192  13.9700  16.0606  16.5456  17.2687  18.2200  20.0826  21.2715
    21.7483  22.1192

          k = 0.3333 0.0000 0.5000 (  3975 PWs)   bands (ev):

   -46.5419 -39.1362 -39.1362 -39.1299 -39.1298 -39.1298 -18.4739 -18.4718
   -18.4707  -6.8220   2.4046   3.2568   3.7175   9.9838  10.9844  10.9863
    12.4968  13.3112  15.8640  16.6915  16.9235  17.8247  19.7515  20.6742
    21.4063  22.2232

          k =-0.1667 0.6667-0.0000 (  3990 PWs)   bands (ev):

   -46.5420 -39.1362 -39.1361 -39.1300 -39.1298 -39.1298 -18.4739 -18.4719
   -18.4716  -6.7687   2.3121   3.2877   3.4069   9.3086  10.1226  11.8777
    13.6606  14.1214  15.8038  17.9451  17.9522  18.1175  19.6417  20.2099
    20.3530  20.5849

          k = 0.7500-0.2500 0.9167 (  3994 PWs)   bands (ev):

   -46.5420 -39.1362 -39.1361 -39.1300 -39.1298 -39.1298 -18.4743 -18.4722
   -18.4717  -6.7210   2.2077   3.0787   3.3393   9.3696  10.3443  11.8827
    13.4481  14.7248  16.6840  16.9354  17.9403  18.5034  19.1191  20.3815
    21.2637  22.0429

          k = 0.6667-0.1667 0.8333 (  3994 PWs)   bands (ev):

   -46.5420 -39.1362 -39.1361 -39.1299 -39.1298 -39.1297 -18.4744 -18.4727
   -18.4716  -6.6916   2.2023   2.8313   3.3382   9.5095  10.7524  11.9376
    13.0536  14.6504  16.2021  17.1821  18.0405  18.7278  19.8315  20.6212
    21.6249  22.4976

          k = 0.5833-0.0833 0.7500 (  3993 PWs)   bands (ev):

   -46.5420 -39.1362 -39.1361 -39.1299 -39.1298 -39.1298 -18.4743 -18.4731
   -18.4714  -6.6892   2.2718   2.6548   3.4013   9.7528  10.9833  12.0440
    12.6249  14.3774  15.2699  17.5629  18.6546  19.1466  19.9601  20.2886
    21.4181  22.5938

          k = 0.5000 0.0000 0.6667 (  3985 PWs)   bands (ev):

   -46.5419 -39.1362 -39.1362 -39.1299 -39.1299 -39.1298 -18.4743 -18.4729
   -18.4711  -6.7145   2.2593   2.7510   3.5064  10.1076  10.8857  11.5450
    12.6241  14.4078  14.9295  17.6669  18.0177  18.6439  20.0571  20.6145
    22.1084  22.6761

          k = 0.8333-0.1667 1.0000 (  3994 PWs)   bands (ev):

   -46.5420 -39.1362 -39.1361 -39.1300 -39.1297 -39.1297 -18.4744 -18.4722
   -18.4720  -6.6986   2.1424   3.1573   3.2332   8.9037   9.8703  12.8593
    14.1617  14.9982  16.4698  17.1712  18.0905  19.0690  19.3785  19.7890
    20.7305  21.9786

          k = 0.7500-0.0833 0.9167 (  3996 PWs)   bands (ev):

   -46.5420 -39.1362 -39.1361 -39.1300 -39.1298 -39.1297 -18.4743 -18.4727
   -18.4720  -6.6770   2.1805   2.9158   3.2184   9.0778  10.1963  12.7880
    13.5703  15.1044  16.6292  17.0619  17.9900  19.1284  19.6463  20.4710
    21.2519  21.8090

          k = 0.6667 0.0000 0.8333 (  3998 PWs)   bands (ev):

   -46.5420 -39.1362 -39.1361 -39.1299 -39.1298 -39.1297 -18.4739 -18.4734
   -18.4718  -6.6737   2.3266   2.6145   3.2860   9.3698  10.7557  12.5444
    12.8205  14.6597  15.8039  18.0626  18.2565  19.3769  19.6221  20.5928
    21.0490  22.4060

          k =-0.1667-1.0000-0.0000 (  3988 PWs)   bands (ev):

   -46.5419 -39.1362 -39.1361 -39.1300 -39.1297 -39.1297 -18.4745 -18.4724
   -18.4722  -6.6730   2.0904   3.1113   3.1677   8.7437   9.7849  13.5726
    14.0950  15.5090  16.5581  17.1655  17.5175  18.4513  20.0849  20.8417
    21.3722  21.7558

          k = 0.6667-0.3333 1.0000 (  3985 PWs)   bands (ev):

   -46.5419 -39.1362 -39.1361 -39.1299 -39.1298 -39.1298 -18.4742 -18.4723
   -18.4713  -6.7442   2.2584   3.0425   3.4608   9.9504  10.7428  11.0269
    13.0903  14.2097  16.3144  17.1396  17.6364  17.9034  19.8161  20.6441
    21.5514  21.6580

          k = 0.5833-0.2500 0.9167 (  3991 PWs)   bands (ev):

   -46.5420 -39.1362 -39.1361 -39.1299 -39.1298 -39.1298 -18.4744 -18.4727
   -18.4715  -6.7041   2.2248   2.8509   3.3608  10.0286  10.7426  11.3920
    12.9069  14.6936  15.5617  17.3699  18.2249  18.7820  19.3827  20.4656
    22.2011  22.6038

          k = 0.5000-0.1667 0.8333 (  3990 PWs)   bands (ev):

   -46.5420 -39.1362 -39.1361 -39.1299 -39.1299 -39.1297 -18.4744 -18.4728
   -18.4716  -6.6892   2.2195   2.7785   3.3192  10.0455  10.6619  11.9160
    12.5608  14.5397  15.9020  17.1624  17.9055  19.3951  20.0360  20.8973
    20.9686  22.3521

          k = 0.6667-0.1667 1.0000 (  3997 PWs)   bands (ev):

   -46.5420 -39.1362 -39.1361 -39.1299 -39.1298 -39.1297 -18.4742 -18.4727
   -18.4719  -6.6886   2.2430   2.8979   3.1959   9.5325  10.5618  11.7895
    13.3072  15.1670  15.9571  17.5281  18.1113  19.2494  19.4491  19.6516
    21.7416  23.0035

          k = 0.5833-0.0833 0.9167 (  3989 PWs)   bands (ev):

   -46.5419 -39.1362 -39.1361 -39.1299 -39.1298 -39.1297 -18.4739 -18.4731
   -18.4720  -6.6731   2.3615   2.6694   3.1459   9.7353  10.9756  11.7795
    12.5475  15.2548  16.1443  17.1957  18.1994  19.2186  20.1527  20.7233
    21.2217  22.3426

          k = 0.5000 0.0000 0.8333 (  3994 PWs)   bands (ev):

   -46.5420 -39.1362 -39.1361 -39.1299 -39.1299 -39.1297 -18.4739 -18.4733
   -18.4718  -6.6789   2.3987   2.5922   3.2205   9.9337  11.1078  11.5271
    12.4982  15.1671  15.4287  17.9335  18.1398  19.4214  19.4317  20.4530
    22.1983  22.2081

          k =-0.3333-1.0000 0.0000 (  3980 PWs)   bands (ev):

   -46.5419 -39.1362 -39.1361 -39.1299 -39.1298 -39.1297 -18.4741 -18.4728
   -18.4723  -6.6686   2.2678   2.8471   3.0713   9.3748  10.4970  12.6231
    12.6930  15.7418  16.6150  16.8394  17.5693  19.6374  20.4605  20.9465
    21.1385  21.4315

          k =-0.5000-1.0000 0.0000 (  3996 PWs)   bands (ev):

   -46.5420 -39.1362 -39.1361 -39.1299 -39.1299 -39.1297 -18.4734 -18.4734
   -18.4723  -6.6664   2.5368   2.5368   3.0255   9.8545  11.5066  11.5066
    11.9597  16.1188  16.1188  16.9104  17.5968  20.0064  20.6689  20.6689
    20.7768  22.1804

     the Fermi energy is     6.0599 ev

!    total energy              =    -284.06766631 Ry
     estimated scf accuracy    <          9.0E-11 Ry
     smearing contrib. (-TS)   =      -0.00000000 Ry
     internal energy E=F+TS    =    -284.06766631 Ry

     The total energy is F=E-TS. E is the sum of the following terms:
     one-electron contribution =    -168.38079889 Ry
     hartree contribution      =      83.47816077 Ry
     xc contribution           =     -32.30127576 Ry
     ewald contribution        =    -166.86375244 Ry

     convergence has been achieved in   7 iterations

     Writing all to output data dir out/mp-23268.save/
 
     init_run     :      0.72s CPU      0.77s WALL (       1 calls)
     electrons    :     24.85s CPU     27.41s WALL (       1 calls)

     Called by init_run:
     wfcinit      :      0.67s CPU      0.70s WALL (       1 calls)
     potinit      :      0.01s CPU      0.02s WALL (       1 calls)
     hinit0       :      0.01s CPU      0.02s WALL (       1 calls)

     Called by electrons:
     c_bands      :     22.65s CPU     25.12s WALL (       7 calls)
     sum_band     :      2.15s CPU      2.24s WALL (       7 calls)
     v_of_rho     :      0.05s CPU      0.05s WALL (       8 calls)
     mix_rho      :      0.00s CPU      0.01s WALL (       7 calls)

     Called by c_bands:
     init_us_2    :      0.16s CPU      0.17s WALL (    1080 calls)
     init_us_2:cp :      0.16s CPU      0.17s WALL (    1080 calls)
     cegterg      :     22.13s CPU     22.71s WALL (     504 calls)

     Called by *egterg:
     cdiaghg      :      3.25s CPU      3.31s WALL (    3825 calls)
     h_psi        :     16.99s CPU     17.50s WALL (    3897 calls)
     g_psi        :      0.13s CPU      0.13s WALL (    3321 calls)

     Called by h_psi:
     h_psi:calbec :      0.40s CPU      0.42s WALL (    3897 calls)
     vloc_psi     :     16.22s CPU     16.71s WALL (    3897 calls)
     add_vuspsi   :      0.28s CPU      0.29s WALL (    3897 calls)

     General routines
     calbec       :      0.39s CPU      0.41s WALL (    3897 calls)
     fft          :      0.02s CPU      0.03s WALL (      79 calls)
     ffts         :      0.00s CPU      0.00s WALL (       7 calls)
     fftw         :     16.44s CPU     16.94s WALL (  127306 calls)
 
     Parallel routines
 
     PWSCF        :     25.75s CPU     28.53s WALL

 
   This run was terminated on:  14:33: 6   3Jan2024            

=------------------------------------------------------------------------------=
   JOB DONE.
=------------------------------------------------------------------------------=
