
     Program PWSCF v.7.1 starts on  3Jan2024 at 21:45:18 

     This program is part of the open-source Quantum ESPRESSO suite
     for quantum simulation of materials; please cite
         "P. Giannozzi et al., J. Phys.:Condens. Matter 21 395502 (2009);
         "P. Giannozzi et al., J. Phys.:Condens. Matter 29 465901 (2017);
         "P. Giannozzi et al., J. Chem. Phys. 152 154105 (2020);
          URL http://www.quantum-espresso.org", 
     in publications or presentations arising from this work. More details at
     http://www.quantum-espresso.org/quote

     Parallel version (MPI), running on     8 processors

     MPI processes distributed on     1 nodes
     248939 MiB available memory on the printing compute node when the environment starts
 
     Reading input from pw_mp-995214_nscf_k3000_E130.in
Warning: card &IONS ignored
Warning: card / ignored
Warning: card &CELL ignored
Warning: card / ignored

     Current dimensions of program PWSCF are:
     Max number of different atomic species (ntypx) = 10
     Max number of k-points (npk) =  40000
     Max angular momentum in pseudopotentials (lmaxx) =  4

     Atomic positions and unit cell read from directory:
     out/mp-995214.save/
     Atomic positions from file used, from input discarded
 
 
     R & G space division:  proc/nbgrp/npool/nimage =       8
     Subspace diagonalization in iterative solution of the eigenvalue problem:
     one sub-group per band group will be used
     scalapack distributed-memory algorithm (size of sub-group:  2*  2 procs)

 
     Parallelization info
     --------------------
     sticks:   dense  smooth     PW     G-vecs:    dense   smooth      PW
     Min        1462    1462    385               173326   173326   23385
     Max        1463    1463    386               173331   173331   23390
     Sum       11699   11699   3081              1386623  1386623  187095
 
     Using Slab Decomposition
 


     bravais-lattice index     =            8
     lattice parameter (alat)  =      16.1699  a.u.
     unit-cell volume          =    6924.6011 (a.u.)^3
     number of atoms/cell      =           48
     number of atomic types    =            5
     number of electrons       =       320.00
     number of Kohn-Sham states=          320
     kinetic-energy cutoff     =     130.0000  Ry
     charge density cutoff     =     520.0000  Ry
     Exchange-correlation= PBE
                           (   1   4   3   4   0   0   0)

     celldm(1)=  16.169867  celldm(2)=   1.081075  celldm(3)=   1.515025
     celldm(4)=   0.000000  celldm(5)=   0.000000  celldm(6)=   0.000000

     crystal axes: (cart. coord. in units of alat)
               a(1) = (   1.000000   0.000000   0.000000 )  
               a(2) = (   0.000000   1.081075   0.000000 )  
               a(3) = (   0.000000   0.000000   1.515025 )  

     reciprocal axes: (cart. coord. in units 2 pi/alat)
               b(1) = (  1.000000  0.000000  0.000000 )  
               b(2) = (  0.000000  0.925005  0.000000 )  
               b(3) = (  0.000000  0.000000  0.660055 )  


     PseudoPot. # 1 for C  read from file:
     /usr/scratch4/magr4985/MG/devEb/pseudo/SG15/C.upf
     MD5 check sum: 3d2597e5eef38528f7293c089e88409c
     Pseudo is Norm-conserving, Zval =  4.0
     Generated using ONCVPSP code by D. R. Hamann
     Using radial grid of  602 points,  4 beta functions with: 
                l(1) =   0
                l(2) =   0
                l(3) =   1
                l(4) =   1

     PseudoPot. # 2 for H  read from file:
     /usr/scratch4/magr4985/MG/devEb/pseudo/SG15/H.upf
     MD5 check sum: ae0d01b4bdfb70e4e0e3a1de63306ab0
     Pseudo is Norm-conserving, Zval =  1.0
     Generated using ONCVPSP code by D. R. Hamann
     Using radial grid of  602 points,  2 beta functions with: 
                l(1) =   0
                l(2) =   0

     PseudoPot. # 3 for I  read from file:
     /usr/scratch4/magr4985/MG/devEb/pseudo/SG15/I.upf
     MD5 check sum: 2bc24df9af9f874725967c58cc477d99
     Pseudo is Norm-conserving, Zval = 17.0
     Generated using ONCVPSP code by D. R. Hamann
     Using radial grid of  602 points,  6 beta functions with: 
                l(1) =   0
                l(2) =   0
                l(3) =   1
                l(4) =   1
                l(5) =   2
                l(6) =   2

     PseudoPot. # 4 for N  read from file:
     /usr/scratch4/magr4985/MG/devEb/pseudo/SG15/N.upf
     MD5 check sum: 505747f69e3b1670e9a20de136ca1593
     Pseudo is Norm-conserving, Zval =  5.0
     Generated using ONCVPSP code by D. R. Hamann
     Using radial grid of  602 points,  4 beta functions with: 
                l(1) =   0
                l(2) =   0
                l(3) =   1
                l(4) =   1

     PseudoPot. # 5 for Pb read from file:
     /usr/scratch4/magr4985/MG/devEb/pseudo/SG15/Pb.upf
     MD5 check sum: 18da7c9819a8d2a15024df9e07e1e14a
     Pseudo is Norm-conserving, Zval = 14.0
     Generated using ONCVPSP code by D. R. Hamann
     Using radial grid of  602 points,  8 beta functions with: 
                l(1) =   0
                l(2) =   0
                l(3) =   1
                l(4) =   1
                l(5) =   2
                l(6) =   2
                l(7) =   3
                l(8) =   3

     atomic species   valence    mass     pseudopotential
        C              4.00    12.01070     C ( 1.00)
        H              1.00     1.00790     H ( 1.00)
        I             17.00   126.90450     I ( 1.00)
        N              5.00    14.00670     N ( 1.00)
        Pb            14.00   207.20000     Pb( 1.00)

      8 Sym. Ops., with inversion, found ( 6 have fractional translation)



   Cartesian axes

     site n.     atom                  positions (alat units)
         1           H   tau(   1) = (   0.4942640   0.1545656   1.0383615  )
         2           H   tau(   2) = (   0.5057360   0.9265092   0.4766631  )
         3           H   tau(   3) = (   0.0057360   0.6951030   0.4766631  )
         4           H   tau(   4) = (   0.9942641   0.3859718   1.0383615  )
         5           H   tau(   5) = (   0.5057360   0.9265092   0.2808492  )
         6           H   tau(   6) = (   0.4942640   0.1545656   1.2341755  )
         7           H   tau(   7) = (   0.9942641   0.3859718   1.2341755  )
         8           H   tau(   8) = (   0.0057360   0.6951030   0.2808492  )
         9           H   tau(   9) = (   0.3380590   0.0850071   1.1362685  )
        10           H   tau(  10) = (   0.6619410   0.9960677   0.3787562  )
        11           H   tau(  11) = (   0.1619410   0.6255445   0.3787562  )
        12           H   tau(  12) = (   0.8380591   0.4555303   1.1362685  )
        13           H   tau(  13) = (   0.4947750   0.9512258   1.0313697  )
        14           H   tau(  14) = (   0.5052250   0.1298490   0.4836550  )
        15           H   tau(  15) = (   0.0052250   0.4106884   0.4836550  )
        16           H   tau(  16) = (   0.9947751   0.6703864   1.0313697  )
        17           H   tau(  17) = (   0.5052250   0.1298490   0.2738574  )
        18           H   tau(  18) = (   0.4947750   0.9512258   1.2411673  )
        19           H   tau(  19) = (   0.9947751   0.6703864   1.2411673  )
        20           H   tau(  20) = (   0.0052250   0.4106884   0.2738574  )
        21           H   tau(  21) = (   0.6598480   1.0266567   1.1362685  )
        22           H   tau(  22) = (   0.3401520   0.0544181   0.3787562  )
        23           H   tau(  23) = (   0.8401521   0.4861193   0.3787562  )
        24           H   tau(  24) = (   0.1598480   0.5949555   1.1362685  )
        25           Pb  tau(  25) = (   0.5000000   0.5405374   0.0000000  )
        26           Pb  tau(  26) = (   0.0000000   0.0000000   0.0000000  )
        27           Pb  tau(  27) = (   0.5000000   0.5405374   0.7575123  )
        28           Pb  tau(  28) = (   0.0000000   0.0000000   0.7575123  )
        29           C   tau(  29) = (   0.5323550   1.0138730   1.1362685  )
        30           C   tau(  30) = (   0.4676450   0.0672018   0.3787562  )
        31           C   tau(  31) = (   0.9676451   0.4733356   0.3787562  )
        32           C   tau(  32) = (   0.0323550   0.6077392   1.1362685  )
        33           I   tau(  33) = (   0.5377330   0.5541546   1.1362685  )
        34           I   tau(  34) = (   0.4622670   0.5269202   0.3787562  )
        35           I   tau(  35) = (   0.9622671   0.0136172   0.3787562  )
        36           I   tau(  36) = (   0.0377330   1.0674576   1.1362685  )
        37           I   tau(  37) = (   0.8160661   0.7490108   0.0335532  )
        38           I   tau(  38) = (   0.1839340   0.3320640   1.4814714  )
        39           I   tau(  39) = (   0.6839340   0.2084734   1.4814714  )
        40           I   tau(  40) = (   0.3160660   0.8726014   0.0335532  )
        41           I   tau(  41) = (   0.1839340   0.3320640   0.7910656  )
        42           I   tau(  42) = (   0.8160661   0.7490108   0.7239591  )
        43           I   tau(  43) = (   0.3160660   0.8726014   0.7239591  )
        44           I   tau(  44) = (   0.6839340   0.2084734   0.7910656  )
        45           N   tau(  45) = (   0.4596090   0.0917433   1.1362685  )
        46           N   tau(  46) = (   0.5403910   0.9893315   0.3787562  )
        47           N   tau(  47) = (   0.0403910   0.6322806   0.3787562  )
        48           N   tau(  48) = (   0.9596091   0.4487941   1.1362685  )

     number of k points=    27  Gaussian smearing, width (Ry)=  0.0005
                       cart. coord. in units 2pi/alat
        k(    1) = (   0.0000000   0.0000000   0.0000000), wk =   0.0312500
        k(    2) = (   0.0000000   0.0000000   0.1650138), wk =   0.0625000
        k(    3) = (   0.0000000   0.0000000  -0.3300277), wk =   0.0312500
        k(    4) = (   0.0000000   0.2312514   0.0000000), wk =   0.0625000
        k(    5) = (   0.0000000   0.2312514   0.1650138), wk =   0.1250000
        k(    6) = (   0.0000000   0.2312514  -0.3300277), wk =   0.0625000
        k(    7) = (   0.0000000  -0.4625027   0.0000000), wk =   0.0312500
        k(    8) = (   0.0000000  -0.4625027   0.1650138), wk =   0.0625000
        k(    9) = (   0.0000000  -0.4625027  -0.3300277), wk =   0.0312500
        k(   10) = (   0.2500000   0.0000000   0.0000000), wk =   0.0625000
        k(   11) = (   0.2500000   0.0000000   0.1650138), wk =   0.1250000
        k(   12) = (   0.2500000   0.0000000  -0.3300277), wk =   0.0625000
        k(   13) = (   0.2500000   0.2312514   0.0000000), wk =   0.1250000
        k(   14) = (   0.2500000   0.2312514   0.1650138), wk =   0.2500000
        k(   15) = (   0.2500000   0.2312514  -0.3300277), wk =   0.1250000
        k(   16) = (   0.2500000  -0.4625027   0.0000000), wk =   0.0625000
        k(   17) = (   0.2500000  -0.4625027   0.1650138), wk =   0.1250000
        k(   18) = (   0.2500000  -0.4625027  -0.3300277), wk =   0.0625000
        k(   19) = (  -0.5000000   0.0000000   0.0000000), wk =   0.0312500
        k(   20) = (  -0.5000000   0.0000000   0.1650138), wk =   0.0625000
        k(   21) = (  -0.5000000   0.0000000  -0.3300277), wk =   0.0312500
        k(   22) = (  -0.5000000   0.2312514   0.0000000), wk =   0.0625000
        k(   23) = (  -0.5000000   0.2312514   0.1650138), wk =   0.1250000
        k(   24) = (  -0.5000000   0.2312514  -0.3300277), wk =   0.0625000
        k(   25) = (  -0.5000000  -0.4625027   0.0000000), wk =   0.0312500
        k(   26) = (  -0.5000000  -0.4625027   0.1650138), wk =   0.0625000
        k(   27) = (  -0.5000000  -0.4625027  -0.3300277), wk =   0.0312500

     Dense  grid:  1386623 G-vectors     FFT dimensions: ( 120, 128, 180)

     Estimated max dynamical RAM per process >       3.55 GB

     Estimated total dynamical RAM >      28.40 GB

     The potential is recalculated from file :
     out/mp-995214.save/charge-density

     Starting wfcs are random

     Band Structure Calculation
     Davidson diagonalization with overlap

     ethr =  5.00E-06,  avg # of iterations = 35.4

     total cpu time spent up to now is     4245.1 secs

     End of band structure calculation

          k = 0.0000 0.0000 0.0000 (173321 PWs)   bands (ev):

   -40.2621 -40.2621 -40.2621 -40.2621 -40.2277 -40.2277 -40.2277 -40.2276
   -40.2011 -40.2010 -40.2010 -40.2010 -40.1976 -40.1975 -40.1975 -40.1975
   -40.1975 -40.1975 -40.1975 -40.1975 -40.1656 -40.1656 -40.1656 -40.1656
   -40.1656 -40.1656 -40.1656 -40.1655 -40.1413 -40.1413 -40.1413 -40.1412
   -40.1412 -40.1412 -40.1412 -40.1412 -40.0933 -40.0933 -40.0933 -40.0932
   -40.0927 -40.0927 -40.0927 -40.0927 -40.0387 -40.0387 -40.0387 -40.0387
   -40.0387 -40.0387 -40.0387 -40.0386 -40.0384 -40.0384 -40.0384 -40.0384
   -40.0384 -40.0384 -40.0383 -40.0383 -15.9607 -15.9604 -15.9579 -15.9577
   -12.9085 -12.9049 -12.9015 -12.8979 -12.8951 -12.8950 -12.8844 -12.8843
   -12.8798 -12.8795 -12.8794 -12.8791 -12.8651 -12.8646 -12.8645 -12.8640
   -12.8576 -12.8575 -12.8573 -12.8571  -8.9537  -8.9470  -8.9422  -8.9415
    -8.1542  -7.9954  -7.8283  -7.7997  -7.7861  -7.7486  -7.7168  -7.6572
    -7.6380  -7.5785  -7.5525  -7.5349  -5.4731  -5.4635  -5.4549  -5.4529
    -5.4457  -5.4351  -5.4238  -5.4084  -4.4294  -3.9991  -3.6163  -3.3467
    -3.3274  -3.3204  -3.3195  -3.1730  -1.2833  -1.2688  -1.2559  -1.2557
    -1.2520  -1.2430  -1.2394  -1.2368   0.5456   0.5759   0.6640   0.8078
     0.8931   1.0075   1.7538   1.7835   1.8831   1.9627   1.9748   2.0945
     2.2868   2.2937   2.3631   2.3845   2.4343   2.4358   2.4951   2.4979
     2.5041   2.5258   2.5897   2.6473   2.6513   2.7355   2.8169   2.8534
     2.9216   2.9432   2.9902   3.0056   3.0850   3.0892   3.2850   3.5308
     5.3046   5.4507   5.5673   5.7872   5.8738   5.9300   7.6906   8.1026
     8.1968   8.2993   8.3234   8.5219   8.6776   8.8290   8.8388   8.9177
     9.0215   9.0278   9.1530   9.2318   9.3095   9.4116   9.6566   9.7367
     9.8124   9.8484   9.8676   9.9330  10.0250  10.0432  10.1025  10.1685
    10.4752  10.5717  10.5812  10.6039  10.6391  10.7250  10.9112  10.9635
    10.9642  10.9922  11.1949  11.2389  11.2429  11.2541  11.2945  11.3703
    11.3787  11.3963  11.4879  11.6154  11.7122  11.7238  11.8038  11.8157
    11.8682  11.8862  11.8915  12.2113  12.2668  12.3238  12.4044  12.4973
    12.5713  12.5832  12.6361  12.6789  12.9474  13.0382  13.0986  13.2340
    13.3828  13.4749  13.6740  13.6868  13.7136  13.8314  13.8451  13.8580
    13.9495  13.9539  14.0300  14.0898  14.1316  14.3756  14.5344  14.6131
    14.6763  14.6881  14.7548  14.8215  15.0395  15.1839  15.2257  15.2567
    15.3272  15.5059  15.5656  15.6935  15.7100  15.8999  15.9125  15.9262
    15.9389  16.0009  16.0295  16.0482  16.1033  16.1674  16.1913  16.2846
    16.3001  16.3246  16.4182  16.4757  16.4967  16.7057  16.7474  16.7549
    16.7814  16.8720  16.9659  17.0553  17.0809  17.1215  17.1639  17.2377
    17.3006  17.3236  17.3548  17.4137  17.4934  17.6471  17.6972  17.7771
    17.7807  17.8095  17.8799  17.9249  17.9814  18.0395  18.1040  18.1201
    18.1959  18.3192  18.3356  18.3455  18.4107  18.4307  18.6037  18.6042
    18.6053  18.6201  18.6986  18.6999  18.8818  18.9547  18.9799  18.9992

          k = 0.0000 0.0000 0.1650 (173405 PWs)   bands (ev):

   -40.2621 -40.2621 -40.2621 -40.2621 -40.2277 -40.2277 -40.2277 -40.2276
   -40.2011 -40.2010 -40.2010 -40.2010 -40.1976 -40.1975 -40.1975 -40.1975
   -40.1975 -40.1975 -40.1975 -40.1975 -40.1656 -40.1656 -40.1656 -40.1656
   -40.1656 -40.1656 -40.1656 -40.1655 -40.1413 -40.1413 -40.1413 -40.1412
   -40.1412 -40.1412 -40.1412 -40.1412 -40.0933 -40.0933 -40.0933 -40.0932
   -40.0927 -40.0927 -40.0927 -40.0927 -40.0387 -40.0387 -40.0387 -40.0387
   -40.0387 -40.0387 -40.0387 -40.0386 -40.0384 -40.0384 -40.0384 -40.0384
   -40.0384 -40.0384 -40.0383 -40.0383 -15.9607 -15.9604 -15.9579 -15.9577
   -12.9075 -12.9039 -12.9026 -12.8989 -12.8951 -12.8950 -12.8844 -12.8843
   -12.8797 -12.8795 -12.8793 -12.8791 -12.8651 -12.8647 -12.8644 -12.8641
   -12.8576 -12.8575 -12.8572 -12.8571  -8.9528  -8.9480  -8.9421  -8.9416
    -8.1383  -8.0322  -7.8238  -7.8035  -7.7557  -7.7464  -7.7079  -7.6552
    -7.6417  -7.5992  -7.5498  -7.5374  -5.4705  -5.4620  -5.4577  -5.4545
    -5.4423  -5.4304  -5.4268  -5.4115  -4.3723  -4.0691  -3.5697  -3.3650
    -3.3212  -3.3203  -3.3197  -3.2282  -1.2784  -1.2678  -1.2603  -1.2527
    -1.2520  -1.2519  -1.2362  -1.2357   0.5677   0.6677   0.7366   0.8230
     1.0184   1.0600   1.7718   1.8274   1.8306   1.8546   1.9832   2.0534
     2.1385   2.1786   2.3088   2.3678   2.3972   2.4476   2.4873   2.4946
     2.5098   2.5685   2.6001   2.6400   2.6563   2.7268   2.7815   2.8310
     2.8892   2.9098   3.0009   3.0118   3.0698   3.0731   3.2871   3.3905
     5.5030   5.6174   5.7409   5.8476   5.8483   6.3389   7.7874   7.8161
     8.0533   8.2615   8.3126   8.4242   8.4449   8.6095   8.7918   8.8112
     9.0559   9.1858   9.2488   9.2908   9.3401   9.4949   9.5725   9.5889
     9.6720   9.8016   9.8149   9.8617   9.8943  10.2209  10.2301  10.2719
    10.3974  10.5085  10.5894  10.6317  10.6673  10.8350  10.8542  10.9741
    11.0146  11.0160  11.0864  11.1172  11.1751  11.2956  11.3153  11.3817
    11.4002  11.4825  11.5070  11.5383  11.7169  11.7449  11.8359  11.9076
    11.9256  12.0016  12.0177  12.0714  12.1383  12.3136  12.4969  12.5161
    12.5280  12.6715  12.7571  12.8708  12.9750  13.0339  13.0559  13.2286
    13.2783  13.2860  13.4371  13.5144  13.5759  13.8092  13.9041  14.0595
    14.1416  14.1479  14.1997  14.3744  14.3754  14.3797  14.4390  14.4669
    14.6122  14.7402  14.7730  14.8897  15.0865  15.1425  15.1830  15.2334
    15.2597  15.4334  15.5324  15.5684  15.6499  15.8057  15.8442  15.8585
    15.8959  15.9813  15.9867  16.0668  16.1270  16.1899  16.2301  16.3502
    16.3997  16.4157  16.4652  16.4667  16.5398  16.5682  16.6295  16.7889
    16.7891  16.8920  16.9590  17.0015  17.0572  17.0684  17.2802  17.3058
    17.3092  17.3944  17.4829  17.5576  17.5825  17.6206  17.6929  17.7946
    17.7948  17.8343  17.9105  17.9807  17.9921  18.0520  18.0557  18.1068
    18.2016  18.2134  18.3926  18.3977  18.4659  18.5113  18.5491  18.5995
    18.6279  18.6328  18.6775  18.8593  18.8797  18.9410  19.0098  19.1060

          k = 0.0000 0.0000-0.3300 (173292 PWs)   bands (ev):

   -40.2621 -40.2621 -40.2621 -40.2621 -40.2277 -40.2277 -40.2277 -40.2276
   -40.2011 -40.2010 -40.2010 -40.2010 -40.1976 -40.1975 -40.1975 -40.1975
   -40.1975 -40.1975 -40.1975 -40.1975 -40.1656 -40.1656 -40.1656 -40.1656
   -40.1656 -40.1656 -40.1656 -40.1655 -40.1413 -40.1413 -40.1413 -40.1412
   -40.1412 -40.1412 -40.1412 -40.1412 -40.0933 -40.0933 -40.0933 -40.0932
   -40.0927 -40.0927 -40.0927 -40.0927 -40.0387 -40.0387 -40.0387 -40.0387
   -40.0387 -40.0387 -40.0387 -40.0386 -40.0384 -40.0384 -40.0384 -40.0384
   -40.0384 -40.0384 -40.0383 -40.0383 -15.9605 -15.9605 -15.9578 -15.9578
   -12.9051 -12.9050 -12.9014 -12.9013 -12.8951 -12.8950 -12.8844 -12.8843
   -12.8796 -12.8796 -12.8793 -12.8792 -12.8649 -12.8649 -12.8643 -12.8642
   -12.8576 -12.8575 -12.8572 -12.8572  -8.9504  -8.9504  -8.9418  -8.9418
    -8.0935  -8.0934  -7.8132  -7.8132  -7.7427  -7.7427  -7.6538  -7.6538
    -7.6493  -7.6493  -7.5435  -7.5435  -5.4643  -5.4643  -5.4583  -5.4583
    -5.4344  -5.4344  -5.4202  -5.4202  -4.2270  -4.2270  -3.4541  -3.4540
    -3.3201  -3.3201  -3.2981  -3.2981  -1.2660  -1.2659  -1.2649  -1.2649
    -1.2517  -1.2517  -1.2350  -1.2350   0.6217   0.6217   0.8517   0.8518
     1.3428   1.3428   1.5502   1.5503   1.8224   1.8225   1.9537   1.9537
     2.0387   2.0387   2.3317   2.3317   2.4182   2.4182   2.4874   2.4874
     2.5301   2.5301   2.6692   2.6692   2.7084   2.7084   2.8149   2.8149
     2.8243   2.8243   3.0156   3.0156   3.0572   3.0572   3.3047   3.3047
     5.6249   5.6250   5.7351   5.7351   6.8762   6.8762   7.2681   7.2681
     8.0903   8.0903   8.2982   8.2983   8.3478   8.3478   8.8688   8.8688
     9.1866   9.1866   9.2695   9.2696   9.4488   9.4488   9.4868   9.4868
     9.7646   9.7646   9.7789   9.7789   9.9736   9.9736  10.3855  10.3855
    10.4303  10.4303  10.5448  10.5448  10.7302  10.7302  10.8997  10.8997
    11.0211  11.0211  11.2268  11.2268  11.2624  11.2624  11.3236  11.3236
    11.3443  11.3444  11.6545  11.6545  11.6706  11.6706  11.9116  11.9117
    12.0025  12.0025  12.1007  12.1007  12.3242  12.3242  12.3610  12.3610
    12.5786  12.5786  12.9489  12.9489  12.9949  12.9949  13.0323  13.0323
    13.2289  13.2289  13.5876  13.5876  13.8057  13.8058  13.8267  13.8267
    14.1086  14.1086  14.2918  14.2918  14.3132  14.3132  14.6706  14.6706
    14.7839  14.7839  14.9546  14.9546  15.0616  15.0616  15.3277  15.3277
    15.3368  15.3369  15.4128  15.4128  15.5928  15.5928  15.7874  15.7874
    15.7978  15.7979  16.0576  16.0576  16.1606  16.1606  16.1802  16.1802
    16.5032  16.5032  16.5538  16.5539  16.6918  16.6918  16.7099  16.7099
    16.9208  16.9209  17.1328  17.1328  17.2650  17.2650  17.2667  17.2667
    17.3465  17.3465  17.4175  17.4175  17.4886  17.4886  17.6657  17.6658
    17.7358  17.7358  17.8044  17.8044  18.0237  18.0237  18.1830  18.1830
    18.2171  18.2171  18.2933  18.2934  18.3104  18.3104  18.6959  18.6960
    18.7988  18.7988  18.8873  18.8874  18.9437  18.9438  18.9487  18.9487

          k = 0.0000 0.2313 0.0000 (173405 PWs)   bands (ev):

   -40.2621 -40.2621 -40.2621 -40.2621 -40.2277 -40.2277 -40.2277 -40.2276
   -40.2011 -40.2010 -40.2010 -40.2010 -40.1976 -40.1975 -40.1975 -40.1975
   -40.1975 -40.1975 -40.1975 -40.1975 -40.1656 -40.1656 -40.1656 -40.1656
   -40.1656 -40.1656 -40.1656 -40.1655 -40.1413 -40.1413 -40.1413 -40.1413
   -40.1412 -40.1412 -40.1412 -40.1412 -40.0933 -40.0933 -40.0933 -40.0932
   -40.0927 -40.0927 -40.0927 -40.0927 -40.0387 -40.0387 -40.0387 -40.0387
   -40.0387 -40.0387 -40.0387 -40.0386 -40.0384 -40.0384 -40.0384 -40.0384
   -40.0384 -40.0384 -40.0383 -40.0383 -15.9606 -15.9604 -15.9580 -15.9578
   -12.9080 -12.9054 -12.9010 -12.8984 -12.8935 -12.8934 -12.8859 -12.8858
   -12.8797 -12.8795 -12.8794 -12.8792 -12.8651 -12.8646 -12.8645 -12.8641
   -12.8576 -12.8574 -12.8573 -12.8572  -8.9547  -8.9485  -8.9462  -8.9440
    -8.1160  -7.9634  -7.9023  -7.7930  -7.7898  -7.7800  -7.6731  -7.6415
    -7.6255  -7.5859  -7.5671  -7.5502  -5.4706  -5.4647  -5.4533  -5.4529
    -5.4451  -5.4390  -5.4196  -5.4100  -4.3199  -3.8998  -3.7499  -3.4015
    -3.3327  -3.3271  -3.3231  -3.2621  -1.2827  -1.2638  -1.2608  -1.2576
    -1.2552  -1.2443  -1.2438  -1.2417   0.6262   0.7737   0.7984   0.9333
     0.9818   1.1315   1.7416   1.8100   1.8904   1.9110   1.9296   1.9864
     2.0387   2.1987   2.2013   2.3188   2.4507   2.4798   2.4817   2.4878
     2.5021   2.5602   2.5657   2.5664   2.6524   2.6660   2.8272   2.8295
     2.8487   2.9279   2.9424   2.9920   3.0867   3.1362   3.1739   3.3358
     5.4037   5.8316   5.8495   6.0889   6.1471   6.3531   7.6936   7.7226
     7.9264   7.9394   8.1518   8.3334   8.4547   8.6041   8.6430   8.8132
     8.9635   9.2418   9.2731   9.3005   9.3552   9.5069   9.5124   9.6274
     9.6960   9.8318   9.8473   9.9406  10.0358  10.0575  10.1499  10.1923
    10.3041  10.3529  10.5666  10.7006  10.7271  10.7493  10.7924  10.7968
    11.0728  11.1235  11.1803  11.1950  11.2480  11.2506  11.4485  11.4661
    11.5010  11.6442  11.6509  11.6646  11.7844  11.8374  11.8451  11.9975
    12.0463  12.1783  12.2985  12.3343  12.3347  12.3847  12.4209  12.4975
    12.6047  12.6587  12.7088  12.7618  12.8420  13.1023  13.1710  13.3299
    13.3652  13.4548  13.5796  13.6878  13.7477  13.7717  13.7724  13.8441
    13.8589  13.9257  14.0526  14.1520  14.1975  14.4492  14.5260  14.5836
    14.6177  14.7072  14.7238  14.7372  14.7392  14.9734  14.9962  15.0531
    15.1909  15.2210  15.2774  15.2899  15.3344  15.4279  15.6481  15.6553
    15.6997  15.8191  15.8680  15.9088  15.9693  16.1042  16.1174  16.1639
    16.1960  16.3176  16.3872  16.5027  16.5849  16.6250  16.6704  16.9336
    16.9371  16.9983  17.0490  17.1673  17.2462  17.2895  17.3252  17.3743
    17.3966  17.4501  17.5621  17.5900  17.6287  17.6863  17.7686  17.8237
    17.8294  17.8744  17.9307  18.0101  18.0673  18.0970  18.2499  18.2669
    18.2711  18.3066  18.3575  18.4464  18.5483  18.6123  18.7081  18.7420
    18.7456  18.7727  18.8220  18.8997  18.9414  19.0362  19.0955  19.1065

          k = 0.0000 0.2313 0.1650 (173316 PWs)   bands (ev):

   -40.2621 -40.2621 -40.2621 -40.2621 -40.2277 -40.2277 -40.2277 -40.2276
   -40.2011 -40.2010 -40.2010 -40.2010 -40.1976 -40.1975 -40.1975 -40.1975
   -40.1975 -40.1975 -40.1975 -40.1975 -40.1656 -40.1656 -40.1656 -40.1656
   -40.1656 -40.1656 -40.1656 -40.1655 -40.1413 -40.1413 -40.1413 -40.1413
   -40.1412 -40.1412 -40.1412 -40.1412 -40.0933 -40.0933 -40.0933 -40.0932
   -40.0927 -40.0927 -40.0927 -40.0927 -40.0387 -40.0387 -40.0387 -40.0387
   -40.0387 -40.0387 -40.0387 -40.0386 -40.0384 -40.0384 -40.0384 -40.0384
   -40.0384 -40.0384 -40.0383 -40.0383 -15.9606 -15.9604 -15.9579 -15.9578
   -12.9070 -12.9044 -12.9020 -12.8994 -12.8935 -12.8934 -12.8859 -12.8858
   -12.8797 -12.8795 -12.8794 -12.8792 -12.8650 -12.8646 -12.8646 -12.8642
   -12.8575 -12.8574 -12.8573 -12.8572  -8.9538  -8.9493  -8.9460  -8.9444
    -8.1009  -7.9997  -7.8930  -7.8315  -7.7533  -7.7448  -7.6783  -7.6379
    -7.6280  -7.6051  -7.5636  -7.5523  -5.4686  -5.4636  -5.4555  -5.4545
    -5.4417  -5.4355  -5.4215  -5.4128  -4.2647  -3.9687  -3.7015  -3.4477
    -3.3284  -3.3267  -3.3238  -3.2878  -1.2775  -1.2641  -1.2622  -1.2561
    -1.2545  -1.2530  -1.2409  -1.2398   0.7547   0.8633   0.8747   0.9494
     1.0460   1.1254   1.7671   1.8111   1.8551   1.8676   1.9092   1.9294
     2.0639   2.1360   2.1810   2.2240   2.3007   2.3387   2.4782   2.4941
     2.5391   2.5688   2.5927   2.6207   2.6469   2.6848   2.8011   2.8119
     2.8314   2.8560   2.9444   2.9881   3.0911   3.1179   3.1719   3.2237
     5.8919   5.9135   6.1031   6.1298   6.2597   6.3199   7.6679   7.7924
     7.7940   7.8845   8.0171   8.1729   8.2625   8.5024   8.6498   8.7451
     8.9558   9.2115   9.2405   9.2599   9.3740   9.4708   9.5250   9.6098
     9.6780   9.7615   9.8543   9.9510   9.9948  10.0655  10.1791  10.3315
    10.3499  10.3888  10.5102  10.6202  10.7188  10.7797  10.7855  11.0230
    11.0415  11.0943  11.1577  11.2508  11.2899  11.3510  11.4259  11.4535
    11.5053  11.5436  11.5744  11.6656  11.7732  11.8390  11.8631  11.9436
    11.9732  12.1534  12.1970  12.2843  12.2866  12.3945  12.4181  12.4828
    12.7440  12.7495  12.7693  12.8536  12.9900  13.1081  13.1498  13.2120
    13.2434  13.3708  13.3930  13.4452  13.7331  13.7601  13.8808  14.0086
    14.0822  14.1852  14.2011  14.2197  14.3943  14.4037  14.5487  14.5994
    14.6125  14.6896  14.7739  14.8068  14.8709  14.9507  15.0238  15.1017
    15.1834  15.2346  15.3247  15.3909  15.4072  15.4557  15.4680  15.6569
    15.7416  15.7855  15.9088  15.9337  15.9555  15.9791  16.0940  16.2072
    16.2465  16.3137  16.3633  16.4576  16.5475  16.5713  16.8114  16.8813
    16.8832  16.9290  16.9508  17.0312  17.1461  17.1758  17.2217  17.2846
    17.3385  17.4773  17.5080  17.6349  17.6405  17.7216  17.7647  17.7855
    17.8305  17.9321  17.9553  17.9653  18.0007  18.0830  18.1680  18.2534
    18.2922  18.3290  18.3796  18.4844  18.4914  18.5378  18.6173  18.6735
    18.7470  18.7496  18.8406  18.8787  19.0172  19.1155  19.1385  19.2664

          k = 0.0000 0.2313-0.3300 (173312 PWs)   bands (ev):

   -40.2621 -40.2621 -40.2621 -40.2621 -40.2277 -40.2277 -40.2277 -40.2276
   -40.2011 -40.2010 -40.2010 -40.2010 -40.1976 -40.1975 -40.1975 -40.1975
   -40.1975 -40.1975 -40.1975 -40.1975 -40.1656 -40.1656 -40.1656 -40.1656
   -40.1656 -40.1656 -40.1656 -40.1655 -40.1413 -40.1413 -40.1413 -40.1413
   -40.1412 -40.1412 -40.1412 -40.1412 -40.0933 -40.0933 -40.0933 -40.0932
   -40.0927 -40.0927 -40.0927 -40.0927 -40.0387 -40.0387 -40.0387 -40.0387
   -40.0387 -40.0387 -40.0387 -40.0386 -40.0384 -40.0384 -40.0384 -40.0384
   -40.0384 -40.0384 -40.0383 -40.0383 -15.9605 -15.9605 -15.9579 -15.9579
   -12.9045 -12.9045 -12.9019 -12.9019 -12.8935 -12.8934 -12.8859 -12.8858
   -12.8796 -12.8796 -12.8794 -12.8793 -12.8648 -12.8648 -12.8644 -12.8644
   -12.8575 -12.8575 -12.8573 -12.8572  -8.9515  -8.9514  -8.9453  -8.9453
    -8.0584  -8.0584  -7.8676  -7.8676  -7.7253  -7.7252  -7.6544  -7.6544
    -7.6314  -7.6314  -7.5576  -7.5576  -5.4640  -5.4640  -5.4574  -5.4574
    -5.4349  -5.4349  -5.4199  -5.4199  -4.1234  -4.1234  -3.5771  -3.5770
    -3.3255  -3.3255  -3.3148  -3.3148  -1.2658  -1.2658  -1.2636  -1.2636
    -1.2543  -1.2543  -1.2395  -1.2395   0.8452   0.8452   0.9854   0.9855
     1.3901   1.3901   1.4906   1.4907   1.8225   1.8225   1.9057   1.9057
     2.0355   2.0355   2.1940   2.1940   2.2633   2.2633   2.4476   2.4476
     2.5470   2.5471   2.6249   2.6249   2.7305   2.7306   2.7770   2.7770
     2.7996   2.7996   2.9672   2.9672   3.1009   3.1009   3.1738   3.1738
     5.9960   5.9960   6.2154   6.2154   6.9189   6.9189   7.1855   7.1855
     7.8393   7.8394   7.8973   7.8973   8.3156   8.3156   8.7342   8.7342
     9.0552   9.0552   9.2491   9.2491   9.3084   9.3084   9.6127   9.6127
     9.8132   9.8132   9.8972   9.8973  10.0241  10.0241  10.1569  10.1569
    10.4059  10.4059  10.5670  10.5670  10.8247  10.8247  10.9344  10.9344
    11.0957  11.0957  11.1877  11.1877  11.2985  11.2985  11.4463  11.4463
    11.6047  11.6047  11.6145  11.6145  11.7402  11.7402  11.7967  11.7968
    12.1031  12.1031  12.1974  12.1975  12.3523  12.3523  12.5696  12.5696
    12.6387  12.6387  12.9351  12.9351  12.9977  12.9977  13.0429  13.0429
    13.1641  13.1641  13.5340  13.5340  13.7415  13.7415  14.0655  14.0655
    14.1603  14.1603  14.3833  14.3833  14.4733  14.4733  14.6528  14.6528
    14.7021  14.7021  14.8333  14.8333  14.9167  14.9167  14.9964  14.9964
    15.2007  15.2008  15.4201  15.4201  15.4814  15.4814  15.6144  15.6144
    15.6982  15.6982  15.9263  15.9263  16.0149  16.0149  16.1511  16.1511
    16.1796  16.1796  16.5125  16.5125  16.6486  16.6486  16.7372  16.7372
    16.9062  16.9062  16.9956  16.9956  17.0506  17.0506  17.2454  17.2454
    17.4484  17.4484  17.5040  17.5040  17.5663  17.5663  17.6200  17.6200
    17.6922  17.6922  17.9577  17.9577  18.0908  18.0908  18.1111  18.1111
    18.2534  18.2534  18.2907  18.2907  18.3899  18.3899  18.6668  18.6668
    18.9045  18.9045  18.9699  18.9700  19.0833  19.0834  19.3154  19.3154

          k = 0.0000-0.4625 0.0000 (173448 PWs)   bands (ev):

   -40.2621 -40.2621 -40.2621 -40.2621 -40.2277 -40.2277 -40.2277 -40.2276
   -40.2011 -40.2010 -40.2010 -40.2010 -40.1976 -40.1975 -40.1975 -40.1975
   -40.1975 -40.1975 -40.1975 -40.1975 -40.1656 -40.1656 -40.1656 -40.1656
   -40.1656 -40.1656 -40.1655 -40.1655 -40.1413 -40.1413 -40.1413 -40.1413
   -40.1412 -40.1412 -40.1412 -40.1412 -40.0933 -40.0933 -40.0933 -40.0932
   -40.0927 -40.0927 -40.0927 -40.0927 -40.0387 -40.0387 -40.0387 -40.0387
   -40.0387 -40.0387 -40.0387 -40.0386 -40.0384 -40.0384 -40.0384 -40.0384
   -40.0384 -40.0384 -40.0383 -40.0383 -15.9604 -15.9604 -15.9579 -15.9579
   -12.9067 -12.9067 -12.8997 -12.8996 -12.8896 -12.8896 -12.8896 -12.8895
   -12.8796 -12.8796 -12.8794 -12.8793 -12.8649 -12.8649 -12.8644 -12.8644
   -12.8575 -12.8574 -12.8573 -12.8573  -8.9537  -8.9537  -8.9475  -8.9475
    -8.0188  -8.0187  -7.8810  -7.8810  -7.7822  -7.7822  -7.6229  -7.6228
    -7.6039  -7.6039  -7.5840  -7.5840  -5.4670  -5.4669  -5.4524  -5.4524
    -5.4431  -5.4431  -5.4141  -5.4141  -4.0464  -4.0464  -3.6485  -3.6484
    -3.3364  -3.3364  -3.3175  -3.3175  -1.2767  -1.2767  -1.2586  -1.2586
    -1.2494  -1.2494  -1.2479  -1.2479   0.7258   0.7258   1.2491   1.2491
     1.4474   1.4474   1.4561   1.4561   1.5587   1.5587   1.9225   1.9225
     2.0544   2.0544   2.2732   2.2732   2.3778   2.3778   2.4838   2.4839
     2.4888   2.4889   2.6034   2.6034   2.6550   2.6550   2.7676   2.7676
     2.8926   2.8926   2.8949   2.8949   3.1320   3.1320   3.1980   3.1980
     5.6272   5.6272   6.7420   6.7421   6.9900   6.9900   7.0815   7.0816
     7.2592   7.2592   8.1035   8.1035   8.4249   8.4249   8.5974   8.5974
     9.0984   9.0984   9.4744   9.4744   9.4780   9.4780   9.5946   9.5946
     9.6709   9.6710   9.7868   9.7868   9.8239   9.8239  10.1644  10.1644
    10.3422  10.3423  10.7164  10.7164  10.7217  10.7217  10.9199  10.9199
    10.9751  10.9751  11.3001  11.3001  11.4027  11.4027  11.4951  11.4951
    11.5870  11.5870  11.7414  11.7414  11.9434  11.9434  12.0793  12.0793
    12.1206  12.1206  12.3973  12.3973  12.5670  12.5670  12.7014  12.7014
    12.7608  12.7608  12.8223  12.8223  13.2783  13.2783  13.3116  13.3116
    13.4567  13.4567  13.5268  13.5268  13.5553  13.5553  13.6459  13.6459
    13.7636  13.7636  14.0308  14.0308  14.1412  14.1412  14.3305  14.3305
    14.3337  14.3337  14.5693  14.5693  14.7636  14.7636  14.8213  14.8213
    15.0182  15.0182  15.3435  15.3435  15.3588  15.3588  15.5905  15.5905
    15.6981  15.6981  15.7529  15.7529  16.1552  16.1552  16.2680  16.2680
    16.3570  16.3570  16.4236  16.4236  16.7078  16.7078  16.7505  16.7505
    16.8324  16.8324  16.8595  16.8595  17.2844  17.2844  17.3949  17.3949
    17.4542  17.4542  17.7627  17.7627  17.8605  17.8605  17.8676  17.8676
    17.9956  17.9956  18.0398  18.0398  18.1637  18.1637  18.2157  18.2157
    18.4005  18.4006  18.4515  18.4516  18.6102  18.6102  18.6405  18.6407
    18.6798  18.6798  18.7873  18.7873  18.8048  18.8049  18.9580  18.9580

          k = 0.0000-0.4625 0.1650 (173346 PWs)   bands (ev):

   -40.2621 -40.2621 -40.2621 -40.2621 -40.2277 -40.2277 -40.2277 -40.2276
   -40.2011 -40.2010 -40.2010 -40.2010 -40.1976 -40.1975 -40.1975 -40.1975
   -40.1975 -40.1975 -40.1975 -40.1975 -40.1656 -40.1656 -40.1656 -40.1656
   -40.1656 -40.1656 -40.1655 -40.1655 -40.1413 -40.1413 -40.1413 -40.1413
   -40.1412 -40.1412 -40.1412 -40.1412 -40.0933 -40.0933 -40.0933 -40.0932
   -40.0927 -40.0927 -40.0927 -40.0927 -40.0387 -40.0387 -40.0387 -40.0387
   -40.0387 -40.0387 -40.0387 -40.0386 -40.0384 -40.0384 -40.0384 -40.0384
   -40.0384 -40.0384 -40.0383 -40.0383 -15.9604 -15.9604 -15.9579 -15.9579
   -12.9057 -12.9056 -12.9007 -12.9007 -12.8896 -12.8896 -12.8896 -12.8895
   -12.8796 -12.8796 -12.8794 -12.8794 -12.8648 -12.8648 -12.8645 -12.8644
   -12.8575 -12.8574 -12.8574 -12.8573  -8.9529  -8.9529  -8.9482  -8.9482
    -8.0059  -8.0059  -7.9171  -7.9171  -7.7471  -7.7471  -7.6356  -7.6356
    -7.6024  -7.6024  -7.5847  -7.5847  -5.4657  -5.4657  -5.4541  -5.4541
    -5.4397  -5.4397  -5.4163  -5.4163  -3.9950  -3.9950  -3.7142  -3.7142
    -3.3343  -3.3343  -3.3214  -3.3214  -1.2726  -1.2726  -1.2586  -1.2586
    -1.2549  -1.2549  -1.2449  -1.2449   0.9021   0.9021   1.2765   1.2765
     1.4042   1.4042   1.4820   1.4820   1.5318   1.5318   1.8805   1.8805
     2.0899   2.0899   2.2347   2.2347   2.3135   2.3135   2.3482   2.3482
     2.4947   2.4947   2.6252   2.6252   2.6457   2.6457   2.7490   2.7490
     2.8523   2.8523   2.9100   2.9100   3.1317   3.1317   3.1575   3.1575
     6.0887   6.0887   6.7661   6.7662   6.9507   6.9507   7.0874   7.0874
     7.2386   7.2386   7.9596   7.9597   8.2380   8.2380   8.6379   8.6379
     8.9856   8.9857   9.3193   9.3193   9.4471   9.4471   9.5892   9.5893
     9.7556   9.7556   9.8656   9.8656   9.9737   9.9737  10.0483  10.0483
    10.3689  10.3689  10.7479  10.7479  10.7737  10.7737  10.9890  10.9890
    11.1056  11.1056  11.2214  11.2214  11.3198  11.3198  11.5247  11.5247
    11.5369  11.5369  11.6188  11.6188  11.9092  11.9092  12.0423  12.0423
    12.0924  12.0924  12.2523  12.2523  12.5624  12.5624  12.7793  12.7793
    12.8361  12.8361  12.9666  12.9666  13.0228  13.0228  13.2500  13.2500
    13.4199  13.4199  13.5261  13.5261  13.5697  13.5697  13.6762  13.6762
    13.9628  13.9628  14.0507  14.0507  14.2440  14.2440  14.4213  14.4213
    14.4978  14.4978  14.6225  14.6225  14.6817  14.6817  15.1115  15.1115
    15.1433  15.1433  15.3259  15.3259  15.3983  15.3983  15.5515  15.5515
    15.8235  15.8235  15.8563  15.8563  16.0146  16.0146  16.1942  16.1942
    16.2669  16.2669  16.4814  16.4814  16.5731  16.5731  16.6773  16.6773
    16.8773  16.8773  17.0646  17.0646  17.1446  17.1446  17.2051  17.2051
    17.4162  17.4162  17.4853  17.4853  17.6270  17.6270  17.7762  17.7762
    17.9089  17.9089  18.0441  18.0441  18.0709  18.0709  18.1147  18.1147
    18.2385  18.2385  18.4188  18.4188  18.4883  18.4883  18.5368  18.5369
    18.7248  18.7249  18.8947  18.8948  19.0274  19.0274  19.0831  19.0833

          k = 0.0000-0.4625-0.3300 (173264 PWs)   bands (ev):

   -40.2621 -40.2621 -40.2621 -40.2621 -40.2277 -40.2277 -40.2277 -40.2276
   -40.2011 -40.2010 -40.2010 -40.2010 -40.1976 -40.1975 -40.1975 -40.1975
   -40.1975 -40.1975 -40.1975 -40.1975 -40.1656 -40.1656 -40.1656 -40.1656
   -40.1656 -40.1656 -40.1655 -40.1655 -40.1413 -40.1413 -40.1413 -40.1413
   -40.1412 -40.1412 -40.1412 -40.1412 -40.0933 -40.0933 -40.0933 -40.0932
   -40.0927 -40.0927 -40.0927 -40.0927 -40.0387 -40.0387 -40.0387 -40.0387
   -40.0387 -40.0387 -40.0387 -40.0386 -40.0384 -40.0384 -40.0384 -40.0384
   -40.0384 -40.0384 -40.0383 -40.0383 -15.9604 -15.9604 -15.9579 -15.9579
   -12.9032 -12.9032 -12.9032 -12.9031 -12.8896 -12.8896 -12.8896 -12.8895
   -12.8795 -12.8795 -12.8795 -12.8794 -12.8647 -12.8647 -12.8646 -12.8646
   -12.8574 -12.8574 -12.8574 -12.8573  -8.9517  -8.9517  -8.9494  -8.9494
    -7.9730  -7.9730  -7.9656  -7.9656  -7.7124  -7.7124  -7.6553  -7.6553
    -7.6015  -7.6015  -7.5853  -7.5853  -5.4639  -5.4639  -5.4563  -5.4563
    -5.4353  -5.4353  -5.4195  -5.4195  -3.8705  -3.8705  -3.8532  -3.8532
    -3.3298  -3.3298  -3.3275  -3.3274  -1.2655  -1.2655  -1.2630  -1.2630
    -1.2569  -1.2569  -1.2440  -1.2440   1.2520   1.2520   1.2562   1.2562
     1.3545   1.3545   1.4741   1.4742   1.5926   1.5926   1.6026   1.6026
     2.1427   2.1427   2.1769   2.1769   2.2735   2.2735   2.2758   2.2758
     2.4478   2.4478   2.5616   2.5616   2.7088   2.7088   2.7581   2.7581
     2.8464   2.8464   2.9119   2.9119   3.1326   3.1326   3.1394   3.1394
     6.7882   6.7882   6.8708   6.8708   6.9678   6.9678   7.0417   7.0417
     7.2121   7.2121   7.2664   7.2664   8.2621   8.2621   8.6556   8.6556
     8.9216   8.9216   9.2481   9.2481   9.3442   9.3442   9.6948   9.6948
     9.7257   9.7257   9.7931   9.7931   9.9951   9.9951  10.3002  10.3002
    10.5371  10.5371  10.5655  10.5655  10.7850  10.7850  11.0466  11.0466
    11.0475  11.0475  11.2457  11.2457  11.2682  11.2682  11.4455  11.4455
    11.5409  11.5409  11.7628  11.7628  11.8382  11.8382  11.9835  11.9835
    11.9930  11.9930  12.2059  12.2059  12.6141  12.6141  12.7053  12.7053
    12.8041  12.8041  12.8562  12.8562  13.1168  13.1168  13.2757  13.2757
    13.4057  13.4057  13.4408  13.4408  13.6059  13.6059  13.6800  13.6800
    14.0563  14.0563  14.1967  14.1967  14.3160  14.3160  14.3944  14.3944
    14.6113  14.6113  14.7035  14.7035  14.9489  14.9489  15.0038  15.0038
    15.2768  15.2769  15.3188  15.3188  15.6439  15.6439  15.6785  15.6785
    15.8367  15.8367  15.8468  15.8468  15.9705  15.9706  16.0480  16.0480
    16.3003  16.3004  16.5160  16.5160  16.6677  16.6677  16.7449  16.7449
    16.9214  16.9214  16.9939  16.9939  17.0257  17.0257  17.0565  17.0565
    17.1653  17.1653  17.2500  17.2501  17.4954  17.4954  17.6624  17.6624
    17.6826  17.6826  17.8048  17.8048  17.8169  17.8169  18.0585  18.0585
    18.2415  18.2415  18.2894  18.2894  18.5062  18.5062  18.6063  18.6063
    18.8618  18.8618  18.9610  18.9611  19.0255  19.0256  19.3847  19.3847

          k = 0.2500 0.0000 0.0000 (173441 PWs)   bands (ev):

   -40.2621 -40.2621 -40.2621 -40.2621 -40.2277 -40.2277 -40.2277 -40.2276
   -40.2011 -40.2010 -40.2010 -40.2010 -40.1976 -40.1975 -40.1975 -40.1975
   -40.1975 -40.1975 -40.1975 -40.1975 -40.1656 -40.1656 -40.1656 -40.1656
   -40.1656 -40.1656 -40.1656 -40.1655 -40.1413 -40.1413 -40.1413 -40.1412
   -40.1412 -40.1412 -40.1412 -40.1412 -40.0933 -40.0933 -40.0933 -40.0932
   -40.0927 -40.0927 -40.0927 -40.0927 -40.0387 -40.0387 -40.0387 -40.0387
   -40.0387 -40.0387 -40.0387 -40.0386 -40.0384 -40.0384 -40.0384 -40.0384
   -40.0384 -40.0384 -40.0383 -40.0383 -15.9603 -15.9600 -15.9583 -15.9581
   -12.9080 -12.9054 -12.9010 -12.8984 -12.8935 -12.8934 -12.8859 -12.8858
   -12.8797 -12.8795 -12.8794 -12.8792 -12.8651 -12.8646 -12.8645 -12.8641
   -12.8576 -12.8574 -12.8573 -12.8572  -8.9532  -8.9473  -8.9451  -8.9433
    -8.1210  -7.9525  -7.9115  -7.7856  -7.7846  -7.7202  -7.7153  -7.6927
    -7.6084  -7.5807  -7.5742  -7.5614  -5.4666  -5.4589  -5.4522  -5.4495
    -5.4455  -5.4379  -5.4190  -5.4087  -4.3167  -3.8907  -3.7458  -3.3883
    -3.3296  -3.3242  -3.3222  -3.2659  -1.2800  -1.2670  -1.2662  -1.2628
    -1.2603  -1.2573  -1.2517  -1.2417   0.6234   0.7195   0.7410   0.9435
     1.0429   1.2082   1.7551   1.8489   1.9093   1.9201   1.9548   2.0216
     2.0400   2.0954   2.1845   2.2772   2.4488   2.4747   2.4982   2.5375
     2.5864   2.5952   2.6012   2.6187   2.6674   2.7431   2.7463   2.7490
     2.8162   2.8575   2.8857   3.0089   3.0099   3.0639   3.1215   3.2656
     5.4041   5.8311   5.9556   6.0012   6.2456   6.2854   7.7161   7.7736
     7.9524   8.0827   8.1143   8.3363   8.5467   8.6703   8.8714   8.8762
     9.1076   9.2121   9.2648   9.3033   9.4901   9.5518   9.5727   9.7640
     9.8279   9.8598   9.9096   9.9792  10.0095  10.0784  10.1477  10.1837
    10.3295  10.3603  10.4253  10.6315  10.6538  10.7102  10.7502  10.8573
    10.9111  10.9789  10.9862  11.0466  11.1897  11.2712  11.3588  11.3783
    11.4498  11.4593  11.6418  11.7355  11.7506  11.7903  11.9123  11.9286
    11.9319  11.9672  12.0731  12.0964  12.1449  12.3713  12.4221  12.5156
    12.5610  12.6182  12.7560  12.9245  12.9481  13.0062  13.1730  13.2563
    13.3004  13.3256  13.6409  13.6528  13.7006  13.7474  13.7926  13.9288
    13.9766  14.0068  14.1018  14.3459  14.3483  14.4111  14.4606  14.5047
    14.7945  14.8009  14.8991  14.9244  15.0122  15.0303  15.0782  15.1016
    15.2431  15.2682  15.2849  15.3891  15.4245  15.5512  15.6961  15.8290
    15.8769  15.9087  15.9516  15.9674  16.0098  16.0350  16.1578  16.2436
    16.2787  16.2864  16.4901  16.5115  16.5768  16.6650  16.7173  16.7927
    16.8477  16.8898  16.9460  17.0553  17.0613  17.1527  17.1880  17.2152
    17.3302  17.3927  17.4414  17.5232  17.5621  17.6131  17.6502  17.7090
    17.7151  17.7700  17.8206  17.8740  18.0606  18.0793  18.1055  18.1867
    18.3282  18.3712  18.4534  18.4622  18.4945  18.5208  18.5652  18.6926
    18.7466  18.7545  18.7810  18.8822  18.9175  18.9653  19.0352  19.0730

          k = 0.2500 0.0000 0.1650 (173321 PWs)   bands (ev):

   -40.2621 -40.2621 -40.2621 -40.2621 -40.2277 -40.2277 -40.2277 -40.2276
   -40.2011 -40.2010 -40.2010 -40.2010 -40.1976 -40.1975 -40.1975 -40.1975
   -40.1975 -40.1975 -40.1975 -40.1975 -40.1656 -40.1656 -40.1656 -40.1656
   -40.1656 -40.1656 -40.1656 -40.1655 -40.1413 -40.1413 -40.1413 -40.1412
   -40.1412 -40.1412 -40.1412 -40.1412 -40.0933 -40.0933 -40.0933 -40.0932
   -40.0927 -40.0927 -40.0927 -40.0927 -40.0387 -40.0387 -40.0387 -40.0387
   -40.0387 -40.0387 -40.0387 -40.0386 -40.0384 -40.0384 -40.0384 -40.0384
   -40.0384 -40.0384 -40.0383 -40.0383 -15.9602 -15.9600 -15.9583 -15.9581
   -12.9070 -12.9044 -12.9020 -12.8994 -12.8935 -12.8934 -12.8859 -12.8858
   -12.8797 -12.8795 -12.8794 -12.8792 -12.8650 -12.8646 -12.8646 -12.8642
   -12.8575 -12.8574 -12.8573 -12.8572  -8.9523  -8.9481  -8.9449  -8.9435
    -8.1047  -7.9941  -7.8992  -7.8176  -7.7486  -7.7183  -7.6871  -7.6859
    -7.6190  -7.5936  -7.5770  -7.5638  -5.4649  -5.4578  -5.4547  -5.4512
    -5.4413  -5.4328  -5.4227  -5.4122  -4.2604  -3.9604  -3.6966  -3.4359
    -3.3257  -3.3239  -3.3225  -3.2903  -1.2756  -1.2699  -1.2695  -1.2610
    -1.2585  -1.2556  -1.2519  -1.2452   0.7399   0.8036   0.8160   1.0370
     1.0599   1.1934   1.7849   1.8164   1.8628   1.8953   1.9212   2.0219
     2.0675   2.0749   2.1089   2.2204   2.2652   2.4233   2.4335   2.4638
     2.5582   2.5915   2.6411   2.6751   2.6783   2.7557   2.7644   2.7899
     2.8183   2.8603   2.8715   2.9980   3.0023   3.0451   3.0902   3.1079
     5.9075   6.0037   6.0423   6.2095   6.2402   6.2710   7.6959   7.7994
     7.8361   8.0233   8.0554   8.1507   8.2762   8.6073   8.7030   8.9523
     9.0279   9.2256   9.3372   9.3911   9.4043   9.5015   9.6610   9.6685
     9.7602   9.7764   9.8145  10.0063  10.0698  10.1231  10.1439  10.2483
    10.4315  10.4740  10.4826  10.5490  10.6040  10.6223  10.7145  10.8880
    10.9267  10.9792  11.0332  11.0495  11.2191  11.2932  11.3184  11.3976
    11.4167  11.4997  11.6822  11.7001  11.7264  11.7362  11.7731  11.8172
    11.9610  12.0779  12.0920  12.1872  12.2579  12.2872  12.4092  12.5241
    12.5907  12.6304  12.7179  12.8395  12.9203  13.0066  13.1471  13.1756
    13.3709  13.4434  13.6502  13.6530  13.7429  13.8943  13.9605  14.0152
    14.0747  14.1436  14.1478  14.2299  14.4085  14.4475  14.5179  14.6304
    14.6672  14.7876  14.7923  14.8626  14.9510  14.9908  15.0768  15.2194
    15.2521  15.2577  15.3599  15.4990  15.5282  15.5846  15.6951  15.7988
    15.8491  15.8935  15.9577  16.0806  16.1069  16.1445  16.1846  16.2350
    16.2698  16.4098  16.4875  16.5242  16.5941  16.6018  16.6353  16.7064
    16.7253  16.7885  16.8877  16.9156  17.0411  17.0714  17.0746  17.1493
    17.1924  17.3161  17.3359  17.3542  17.4628  17.4741  17.6484  17.6840
    17.6937  17.7282  17.8704  17.9198  17.9376  18.0862  18.1199  18.1885
    18.1971  18.2196  18.3024  18.4189  18.4410  18.5958  18.6681  18.7242
    18.8169  18.9088  18.9507  18.9714  19.0653  19.1475  19.2286  19.2681

          k = 0.2500 0.0000-0.3300 (173336 PWs)   bands (ev):

   -40.2621 -40.2621 -40.2621 -40.2621 -40.2277 -40.2277 -40.2277 -40.2276
   -40.2011 -40.2010 -40.2010 -40.2010 -40.1976 -40.1975 -40.1975 -40.1975
   -40.1975 -40.1975 -40.1975 -40.1975 -40.1656 -40.1656 -40.1656 -40.1656
   -40.1656 -40.1656 -40.1656 -40.1655 -40.1413 -40.1413 -40.1413 -40.1412
   -40.1412 -40.1412 -40.1412 -40.1412 -40.0933 -40.0933 -40.0933 -40.0932
   -40.0927 -40.0927 -40.0927 -40.0927 -40.0387 -40.0387 -40.0387 -40.0387
   -40.0387 -40.0387 -40.0387 -40.0386 -40.0384 -40.0384 -40.0384 -40.0384
   -40.0384 -40.0384 -40.0383 -40.0383 -15.9601 -15.9601 -15.9582 -15.9582
   -12.9045 -12.9044 -12.9019 -12.9018 -12.8935 -12.8934 -12.8859 -12.8858
   -12.8796 -12.8796 -12.8794 -12.8793 -12.8649 -12.8648 -12.8644 -12.8644
   -12.8575 -12.8575 -12.8573 -12.8572  -8.9502  -8.9502  -8.9442  -8.9442
    -8.0586  -8.0586  -7.8649  -7.8649  -7.7206  -7.7205  -7.6466  -7.6466
    -7.6442  -7.6441  -7.5699  -7.5699  -5.4602  -5.4602  -5.4547  -5.4547
    -5.4317  -5.4317  -5.4218  -5.4218  -4.1170  -4.1170  -3.5695  -3.5694
    -3.3233  -3.3233  -3.3141  -3.3141  -1.2717  -1.2717  -1.2662  -1.2661
    -1.2552  -1.2552  -1.2507  -1.2507   0.7898   0.7898   1.0608   1.0608
     1.3840   1.3840   1.5006   1.5006   1.8544   1.8545   1.9006   1.9007
     2.0689   2.0689   2.1250   2.1250   2.2985   2.2985   2.4137   2.4137
     2.5663   2.5663   2.6605   2.6605   2.7557   2.7557   2.7928   2.7928
     2.8464   2.8465   2.9196   2.9197   3.0056   3.0057   3.0560   3.0560
     6.0983   6.0983   6.1432   6.1432   6.9309   6.9310   7.1919   7.1919
     7.8229   7.8229   8.0023   8.0023   8.3803   8.3803   8.7914   8.7914
     9.2384   9.2384   9.3060   9.3060   9.4727   9.4727   9.5857   9.5858
     9.6772   9.6772  10.0422  10.0422  10.1325  10.1326  10.2168  10.2168
    10.3572  10.3572  10.5199  10.5199  10.6191  10.6191  10.9092  10.9092
    10.9922  10.9922  11.0036  11.0036  11.1635  11.1636  11.3444  11.3445
    11.5174  11.5174  11.6337  11.6337  11.6873  11.6873  11.8110  11.8110
    12.0455  12.0455  12.2338  12.2338  12.2638  12.2638  12.5219  12.5219
    12.5441  12.5441  12.6527  12.6527  12.9445  12.9445  13.3171  13.3171
    13.4430  13.4430  13.7598  13.7598  13.7688  13.7688  13.9080  13.9080
    14.1507  14.1508  14.3186  14.3186  14.4104  14.4104  14.6169  14.6169
    14.6505  14.6505  14.8049  14.8049  15.0044  15.0044  15.3002  15.3002
    15.3857  15.3857  15.5585  15.5585  15.6878  15.6878  15.7099  15.7099
    15.7966  15.7966  15.9525  15.9525  16.1005  16.1005  16.2098  16.2099
    16.2849  16.2849  16.5174  16.5174  16.6071  16.6071  16.7512  16.7512
    16.7932  16.7932  16.8153  16.8153  17.0076  17.0076  17.0490  17.0490
    17.0964  17.0964  17.2392  17.2392  17.4800  17.4801  17.4946  17.4946
    17.6441  17.6441  17.7873  17.7873  17.8166  17.8166  18.0421  18.0421
    18.2554  18.2554  18.4480  18.4480  18.5007  18.5008  18.7363  18.7363
    18.9027  18.9027  18.9114  18.9114  19.1312  19.1313  19.2567  19.2568

          k = 0.2500 0.2313 0.0000 (173283 PWs)   bands (ev):

   -40.2621 -40.2621 -40.2621 -40.2621 -40.2277 -40.2277 -40.2277 -40.2276
   -40.2011 -40.2010 -40.2010 -40.2010 -40.1976 -40.1975 -40.1975 -40.1975
   -40.1975 -40.1975 -40.1975 -40.1975 -40.1656 -40.1656 -40.1656 -40.1656
   -40.1656 -40.1656 -40.1656 -40.1655 -40.1413 -40.1413 -40.1413 -40.1412
   -40.1412 -40.1412 -40.1412 -40.1412 -40.0933 -40.0933 -40.0933 -40.0932
   -40.0927 -40.0927 -40.0927 -40.0927 -40.0387 -40.0387 -40.0387 -40.0387
   -40.0387 -40.0387 -40.0387 -40.0386 -40.0384 -40.0384 -40.0384 -40.0384
   -40.0384 -40.0384 -40.0383 -40.0383 -15.9602 -15.9600 -15.9583 -15.9581
   -12.9078 -12.9059 -12.9009 -12.8990 -12.8922 -12.8920 -12.8868 -12.8867
   -12.8797 -12.8795 -12.8794 -12.8792 -12.8650 -12.8647 -12.8645 -12.8642
   -12.8575 -12.8574 -12.8574 -12.8572  -8.9546  -8.9495  -8.9479  -8.9457
    -8.0866  -7.9302  -7.9219  -7.7929  -7.7813  -7.7586  -7.6959  -7.6957
    -7.6157  -7.6004  -7.5818  -7.5450  -5.4640  -5.4590  -5.4523  -5.4496
    -5.4451  -5.4403  -5.4161  -5.4095  -4.2323  -3.8290  -3.8121  -3.4464
    -3.3352  -3.3312  -3.3263  -3.2972  -1.2804  -1.2710  -1.2689  -1.2668
    -1.2645  -1.2568  -1.2544  -1.2421   0.6337   0.7416   0.7470   0.9439
     1.2862   1.4528   1.4656   1.6132   1.8325   1.8887   1.9159   1.9964
     2.0826   2.1859   2.2877   2.3980   2.3983   2.4477   2.4787   2.4943
     2.5333   2.5652   2.6030   2.6396   2.6883   2.7058   2.7700   2.8222
     2.8225   2.8350   2.9156   2.9706   2.9837   3.0758   3.1129   3.2669
     5.4678   5.6358   5.7560   5.9558   6.8205   7.0470   7.0824   7.2562
     7.9841   8.0791   8.2811   8.3957   8.4525   8.6529   8.6572   8.8283
     8.9995   9.2015   9.2320   9.4036   9.5101   9.5849   9.6494   9.7448
     9.7542   9.8023   9.8735   9.9752   9.9782  10.0481  10.1090  10.1350
    10.2649  10.3261  10.5592  10.6781  10.6813  10.7842  10.8603  10.8689
    10.8776  10.9830  11.0386  11.1403  11.1446  11.3143  11.3651  11.3740
    11.4595  11.5859  11.6263  11.6381  11.8082  11.8223  11.8723  11.9727
    12.0285  12.1056  12.1911  12.2126  12.4031  12.4082  12.4467  12.5838
    12.7848  12.8268  12.8581  12.9183  13.0037  13.0207  13.1148  13.2169
    13.4313  13.5280  13.5676  13.6204  13.7262  13.7448  13.8108  13.8472
    14.0116  14.0178  14.1151  14.1888  14.2238  14.2598  14.4685  14.5710
    14.6392  14.6655  14.6980  14.7146  14.8015  14.8447  14.9742  14.9806
    15.0960  15.1772  15.2835  15.3231  15.3551  15.4334  15.4858  15.5008
    15.5911  15.7683  15.7707  15.8549  15.9177  16.0583  16.1243  16.2080
    16.2666  16.3443  16.3703  16.4164  16.5596  16.6442  16.7112  16.7772
    16.8749  16.9338  16.9631  17.0096  17.0849  17.1274  17.1682  17.2558
    17.2725  17.4558  17.4852  17.5112  17.6205  17.6932  17.7370  17.7973
    17.8814  17.9296  17.9898  18.0332  18.0422  18.2262  18.2552  18.2882
    18.3433  18.3488  18.5704  18.5936  18.5989  18.6820  18.7624  18.8115
    18.8941  18.9378  18.9451  18.9986  19.0117  19.0370  19.1518  19.2270

          k = 0.2500 0.2313 0.1650 (173334 PWs)   bands (ev):

   -40.2621 -40.2621 -40.2621 -40.2621 -40.2277 -40.2277 -40.2277 -40.2276
   -40.2011 -40.2010 -40.2010 -40.2010 -40.1976 -40.1975 -40.1975 -40.1975
   -40.1975 -40.1975 -40.1975 -40.1975 -40.1656 -40.1656 -40.1656 -40.1656
   -40.1656 -40.1656 -40.1656 -40.1655 -40.1413 -40.1413 -40.1413 -40.1412
   -40.1412 -40.1412 -40.1412 -40.1412 -40.0933 -40.0933 -40.0933 -40.0932
   -40.0927 -40.0927 -40.0927 -40.0927 -40.0387 -40.0387 -40.0387 -40.0387
   -40.0387 -40.0387 -40.0387 -40.0386 -40.0384 -40.0384 -40.0384 -40.0384
   -40.0384 -40.0384 -40.0383 -40.0383 -15.9602 -15.9600 -15.9583 -15.9582
   -12.9067 -12.9049 -12.9019 -12.9000 -12.8922 -12.8920 -12.8868 -12.8867
   -12.8797 -12.8795 -12.8795 -12.8793 -12.8650 -12.8646 -12.8646 -12.8643
   -12.8575 -12.8574 -12.8573 -12.8572  -8.9537  -8.9498  -8.9481  -8.9462
    -8.0710  -7.9640  -7.9171  -7.8296  -7.7510  -7.7420  -7.6966  -7.6673
    -7.6249  -7.5998  -7.5870  -7.5561  -5.4629  -5.4584  -5.4540  -5.4514
    -5.4407  -5.4355  -5.4194  -5.4130  -4.1772  -3.8814  -3.7787  -3.5061
    -3.3321  -3.3306  -3.3270  -3.3089  -1.2757  -1.2727  -1.2706  -1.2651
    -1.2617  -1.2581  -1.2534  -1.2460   0.7451   0.7696   0.9009   1.0214
     1.3092   1.4186   1.4839   1.5836   1.8270   1.8628   1.9104   1.9545
     2.0862   2.1492   2.2023   2.2372   2.3310   2.4023   2.4160   2.4918
     2.5101   2.5436   2.6430   2.6745   2.6843   2.7488   2.7947   2.8064
     2.8245   2.8451   2.9132   2.9660   2.9860   3.0484   3.0694   3.1221
     5.6818   5.8918   5.9646   6.2174   6.8485   7.0270   7.0842   7.2248
     7.8610   7.9849   8.1630   8.2461   8.3165   8.4703   8.6681   8.8216
     9.0395   9.1126   9.3135   9.3208   9.4534   9.5812   9.6368   9.7388
     9.7838   9.8278   9.8621   9.9290  10.0077  10.0169  10.1064  10.1296
    10.3670  10.4416  10.5243  10.6136  10.6791  10.7474  10.8312  10.8784
    11.0030  11.0419  11.0567  11.1180  11.2133  11.2665  11.3278  11.3472
    11.4592  11.5091  11.6161  11.6659  11.7561  11.7874  11.8916  11.9436
    12.0591  12.1299  12.1680  12.1965  12.3087  12.4335  12.5398  12.5845
    12.7322  12.7817  12.8781  12.9163  13.0577  13.0730  13.1980  13.3066
    13.3556  13.5023  13.5695  13.6042  13.6494  13.7518  13.8451  13.9514
    13.9995  14.0824  14.1181  14.2007  14.2834  14.3558  14.4125  14.5391
    14.6105  14.7063  14.7918  14.8344  14.8816  14.9574  15.0139  15.1106
    15.1644  15.2355  15.2607  15.3720  15.4150  15.4818  15.5144  15.6282
    15.6471  15.6758  15.7663  15.8253  15.9348  16.0486  16.1463  16.1770
    16.2258  16.3434  16.3631  16.4193  16.4946  16.5490  16.6325  16.6603
    16.8189  16.8667  16.9051  16.9554  17.0276  17.0822  17.1447  17.2459
    17.3011  17.3675  17.4185  17.4950  17.5353  17.5647  17.6908  17.7803
    17.8438  17.8913  17.9427  18.0218  18.1155  18.1750  18.2154  18.2964
    18.3164  18.4047  18.5117  18.5695  18.6260  18.6325  18.7527  18.8075
    18.8422  18.8750  18.9311  18.9494  19.0949  19.1199  19.1757  19.2417

          k = 0.2500 0.2313-0.3300 (173300 PWs)   bands (ev):

   -40.2621 -40.2621 -40.2621 -40.2621 -40.2277 -40.2277 -40.2277 -40.2276
   -40.2011 -40.2010 -40.2010 -40.2010 -40.1976 -40.1975 -40.1975 -40.1975
   -40.1975 -40.1975 -40.1975 -40.1975 -40.1656 -40.1656 -40.1656 -40.1656
   -40.1656 -40.1656 -40.1656 -40.1655 -40.1413 -40.1413 -40.1413 -40.1412
   -40.1412 -40.1412 -40.1412 -40.1412 -40.0933 -40.0933 -40.0933 -40.0932
   -40.0927 -40.0927 -40.0927 -40.0927 -40.0387 -40.0387 -40.0387 -40.0387
   -40.0387 -40.0387 -40.0387 -40.0386 -40.0384 -40.0384 -40.0384 -40.0384
   -40.0384 -40.0384 -40.0383 -40.0383 -15.9601 -15.9601 -15.9582 -15.9582
   -12.9043 -12.9043 -12.9024 -12.9024 -12.8921 -12.8921 -12.8868 -12.8868
   -12.8796 -12.8795 -12.8794 -12.8793 -12.8648 -12.8648 -12.8645 -12.8644
   -12.8575 -12.8574 -12.8573 -12.8573  -8.9516  -8.9516  -8.9473  -8.9473
    -8.0267  -8.0266  -7.8808  -7.8807  -7.7342  -7.7342  -7.6621  -7.6620
    -7.6225  -7.6225  -7.5771  -7.5771  -5.4595  -5.4595  -5.4546  -5.4546
    -5.4320  -5.4320  -5.4213  -5.4213  -4.0362  -4.0362  -3.6486  -3.6486
    -3.3290  -3.3290  -3.3231  -3.3231  -1.2729  -1.2729  -1.2671  -1.2671
    -1.2583  -1.2583  -1.2527  -1.2527   0.7885   0.7886   1.2631   1.2631
     1.4176   1.4176   1.4711   1.4712   1.5913   1.5913   1.9136   1.9136
     2.0812   2.0812   2.1678   2.1678   2.3083   2.3083   2.4636   2.4636
     2.4831   2.4831   2.6824   2.6824   2.7599   2.7600   2.8005   2.8005
     2.8516   2.8516   2.9295   2.9295   3.0038   3.0038   3.0368   3.0368
     5.7907   5.7907   6.8621   6.8622   7.0075   7.0075   7.0874   7.0874
     7.2530   7.2531   8.1873   8.1873   8.3346   8.3346   8.7337   8.7337
     9.0766   9.0766   9.3378   9.3378   9.4453   9.4454   9.6786   9.6786
     9.7982   9.7983   9.9599   9.9599   9.9999   9.9999  10.1555  10.1556
    10.3759  10.3760  10.6324  10.6324  10.7381  10.7381  10.8628  10.8628
    10.9166  10.9167  11.0419  11.0419  11.2812  11.2812  11.3664  11.3664
    11.5505  11.5505  11.6125  11.6126  11.7427  11.7428  11.8938  11.8938
    12.0159  12.0159  12.2298  12.2298  12.3926  12.3926  12.6511  12.6512
    12.7567  12.7567  12.8594  12.8594  13.0100  13.0100  13.2321  13.2321
    13.4145  13.4145  13.5820  13.5820  13.7148  13.7148  13.9336  13.9336
    14.0678  14.0679  14.2543  14.2543  14.3329  14.3329  14.5200  14.5200
    14.6406  14.6406  14.8683  14.8683  14.9130  14.9130  15.1435  15.1435
    15.2603  15.2603  15.4273  15.4274  15.5530  15.5530  15.6413  15.6413
    15.7429  15.7429  15.8150  15.8150  15.9989  15.9989  16.1152  16.1152
    16.2673  16.2673  16.3834  16.3834  16.4704  16.4704  16.6241  16.6241
    16.7243  16.7243  16.8936  16.8936  16.9865  16.9865  17.0562  17.0562
    17.2712  17.2712  17.4082  17.4082  17.5939  17.5940  17.7526  17.7526
    17.7944  17.7944  17.9438  17.9438  18.0260  18.0260  18.1236  18.1236
    18.2392  18.2392  18.4871  18.4871  18.5871  18.5871  18.7391  18.7391
    18.8267  18.8267  18.9862  18.9862  19.1207  19.1209  19.2076  19.2076

          k = 0.2500-0.4625 0.0000 (173246 PWs)   bands (ev):

   -40.2621 -40.2621 -40.2621 -40.2621 -40.2277 -40.2277 -40.2277 -40.2276
   -40.2011 -40.2010 -40.2010 -40.2010 -40.1975 -40.1975 -40.1975 -40.1975
   -40.1975 -40.1975 -40.1975 -40.1975 -40.1656 -40.1656 -40.1656 -40.1656
   -40.1656 -40.1656 -40.1656 -40.1655 -40.1413 -40.1413 -40.1413 -40.1412
   -40.1412 -40.1412 -40.1412 -40.1412 -40.0933 -40.0933 -40.0933 -40.0932
   -40.0927 -40.0927 -40.0927 -40.0927 -40.0387 -40.0387 -40.0387 -40.0387
   -40.0387 -40.0387 -40.0387 -40.0386 -40.0384 -40.0384 -40.0384 -40.0384
   -40.0384 -40.0384 -40.0383 -40.0383 -15.9600 -15.9600 -15.9583 -15.9583
   -12.9070 -12.9070 -12.9002 -12.9001 -12.8894 -12.8893 -12.8891 -12.8891
   -12.8796 -12.8796 -12.8793 -12.8793 -12.8649 -12.8649 -12.8644 -12.8644
   -12.8575 -12.8574 -12.8573 -12.8573  -8.9546  -8.9546  -8.9488  -8.9488
    -8.0041  -8.0041  -7.8440  -7.8440  -7.7860  -7.7859  -7.6682  -7.6682
    -7.6482  -7.6482  -7.5513  -7.5513  -5.4603  -5.4603  -5.4511  -5.4511
    -5.4435  -5.4435  -5.4120  -5.4120  -4.0302  -4.0301  -3.6239  -3.6239
    -3.3396  -3.3396  -3.3246  -3.3246  -1.2768  -1.2768  -1.2739  -1.2739
    -1.2645  -1.2645  -1.2460  -1.2460   0.7062   0.7062   0.9926   0.9926
     1.1455   1.1455   1.6861   1.6861   1.8679   1.8679   1.8983   1.8983
     2.1541   2.1541   2.3479   2.3479   2.4218   2.4218   2.5399   2.5399
     2.5464   2.5464   2.6438   2.6438   2.6446   2.6446   2.7746   2.7746
     2.8314   2.8314   2.9031   2.9031   3.0157   3.0157   3.1510   3.1510
     5.6197   5.6198   6.1420   6.1420   6.4018   6.4018   7.6719   7.6719
     7.8967   7.8967   8.2010   8.2011   8.5010   8.5010   8.5499   8.5500
     9.2103   9.2103   9.3891   9.3891   9.4145   9.4145   9.6914   9.6914
     9.7789   9.7789   9.8940   9.8940  10.0712  10.0712  10.1744  10.1744
    10.2316  10.2316  10.4862  10.4862  10.6845  10.6845  10.9162  10.9162
    11.0189  11.0189  11.1275  11.1275  11.2940  11.2940  11.3138  11.3138
    11.5262  11.5262  11.7148  11.7148  11.9230  11.9230  11.9599  11.9599
    12.1954  12.1954  12.3790  12.3790  12.5050  12.5050  12.6676  12.6676
    12.8606  12.8607  12.8793  12.8793  13.0425  13.0425  13.2877  13.2877
    13.4567  13.4567  13.6136  13.6136  13.6265  13.6265  13.9036  13.9036
    13.9507  13.9507  14.0422  14.0422  14.2095  14.2095  14.4207  14.4207
    14.4542  14.4542  14.7207  14.7208  14.7380  14.7380  14.9502  14.9502
    15.0217  15.0217  15.1542  15.1542  15.2302  15.2302  15.2943  15.2943
    15.5893  15.5893  15.6856  15.6856  15.9129  15.9129  16.1754  16.1754
    16.1758  16.1758  16.3271  16.3271  16.4518  16.4518  16.8932  16.8932
    17.0062  17.0062  17.0362  17.0362  17.1629  17.1629  17.2023  17.2023
    17.4366  17.4366  17.4909  17.4909  17.5049  17.5049  17.8142  17.8142
    17.9050  17.9050  17.9318  17.9318  18.1814  18.1814  18.3370  18.3370
    18.5373  18.5373  18.5547  18.5547  18.7204  18.7205  18.7996  18.7996
    18.8996  18.8997  19.0470  19.0471  19.1992  19.1992  19.2850  19.2850

          k = 0.2500-0.4625 0.1650 (173334 PWs)   bands (ev):

   -40.2621 -40.2621 -40.2621 -40.2621 -40.2277 -40.2277 -40.2277 -40.2276
   -40.2011 -40.2010 -40.2010 -40.2010 -40.1975 -40.1975 -40.1975 -40.1975
   -40.1975 -40.1975 -40.1975 -40.1975 -40.1656 -40.1656 -40.1656 -40.1656
   -40.1656 -40.1656 -40.1656 -40.1655 -40.1413 -40.1413 -40.1413 -40.1412
   -40.1412 -40.1412 -40.1412 -40.1412 -40.0933 -40.0933 -40.0933 -40.0932
   -40.0927 -40.0927 -40.0927 -40.0927 -40.0387 -40.0387 -40.0387 -40.0387
   -40.0387 -40.0387 -40.0387 -40.0386 -40.0384 -40.0384 -40.0384 -40.0384
   -40.0384 -40.0384 -40.0383 -40.0383 -15.9600 -15.9600 -15.9583 -15.9583
   -12.9060 -12.9059 -12.9011 -12.9011 -12.8894 -12.8893 -12.8892 -12.8891
   -12.8796 -12.8795 -12.8794 -12.8793 -12.8648 -12.8648 -12.8645 -12.8644
   -12.8574 -12.8574 -12.8573 -12.8573  -8.9538  -8.9538  -8.9496  -8.9496
    -7.9899  -7.9899  -7.8902  -7.8902  -7.7512  -7.7512  -7.6753  -7.6753
    -7.6318  -7.6318  -7.5633  -7.5633  -5.4599  -5.4598  -5.4525  -5.4525
    -5.4388  -5.4388  -5.4153  -5.4153  -3.9777  -3.9776  -3.6913  -3.6913
    -3.3379  -3.3378  -3.3275  -3.3275  -1.2753  -1.2753  -1.2708  -1.2708
    -1.2646  -1.2646  -1.2489  -1.2489   0.8654   0.8654   1.0101   1.0101
     1.1518   1.1518   1.7062   1.7062   1.8243   1.8243   1.8692   1.8692
     2.1049   2.1050   2.2541   2.2541   2.3776   2.3776   2.4877   2.4877
     2.5409   2.5409   2.6608   2.6608   2.6940   2.6940   2.7987   2.7987
     2.8170   2.8170   2.9114   2.9114   2.9909   2.9909   3.0515   3.0515
     6.0815   6.0816   6.1772   6.1772   6.3642   6.3642   7.6394   7.6394
     7.8571   7.8571   8.0797   8.0797   8.2919   8.2919   8.5791   8.5791
     9.1108   9.1108   9.3792   9.3792   9.5033   9.5033   9.6600   9.6600
     9.7812   9.7812   9.8373   9.8373  10.1043  10.1043  10.2050  10.2050
    10.2551  10.2551  10.5152  10.5152  10.6465  10.6465  10.9026  10.9026
    11.0761  11.0761  11.1792  11.1792  11.2415  11.2415  11.3577  11.3577
    11.4958  11.4958  11.6578  11.6578  11.8176  11.8177  12.0211  12.0211
    12.2164  12.2165  12.3096  12.3096  12.5496  12.5496  12.6580  12.6580
    12.8286  12.8286  13.0187  13.0187  13.0708  13.0708  13.2120  13.2120
    13.4174  13.4174  13.6098  13.6098  13.6579  13.6579  13.7111  13.7111
    13.9272  13.9272  14.1802  14.1802  14.3058  14.3058  14.5598  14.5598
    14.5783  14.5783  14.6703  14.6703  14.7590  14.7590  14.9491  14.9491
    15.0471  15.0471  15.2155  15.2155  15.3619  15.3619  15.5440  15.5440
    15.6984  15.6984  15.7453  15.7453  15.8220  15.8220  15.9857  15.9857
    16.1662  16.1662  16.2474  16.2474  16.4115  16.4115  16.7611  16.7611
    16.8675  16.8675  16.9452  16.9452  17.1396  17.1396  17.2292  17.2292
    17.3673  17.3673  17.5177  17.5177  17.6929  17.6929  17.7299  17.7299
    17.9364  17.9364  18.0447  18.0447  18.1398  18.1398  18.2533  18.2533
    18.4499  18.4499  18.5198  18.5198  18.6711  18.6711  18.7385  18.7386
    18.9218  18.9219  19.0189  19.0190  19.0935  19.0937  19.1584  19.1584

          k = 0.2500-0.4625-0.3300 (173316 PWs)   bands (ev):

   -40.2621 -40.2621 -40.2621 -40.2621 -40.2277 -40.2277 -40.2277 -40.2276
   -40.2011 -40.2010 -40.2010 -40.2010 -40.1975 -40.1975 -40.1975 -40.1975
   -40.1975 -40.1975 -40.1975 -40.1975 -40.1656 -40.1656 -40.1656 -40.1656
   -40.1656 -40.1656 -40.1656 -40.1655 -40.1413 -40.1413 -40.1413 -40.1412
   -40.1412 -40.1412 -40.1412 -40.1412 -40.0933 -40.0933 -40.0933 -40.0932
   -40.0927 -40.0927 -40.0927 -40.0927 -40.0387 -40.0387 -40.0387 -40.0387
   -40.0387 -40.0387 -40.0387 -40.0386 -40.0384 -40.0384 -40.0384 -40.0384
   -40.0384 -40.0384 -40.0383 -40.0383 -15.9600 -15.9600 -15.9583 -15.9583
   -12.9036 -12.9035 -12.9035 -12.9035 -12.8893 -12.8893 -12.8893 -12.8892
   -12.8795 -12.8795 -12.8795 -12.8794 -12.8647 -12.8646 -12.8646 -12.8646
   -12.8574 -12.8574 -12.8574 -12.8573  -8.9525  -8.9525  -8.9508  -8.9508
    -7.9539  -7.9539  -7.9446  -7.9446  -7.7298  -7.7297  -7.6817  -7.6817
    -7.6037  -7.6037  -7.5883  -7.5883  -5.4589  -5.4589  -5.4544  -5.4544
    -5.4323  -5.4323  -5.4208  -5.4208  -3.8482  -3.8482  -3.8356  -3.8356
    -3.3339  -3.3339  -3.3324  -3.3324  -1.2744  -1.2744  -1.2688  -1.2688
    -1.2605  -1.2605  -1.2544  -1.2544   1.0051   1.0051   1.0320   1.0320
     1.4402   1.4403   1.4433   1.4433   1.7415   1.7415   1.8079   1.8079
     2.1134   2.1134   2.1467   2.1467   2.3816   2.3816   2.4027   2.4027
     2.5691   2.5691   2.6795   2.6795   2.7230   2.7230   2.7781   2.7781
     2.8676   2.8676   2.9013   2.9013   2.9614   2.9614   2.9970   2.9970
     6.2619   6.2619   6.2656   6.2656   7.0209   7.0209   7.0429   7.0429
     7.8077   7.8077   7.8263   7.8263   8.3103   8.3103   8.5966   8.5966
     9.0171   9.0171   9.4081   9.4081   9.5425   9.5425   9.6215   9.6215
     9.8305   9.8305   9.8854   9.8854  10.0462  10.0462  10.0562  10.0562
    10.4432  10.4432  10.5658  10.5658  10.6588  10.6588  10.7742  10.7742
    11.0787  11.0787  11.1571  11.1571  11.2594  11.2594  11.3708  11.3708
    11.6041  11.6041  11.7056  11.7056  11.7493  11.7493  11.9232  11.9232
    12.1294  12.1295  12.3240  12.3241  12.6251  12.6252  12.6702  12.6702
    12.8210  12.8210  12.9640  12.9640  13.1662  13.1662  13.1674  13.1674
    13.4846  13.4846  13.4849  13.4849  13.6755  13.6755  13.7468  13.7468
    13.9311  13.9311  14.0072  14.0072  14.4509  14.4509  14.5643  14.5643
    14.6503  14.6503  14.7070  14.7070  14.9148  14.9148  14.9809  14.9809
    15.1957  15.1957  15.2233  15.2233  15.5406  15.5406  15.5488  15.5488
    15.6432  15.6432  15.7734  15.7734  15.9729  15.9729  15.9822  15.9822
    16.1834  16.1834  16.3251  16.3251  16.5077  16.5077  16.7023  16.7023
    16.7375  16.7375  16.8012  16.8012  17.0235  17.0235  17.0290  17.0290
    17.2836  17.2836  17.3816  17.3816  17.6573  17.6573  17.6680  17.6680
    17.8147  17.8147  18.0504  18.0504  18.1675  18.1675  18.3109  18.3109
    18.4457  18.4457  18.4857  18.4857  18.6837  18.6837  18.7106  18.7106
    18.8251  18.8252  18.9909  18.9910  19.1182  19.1183  19.1839  19.1839

          k =-0.5000 0.0000 0.0000 (173414 PWs)   bands (ev):

   -40.2621 -40.2621 -40.2621 -40.2621 -40.2277 -40.2277 -40.2277 -40.2276
   -40.2011 -40.2010 -40.2010 -40.2010 -40.1975 -40.1975 -40.1975 -40.1975
   -40.1975 -40.1975 -40.1975 -40.1975 -40.1656 -40.1656 -40.1656 -40.1656
   -40.1656 -40.1656 -40.1656 -40.1656 -40.1413 -40.1413 -40.1412 -40.1412
   -40.1412 -40.1412 -40.1412 -40.1412 -40.0933 -40.0933 -40.0933 -40.0932
   -40.0927 -40.0927 -40.0927 -40.0927 -40.0387 -40.0387 -40.0387 -40.0387
   -40.0387 -40.0387 -40.0387 -40.0386 -40.0384 -40.0384 -40.0384 -40.0384
   -40.0384 -40.0384 -40.0383 -40.0383 -15.9593 -15.9593 -15.9590 -15.9590
   -12.9067 -12.9067 -12.8997 -12.8996 -12.8896 -12.8896 -12.8896 -12.8895
   -12.8796 -12.8796 -12.8794 -12.8793 -12.8649 -12.8649 -12.8644 -12.8644
   -12.8575 -12.8574 -12.8573 -12.8573  -8.9503  -8.9503  -8.9464  -8.9464
    -8.0307  -8.0306  -7.8410  -7.8410  -7.7841  -7.7841  -7.6508  -7.6507
    -7.6319  -7.6319  -7.5746  -7.5746  -5.4573  -5.4573  -5.4474  -5.4474
    -5.4429  -5.4429  -5.4118  -5.4118  -4.0392  -4.0391  -3.6283  -3.6283
    -3.3303  -3.3303  -3.3187  -3.3187  -1.2803  -1.2803  -1.2725  -1.2725
    -1.2707  -1.2707  -1.2459  -1.2459   0.7038   0.7039   1.1878   1.1878
     1.3665   1.3665   1.5937   1.5937   1.7510   1.7510   1.8636   1.8637
     2.0154   2.0154   2.3422   2.3422   2.4165   2.4165   2.5085   2.5085
     2.5920   2.5920   2.6069   2.6070   2.6118   2.6118   2.7524   2.7524
     2.7786   2.7786   2.8290   2.8290   2.9859   2.9859   3.0769   3.0769
     5.6275   5.6275   6.8691   6.8691   6.9875   6.9876   7.0986   7.0987
     7.2348   7.2348   8.3294   8.3294   8.4754   8.4754   8.9770   8.9770
     9.0951   9.0951   9.5547   9.5547   9.5741   9.5741   9.6818   9.6818
     9.8264   9.8264   9.9337   9.9337   9.9525   9.9525  10.1828  10.1828
    10.2643  10.2643  10.5640  10.5640  10.6171  10.6171  10.7175  10.7175
    10.9227  10.9227  10.9983  10.9983  11.2682  11.2682  11.4592  11.4592
    11.4656  11.4656  11.5788  11.5788  11.6085  11.6085  11.9373  11.9373
    12.0331  12.0331  12.1011  12.1011  12.1585  12.1585  12.7772  12.7772
    12.8116  12.8116  12.9997  12.9997  13.2206  13.2206  13.3157  13.3157
    13.3428  13.3428  13.4137  13.4137  13.7386  13.7386  13.9717  13.9717
    13.9967  13.9967  14.1556  14.1556  14.3199  14.3199  14.4535  14.4535
    14.6657  14.6658  14.7058  14.7058  14.8265  14.8265  14.8278  14.8278
    15.1035  15.1035  15.2788  15.2788  15.3198  15.3198  15.5441  15.5441
    15.6274  15.6274  15.7656  15.7656  15.9603  15.9603  16.2232  16.2232
    16.2521  16.2521  16.5304  16.5304  16.7678  16.7678  16.7872  16.7872
    17.0390  17.0390  17.2126  17.2126  17.3432  17.3432  17.4266  17.4267
    17.5214  17.5214  17.5835  17.5835  17.7521  17.7521  17.9260  17.9260
    17.9594  17.9594  18.0290  18.0290  18.0436  18.0436  18.1715  18.1715
    18.2787  18.2787  18.3257  18.3257  18.4652  18.4652  18.6537  18.6537
    18.6613  18.6613  18.7679  18.7679  19.0328  19.0329  19.0800  19.0801

          k =-0.5000 0.0000 0.1650 (173368 PWs)   bands (ev):

   -40.2621 -40.2621 -40.2621 -40.2621 -40.2277 -40.2277 -40.2277 -40.2276
   -40.2011 -40.2010 -40.2010 -40.2010 -40.1975 -40.1975 -40.1975 -40.1975
   -40.1975 -40.1975 -40.1975 -40.1975 -40.1656 -40.1656 -40.1656 -40.1656
   -40.1656 -40.1656 -40.1656 -40.1656 -40.1413 -40.1413 -40.1412 -40.1412
   -40.1412 -40.1412 -40.1412 -40.1412 -40.0933 -40.0933 -40.0933 -40.0932
   -40.0927 -40.0927 -40.0927 -40.0927 -40.0387 -40.0387 -40.0387 -40.0387
   -40.0387 -40.0387 -40.0387 -40.0386 -40.0384 -40.0384 -40.0384 -40.0384
   -40.0384 -40.0384 -40.0383 -40.0383 -15.9593 -15.9593 -15.9590 -15.9590
   -12.9057 -12.9056 -12.9007 -12.9007 -12.8896 -12.8896 -12.8896 -12.8895
   -12.8796 -12.8796 -12.8794 -12.8794 -12.8648 -12.8648 -12.8645 -12.8644
   -12.8575 -12.8574 -12.8574 -12.8573  -8.9497  -8.9497  -8.9469  -8.9469
    -8.0146  -8.0145  -7.9004  -7.9004  -7.7269  -7.7269  -7.6522  -7.6522
    -7.6310  -7.6310  -7.5882  -7.5882  -5.4563  -5.4563  -5.4495  -5.4495
    -5.4375  -5.4375  -5.4159  -5.4159  -3.9860  -3.9859  -3.6967  -3.6966
    -3.3288  -3.3288  -3.3207  -3.3207  -1.2805  -1.2805  -1.2762  -1.2762
    -1.2643  -1.2643  -1.2485  -1.2485   0.8918   0.8918   1.2052   1.2052
     1.3376   1.3376   1.6142   1.6142   1.7001   1.7001   1.8343   1.8343
     2.0369   2.0369   2.2987   2.2987   2.3499   2.3499   2.4207   2.4207
     2.4945   2.4946   2.5601   2.5601   2.7155   2.7155   2.7792   2.7792
     2.7946   2.7946   2.8384   2.8384   2.9505   2.9505   3.0099   3.0099
     6.0893   6.0894   6.8935   6.8935   7.0087   7.0087   7.0797   7.0797
     7.1945   7.1946   8.0254   8.0254   8.4296   8.4296   8.8795   8.8795
     9.1405   9.1405   9.4992   9.4992   9.5639   9.5639   9.6595   9.6595
     9.8267   9.8267   9.9141   9.9141  10.0409  10.0409  10.1816  10.1817
    10.3618  10.3618  10.5060  10.5060  10.6035  10.6035  10.7522  10.7522
    10.9486  10.9486  11.0749  11.0749  11.2782  11.2782  11.3067  11.3067
    11.4414  11.4414  11.6191  11.6191  11.6426  11.6426  11.7770  11.7770
    11.9145  11.9145  12.1302  12.1302  12.2954  12.2955  12.6434  12.6434
    12.7767  12.7767  12.9903  12.9903  13.1866  13.1866  13.3552  13.3552
    13.4920  13.4920  13.6154  13.6154  13.8427  13.8427  13.9121  13.9121
    14.0211  14.0211  14.2139  14.2139  14.2282  14.2282  14.4804  14.4805
    14.6400  14.6400  14.8414  14.8414  14.9394  14.9394  15.0431  15.0432
    15.1751  15.1751  15.2873  15.2873  15.4396  15.4396  15.5365  15.5366
    15.7348  15.7348  15.8502  15.8502  15.9408  15.9408  16.1422  16.1422
    16.2668  16.2668  16.3569  16.3570  16.5025  16.5025  16.6323  16.6323
    16.7898  16.7898  16.9566  16.9566  17.1933  17.1933  17.3155  17.3155
    17.3733  17.3733  17.5601  17.5601  17.7265  17.7266  17.8171  17.8171
    17.8567  17.8567  18.0236  18.0236  18.2158  18.2158  18.2254  18.2254
    18.3624  18.3625  18.4295  18.4295  18.5084  18.5084  18.5918  18.5918
    18.8337  18.8338  18.9424  18.9424  19.0010  19.0010  19.0605  19.0606

          k =-0.5000 0.0000-0.3300 (173276 PWs)   bands (ev):

   -40.2621 -40.2621 -40.2621 -40.2621 -40.2277 -40.2277 -40.2277 -40.2276
   -40.2011 -40.2010 -40.2010 -40.2010 -40.1975 -40.1975 -40.1975 -40.1975
   -40.1975 -40.1975 -40.1975 -40.1975 -40.1656 -40.1656 -40.1656 -40.1656
   -40.1656 -40.1656 -40.1656 -40.1656 -40.1413 -40.1413 -40.1412 -40.1412
   -40.1412 -40.1412 -40.1412 -40.1412 -40.0933 -40.0933 -40.0933 -40.0932
   -40.0927 -40.0927 -40.0927 -40.0927 -40.0387 -40.0387 -40.0387 -40.0387
   -40.0387 -40.0387 -40.0387 -40.0386 -40.0384 -40.0384 -40.0384 -40.0384
   -40.0384 -40.0384 -40.0383 -40.0383 -15.9592 -15.9591 -15.9591 -15.9591
   -12.9032 -12.9032 -12.9031 -12.9031 -12.8896 -12.8896 -12.8896 -12.8895
   -12.8795 -12.8795 -12.8795 -12.8794 -12.8647 -12.8647 -12.8647 -12.8646
   -12.8574 -12.8574 -12.8574 -12.8573  -8.9483  -8.9483  -8.9483  -8.9483
    -7.9686  -7.9686  -7.9686  -7.9686  -7.6709  -7.6709  -7.6709  -7.6709
    -7.6172  -7.6172  -7.6172  -7.6172  -5.4533  -5.4533  -5.4533  -5.4533
    -5.4263  -5.4263  -5.4263  -5.4262  -3.8488  -3.8488  -3.8488  -3.8488
    -3.3250  -3.3250  -3.3250  -3.3250  -1.2793  -1.2793  -1.2793  -1.2793
    -1.2555  -1.2555  -1.2555  -1.2555   1.2303   1.2303   1.2303   1.2304
     1.4069   1.4069   1.4069   1.4070   1.6768   1.6768   1.6769   1.6769
     2.1254   2.1254   2.1254   2.1254   2.3713   2.3713   2.3713   2.3713
     2.4811   2.4811   2.4811   2.4811   2.7773   2.7773   2.7773   2.7773
     2.8461   2.8461   2.8461   2.8462   2.9393   2.9393   2.9393   2.9393
     6.8996   6.8997   6.8997   6.8997   7.0984   7.0984   7.0984   7.0984
     7.1550   7.1550   7.1550   7.1550   8.6268   8.6268   8.6268   8.6268
     9.3205   9.3205   9.3206   9.3206   9.6260   9.6260   9.6260   9.6260
     9.7864   9.7864   9.7864   9.7864  10.2848  10.2848  10.2848  10.2848
    10.4411  10.4411  10.4411  10.4411  10.6362  10.6362  10.6362  10.6362
    10.9804  10.9805  10.9805  10.9805  11.2971  11.2972  11.2972  11.2972
    11.5119  11.5119  11.5119  11.5119  11.6945  11.6945  11.6945  11.6945
    11.9291  11.9291  11.9291  11.9291  12.5051  12.5051  12.5051  12.5051
    12.9876  12.9876  12.9876  12.9876  13.1439  13.1439  13.1439  13.1439
    13.6373  13.6373  13.6373  13.6373  13.8711  13.8711  13.8711  13.8711
    14.1422  14.1422  14.1422  14.1422  14.5500  14.5500  14.5500  14.5500
    14.6655  14.6655  14.6655  14.6655  15.1414  15.1414  15.1414  15.1414
    15.3869  15.3869  15.3869  15.3869  15.6160  15.6160  15.6161  15.6161
    15.7263  15.7263  15.7263  15.7264  15.9935  15.9935  15.9935  15.9935
    16.2863  16.2863  16.2863  16.2864  16.5237  16.5237  16.5237  16.5237
    16.5976  16.5976  16.5976  16.5976  16.9986  16.9986  16.9986  16.9986
    17.4002  17.4002  17.4003  17.4003  17.7490  17.7490  17.7490  17.7490
    17.9175  17.9175  17.9175  17.9175  18.1137  18.1137  18.1137  18.1137
    18.4399  18.4400  18.4400  18.4400  18.5658  18.5658  18.5658  18.5658
    18.7345  18.7345  18.7345  18.7345  19.2248  19.2249  19.2249  19.2249

          k =-0.5000 0.2313 0.0000 (173288 PWs)   bands (ev):

   -40.2621 -40.2621 -40.2621 -40.2621 -40.2277 -40.2277 -40.2277 -40.2276
   -40.2011 -40.2010 -40.2010 -40.2010 -40.1975 -40.1975 -40.1975 -40.1975
   -40.1975 -40.1975 -40.1975 -40.1975 -40.1656 -40.1656 -40.1656 -40.1656
   -40.1656 -40.1656 -40.1656 -40.1656 -40.1413 -40.1413 -40.1413 -40.1412
   -40.1412 -40.1412 -40.1412 -40.1412 -40.0933 -40.0933 -40.0933 -40.0932
   -40.0927 -40.0927 -40.0927 -40.0927 -40.0387 -40.0387 -40.0387 -40.0387
   -40.0387 -40.0387 -40.0387 -40.0386 -40.0384 -40.0384 -40.0384 -40.0384
   -40.0384 -40.0384 -40.0383 -40.0383 -15.9593 -15.9593 -15.9590 -15.9590
   -12.9070 -12.9069 -12.9002 -12.9001 -12.8894 -12.8893 -12.8891 -12.8891
   -12.8796 -12.8796 -12.8793 -12.8793 -12.8649 -12.8649 -12.8644 -12.8644
   -12.8575 -12.8574 -12.8573 -12.8573  -8.9528  -8.9528  -8.9483  -8.9483
    -8.0106  -8.0106  -7.8152  -7.8152  -7.7861  -7.7861  -7.6804  -7.6804
    -7.6698  -7.6698  -7.5498  -7.5498  -5.4556  -5.4556  -5.4483  -5.4483
    -5.4433  -5.4433  -5.4109  -5.4109  -4.0266  -4.0265  -3.6135  -3.6134
    -3.3365  -3.3365  -3.3257  -3.3257  -1.2851  -1.2851  -1.2763  -1.2763
    -1.2738  -1.2738  -1.2443  -1.2443   0.6957   0.6957   0.9820   0.9820
     1.1383   1.1383   1.7536   1.7536   1.8589   1.8589   1.9920   1.9920
     2.1055   2.1055   2.3973   2.3973   2.4377   2.4377   2.4887   2.4887
     2.5821   2.5821   2.6528   2.6528   2.6638   2.6638   2.7372   2.7372
     2.7702   2.7702   2.7765   2.7765   3.0350   3.0350   3.1096   3.1096
     5.6182   5.6182   6.1577   6.1577   6.4211   6.4211   7.6638   7.6638
     7.9074   7.9074   8.3244   8.3244   8.5246   8.5247   8.6900   8.6900
     9.2419   9.2419   9.4252   9.4252   9.4856   9.4856   9.7680   9.7680
     9.8606   9.8606   9.9941   9.9941  10.0559  10.0559  10.1853  10.1853
    10.2081  10.2081  10.5127  10.5127  10.6461  10.6461  10.8655  10.8655
    10.9203  10.9203  11.0468  11.0468  11.1874  11.1874  11.3719  11.3719
    11.3869  11.3869  11.4623  11.4623  11.7383  11.7383  11.9921  11.9921
    12.0456  12.0456  12.2413  12.2413  12.2634  12.2634  12.6279  12.6279
    12.9326  12.9326  13.0930  13.0930  13.2645  13.2645  13.3324  13.3324
    13.4503  13.4503  13.5755  13.5755  13.7942  13.7942  13.7973  13.7973
    13.9103  13.9103  14.1004  14.1004  14.1169  14.1169  14.3545  14.3545
    14.5365  14.5365  14.5500  14.5501  14.7520  14.7520  14.9145  14.9145
    15.0170  15.0170  15.2096  15.2096  15.4593  15.4593  15.5906  15.5906
    15.7091  15.7091  15.9189  15.9189  15.9948  15.9948  16.0809  16.0809
    16.2520  16.2520  16.4271  16.4271  16.6058  16.6059  16.7302  16.7302
    16.8308  16.8308  16.9216  16.9216  17.1813  17.1813  17.3899  17.3899
    17.4138  17.4138  17.5835  17.5835  17.6768  17.6768  17.6816  17.6816
    17.9079  17.9079  18.0126  18.0126  18.1218  18.1218  18.2755  18.2755
    18.3584  18.3584  18.4472  18.4472  18.6233  18.6233  18.6992  18.6992
    18.8146  18.8146  18.8551  18.8552  18.9015  18.9016  19.2746  19.2746

          k =-0.5000 0.2313 0.1650 (173286 PWs)   bands (ev):

   -40.2621 -40.2621 -40.2621 -40.2621 -40.2277 -40.2277 -40.2277 -40.2276
   -40.2011 -40.2010 -40.2010 -40.2010 -40.1975 -40.1975 -40.1975 -40.1975
   -40.1975 -40.1975 -40.1975 -40.1975 -40.1656 -40.1656 -40.1656 -40.1656
   -40.1656 -40.1656 -40.1656 -40.1656 -40.1413 -40.1413 -40.1413 -40.1412
   -40.1412 -40.1412 -40.1412 -40.1412 -40.0933 -40.0933 -40.0933 -40.0932
   -40.0927 -40.0927 -40.0927 -40.0927 -40.0387 -40.0387 -40.0387 -40.0387
   -40.0387 -40.0387 -40.0387 -40.0386 -40.0384 -40.0384 -40.0384 -40.0384
   -40.0384 -40.0384 -40.0383 -40.0383 -15.9593 -15.9592 -15.9590 -15.9590
   -12.9060 -12.9059 -12.9011 -12.9011 -12.8894 -12.8893 -12.8892 -12.8891
   -12.8796 -12.8795 -12.8794 -12.8793 -12.8648 -12.8648 -12.8645 -12.8644
   -12.8574 -12.8574 -12.8573 -12.8573  -8.9522  -8.9522  -8.9490  -8.9489
    -7.9947  -7.9947  -7.8808  -7.8807  -7.7337  -7.7337  -7.6875  -7.6875
    -7.6506  -7.6506  -7.5647  -7.5647  -5.4552  -5.4552  -5.4501  -5.4501
    -5.4377  -5.4377  -5.4152  -5.4152  -3.9731  -3.9731  -3.6824  -3.6823
    -3.3351  -3.3351  -3.3275  -3.3275  -1.2846  -1.2846  -1.2789  -1.2789
    -1.2675  -1.2675  -1.2478  -1.2478   0.8639   0.8640   0.9957   0.9958
     1.1417   1.1417   1.7727   1.7727   1.8433   1.8433   1.9008   1.9008
     2.0935   2.0936   2.2773   2.2773   2.3737   2.3737   2.4878   2.4878
     2.5835   2.5836   2.6490   2.6490   2.7056   2.7056   2.7292   2.7292
     2.7927   2.7927   2.8207   2.8207   2.9731   2.9731   3.0181   3.0181
     6.0780   6.0780   6.1948   6.1948   6.3874   6.3874   7.6479   7.6479
     7.8703   7.8703   8.0957   8.0957   8.4092   8.4092   8.6538   8.6538
     9.2601   9.2601   9.4303   9.4303   9.5576   9.5576   9.7042   9.7043
     9.7674   9.7674   9.9630   9.9630  10.0906  10.0906  10.2434  10.2434
    10.3372  10.3372  10.4532  10.4533  10.6076  10.6076  10.7789  10.7789
    10.9914  10.9914  11.0605  11.0605  11.1539  11.1539  11.2978  11.2978
    11.3890  11.3890  11.5396  11.5396  11.6938  11.6938  11.9572  11.9572
    12.1032  12.1033  12.2782  12.2782  12.3502  12.3502  12.6198  12.6198
    12.8106  12.8106  13.1138  13.1138  13.2575  13.2575  13.3698  13.3698
    13.4506  13.4506  13.5696  13.5696  13.7265  13.7265  13.8187  13.8187
    13.9418  13.9418  14.1378  14.1378  14.1560  14.1560  14.4275  14.4275
    14.5272  14.5272  14.7172  14.7173  14.8642  14.8642  15.0113  15.0113
    15.0798  15.0798  15.2595  15.2596  15.4458  15.4458  15.5381  15.5381
    15.6775  15.6775  15.8096  15.8096  15.9821  15.9821  16.1777  16.1777
    16.3139  16.3139  16.4165  16.4165  16.5213  16.5213  16.5417  16.5417
    16.8652  16.8653  17.0330  17.0330  17.1270  17.1270  17.2448  17.2448
    17.4089  17.4089  17.5505  17.5506  17.6826  17.6826  17.7371  17.7371
    17.7877  17.7877  17.9496  17.9496  18.0900  18.0901  18.2039  18.2039
    18.2668  18.2668  18.3466  18.3466  18.5067  18.5067  18.6613  18.6613
    18.8018  18.8018  18.8632  18.8633  19.0040  19.0041  19.2051  19.2052

          k =-0.5000 0.2313-0.3300 (173312 PWs)   bands (ev):

   -40.2621 -40.2621 -40.2621 -40.2621 -40.2277 -40.2277 -40.2277 -40.2276
   -40.2011 -40.2010 -40.2010 -40.2010 -40.1975 -40.1975 -40.1975 -40.1975
   -40.1975 -40.1975 -40.1975 -40.1975 -40.1656 -40.1656 -40.1656 -40.1656
   -40.1656 -40.1656 -40.1656 -40.1656 -40.1413 -40.1413 -40.1413 -40.1412
   -40.1412 -40.1412 -40.1412 -40.1412 -40.0933 -40.0933 -40.0933 -40.0932
   -40.0927 -40.0927 -40.0927 -40.0927 -40.0387 -40.0387 -40.0387 -40.0387
   -40.0387 -40.0387 -40.0387 -40.0386 -40.0384 -40.0384 -40.0384 -40.0384
   -40.0384 -40.0384 -40.0383 -40.0383 -15.9592 -15.9591 -15.9591 -15.9591
   -12.9036 -12.9035 -12.9035 -12.9035 -12.8893 -12.8893 -12.8893 -12.8892
   -12.8795 -12.8795 -12.8795 -12.8794 -12.8647 -12.8646 -12.8646 -12.8646
   -12.8574 -12.8574 -12.8574 -12.8573  -8.9506  -8.9506  -8.9506  -8.9505
    -7.9490  -7.9490  -7.9489  -7.9489  -7.7021  -7.7021  -7.7021  -7.7021
    -7.6050  -7.6050  -7.6050  -7.6049  -5.4531  -5.4531  -5.4531  -5.4531
    -5.4260  -5.4260  -5.4260  -5.4260  -3.8354  -3.8353  -3.8353  -3.8353
    -3.3314  -3.3314  -3.3314  -3.3314  -1.2823  -1.2823  -1.2823  -1.2823
    -1.2568  -1.2568  -1.2568  -1.2568   1.0158   1.0158   1.0158   1.0158
     1.4334   1.4335   1.4335   1.4335   1.8173   1.8173   1.8173   1.8173
     2.1419   2.1419   2.1419   2.1419   2.4053   2.4053   2.4053   2.4053
     2.6331   2.6331   2.6332   2.6332   2.7177   2.7177   2.7178   2.7178
     2.8565   2.8565   2.8565   2.8565   2.9274   2.9274   2.9275   2.9275
     6.2825   6.2825   6.2825   6.2825   7.0436   7.0436   7.0436   7.0436
     7.8156   7.8156   7.8156   7.8156   8.5306   8.5306   8.5306   8.5306
     9.3485   9.3485   9.3485   9.3485   9.6365   9.6365   9.6365   9.6365
     9.8310   9.8310   9.8310   9.8311  10.2173  10.2173  10.2173  10.2173
    10.4448  10.4448  10.4448  10.4448  10.5990  10.5990  10.5990  10.5990
    11.0076  11.0076  11.0077  11.0077  11.2153  11.2153  11.2153  11.2153
    11.4992  11.4992  11.4992  11.4992  11.8444  11.8444  11.8444  11.8444
    12.1592  12.1592  12.1592  12.1592  12.4852  12.4852  12.4852  12.4853
    13.0527  13.0527  13.0527  13.0527  13.2758  13.2758  13.2758  13.2758
    13.4637  13.4637  13.4637  13.4637  13.7507  13.7507  13.7507  13.7507
    14.1069  14.1070  14.1070  14.1070  14.3204  14.3204  14.3204  14.3204
    14.6622  14.6622  14.6622  14.6622  14.9166  14.9166  14.9166  14.9166
    15.2599  15.2599  15.2599  15.2599  15.6109  15.6109  15.6109  15.6109
    15.8707  15.8707  15.8707  15.8707  16.0853  16.0853  16.0853  16.0853
    16.3318  16.3318  16.3318  16.3318  16.5698  16.5698  16.5698  16.5698
    16.7375  16.7375  16.7375  16.7375  17.0526  17.0526  17.0526  17.0526
    17.3553  17.3553  17.3553  17.3553  17.6413  17.6413  17.6413  17.6413
    17.9349  17.9349  17.9349  17.9349  18.0909  18.0909  18.0909  18.0909
    18.3265  18.3265  18.3265  18.3265  18.5659  18.5659  18.5659  18.5659
    18.7692  18.7692  18.7692  18.7693  19.1105  19.1106  19.1106  19.1107

          k =-0.5000-0.4625 0.0000 (173328 PWs)   bands (ev):

   -40.2621 -40.2621 -40.2621 -40.2621 -40.2277 -40.2277 -40.2277 -40.2276
   -40.2011 -40.2010 -40.2010 -40.2010 -40.1975 -40.1975 -40.1975 -40.1975
   -40.1975 -40.1975 -40.1975 -40.1975 -40.1656 -40.1656 -40.1656 -40.1656
   -40.1656 -40.1656 -40.1656 -40.1656 -40.1413 -40.1413 -40.1413 -40.1412
   -40.1412 -40.1412 -40.1412 -40.1412 -40.0933 -40.0933 -40.0933 -40.0932
   -40.0927 -40.0927 -40.0927 -40.0927 -40.0387 -40.0387 -40.0387 -40.0387
   -40.0387 -40.0387 -40.0387 -40.0386 -40.0384 -40.0384 -40.0384 -40.0384
   -40.0384 -40.0384 -40.0383 -40.0383 -15.9593 -15.9593 -15.9590 -15.9590
   -12.9073 -12.9072 -12.9006 -12.9006 -12.8891 -12.8891 -12.8887 -12.8887
   -12.8796 -12.8796 -12.8793 -12.8793 -12.8649 -12.8649 -12.8644 -12.8643
   -12.8575 -12.8574 -12.8573 -12.8573  -8.9554  -8.9554  -8.9502  -8.9502
    -7.9870  -7.9870  -7.7927  -7.7927  -7.7567  -7.7567  -7.7427  -7.7427
    -7.6964  -7.6964  -7.5352  -7.5352  -5.4531  -5.4531  -5.4500  -5.4500
    -5.4437  -5.4437  -5.4099  -5.4099  -4.0139  -4.0138  -3.5984  -3.5983
    -3.3428  -3.3427  -3.3328  -3.3328  -1.2898  -1.2897  -1.2802  -1.2802
    -1.2769  -1.2769  -1.2426  -1.2426   0.6772   0.6772   0.8490   0.8490
     1.0163   1.0163   1.7920   1.7920   1.9139   1.9139   2.1647   2.1647
     2.2219   2.2219   2.3886   2.3886   2.4304   2.4304   2.4781   2.4781
     2.5118   2.5118   2.6234   2.6234   2.7045   2.7045   2.7191   2.7191
     2.7689   2.7689   2.8653   2.8653   3.0796   3.0796   3.1998   3.1998
     5.6010   5.6010   5.7858   5.7858   6.0855   6.0855   7.9785   7.9785
     8.2442   8.2442   8.2757   8.2757   8.5754   8.5754   8.6122   8.6122
     9.2830   9.2830   9.3202   9.3202   9.4185   9.4185   9.8361   9.8361
     9.9515   9.9515   9.9774   9.9774   9.9851   9.9851  10.2065  10.2065
    10.4032  10.4032  10.5795  10.5795  10.6308  10.6308  10.8528  10.8528
    10.8714  10.8715  10.8954  10.8954  11.0296  11.0296  11.2004  11.2005
    11.4312  11.4313  11.6171  11.6171  11.7310  11.7310  12.0010  12.0010
    12.2583  12.2583  12.3128  12.3128  12.3385  12.3385  12.8230  12.8230
    12.9259  12.9259  13.0678  13.0678  13.1871  13.1871  13.2540  13.2540
    13.3867  13.3867  13.5565  13.5565  13.6769  13.6769  13.8496  13.8496
    13.9305  13.9305  14.1229  14.1229  14.2149  14.2149  14.3536  14.3536
    14.4429  14.4429  14.6886  14.6886  14.7479  14.7479  15.1224  15.1224
    15.1310  15.1310  15.3408  15.3408  15.3564  15.3564  15.3591  15.3591
    15.5290  15.5290  15.6395  15.6395  15.8269  15.8269  15.9975  15.9975
    16.1667  16.1667  16.2149  16.2149  16.4747  16.4747  16.7494  16.7494
    16.7777  16.7777  16.8971  16.8972  17.0499  17.0499  17.1906  17.1906
    17.3352  17.3352  17.5716  17.5716  17.5950  17.5950  17.6417  17.6417
    17.8692  17.8692  17.8872  17.8872  17.9741  17.9741  18.1167  18.1167
    18.2930  18.2930  18.6862  18.6862  18.8329  18.8330  18.8991  18.8991
    18.9544  18.9545  18.9861  18.9861  19.1357  19.1358  19.1571  19.1571

          k =-0.5000-0.4625 0.1650 (173280 PWs)   bands (ev):

   -40.2621 -40.2621 -40.2621 -40.2621 -40.2277 -40.2277 -40.2277 -40.2276
   -40.2011 -40.2010 -40.2010 -40.2010 -40.1975 -40.1975 -40.1975 -40.1975
   -40.1975 -40.1975 -40.1975 -40.1975 -40.1656 -40.1656 -40.1656 -40.1656
   -40.1656 -40.1656 -40.1656 -40.1656 -40.1413 -40.1413 -40.1413 -40.1412
   -40.1412 -40.1412 -40.1412 -40.1412 -40.0933 -40.0933 -40.0933 -40.0932
   -40.0927 -40.0927 -40.0927 -40.0927 -40.0387 -40.0387 -40.0387 -40.0387
   -40.0387 -40.0387 -40.0387 -40.0386 -40.0384 -40.0384 -40.0384 -40.0384
   -40.0384 -40.0384 -40.0383 -40.0383 -15.9592 -15.9592 -15.9590 -15.9590
   -12.9063 -12.9062 -12.9015 -12.9015 -12.8891 -12.8891 -12.8888 -12.8888
   -12.8796 -12.8795 -12.8794 -12.8793 -12.8648 -12.8648 -12.8645 -12.8644
   -12.8574 -12.8574 -12.8573 -12.8573  -8.9546  -8.9546  -8.9509  -8.9509
    -7.9710  -7.9710  -7.8559  -7.8559  -7.7398  -7.7398  -7.7309  -7.7309
    -7.6617  -7.6617  -7.5513  -7.5513  -5.4537  -5.4537  -5.4510  -5.4510
    -5.4379  -5.4379  -5.4145  -5.4145  -3.9602  -3.9601  -3.6678  -3.6678
    -3.3414  -3.3414  -3.3343  -3.3343  -1.2885  -1.2885  -1.2822  -1.2822
    -1.2704  -1.2704  -1.2468  -1.2468   0.8076   0.8076   0.8594   0.8594
     1.0626   1.0626   1.8212   1.8212   1.8954   1.8954   2.0032   2.0032
     2.1574   2.1574   2.2670   2.2670   2.4511   2.4511   2.4956   2.4956
     2.6128   2.6128   2.6246   2.6246   2.6755   2.6755   2.7053   2.7053
     2.8190   2.8190   2.8745   2.8745   3.0422   3.0422   3.0707   3.0707
     5.8275   5.8275   5.9799   5.9800   6.1334   6.1334   7.8373   7.8373
     8.2048   8.2048   8.2696   8.2696   8.3674   8.3675   8.5371   8.5371
     9.3348   9.3348   9.3461   9.3461   9.5285   9.5285   9.8027   9.8027
     9.8780   9.8780   9.9104   9.9104   9.9839   9.9839  10.2732  10.2732
    10.3925  10.3925  10.5041  10.5042  10.6418  10.6418  10.7243  10.7243
    10.7648  10.7648  11.0617  11.0617  11.1307  11.1307  11.1617  11.1617
    11.3637  11.3637  11.6807  11.6807  11.9000  11.9000  11.9735  11.9735
    12.2976  12.2976  12.3588  12.3588  12.4409  12.4409  12.7351  12.7351
    12.8979  12.8979  12.9195  12.9195  13.1160  13.1160  13.1773  13.1773
    13.3790  13.3790  13.6384  13.6384  13.7595  13.7595  13.8432  13.8432
    13.9378  13.9378  14.2315  14.2315  14.2775  14.2775  14.3897  14.3897
    14.6613  14.6613  14.6983  14.6983  14.8245  14.8245  14.9179  14.9179
    14.9736  14.9736  15.1657  15.1657  15.1977  15.1977  15.4789  15.4789
    15.6079  15.6079  15.6957  15.6957  15.9534  15.9534  16.0553  16.0553
    16.1702  16.1702  16.4414  16.4414  16.4968  16.4968  16.7533  16.7533
    16.8789  16.8789  16.9496  16.9496  17.0889  17.0889  17.2041  17.2041
    17.2485  17.2485  17.3971  17.3971  17.4992  17.4992  17.6459  17.6459
    17.8488  17.8488  17.8700  17.8700  18.1283  18.1283  18.1577  18.1577
    18.3204  18.3204  18.5542  18.5542  18.5560  18.5560  18.7681  18.7681
    18.9116  18.9117  18.9280  18.9281  19.0760  19.0761  19.1783  19.1783

          k =-0.5000-0.4625-0.3300 (173280 PWs)   bands (ev):

   -40.2621 -40.2621 -40.2621 -40.2621 -40.2277 -40.2277 -40.2277 -40.2276
   -40.2011 -40.2010 -40.2010 -40.2010 -40.1975 -40.1975 -40.1975 -40.1975
   -40.1975 -40.1975 -40.1975 -40.1975 -40.1656 -40.1656 -40.1656 -40.1656
   -40.1656 -40.1656 -40.1656 -40.1656 -40.1413 -40.1413 -40.1413 -40.1412
   -40.1412 -40.1412 -40.1412 -40.1412 -40.0933 -40.0933 -40.0933 -40.0932
   -40.0927 -40.0927 -40.0927 -40.0927 -40.0387 -40.0387 -40.0387 -40.0387
   -40.0387 -40.0387 -40.0387 -40.0386 -40.0384 -40.0384 -40.0384 -40.0384
   -40.0384 -40.0384 -40.0383 -40.0383 -15.9591 -15.9591 -15.9591 -15.9591
   -12.9039 -12.9039 -12.9039 -12.9038 -12.8890 -12.8890 -12.8890 -12.8889
   -12.8795 -12.8794 -12.8794 -12.8794 -12.8647 -12.8646 -12.8646 -12.8646
   -12.8574 -12.8574 -12.8574 -12.8573  -8.9528  -8.9528  -8.9528  -8.9528
    -7.9249  -7.9249  -7.9249  -7.9249  -7.7333  -7.7333  -7.7332  -7.7332
    -7.5972  -7.5972  -7.5972  -7.5972  -5.4529  -5.4529  -5.4529  -5.4529
    -5.4258  -5.4258  -5.4258  -5.4258  -3.8218  -3.8217  -3.8217  -3.8217
    -3.3379  -3.3379  -3.3379  -3.3379  -1.2855  -1.2855  -1.2855  -1.2855
    -1.2578  -1.2578  -1.2578  -1.2578   0.8775   0.8775   0.8775   0.8775
     1.4478   1.4478   1.4478   1.4478   1.8858   1.8858   1.8858   1.8858
     2.1675   2.1675   2.1675   2.1675   2.4882   2.4882   2.4882   2.4882
     2.6255   2.6255   2.6255   2.6255   2.7057   2.7057   2.7057   2.7057
     2.8843   2.8843   2.8843   2.8843   2.9758   2.9758   2.9758   2.9758
     5.9269   5.9269   5.9269   5.9269   7.0420   7.0420   7.0420   7.0420
     8.1591   8.1591   8.1591   8.1592   8.4461   8.4461   8.4461   8.4461
     9.3684   9.3684   9.3684   9.3684   9.7376   9.7376   9.7376   9.7376
     9.8330   9.8330   9.8330   9.8330  10.0964  10.0964  10.0964  10.0964
    10.4557  10.4557  10.4557  10.4557  10.6057  10.6058  10.6058  10.6058
    10.8311  10.8311  10.8311  10.8311  11.2597  11.2598  11.2598  11.2598
    11.5547  11.5547  11.5547  11.5547  12.0796  12.0796  12.0796  12.0796
    12.3191  12.3191  12.3191  12.3191  12.5077  12.5077  12.5077  12.5077
    12.8328  12.8328  12.8328  12.8328  13.1812  13.1812  13.1812  13.1812
    13.5107  13.5107  13.5107  13.5107  13.8537  13.8537  13.8537  13.8538
    14.0695  14.0695  14.0695  14.0695  14.3756  14.3756  14.3756  14.3756
    14.5809  14.5809  14.5809  14.5809  14.8885  14.8885  14.8885  14.8885
    15.0528  15.0528  15.0528  15.0528  15.4230  15.4230  15.4230  15.4230
    15.7475  15.7475  15.7475  15.7475  16.0405  16.0405  16.0405  16.0405
    16.4401  16.4401  16.4401  16.4401  16.6487  16.6487  16.6487  16.6487
    16.9161  16.9161  16.9161  16.9161  17.0946  17.0946  17.0946  17.0946
    17.3373  17.3373  17.3374  17.3374  17.5119  17.5119  17.5119  17.5119
    17.8405  17.8405  17.8405  17.8405  18.0720  18.0720  18.0720  18.0720
    18.2087  18.2087  18.2087  18.2087  18.6572  18.6572  18.6572  18.6572
    18.8269  18.8269  18.8269  18.8271  19.1260  19.1262  19.1263  19.1263

     the Fermi energy is     4.5043 ev
     (compare with:     4.5052 eV, computed in scf)

     Writing all to output data dir out/mp-995214.save/
 
     init_run     :      2.35s CPU      2.47s WALL (       1 calls)
     electrons    :   4110.03s CPU   4242.19s WALL (       1 calls)

     Called by init_run:
     wfcinit      :      0.00s CPU      0.00s WALL (       1 calls)
     potinit      :      0.23s CPU      0.28s WALL (       1 calls)
     hinit0       :      1.65s CPU      1.70s WALL (       1 calls)

     Called by electrons:
     c_bands      :   4110.03s CPU   4242.18s WALL (       1 calls)
     v_of_rho     :      0.20s CPU      0.24s WALL (       1 calls)

     Called by c_bands:
     init_us_2    :      1.26s CPU      1.30s WALL (      27 calls)
     init_us_2:cp :      1.26s CPU      1.30s WALL (      27 calls)
     cegterg      :   3934.81s CPU   4058.68s WALL (      59 calls)

     Called by *egterg:
     cdiaghg      :    178.74s CPU    190.68s WALL (     982 calls)
     h_psi        :   1855.09s CPU   1961.44s WALL (    1041 calls)
     g_psi        :     15.56s CPU     15.58s WALL (     955 calls)

     Called by h_psi:
     h_psi:calbec :    324.10s CPU    324.82s WALL (    1041 calls)
     vloc_psi     :   1178.62s CPU   1281.33s WALL (    1041 calls)
     add_vuspsi   :    340.76s CPU    340.86s WALL (    1041 calls)

     General routines
     calbec       :    324.10s CPU    324.82s WALL (    1041 calls)
     fft          :      0.08s CPU      0.12s WALL (      10 calls)
     fftw         :    999.76s CPU   1101.29s WALL (  288726 calls)
 
     Parallel routines
 
     PWSCF        :      1h 8m CPU      1h11m WALL

 
   This run was terminated on:  22:56:28   3Jan2024            

=------------------------------------------------------------------------------=
   JOB DONE.
=------------------------------------------------------------------------------=
