
     Program PWSCF v.7.1 starts on  3Jan2024 at 15:14:48 

     This program is part of the open-source Quantum ESPRESSO suite
     for quantum simulation of materials; please cite
         "P. Giannozzi et al., J. Phys.:Condens. Matter 21 395502 (2009);
         "P. Giannozzi et al., J. Phys.:Condens. Matter 29 465901 (2017);
         "P. Giannozzi et al., J. Chem. Phys. 152 154105 (2020);
          URL http://www.quantum-espresso.org", 
     in publications or presentations arising from this work. More details at
     http://www.quantum-espresso.org/quote

     Parallel version (MPI), running on     8 processors

     MPI processes distributed on     1 nodes
     120958 MiB available memory on the printing compute node when the environment starts
 
     Reading input from pw_mp-1228891_emass_k3000_E130.in
Warning: card &IONS ignored
Warning: card / ignored
Warning: card &CELL ignored
Warning: card / ignored

     Current dimensions of program PWSCF are:
     Max number of different atomic species (ntypx) = 10
     Max number of k-points (npk) =  40000
     Max angular momentum in pseudopotentials (lmaxx) =  4

     Atomic positions and unit cell read from directory:
     out/mp-1228891.save/
     Atomic positions from file used, from input discarded
 
 
     R & G space division:  proc/nbgrp/npool/nimage =       8
     Subspace diagonalization in iterative solution of the eigenvalue problem:
     a serial algorithm will be used

 
     Parallelization info
     --------------------
     sticks:   dense  smooth     PW     G-vecs:    dense   smooth      PW
     Min         493     493    122                15414    15414    1924
     Max         494     494    123                15416    15416    1926
     Sum        3949    3949    981               123323   123323   15399
 
     Using Slab Decomposition
 


     bravais-lattice index     =            5
     lattice parameter (alat)  =      13.1213  a.u.
     unit-cell volume          =     615.5599 (a.u.)^3
     number of atoms/cell      =            4
     number of atomic types    =            3
     number of electrons       =        34.00
     number of Kohn-Sham states=           34
     kinetic-energy cutoff     =     130.0000  Ry
     charge density cutoff     =     520.0000  Ry
     Exchange-correlation= PBE
                           (   1   4   3   4   0   0   0)

     celldm(1)=  13.121299  celldm(2)=   0.000000  celldm(3)=   0.000000
     celldm(4)=   0.833126  celldm(5)=   0.000000  celldm(6)=   0.000000

     crystal axes: (cart. coord. in units of alat)
               a(1) = (   0.288855  -0.166770   0.942736 )  
               a(2) = (   0.000000   0.333541   0.942736 )  
               a(3) = (  -0.288855  -0.166770   0.942736 )  

     reciprocal axes: (cart. coord. in units 2 pi/alat)
               b(1) = (  1.730973 -0.999378  0.353581 )  
               b(2) = (  0.000000  1.998756  0.353581 )  
               b(3) = ( -1.730973 -0.999378  0.353581 )  


     PseudoPot. # 1 for Al read from file:
     /usr/scratch4/magr4985/MG/devEb/pseudo/SG15/Al.upf
     MD5 check sum: 61098d588df6d88baccfd5e59f8f1e90
     Pseudo is Norm-conserving, Zval = 11.0
     Generated using ONCVPSP code by D. R. Hamann
     Using radial grid of  602 points,  4 beta functions with: 
                l(1) =   0
                l(2) =   0
                l(3) =   1
                l(4) =   1

     PseudoPot. # 2 for As read from file:
     /usr/scratch4/magr4985/MG/devEb/pseudo/SG15/As.upf
     MD5 check sum: 9287b06f236f995c7c1687fbaedab6b2
     Pseudo is Norm-conserving, Zval =  5.0
     Generated using ONCVPSP code by D. R. Hamann
     Using radial grid of  602 points,  6 beta functions with: 
                l(1) =   0
                l(2) =   0
                l(3) =   1
                l(4) =   1
                l(5) =   2
                l(6) =   2

     PseudoPot. # 3 for Ga read from file:
     /usr/scratch4/magr4985/MG/devEb/pseudo/SG15/Ga.upf
     MD5 check sum: e59e05528b6bde9b2cf5d4427c1b4355
     Pseudo is Norm-conserving, Zval = 13.0
     Generated using ONCVPSP code by D. R. Hamann
     Using radial grid of  602 points,  6 beta functions with: 
                l(1) =   0
                l(2) =   0
                l(3) =   1
                l(4) =   1
                l(5) =   2
                l(6) =   2

     atomic species   valence    mass     pseudopotential
        Al            11.00    26.98150     Al( 1.00)
        As             5.00    74.92160     As( 1.00)
        Ga            13.00    69.72300     Ga( 1.00)

      6 Sym. Ops. (no inversion) found



   Cartesian axes

     site n.     atom                  positions (alat units)
         1           Al  tau(   1) = (   0.0000000  -0.0000000   0.0006819  )
         2           Ga  tau(   2) = (   0.0000000   0.0000000   1.4137388  )
         3           As  tau(   3) = (   0.0000000  -0.0000000   2.4751217  )
         4           As  tau(   4) = (   0.0000000   0.0000000   1.0598170  )

     number of k points=     7  Gaussian smearing, width (Ry)=  0.0005
                       cart. coord. in units 2pi/alat
        k(    1) = (   0.0000000   0.0000000   0.0000000), wk =   0.2857143
        k(    2) = (   0.0100000   0.0000000   0.0000000), wk =   0.2857143
        k(    3) = (  -0.0100000   0.0000000   0.0000000), wk =   0.2857143
        k(    4) = (   0.0000000   0.0100000   0.0000000), wk =   0.2857143
        k(    5) = (   0.0000000  -0.0100000   0.0000000), wk =   0.2857143
        k(    6) = (   0.0000000   0.0000000   0.0100000), wk =   0.2857143
        k(    7) = (   0.0000000   0.0000000  -0.0100000), wk =   0.2857143

     Dense  grid:   123323 G-vectors     FFT dimensions: (  96,  96,  96)

     Estimated max dynamical RAM per process >      27.43 MB

     Estimated total dynamical RAM >     219.45 MB

     The potential is recalculated from file :
     out/mp-1228891.save/charge-density

     Starting wfcs are random

     Band Structure Calculation
     ParO style diagonalization

     ethr =  5.00E-06,  avg # of iterations = 22.4

     total cpu time spent up to now is       13.7 secs

     End of band structure calculation

          k = 0.0000 0.0000 0.0000 ( 15399 PWs)   bands (ev):

   -96.5921 -58.0810 -58.0805 -58.0805  -8.1293  -8.0811  -8.0811  -8.0167
    -8.0167  -5.7566  -4.1622   0.4256   5.4985   5.4985   6.4807   6.5029
     6.5029   7.3776   8.4033  10.4916  10.4916  10.4954  11.1337  11.1337
    14.2362  14.6531  15.9744  15.9744  17.2770  17.8816  17.8816  17.9710
    18.4780  18.4780

          k = 0.0100 0.0000 0.0000 ( 15399 PWs)   bands (ev):

   -96.5921 -58.0810 -58.0805 -58.0805  -8.1293  -8.0811  -8.0811  -8.0167
    -8.0167  -5.7563  -4.1621   0.4258   5.4960   5.4981   6.4793   6.4982
     6.5024   7.3831   8.4057  10.4915  10.4923  10.4959  11.1328  11.1347
    14.2376  14.6545  15.9715  15.9735  17.2740  17.8825  17.8833  17.9726
    18.4723  18.4741

          k =-0.0100 0.0000 0.0000 ( 15399 PWs)   bands (ev):

   -96.5921 -58.0810 -58.0805 -58.0805  -8.1293  -8.0811  -8.0811  -8.0167
    -8.0167  -5.7563  -4.1621   0.4258   5.4960   5.4981   6.4793   6.4982
     6.5024   7.3831   8.4057  10.4915  10.4923  10.4959  11.1328  11.1347
    14.2376  14.6545  15.9715  15.9735  17.2740  17.8825  17.8833  17.9726
    18.4723  18.4741

          k = 0.0000 0.0100 0.0000 ( 15399 PWs)   bands (ev):

   -96.5921 -58.0810 -58.0805 -58.0805  -8.1293  -8.0811  -8.0811  -8.0167
    -8.0167  -5.7563  -4.1621   0.4258   5.4960   5.4981   6.4793   6.4982
     6.5024   7.3831   8.4057  10.4915  10.4924  10.4959  11.1328  11.1347
    14.2376  14.6545  15.9715  15.9736  17.2740  17.8825  17.8833  17.9726
    18.4723  18.4741

          k = 0.0000-0.0100 0.0000 ( 15399 PWs)   bands (ev):

   -96.5921 -58.0810 -58.0805 -58.0805  -8.1293  -8.0811  -8.0811  -8.0167
    -8.0167  -5.7563  -4.1621   0.4258   5.4960   5.4981   6.4793   6.4982
     6.5024   7.3831   8.4057  10.4915  10.4924  10.4959  11.1328  11.1347
    14.2376  14.6545  15.9715  15.9736  17.2740  17.8825  17.8833  17.9726
    18.4723  18.4741

          k = 0.0000 0.0000 0.0100 ( 15399 PWs)   bands (ev):

   -96.5921 -58.0810 -58.0805 -58.0805  -8.1293  -8.0811  -8.0811  -8.0167
    -8.0167  -5.7563  -4.1628   0.4267   5.4987   5.4987   6.4752   6.5026
     6.5026   7.3813   8.4045  10.4921  10.4921  10.4956  11.1338  11.1338
    14.2363  14.6545  15.9726  15.9726  17.2724  17.8810  17.8810  17.9699
    18.4702  18.4702

          k = 0.0000 0.0000-0.0100 ( 15399 PWs)   bands (ev):

   -96.5921 -58.0810 -58.0805 -58.0805  -8.1293  -8.0811  -8.0811  -8.0167
    -8.0167  -5.7563  -4.1628   0.4267   5.4987   5.4987   6.4752   6.5026
     6.5026   7.3813   8.4045  10.4921  10.4921  10.4956  11.1338  11.1338
    14.2363  14.6545  15.9726  15.9726  17.2724  17.8810  17.8810  17.9699
    18.4702  18.4702

     the Fermi energy is     6.8410 ev
     (compare with:     6.8410 eV, computed in scf)

     Writing all to output data dir out/mp-1228891.save/
 
     init_run     :      0.56s CPU      0.60s WALL (       1 calls)
     electrons    :     12.86s CPU     13.01s WALL (       1 calls)

     Called by init_run:
     wfcinit      :      0.00s CPU      0.00s WALL (       1 calls)
     potinit      :      0.08s CPU      0.10s WALL (       1 calls)
     hinit0       :      0.12s CPU      0.13s WALL (       1 calls)

     Called by electrons:
     c_bands      :     12.86s CPU     13.01s WALL (       1 calls)
     v_of_rho     :      0.07s CPU      0.08s WALL (       1 calls)

     Called by c_bands:
     init_us_2    :      0.01s CPU      0.01s WALL (       7 calls)
     init_us_2:cp :      0.01s CPU      0.01s WALL (       7 calls)
     paro_k       :     12.27s CPU     12.41s WALL (       7 calls)

     Called by paro_*:
     h_psi        :     11.09s CPU     11.20s WALL (     417 calls)
     g_psi        :      0.08s CPU      0.08s WALL (    6175 calls)

     Called by h_psi:
     h_psi:calbec :      0.29s CPU      0.30s WALL (     417 calls)
     vloc_psi     :     10.52s CPU     10.62s WALL (     417 calls)
     add_vuspsi   :      0.25s CPU      0.25s WALL (     417 calls)

     General routines
     calbec       :      0.29s CPU      0.30s WALL (     417 calls)
     fft          :      0.03s CPU      0.04s WALL (      10 calls)
     fftw         :      9.04s CPU      9.12s WALL (   10568 calls)
 
     Parallel routines
 
     PWSCF        :     13.52s CPU     13.73s WALL

 
   This run was terminated on:  15:15: 2   3Jan2024            

=------------------------------------------------------------------------------=
   JOB DONE.
=------------------------------------------------------------------------------=
