
     Program PWSCF v.7.1 starts on  8Apr2024 at 15:10:32 

     This program is part of the open-source Quantum ESPRESSO suite
     for quantum simulation of materials; please cite
         "P. Giannozzi et al., J. Phys.:Condens. Matter 21 395502 (2009);
         "P. Giannozzi et al., J. Phys.:Condens. Matter 29 465901 (2017);
         "P. Giannozzi et al., J. Chem. Phys. 152 154105 (2020);
          URL http://www.quantum-espresso.org", 
     in publications or presentations arising from this work. More details at
     http://www.quantum-espresso.org/quote

     Parallel version (MPI), running on    16 processors

     MPI processes distributed on     1 nodes
     247843 MiB available memory on the printing compute node when the environment starts
 
     Reading input from pw_mp-1550_scf_k3000_E65.in
Warning: card &CELL ignored
Warning: card / ignored

     Current dimensions of program PWSCF are:
     Max number of different atomic species (ntypx) = 10
     Max number of k-points (npk) =  40000
     Max angular momentum in pseudopotentials (lmaxx) =  4
 
     R & G space division:  proc/nbgrp/npool/nimage =      16
     Subspace diagonalization in iterative solution of the eigenvalue problem:
     a serial algorithm will be used

 
     Parallelization info
     --------------------
     sticks:   dense  smooth     PW     G-vecs:    dense   smooth      PW
     Min          59      59     18                 1222     1222     204
     Max          60      60     19                 1226     1226     206
     Sum         955     955    295                19603    19603    3287
 
     Using Slab Decomposition
 


     bravais-lattice index     =            2
     lattice parameter (alat)  =      10.3424  a.u.
     unit-cell volume          =     276.5700 (a.u.)^3
     number of atoms/cell      =            2
     number of atomic types    =            2
     number of electrons       =        16.00
     number of Kohn-Sham states=           16
     kinetic-energy cutoff     =      65.0000  Ry
     charge density cutoff     =     260.0000  Ry
     scf convergence threshold =      1.0E-10
     mixing beta               =       0.7000
     number of iterations used =            8  plain     mixing
     Exchange-correlation= PBE
                           (   1   4   3   4   0   0   0)

     celldm(1)=  10.342409  celldm(2)=   0.000000  celldm(3)=   0.000000
     celldm(4)=   0.000000  celldm(5)=   0.000000  celldm(6)=   0.000000

     crystal axes: (cart. coord. in units of alat)
               a(1) = (  -0.500000   0.000000   0.500000 )  
               a(2) = (   0.000000   0.500000   0.500000 )  
               a(3) = (  -0.500000   0.500000   0.000000 )  

     reciprocal axes: (cart. coord. in units 2 pi/alat)
               b(1) = ( -1.000000 -1.000000  1.000000 )  
               b(2) = (  1.000000  1.000000  1.000000 )  
               b(3) = ( -1.000000  1.000000 -1.000000 )  


     PseudoPot. # 1 for Al read from file:
     /usr/scratch4/magr4826/Promotion/Python/Code/devEb/pseudo/SG15/Al.upf
     MD5 check sum: 2d9e7bc02555220d62fad08c3c4858e7
     Pseudo is Norm-conserving, Zval = 11.0
     Generated using ONCVPSP code by D. R. Hamann
     Using radial grid of  602 points,  4 beta functions with: 
                l(1) =   0
                l(2) =   0
                l(3) =   1
                l(4) =   1

     PseudoPot. # 2 for P  read from file:
     /usr/scratch4/magr4826/Promotion/Python/Code/devEb/pseudo/SG15/P.upf
     MD5 check sum: 0688a67b2b263c6b42d3d97c42745426
     Pseudo is Norm-conserving, Zval =  5.0
     Generated using ONCVPSP code by D. R. Hamann
     Using radial grid of  602 points,  4 beta functions with: 
                l(1) =   0
                l(2) =   0
                l(3) =   1
                l(4) =   1

     atomic species   valence    mass     pseudopotential
        Al            11.00    26.98150     Al( 1.00)
        P              5.00    30.97380     P ( 1.00)

     24 Sym. Ops. (no inversion) found



   Cartesian axes

     site n.     atom                  positions (alat units)
         1           Al  tau(   1) = (   0.0000000   0.0000000   0.0000000  )
         2           P   tau(   2) = (  -0.7500000   0.7500000   0.7500000  )

     number of k points=    72  Gaussian smearing, width (Ry)=  0.0005
                       cart. coord. in units 2pi/alat
        k(    1) = (   0.0000000   0.0000000   0.0000000), wk =   0.0011574
        k(    2) = (  -0.0833333   0.0833333  -0.0833333), wk =   0.0092593
        k(    3) = (  -0.1666667   0.1666667  -0.1666667), wk =   0.0092593
        k(    4) = (  -0.2500000   0.2500000  -0.2500000), wk =   0.0092593
        k(    5) = (  -0.3333333   0.3333333  -0.3333333), wk =   0.0092593
        k(    6) = (  -0.4166667   0.4166667  -0.4166667), wk =   0.0092593
        k(    7) = (   0.5000000  -0.5000000   0.5000000), wk =   0.0046296
        k(    8) = (   0.0000000   0.1666667   0.0000000), wk =   0.0069444
        k(    9) = (  -0.0833333   0.2500000  -0.0833333), wk =   0.0277778
        k(   10) = (  -0.1666667   0.3333333  -0.1666667), wk =   0.0277778
        k(   11) = (  -0.2500000   0.4166667  -0.2500000), wk =   0.0277778
        k(   12) = (  -0.3333333   0.5000000  -0.3333333), wk =   0.0277778
        k(   13) = (   0.5833333  -0.4166667   0.5833333), wk =   0.0277778
        k(   14) = (   0.5000000  -0.3333333   0.5000000), wk =   0.0277778
        k(   15) = (   0.4166667  -0.2500000   0.4166667), wk =   0.0277778
        k(   16) = (   0.3333333  -0.1666667   0.3333333), wk =   0.0277778
        k(   17) = (   0.2500000  -0.0833333   0.2500000), wk =   0.0277778
        k(   18) = (   0.1666667  -0.0000000   0.1666667), wk =   0.0138889
        k(   19) = (   0.0000000   0.3333333   0.0000000), wk =   0.0069444
        k(   20) = (  -0.0833333   0.4166667  -0.0833333), wk =   0.0277778
        k(   21) = (  -0.1666667   0.5000000  -0.1666667), wk =   0.0277778
        k(   22) = (  -0.2500000   0.5833333  -0.2500000), wk =   0.0277778
        k(   23) = (   0.6666667  -0.3333333   0.6666667), wk =   0.0277778
        k(   24) = (   0.5833333  -0.2500000   0.5833333), wk =   0.0277778
        k(   25) = (   0.5000000  -0.1666667   0.5000000), wk =   0.0277778
        k(   26) = (   0.4166667  -0.0833333   0.4166667), wk =   0.0277778
        k(   27) = (   0.3333333   0.0000000   0.3333333), wk =   0.0138889
        k(   28) = (   0.0000000   0.5000000   0.0000000), wk =   0.0069444
        k(   29) = (  -0.0833333   0.5833333  -0.0833333), wk =   0.0277778
        k(   30) = (  -0.1666667   0.6666667  -0.1666667), wk =   0.0277778
        k(   31) = (   0.7500000  -0.2500000   0.7500000), wk =   0.0277778
        k(   32) = (   0.6666667  -0.1666667   0.6666667), wk =   0.0277778
        k(   33) = (   0.5833333  -0.0833333   0.5833333), wk =   0.0277778
        k(   34) = (   0.5000000   0.0000000   0.5000000), wk =   0.0138889
        k(   35) = (   0.0000000   0.6666667   0.0000000), wk =   0.0069444
        k(   36) = (  -0.0833333   0.7500000  -0.0833333), wk =   0.0277778
        k(   37) = (   0.8333333  -0.1666667   0.8333333), wk =   0.0277778
        k(   38) = (   0.7500000  -0.0833333   0.7500000), wk =   0.0277778
        k(   39) = (   0.6666667  -0.0000000   0.6666667), wk =   0.0138889
        k(   40) = (   0.0000000   0.8333333   0.0000000), wk =   0.0069444
        k(   41) = (   0.9166667  -0.0833333   0.9166667), wk =   0.0277778
        k(   42) = (   0.8333333   0.0000000   0.8333333), wk =   0.0138889
        k(   43) = (   0.0000000  -1.0000000   0.0000000), wk =   0.0034722
        k(   44) = (  -0.1666667   0.3333333   0.0000000), wk =   0.0277778
        k(   45) = (  -0.2500000   0.4166667  -0.0833333), wk =   0.0555556
        k(   46) = (  -0.3333333   0.5000000  -0.1666667), wk =   0.0555556
        k(   47) = (   0.5833333  -0.4166667   0.7500000), wk =   0.0555556
        k(   48) = (   0.5000000  -0.3333333   0.6666667), wk =   0.0277778
        k(   49) = (  -0.1666667   0.5000000   0.0000000), wk =   0.0277778
        k(   50) = (  -0.2500000   0.5833333  -0.0833333), wk =   0.0555556
        k(   51) = (   0.6666667  -0.3333333   0.8333333), wk =   0.0555556
        k(   52) = (   0.5833333  -0.2500000   0.7500000), wk =   0.0555556
        k(   53) = (   0.5000000  -0.1666667   0.6666667), wk =   0.0555556
        k(   54) = (   0.4166667  -0.0833333   0.5833333), wk =   0.0555556
        k(   55) = (   0.3333333   0.0000000   0.5000000), wk =   0.0277778
        k(   56) = (  -0.1666667   0.6666667  -0.0000000), wk =   0.0277778
        k(   57) = (   0.7500000  -0.2500000   0.9166667), wk =   0.0555556
        k(   58) = (   0.6666667  -0.1666667   0.8333333), wk =   0.0555556
        k(   59) = (   0.5833333  -0.0833333   0.7500000), wk =   0.0555556
        k(   60) = (   0.5000000   0.0000000   0.6666667), wk =   0.0277778
        k(   61) = (   0.8333333  -0.1666667   1.0000000), wk =   0.0277778
        k(   62) = (   0.7500000  -0.0833333   0.9166667), wk =   0.0555556
        k(   63) = (   0.6666667   0.0000000   0.8333333), wk =   0.0277778
        k(   64) = (  -0.1666667  -1.0000000  -0.0000000), wk =   0.0138889
        k(   65) = (   0.6666667  -0.3333333   1.0000000), wk =   0.0277778
        k(   66) = (   0.5833333  -0.2500000   0.9166667), wk =   0.0555556
        k(   67) = (   0.5000000  -0.1666667   0.8333333), wk =   0.0277778
        k(   68) = (   0.6666667  -0.1666667   1.0000000), wk =   0.0277778
        k(   69) = (   0.5833333  -0.0833333   0.9166667), wk =   0.0555556
        k(   70) = (   0.5000000   0.0000000   0.8333333), wk =   0.0277778
        k(   71) = (  -0.3333333  -1.0000000   0.0000000), wk =   0.0138889
        k(   72) = (  -0.5000000  -1.0000000   0.0000000), wk =   0.0069444

     Dense  grid:    19603 G-vectors     FFT dimensions: (  40,  40,  40)

     Estimated max dynamical RAM per process >       4.58 MB

     Estimated total dynamical RAM >      73.27 MB

     Initial potential from superposition of free atoms

     starting charge      15.8961, renormalised to      16.0000
     Starting wfcs are random

     total cpu time spent up to now is        0.6 secs

     Self-consistent Calculation

     iteration #  1     ecut=    65.00 Ry     beta= 0.70
     Davidson diagonalization with overlap
     c_bands:  1 eigenvalues not converged
     c_bands:  1 eigenvalues not converged
     c_bands:  1 eigenvalues not converged
     c_bands:  2 eigenvalues not converged
     c_bands:  1 eigenvalues not converged
     c_bands:  1 eigenvalues not converged
     c_bands:  1 eigenvalues not converged
     c_bands:  1 eigenvalues not converged
     c_bands:  2 eigenvalues not converged
     c_bands:  1 eigenvalues not converged
     c_bands:  2 eigenvalues not converged
     c_bands:  1 eigenvalues not converged
     c_bands:  1 eigenvalues not converged
     c_bands:  1 eigenvalues not converged
     c_bands:  2 eigenvalues not converged
     c_bands:  2 eigenvalues not converged
     c_bands:  1 eigenvalues not converged
     c_bands:  1 eigenvalues not converged
     c_bands:  1 eigenvalues not converged
     c_bands:  1 eigenvalues not converged
     c_bands:  1 eigenvalues not converged
     c_bands:  1 eigenvalues not converged
     c_bands:  1 eigenvalues not converged
     c_bands:  1 eigenvalues not converged
     ethr =  5.00E-06,  avg # of iterations = 18.2

     total cpu time spent up to now is        2.6 secs

     total energy              =    -151.67060224 Ry
     estimated scf accuracy    <       0.10685870 Ry

     iteration #  2     ecut=    65.00 Ry     beta= 0.70
     Davidson diagonalization with overlap
     ethr =  6.68E-04,  avg # of iterations =  2.4

     total cpu time spent up to now is        3.1 secs

     total energy              =    -151.69375585 Ry
     estimated scf accuracy    <       0.01879785 Ry

     iteration #  3     ecut=    65.00 Ry     beta= 0.70
     Davidson diagonalization with overlap
     ethr =  1.17E-04,  avg # of iterations =  2.1

     total cpu time spent up to now is        3.6 secs

     total energy              =    -151.69706763 Ry
     estimated scf accuracy    <       0.00054819 Ry

     iteration #  4     ecut=    65.00 Ry     beta= 0.70
     Davidson diagonalization with overlap
     ethr =  3.43E-06,  avg # of iterations =  3.9

     total cpu time spent up to now is        4.1 secs

     total energy              =    -151.69709215 Ry
     estimated scf accuracy    <       0.00000699 Ry

     iteration #  5     ecut=    65.00 Ry     beta= 0.70
     Davidson diagonalization with overlap
     ethr =  4.37E-08,  avg # of iterations =  6.1

     total cpu time spent up to now is        4.7 secs

     total energy              =    -151.69709435 Ry
     estimated scf accuracy    <       0.00000016 Ry

     iteration #  6     ecut=    65.00 Ry     beta= 0.70
     Davidson diagonalization with overlap
     ethr =  1.01E-09,  avg # of iterations =  5.6

     total cpu time spent up to now is        5.3 secs

     total energy              =    -151.69709440 Ry
     estimated scf accuracy    <          3.4E-09 Ry

     iteration #  7     ecut=    65.00 Ry     beta= 0.70
     Davidson diagonalization with overlap
     ethr =  2.10E-11,  avg # of iterations =  5.2

     total cpu time spent up to now is        5.8 secs

     total energy              =    -151.69709440 Ry
     estimated scf accuracy    <          1.6E-10 Ry

     iteration #  8     ecut=    65.00 Ry     beta= 0.70
     Davidson diagonalization with overlap
     ethr =  9.77E-13,  avg # of iterations =  5.1

     total cpu time spent up to now is        6.3 secs

     End of self-consistent calculation

          k = 0.0000 0.0000 0.0000 (  2445 PWs)   bands (ev):

   -96.2795 -57.7718 -57.7718 -57.7718  -5.2917   6.1831   6.1831   6.1831
     9.4032  10.7296  10.7296  10.7296  15.0398  15.0398  16.4296  18.4360

          k =-0.0833 0.0833-0.0833 (  2442 PWs)   bands (ev):

   -96.2794 -57.7718 -57.7718 -57.7718  -5.2152   5.5499   6.1128   6.1128
     9.7561  10.8675  10.8675  10.8729  14.7663  14.7663  16.7888  18.1170

          k =-0.1667 0.1667-0.1667 (  2475 PWs)   bands (ev):

   -96.2798 -57.7719 -57.7718 -57.7718  -4.9911   4.3122   5.9405   5.9406
     9.7642  11.1630  11.1630  11.7981  14.3992  14.3992  17.0171  18.3118

          k =-0.2500 0.2500-0.2500 (  2451 PWs)   bands (ev):

   -96.2796 -57.7720 -57.7718 -57.7718  -4.6399   3.0159   5.7403   5.7403
     9.4745  11.3226  11.3226  13.0616  14.5243  14.5243  16.5357  19.8230

          k =-0.3333 0.3333-0.3333 (  2448 PWs)   bands (ev):

   -96.2796 -57.7721 -57.7719 -57.7719  -4.2096   1.8607   5.5689   5.5689
     9.2040  11.2280  11.2280  14.0714  15.3171  15.3171  16.4763  21.4135

          k =-0.4167 0.4167-0.4167 (  2449 PWs)   bands (ev):

   -96.2797 -57.7721 -57.7719 -57.7719  -3.8082   1.0095   5.4573   5.4573
     9.0278  11.0720  11.0720  14.4137  16.5647  16.5647  17.2424  20.1311

          k = 0.5000-0.5000 0.5000 (  2452 PWs)   bands (ev):

   -96.2797 -57.7722 -57.7719 -57.7719  -3.6305   0.6796   5.4189   5.4189
     8.9675  11.0062  11.0062  14.4387  17.7008  17.7008  17.9500  18.7908

          k = 0.0000 0.1667 0.0000 (  2457 PWs)   bands (ev):

   -96.2796 -57.7718 -57.7718 -57.7718  -5.1896   5.6020   5.9522   5.9522
    10.0102  10.4314  11.1004  11.1004  14.2389  15.1702  16.9363  18.6476

          k =-0.0833 0.2500-0.0833 (  2462 PWs)   bands (ev):

   -96.2797 -57.7719 -57.7718 -57.7718  -5.0144   4.6501   5.7211   5.8365
    10.1505  10.5460  11.4948  11.6848  13.7550  15.1079  17.5220  18.3589

          k =-0.1667 0.3333-0.1667 (  2455 PWs)   bands (ev):

   -96.2796 -57.7720 -57.7718 -57.7718  -4.7043   3.4187   5.5005   5.6388
     9.8907  10.9417  11.7666  12.2767  14.0720  15.1712  17.1895  19.4158

          k =-0.2500 0.4167-0.2500 (  2457 PWs)   bands (ev):

   -96.2797 -57.7720 -57.7719 -57.7719  -4.2960   2.2412   5.3423   5.3896
     9.6345  11.0092  11.7161  12.9568  15.0650  15.8260  16.8836  20.9371

          k =-0.3333 0.5000-0.3333 (  2447 PWs)   bands (ev):

   -96.2796 -57.7721 -57.7719 -57.7719  -3.8725   1.2919   5.1618   5.2707
     9.4524  10.8818  11.4953  13.9254  15.7283  16.9701  17.4539  19.9254

          k = 0.5833-0.4167 0.5833 (  2447 PWs)   bands (ev):

   -96.2796 -57.7721 -57.7719 -57.7719  -3.6007   0.7754   4.9982   5.2918
     9.3743  10.8305  11.3037  14.5664  16.4166  17.6845  18.3523  18.9157

          k = 0.5000-0.3333 0.5000 (  2445 PWs)   bands (ev):

   -96.2796 -57.7721 -57.7719 -57.7719  -3.6616   0.8864   4.9228   5.3991
     9.4082  10.9264  11.2268  14.5773  16.2702  16.8890  18.4247  18.8097

          k = 0.4167-0.2500 0.4167 (  2447 PWs)   bands (ev):

   -96.2796 -57.7721 -57.7719 -57.7719  -4.0082   1.5748   4.9495   5.5759
     9.5506  11.1474  11.2644  14.0127  14.9259  16.4524  17.4956  19.9337

          k = 0.3333-0.1667 0.3333 (  2455 PWs)   bands (ev):

   -96.2797 -57.7720 -57.7719 -57.7718  -4.4403   2.6168   5.0848   5.7926
     9.7876  11.3124  11.3539  13.0658  14.0017  15.8291  17.0075  20.2402

          k = 0.2500-0.0833 0.2500 (  2464 PWs)   bands (ev):

   -96.2797 -57.7719 -57.7718 -57.7718  -4.8218   3.8138   5.3305   6.0006
    10.0722  11.1602  11.1737  12.2738  13.7528  15.0242  17.4335  18.8040

          k = 0.1667-0.0000 0.1667 (  2473 PWs)   bands (ev):

   -96.2798 -57.7719 -57.7718 -57.7718  -5.0893   4.9211   5.7034   6.1293
    10.1157  10.7414  10.9244  11.5808  14.1333  14.8426  17.3166  18.2526

          k = 0.0000 0.3333 0.0000 (  2473 PWs)   bands (ev):

   -96.2798 -57.7719 -57.7718 -57.7718  -4.8897   4.4813   5.4402   5.4402
     9.7672  10.8152  12.0257  12.0257  13.3063  15.5602  18.2213  19.2678

          k =-0.0833 0.4167-0.0833 (  2461 PWs)   bands (ev):

   -96.2797 -57.7720 -57.7719 -57.7719  -4.6273   3.6219   5.1867   5.1894
     9.6091  10.8197  12.1675  12.4872  13.9751  15.7817  18.5254  19.5139

          k =-0.1667 0.5000-0.1667 (  2451 PWs)   bands (ev):

   -96.2796 -57.7720 -57.7719 -57.7719  -4.2558   2.5856   4.8522   5.0132
     9.5788  11.1213  11.9549  12.5874  15.3336  16.3548  18.0611  20.7536

          k =-0.2500 0.5833-0.2500 (  2450 PWs)   bands (ev):

   -96.2797 -57.7721 -57.7719 -57.7719  -3.8393   1.6503   4.4892   4.9445
     9.4973  11.3504  12.3821  12.4101  16.3520  17.4182  18.1337  19.8143

          k = 0.6667-0.3333 0.6667 (  2450 PWs)   bands (ev):

   -96.2797 -57.7721 -57.7719 -57.7719  -3.5116   1.0292   4.1901   4.9868
     9.4988  11.2516  12.1163  13.5706  16.4078  17.6871  18.8807  19.2056

          k = 0.5833-0.2500 0.5833 (  2444 PWs)   bands (ev):

   -96.2796 -57.7721 -57.7719 -57.7719  -3.4591   0.9407   4.0047   5.1326
     9.6406  11.2155  11.9222  14.4648  16.1204  16.2776  18.3248  20.4593

          k = 0.5000-0.1667 0.5000 (  2445 PWs)   bands (ev):

   -96.2796 -57.7721 -57.7719 -57.7719  -3.7205   1.4215   3.9670   5.3607
     9.9108  11.2954  11.8277  13.8739  14.7049  17.0416  18.5671  19.4764

          k = 0.4167-0.0833 0.4167 (  2449 PWs)   bands (ev):

   -96.2796 -57.7720 -57.7719 -57.7719  -4.1273   2.2550   4.1223   5.6304
    10.2499  11.4343  11.7460  12.8042  13.7082  17.3542  18.2884  19.4638

          k = 0.3333 0.0000 0.3333 (  2445 PWs)   bands (ev):

   -96.2795 -57.7720 -57.7719 -57.7718  -4.5216   3.1388   4.5670   5.8744
    10.4896  11.2109  11.4771  12.3269  13.4159  16.1272  18.5696  18.6524

          k = 0.0000 0.5000 0.0000 (  2429 PWs)   bands (ev):

   -96.2793 -57.7720 -57.7719 -57.7719  -4.4154   3.2912   4.8992   4.8992
     9.0459  10.2675  13.2407  13.2407  14.1244  16.2061  19.8553  20.1829

          k =-0.0833 0.5833-0.0833 (  2452 PWs)   bands (ev):

   -96.2797 -57.7720 -57.7719 -57.7719  -4.0915   2.5927   4.5487   4.6967
     8.9298  10.0326  13.3102  13.6543  15.4468  16.7538  19.5917  20.6705

          k =-0.1667 0.6667-0.1667 (  2440 PWs)   bands (ev):

   -96.2795 -57.7721 -57.7719 -57.7719  -3.7074   1.8581   4.0301   4.6070
     8.9476  10.5101  13.1175  13.5789  16.8510  17.7838  19.1287  19.7705

          k = 0.7500-0.2500 0.7500 (  2437 PWs)   bands (ev):

   -96.2795 -57.7721 -57.7720 -57.7719  -3.3691   1.2976   3.5351   4.6394
     8.9847  11.4873  13.0474  13.2966  16.9673  17.7705  19.4885  19.6442

          k = 0.6667-0.1667 0.6667 (  2432 PWs)   bands (ev):

   -96.2794 -57.7721 -57.7720 -57.7719  -3.2382   1.1135   3.1939   4.7891
     9.1631  12.2059  13.0132  13.5135  15.9335  16.1346  19.7107  21.0892

          k = 0.5833-0.0833 0.5833 (  2444 PWs)   bands (ev):

   -96.2796 -57.7721 -57.7720 -57.7719  -3.4005   1.3749   3.0934   5.0369
     9.5020  12.3687  12.7619  13.6613  14.7133  15.8154  19.7465  21.2477

          k = 0.5000 0.0000 0.5000 (  2437 PWs)   bands (ev):

   -96.2795 -57.7721 -57.7720 -57.7719  -3.7486   1.8502   3.3719   5.3420
     9.9501  12.2710  12.3710  12.7456  13.8393  17.2297  19.4163  19.8654

          k = 0.0000 0.6667 0.0000 (  2453 PWs)   bands (ev):

   -96.2797 -57.7721 -57.7719 -57.7719  -3.8224   2.1715   4.4609   4.4609
     8.4086   9.3839  14.6052  14.6052  15.7417  17.0953  20.5944  20.5944

          k =-0.0833 0.7500-0.0833 (  2440 PWs)   bands (ev):

   -96.2795 -57.7721 -57.7719 -57.7719  -3.4943   1.6556   4.0756   4.3393
     8.3626   9.3463  14.7456  14.9272  17.0265  17.9465  19.6921  19.7509

          k = 0.8333-0.1667 0.8333 (  2450 PWs)   bands (ev):

   -96.2797 -57.7721 -57.7720 -57.7719  -3.1951   1.2817   3.4416   4.3449
     8.4735  10.0884  14.5665  14.7180  17.3195  17.9445  19.5755  19.5864

          k = 0.7500-0.0833 0.7500 (  2439 PWs)   bands (ev):

   -96.2795 -57.7721 -57.7720 -57.7719  -3.0510   1.1792   2.8825   4.4765
     8.6706  11.3197  14.3393  14.3935  15.9764  16.3440  20.8675  21.3048

          k = 0.6667-0.0000 0.6667 (  2440 PWs)   bands (ev):

   -96.2795 -57.7721 -57.7720 -57.7719  -3.1385   1.2999   2.6802   4.7190
     9.0213  12.5720  13.7416  13.9572  15.0618  15.1539  21.4024  21.8372

          k = 0.0000 0.8333 0.0000 (  2446 PWs)   bands (ev):

   -96.2796 -57.7721 -57.7719 -57.7719  -3.2451   1.2715   4.1823   4.1823
     7.9487   8.8382  16.0529  16.0529  17.3239  18.1795  19.4275  19.4275

          k = 0.9167-0.0833 0.9167 (  2450 PWs)   bands (ev):

   -96.2797 -57.7721 -57.7720 -57.7719  -3.0397   1.0238   3.8296   4.1532
     8.0350   9.0158  16.2289  16.2379  17.5644  18.1568  19.1767  19.3552

          k = 0.8333 0.0000 0.8333 (  2436 PWs)   bands (ev):

   -96.2795 -57.7721 -57.7720 -57.7719  -2.9668   1.0366   3.2326   4.2549
     8.3040   9.9504  15.6000  15.9193  16.2342  16.9193  20.3008  20.8473

          k = 0.0000-1.0000 0.0000 (  2450 PWs)   bands (ev):

   -96.2797 -57.7722 -57.7720 -57.7720  -2.9748   0.8920   4.0872   4.0872
     7.7783   8.6644  17.1905  17.1905  18.1412  18.2532  18.2532  18.9916

          k =-0.1667 0.3333 0.0000 (  2450 PWs)   bands (ev):

   -96.2796 -57.7719 -57.7719 -57.7718  -4.7955   3.9528   5.1601   5.7682
    10.2033  10.6975  11.8299  12.0102  13.6694  15.3632  18.2586  18.5755

          k =-0.2500 0.4167-0.0833 (  2459 PWs)   bands (ev):

   -96.2797 -57.7720 -57.7719 -57.7718  -4.4535   2.9536   4.7312   5.5920
    10.1600  10.9807  11.9410  12.1781  14.1663  16.1449  17.9588  19.6412

          k =-0.3333 0.5000-0.1667 (  2454 PWs)   bands (ev):

   -96.2797 -57.7721 -57.7719 -57.7719  -4.0369   1.9369   4.4884   5.3579
    10.0040  10.9247  12.0825  12.6780  15.0468  17.0790  17.9364  19.7903

          k = 0.5833-0.4167 0.7500 (  2445 PWs)   bands (ev):

   -96.2796 -57.7721 -57.7719 -57.7719  -3.6521   1.1558   4.3697   5.1691
     9.8908  10.7084  11.9733  13.7772  15.8872  17.2555  18.4399  19.1774

          k = 0.5000-0.3333 0.6667 (  2438 PWs)   bands (ev):

   -96.2795 -57.7721 -57.7719 -57.7719  -3.4834   0.8501   4.3360   5.0968
     9.8536  10.6186  11.9179  14.5196  16.0241  17.1156  18.6549  19.0183

          k =-0.1667 0.5000 0.0000 (  2459 PWs)   bands (ev):

   -96.2797 -57.7720 -57.7719 -57.7719  -4.3332   2.9767   4.5958   5.1103
     9.5249  10.6230  12.2092  13.1183  14.6537  16.4377  19.2944  19.4130

          k =-0.2500 0.5833-0.0833 (  2443 PWs)   bands (ev):

   -96.2796 -57.7721 -57.7719 -57.7719  -3.9516   2.1876   4.1429   4.8935
     9.6176  10.9015  11.9677  13.4045  15.5042  17.6420  18.7880  19.8391

          k = 0.6667-0.3333 0.8333 (  2449 PWs)   bands (ev):

   -96.2797 -57.7721 -57.7719 -57.7719  -3.5655   1.4676   3.8141   4.7249
     9.6271  11.3358  12.1822  13.3410  16.3135  17.8869  18.7790  19.6601

          k = 0.5833-0.2500 0.7500 (  2442 PWs)   bands (ev):

   -96.2796 -57.7721 -57.7720 -57.7719  -3.3273   1.0671   3.5840   4.7105
     9.7220  11.1968  12.9686  13.5581  15.6028  17.6229  18.9657  19.6262

          k = 0.5000-0.1667 0.6667 (  2442 PWs)   bands (ev):

   -96.2796 -57.7721 -57.7720 -57.7719  -3.3868   1.1718   3.4815   4.8521
     9.9512  11.0775  12.9706  13.6756  15.3112  16.6996  19.0181  20.5906

          k = 0.4167-0.0833 0.5833 (  2448 PWs)   bands (ev):

   -96.2796 -57.7721 -57.7720 -57.7719  -3.7007   1.7097   3.5729   5.1046
    10.2752  11.0703  12.3674  13.1185  14.8669  17.3243  19.1552  19.7520

          k = 0.3333 0.0000 0.5000 (  2446 PWs)   bands (ev):

   -96.2796 -57.7720 -57.7719 -57.7719  -4.0980   2.3878   3.9722   5.3915
    10.5051  11.0124  11.7272  12.7885  14.1917  17.6018  18.7991  19.2935

          k =-0.1667 0.6667-0.0000 (  2437 PWs)   bands (ev):

   -96.2795 -57.7721 -57.7719 -57.7719  -3.7608   2.0524   4.1487   4.4834
     8.9044   9.8396  13.3235  14.5541  16.0490  17.7966  19.4141  20.4048

          k = 0.7500-0.2500 0.9167 (  2441 PWs)   bands (ev):

   -96.2795 -57.7721 -57.7720 -57.7719  -3.4091   1.5478   3.6359   4.3062
     9.0666  10.3558  13.0397  14.8088  16.6509  18.2486  19.1624  20.0737

          k = 0.6667-0.1667 0.8333 (  2438 PWs)   bands (ev):

   -96.2795 -57.7721 -57.7720 -57.7719  -3.1572   1.2401   3.1405   4.3143
     9.2090  11.4140  12.8329  14.6092  15.7352  17.9420  19.2838  20.9086

          k = 0.5833-0.0833 0.7500 (  2445 PWs)   bands (ev):

   -96.2796 -57.7721 -57.7720 -57.7719  -3.1381   1.2512   2.8564   4.4836
     9.4709  12.0923  13.1534  13.9208  14.9507  16.5626  20.4915  21.1192

          k = 0.5000 0.0000 0.6667 (  2454 PWs)   bands (ev):

   -96.2797 -57.7721 -57.7720 -57.7719  -3.3604   1.4849   2.9631   4.7706
     9.8637  11.9193  12.5631  13.9546  14.8514  16.0694  20.6394  20.9644

          k = 0.8333-0.1667 1.0000 (  2447 PWs)   bands (ev):

   -96.2796 -57.7721 -57.7720 -57.7719  -3.2135   1.2923   3.8809   4.0463
     8.4571   9.3503  14.6174  16.0583  17.0209  18.5525  19.1774  19.5854

          k = 0.7500-0.0833 0.9167 (  2444 PWs)   bands (ev):

   -96.2796 -57.7721 -57.7720 -57.7719  -3.0154   1.1304   3.3160   4.0125
     8.7558  10.0819  14.2967  15.6478  16.4629  18.0938  19.3611  20.6517

          k = 0.6667 0.0000 0.8333 (  2448 PWs)   bands (ev):

   -96.2796 -57.7721 -57.7720 -57.7719  -2.9893   1.1951   2.8291   4.1839
     9.0578  11.3417  13.8568  14.2796  16.0175  16.8844  20.4936  21.6420

          k =-0.1667-1.0000-0.0000 (  2436 PWs)   bands (ev):

   -96.2795 -57.7721 -57.7720 -57.7720  -2.9630   0.9685   3.8089   3.8754
     8.2943   9.1943  15.8284  16.1830  17.3521  18.1095  19.2127  19.7400

          k = 0.6667-0.3333 1.0000 (  2433 PWs)   bands (ev):

   -96.2794 -57.7721 -57.7720 -57.7719  -3.5912   1.7695   3.5244   4.6002
    10.0425  11.0152  11.6672  14.3797  15.5044  17.6532  19.4995  20.2958

          k = 0.5833-0.2500 0.9167 (  2440 PWs)   bands (ev):

   -96.2795 -57.7721 -57.7720 -57.7719  -3.2720   1.3797   3.1759   4.3217
    10.2125  11.2426  12.0546  14.5378  15.3747  17.2351  19.8827  20.8983

          k = 0.5000-0.1667 0.8333 (  2442 PWs)   bands (ev):

   -96.2796 -57.7721 -57.7720 -57.7719  -3.1377   1.2082   3.0738   4.2121
    10.2418  11.1409  13.0482  13.8324  15.0354  18.0962  19.0469  20.6915

          k = 0.6667-0.1667 1.0000 (  2436 PWs)   bands (ev):

   -96.2795 -57.7721 -57.7720 -57.7719  -3.1346   1.3274   3.2990   3.8788
     9.6497  10.6227  12.6989  15.3360  16.0618  17.8904  19.8183  20.6933

          k = 0.5833-0.0833 0.9167 (  2446 PWs)   bands (ev):

   -96.2796 -57.7721 -57.7720 -57.7719  -2.9904   1.2573   2.9704   3.7487
    10.0189  11.5214  12.5266  13.7693  16.4206  18.2302  19.2655  21.2124

          k = 0.5000 0.0000 0.8333 (  2448 PWs)   bands (ev):

   -96.2796 -57.7721 -57.7720 -57.7719  -3.0476   1.3140   2.8587   3.9423
    10.2714  11.7941  12.2892  13.5816  16.0434  17.3415  20.1946  21.4328

          k =-0.3333-1.0000 0.0000 (  2450 PWs)   bands (ev):

   -96.2797 -57.7721 -57.7720 -57.7720  -2.9389   1.1545   3.2939   3.5322
     9.5087  10.4951  13.8112  14.1639  17.3926  18.0945  19.4314  20.1740

          k =-0.5000-1.0000 0.0000 (  2468 PWs)   bands (ev):

   -96.2799 -57.7721 -57.7720 -57.7720  -2.9266   1.2745   3.0343   3.3863
    10.5177  12.0926  12.3387  12.5354  17.4235  18.0946  19.4702  20.3318

     the Fermi energy is     7.1194 ev

!    total energy              =    -151.69709440 Ry
     estimated scf accuracy    <          9.3E-12 Ry
     smearing contrib. (-TS)   =      -0.00000000 Ry
     internal energy E=F+TS    =    -151.69709440 Ry

     The total energy is F=E-TS. E is the sum of the following terms:
     one-electron contribution =    -104.96578371 Ry
     hartree contribution      =      45.56877134 Ry
     xc contribution           =     -19.04801515 Ry
     ewald contribution        =     -73.25206687 Ry

     convergence has been achieved in   8 iterations

     Writing all to output data dir out/mp-1550.save/
 
     init_run     :      0.26s CPU      0.33s WALL (       1 calls)
     electrons    :      5.06s CPU      5.78s WALL (       1 calls)

     Called by init_run:
     wfcinit      :      0.23s CPU      0.26s WALL (       1 calls)
     potinit      :      0.01s CPU      0.01s WALL (       1 calls)
     hinit0       :      0.00s CPU      0.04s WALL (       1 calls)

     Called by electrons:
     c_bands      :      4.62s CPU      5.22s WALL (       8 calls)
     sum_band     :      0.43s CPU      0.44s WALL (       8 calls)
     v_of_rho     :      0.01s CPU      0.02s WALL (       9 calls)
     mix_rho      :      0.00s CPU      0.00s WALL (       8 calls)

     Called by c_bands:
     init_us_2    :      0.02s CPU      0.03s WALL (    1224 calls)
     init_us_2:cp :      0.02s CPU      0.02s WALL (    1224 calls)
     cegterg      :      4.56s CPU      4.72s WALL (     576 calls)

     Called by *egterg:
     cdiaghg      :      0.90s CPU      0.93s WALL (    4076 calls)
     h_psi        :      3.56s CPU      3.71s WALL (    4148 calls)
     g_psi        :      0.01s CPU      0.01s WALL (    3500 calls)

     Called by h_psi:
     h_psi:calbec :      0.06s CPU      0.07s WALL (    4148 calls)
     vloc_psi     :      3.46s CPU      3.59s WALL (    4148 calls)
     add_vuspsi   :      0.03s CPU      0.03s WALL (    4148 calls)

     General routines
     calbec       :      0.06s CPU      0.06s WALL (    4148 calls)
     fft          :      0.01s CPU      0.04s WALL (      89 calls)
     ffts         :      0.00s CPU      0.00s WALL (       8 calls)
     fftw         :      3.59s CPU      3.74s WALL (   87712 calls)
 
     Parallel routines
 
     PWSCF        :      5.49s CPU      7.72s WALL

 
   This run was terminated on:  15:10:40   8Apr2024            

=------------------------------------------------------------------------------=
   JOB DONE.
=------------------------------------------------------------------------------=
