
     Program PWSCF v.7.1 starts on  8Apr2024 at 15:12:55 

     This program is part of the open-source Quantum ESPRESSO suite
     for quantum simulation of materials; please cite
         "P. Giannozzi et al., J. Phys.:Condens. Matter 21 395502 (2009);
         "P. Giannozzi et al., J. Phys.:Condens. Matter 29 465901 (2017);
         "P. Giannozzi et al., J. Chem. Phys. 152 154105 (2020);
          URL http://www.quantum-espresso.org", 
     in publications or presentations arising from this work. More details at
     http://www.quantum-espresso.org/quote

     Parallel version (MPI), running on    16 processors

     MPI processes distributed on     1 nodes
     245403 MiB available memory on the printing compute node when the environment starts
 
     Reading input from pw_mp-23193_scf_k3000_E65.in
Warning: card &CELL ignored
Warning: card / ignored

     Current dimensions of program PWSCF are:
     Max number of different atomic species (ntypx) = 10
     Max number of k-points (npk) =  40000
     Max angular momentum in pseudopotentials (lmaxx) =  4
 
     R & G space division:  proc/nbgrp/npool/nimage =      16
     Subspace diagonalization in iterative solution of the eigenvalue problem:
     a serial algorithm will be used

 
     Parallelization info
     --------------------
     sticks:   dense  smooth     PW     G-vecs:    dense   smooth      PW
     Min          78      78     22                 1849     1849     291
     Max          79      79     23                 1853     1853     294
     Sum        1261    1261    367                29627    29627    4693
 
     Using Slab Decomposition
 


     bravais-lattice index     =            2
     lattice parameter (alat)  =      11.8746  a.u.
     unit-cell volume          =     418.5927 (a.u.)^3
     number of atoms/cell      =            2
     number of atomic types    =            2
     number of electrons       =        16.00
     number of Kohn-Sham states=           16
     kinetic-energy cutoff     =      65.0000  Ry
     charge density cutoff     =     260.0000  Ry
     scf convergence threshold =      1.0E-10
     mixing beta               =       0.7000
     number of iterations used =            8  plain     mixing
     Exchange-correlation= PBE
                           (   1   4   3   4   0   0   0)

     celldm(1)=  11.874552  celldm(2)=   0.000000  celldm(3)=   0.000000
     celldm(4)=   0.000000  celldm(5)=   0.000000  celldm(6)=   0.000000

     crystal axes: (cart. coord. in units of alat)
               a(1) = (  -0.500000   0.000000   0.500000 )  
               a(2) = (   0.000000   0.500000   0.500000 )  
               a(3) = (  -0.500000   0.500000   0.000000 )  

     reciprocal axes: (cart. coord. in units 2 pi/alat)
               b(1) = ( -1.000000 -1.000000  1.000000 )  
               b(2) = (  1.000000  1.000000  1.000000 )  
               b(3) = ( -1.000000  1.000000 -1.000000 )  


     PseudoPot. # 1 for Cl read from file:
     /usr/scratch4/magr4826/Promotion/Python/Code/devEb/pseudo/SG15/Cl.upf
     MD5 check sum: 0f993535b366f580ecbcdacce103c843
     Pseudo is Norm-conserving, Zval =  7.0
     Generated using ONCVPSP code by D. R. Hamann
     Using radial grid of  602 points,  4 beta functions with: 
                l(1) =   0
                l(2) =   0
                l(3) =   1
                l(4) =   1

     PseudoPot. # 2 for K  read from file:
     /usr/scratch4/magr4826/Promotion/Python/Code/devEb/pseudo/SG15/K.upf
     MD5 check sum: 254690d02b26e0029262a4c77e854448
     Pseudo is Norm-conserving, Zval =  9.0
     Generated using ONCVPSP code by D. R. Hamann
     Using radial grid of  602 points,  6 beta functions with: 
                l(1) =   0
                l(2) =   0
                l(3) =   1
                l(4) =   1
                l(5) =   2
                l(6) =   2

     atomic species   valence    mass     pseudopotential
        Cl             7.00    35.45300     Cl( 1.00)
        K              9.00    39.09830     K ( 1.00)

     48 Sym. Ops., with inversion, found



   Cartesian axes

     site n.     atom                  positions (alat units)
         1           K   tau(   1) = (   0.0000000   0.0000000   0.0000000  )
         2           Cl  tau(   2) = (  -0.5000000   0.5000000   0.5000000  )

     number of k points=    72  Gaussian smearing, width (Ry)=  0.0005
                       cart. coord. in units 2pi/alat
        k(    1) = (   0.0000000   0.0000000   0.0000000), wk =   0.0011574
        k(    2) = (  -0.0833333   0.0833333  -0.0833333), wk =   0.0092593
        k(    3) = (  -0.1666667   0.1666667  -0.1666667), wk =   0.0092593
        k(    4) = (  -0.2500000   0.2500000  -0.2500000), wk =   0.0092593
        k(    5) = (  -0.3333333   0.3333333  -0.3333333), wk =   0.0092593
        k(    6) = (  -0.4166667   0.4166667  -0.4166667), wk =   0.0092593
        k(    7) = (   0.5000000  -0.5000000   0.5000000), wk =   0.0046296
        k(    8) = (   0.0000000   0.1666667   0.0000000), wk =   0.0069444
        k(    9) = (  -0.0833333   0.2500000  -0.0833333), wk =   0.0277778
        k(   10) = (  -0.1666667   0.3333333  -0.1666667), wk =   0.0277778
        k(   11) = (  -0.2500000   0.4166667  -0.2500000), wk =   0.0277778
        k(   12) = (  -0.3333333   0.5000000  -0.3333333), wk =   0.0277778
        k(   13) = (   0.5833333  -0.4166667   0.5833333), wk =   0.0277778
        k(   14) = (   0.5000000  -0.3333333   0.5000000), wk =   0.0277778
        k(   15) = (   0.4166667  -0.2500000   0.4166667), wk =   0.0277778
        k(   16) = (   0.3333333  -0.1666667   0.3333333), wk =   0.0277778
        k(   17) = (   0.2500000  -0.0833333   0.2500000), wk =   0.0277778
        k(   18) = (   0.1666667  -0.0000000   0.1666667), wk =   0.0138889
        k(   19) = (   0.0000000   0.3333333   0.0000000), wk =   0.0069444
        k(   20) = (  -0.0833333   0.4166667  -0.0833333), wk =   0.0277778
        k(   21) = (  -0.1666667   0.5000000  -0.1666667), wk =   0.0277778
        k(   22) = (  -0.2500000   0.5833333  -0.2500000), wk =   0.0277778
        k(   23) = (   0.6666667  -0.3333333   0.6666667), wk =   0.0277778
        k(   24) = (   0.5833333  -0.2500000   0.5833333), wk =   0.0277778
        k(   25) = (   0.5000000  -0.1666667   0.5000000), wk =   0.0277778
        k(   26) = (   0.4166667  -0.0833333   0.4166667), wk =   0.0277778
        k(   27) = (   0.3333333   0.0000000   0.3333333), wk =   0.0138889
        k(   28) = (   0.0000000   0.5000000   0.0000000), wk =   0.0069444
        k(   29) = (  -0.0833333   0.5833333  -0.0833333), wk =   0.0277778
        k(   30) = (  -0.1666667   0.6666667  -0.1666667), wk =   0.0277778
        k(   31) = (   0.7500000  -0.2500000   0.7500000), wk =   0.0277778
        k(   32) = (   0.6666667  -0.1666667   0.6666667), wk =   0.0277778
        k(   33) = (   0.5833333  -0.0833333   0.5833333), wk =   0.0277778
        k(   34) = (   0.5000000   0.0000000   0.5000000), wk =   0.0138889
        k(   35) = (   0.0000000   0.6666667   0.0000000), wk =   0.0069444
        k(   36) = (  -0.0833333   0.7500000  -0.0833333), wk =   0.0277778
        k(   37) = (   0.8333333  -0.1666667   0.8333333), wk =   0.0277778
        k(   38) = (   0.7500000  -0.0833333   0.7500000), wk =   0.0277778
        k(   39) = (   0.6666667  -0.0000000   0.6666667), wk =   0.0138889
        k(   40) = (   0.0000000   0.8333333   0.0000000), wk =   0.0069444
        k(   41) = (   0.9166667  -0.0833333   0.9166667), wk =   0.0277778
        k(   42) = (   0.8333333   0.0000000   0.8333333), wk =   0.0138889
        k(   43) = (   0.0000000  -1.0000000   0.0000000), wk =   0.0034722
        k(   44) = (  -0.1666667   0.3333333   0.0000000), wk =   0.0277778
        k(   45) = (  -0.2500000   0.4166667  -0.0833333), wk =   0.0555556
        k(   46) = (  -0.3333333   0.5000000  -0.1666667), wk =   0.0555556
        k(   47) = (   0.5833333  -0.4166667   0.7500000), wk =   0.0555556
        k(   48) = (   0.5000000  -0.3333333   0.6666667), wk =   0.0277778
        k(   49) = (  -0.1666667   0.5000000   0.0000000), wk =   0.0277778
        k(   50) = (  -0.2500000   0.5833333  -0.0833333), wk =   0.0555556
        k(   51) = (   0.6666667  -0.3333333   0.8333333), wk =   0.0555556
        k(   52) = (   0.5833333  -0.2500000   0.7500000), wk =   0.0555556
        k(   53) = (   0.5000000  -0.1666667   0.6666667), wk =   0.0555556
        k(   54) = (   0.4166667  -0.0833333   0.5833333), wk =   0.0555556
        k(   55) = (   0.3333333   0.0000000   0.5000000), wk =   0.0277778
        k(   56) = (  -0.1666667   0.6666667  -0.0000000), wk =   0.0277778
        k(   57) = (   0.7500000  -0.2500000   0.9166667), wk =   0.0555556
        k(   58) = (   0.6666667  -0.1666667   0.8333333), wk =   0.0555556
        k(   59) = (   0.5833333  -0.0833333   0.7500000), wk =   0.0555556
        k(   60) = (   0.5000000   0.0000000   0.6666667), wk =   0.0277778
        k(   61) = (   0.8333333  -0.1666667   1.0000000), wk =   0.0277778
        k(   62) = (   0.7500000  -0.0833333   0.9166667), wk =   0.0555556
        k(   63) = (   0.6666667   0.0000000   0.8333333), wk =   0.0277778
        k(   64) = (  -0.1666667  -1.0000000  -0.0000000), wk =   0.0138889
        k(   65) = (   0.6666667  -0.3333333   1.0000000), wk =   0.0277778
        k(   66) = (   0.5833333  -0.2500000   0.9166667), wk =   0.0555556
        k(   67) = (   0.5000000  -0.1666667   0.8333333), wk =   0.0277778
        k(   68) = (   0.6666667  -0.1666667   1.0000000), wk =   0.0277778
        k(   69) = (   0.5833333  -0.0833333   0.9166667), wk =   0.0555556
        k(   70) = (   0.5000000   0.0000000   0.8333333), wk =   0.0277778
        k(   71) = (  -0.3333333  -1.0000000   0.0000000), wk =   0.0138889
        k(   72) = (  -0.5000000  -1.0000000   0.0000000), wk =   0.0069444

     Dense  grid:    29627 G-vectors     FFT dimensions: (  45,  45,  45)

     Estimated max dynamical RAM per process >       8.32 MB

     Estimated total dynamical RAM >     133.11 MB

     Initial potential from superposition of free atoms

     starting charge      15.7305, renormalised to      16.0000
     Starting wfcs are random

     total cpu time spent up to now is        1.0 secs

     Self-consistent Calculation

     iteration #  1     ecut=    65.00 Ry     beta= 0.70
     Davidson diagonalization with overlap
     c_bands:  1 eigenvalues not converged
     c_bands:  1 eigenvalues not converged
     c_bands:  2 eigenvalues not converged
     c_bands:  1 eigenvalues not converged
     c_bands:  1 eigenvalues not converged
     c_bands:  1 eigenvalues not converged
     c_bands:  2 eigenvalues not converged
     c_bands:  2 eigenvalues not converged
     c_bands:  2 eigenvalues not converged
     c_bands:  2 eigenvalues not converged
     c_bands:  2 eigenvalues not converged
     c_bands:  2 eigenvalues not converged
     c_bands:  2 eigenvalues not converged
     c_bands:  1 eigenvalues not converged
     c_bands:  1 eigenvalues not converged
     c_bands:  2 eigenvalues not converged
     c_bands:  2 eigenvalues not converged
     c_bands:  1 eigenvalues not converged
     c_bands:  1 eigenvalues not converged
     c_bands:  2 eigenvalues not converged
     c_bands:  2 eigenvalues not converged
     c_bands:  1 eigenvalues not converged
     c_bands:  1 eigenvalues not converged
     c_bands:  2 eigenvalues not converged
     c_bands:  1 eigenvalues not converged
     c_bands:  1 eigenvalues not converged
     c_bands:  1 eigenvalues not converged
     c_bands:  2 eigenvalues not converged
     c_bands:  3 eigenvalues not converged
     c_bands:  1 eigenvalues not converged
     c_bands:  1 eigenvalues not converged
     c_bands:  2 eigenvalues not converged
     c_bands:  2 eigenvalues not converged
     c_bands:  2 eigenvalues not converged
     c_bands:  2 eigenvalues not converged
     c_bands:  1 eigenvalues not converged
     c_bands:  1 eigenvalues not converged
     c_bands:  2 eigenvalues not converged
     c_bands:  2 eigenvalues not converged
     c_bands:  1 eigenvalues not converged
     c_bands:  2 eigenvalues not converged
     c_bands:  2 eigenvalues not converged
     c_bands:  2 eigenvalues not converged
     c_bands:  1 eigenvalues not converged
     c_bands:  1 eigenvalues not converged
     c_bands:  1 eigenvalues not converged
     c_bands:  1 eigenvalues not converged
     c_bands:  1 eigenvalues not converged
     c_bands:  1 eigenvalues not converged
     c_bands:  1 eigenvalues not converged
     c_bands:  2 eigenvalues not converged
     c_bands:  2 eigenvalues not converged
     c_bands:  2 eigenvalues not converged
     c_bands:  2 eigenvalues not converged
     c_bands:  1 eigenvalues not converged
     c_bands:  1 eigenvalues not converged
     c_bands:  2 eigenvalues not converged
     c_bands:  1 eigenvalues not converged
     c_bands:  2 eigenvalues not converged
     c_bands:  1 eigenvalues not converged
     c_bands:  2 eigenvalues not converged
     c_bands:  3 eigenvalues not converged
     c_bands:  3 eigenvalues not converged
     ethr =  5.00E-06,  avg # of iterations = 19.8

     total cpu time spent up to now is        6.9 secs

     total energy              =     -87.28549200 Ry
     estimated scf accuracy    <       0.06160692 Ry

     iteration #  2     ecut=    65.00 Ry     beta= 0.70
     Davidson diagonalization with overlap
     ethr =  3.85E-04,  avg # of iterations =  5.5

     total cpu time spent up to now is        9.0 secs

     total energy              =     -87.30241639 Ry
     estimated scf accuracy    <       0.01743416 Ry

     iteration #  3     ecut=    65.00 Ry     beta= 0.70
     Davidson diagonalization with overlap
     ethr =  1.09E-04,  avg # of iterations =  2.6

     total cpu time spent up to now is        9.7 secs

     total energy              =     -87.30615539 Ry
     estimated scf accuracy    <       0.00039420 Ry

     iteration #  4     ecut=    65.00 Ry     beta= 0.70
     Davidson diagonalization with overlap
     c_bands:  1 eigenvalues not converged
     c_bands:  1 eigenvalues not converged
     ethr =  2.46E-06,  avg # of iterations =  6.9

     total cpu time spent up to now is       10.6 secs

     total energy              =     -87.30622563 Ry
     estimated scf accuracy    <       0.00001396 Ry

     iteration #  5     ecut=    65.00 Ry     beta= 0.70
     Davidson diagonalization with overlap
     c_bands:  1 eigenvalues not converged
     ethr =  8.72E-08,  avg # of iterations =  7.7

     total cpu time spent up to now is       11.6 secs

     total energy              =     -87.30622955 Ry
     estimated scf accuracy    <       0.00000047 Ry

     iteration #  6     ecut=    65.00 Ry     beta= 0.70
     Davidson diagonalization with overlap
     c_bands:  1 eigenvalues not converged
     ethr =  2.95E-09,  avg # of iterations =  7.8

     total cpu time spent up to now is       14.7 secs

     total energy              =     -87.30622979 Ry
     estimated scf accuracy    <       0.00000002 Ry

     iteration #  7     ecut=    65.00 Ry     beta= 0.70
     Davidson diagonalization with overlap
     ethr =  1.31E-10,  avg # of iterations =  6.8

     total cpu time spent up to now is       15.6 secs

     total energy              =     -87.30622979 Ry
     estimated scf accuracy    <          1.1E-09 Ry

     iteration #  8     ecut=    65.00 Ry     beta= 0.70
     Davidson diagonalization with overlap
     ethr =  7.00E-12,  avg # of iterations =  6.6

     total cpu time spent up to now is       16.5 secs

     End of self-consistent calculation

          k = 0.0000 0.0000 0.0000 (  3719 PWs)   bands (ev):

   -26.3065 -11.2191  -9.7686  -9.7686  -9.7686   0.8770   0.8770   0.8770
     6.0870   9.2941   9.2941   9.2941  10.1778  10.1778  13.8773  17.1248

          k =-0.0833 0.0833-0.0833 (  3713 PWs)   bands (ev):

   -26.3058 -11.2337  -9.7692  -9.7692  -9.7503   0.7874   0.8535   0.8535
     6.2596   9.2330   9.3813   9.3813  10.2723  10.2723  14.1434  16.6713

          k =-0.1667 0.1667-0.1667 (  3716 PWs)   bands (ev):

   -26.3038 -11.2722  -9.7709  -9.7709  -9.7018   0.5618   0.7904   0.7904
     6.7233   9.1202   9.6361   9.6361  10.5458  10.5458  14.7261  15.9156

          k =-0.2500 0.2500-0.2500 (  3705 PWs)   bands (ev):

   -26.3011 -11.3213  -9.7732  -9.7732  -9.6388   0.2878   0.7070   0.7070
     7.3477   9.0759  10.0402  10.0402  10.9661  10.9661  14.4434  15.2936

          k =-0.3333 0.3333-0.3333 (  3687 PWs)   bands (ev):

   -26.2983 -11.3672  -9.7755  -9.7755  -9.5789   0.0424   0.6264   0.6264
     7.9579   9.1741  10.5593  10.5593  11.4748  11.4748  13.7035  14.3253

          k =-0.4167 0.4167-0.4167 (  3717 PWs)   bands (ev):

   -26.2964 -11.3990  -9.7772  -9.7772  -9.5367  -0.1234   0.5692   0.5692
     8.3683   9.3826  11.1060  11.1060  11.9900  11.9900  13.2012  13.4255

          k = 0.5000-0.5000 0.5000 (  3708 PWs)   bands (ev):

   -26.2956 -11.4103  -9.7778  -9.7778  -9.5215  -0.1817   0.5485   0.5485
     8.5047   9.4975  11.3922  11.3922  12.3738  12.3738  12.8482  12.8482

          k = 0.0000 0.1667 0.0000 (  3723 PWs)   bands (ev):

   -26.3055 -11.2369  -9.7723  -9.7723  -9.7410   0.7427   0.8572   0.8572
     6.3102   9.0916   9.4739   9.4739  10.2320  10.3720  14.2271  16.6053

          k =-0.0833 0.2500-0.0833 (  3705 PWs)   bands (ev):

   -26.3040 -11.2628  -9.7762  -9.7739  -9.7069   0.5727   0.8069   0.8176
     6.6614   8.9330   9.6892   9.7317  10.3776  10.6416  14.7218  15.8553

          k =-0.1667 0.3333-0.1667 (  3699 PWs)   bands (ev):

   -26.3015 -11.3026  -9.7797  -9.7749  -9.6576   0.3439   0.7191   0.7472
     7.2215   8.8669  10.0009  10.1335  10.6921  11.0422  14.5925  15.3167

          k =-0.2500 0.4167-0.2500 (  3702 PWs)   bands (ev):

   -26.2988 -11.3442  -9.7821  -9.7773  -9.6054   0.1180   0.6289   0.6665
     7.8404   8.9511  10.4122  10.6471  11.1310  11.4967  13.7339  14.4600

          k =-0.3333 0.5000-0.3333 (  3716 PWs)   bands (ev):

   -26.2966 -11.3771  -9.7825  -9.7811  -9.5631  -0.0541   0.5620   0.5969
     8.3173   9.2029  10.8721  11.1881  11.6384  11.8790  13.0980  13.6218

          k = 0.5833-0.4167 0.5833 (  3701 PWs)   bands (ev):

   -26.2954 -11.3939  -9.7850  -9.7810  -9.5407  -0.1397   0.5339   0.5555
     8.5388   9.4364  11.2420  11.4402  12.0460  12.2660  12.8056  12.9509

          k = 0.5000-0.3333 0.5000 (  3713 PWs)   bands (ev):

   -26.2957 -11.3914  -9.7880  -9.7779  -9.5433  -0.1240   0.5500   0.5519
     8.5005   9.4062  11.1536  11.3208  11.7938  12.4087  12.8744  13.1374

          k = 0.4167-0.2500 0.4167 (  3707 PWs)   bands (ev):

   -26.2972 -11.3700  -9.7889  -9.7740  -9.5706  -0.0087   0.5871   0.6061
     8.1935   9.1714  10.6218  11.0237  11.3637  11.9200  13.2525  14.0507

          k = 0.3333-0.1667 0.3333 (  3697 PWs)   bands (ev):

   -26.2997 -11.3341  -9.7872  -9.7705  -9.6169   0.1872   0.6529   0.6882
     7.6474   8.9983  10.1098  10.5155  10.9698  11.3755  13.9619  14.8121

          k = 0.2500-0.0833 0.2500 (  3699 PWs)   bands (ev):

   -26.3024 -11.2919  -9.7828  -9.7682  -9.6716   0.4261   0.7336   0.7739
     7.0288   8.9891   9.7109  10.0368  10.6049  10.8767  14.8196  15.1994

          k = 0.1667-0.0000 0.1667 (  3711 PWs)   bands (ev):

   -26.3046 -11.2546  -9.7762  -9.7677  -9.7211   0.6510   0.8076   0.8358
     6.5228   9.1013   9.4620   9.6461  10.3549  10.4947  14.5267  15.9874

          k = 0.0000 0.3333 0.0000 (  3703 PWs)   bands (ev):

   -26.3029 -11.2668  -9.7826  -9.7826  -9.6933   0.4644   0.8070   0.8070
     6.8590   8.6392   9.9889   9.9889  10.3863  10.8811  15.0610  15.5558

          k =-0.0833 0.4167-0.0833 (  3694 PWs)   bands (ev):

   -26.3009 -11.2831  -9.7883  -9.7865  -9.6731   0.3156   0.7471   0.7620
     7.2856   8.4662  10.3369  10.3817  10.5731  11.2123  14.4898  15.2067

          k =-0.1667 0.5000-0.1667 (  3700 PWs)   bands (ev):

   -26.2984 -11.3064  -9.7919  -9.7897  -9.6477   0.1693   0.6484   0.6961
     7.8475   8.4807  10.7053  10.8593  10.9265  11.5215  13.5340  14.5291

          k =-0.2500 0.5833-0.2500 (  3710 PWs)   bands (ev):

   -26.2962 -11.3298  -9.7961  -9.7924  -9.6195   0.0500   0.5541   0.6277
     8.3079   8.7936  11.0316  11.3373  11.4099  11.6344  12.8805  13.8125

          k = 0.6667-0.3333 0.6667 (  3704 PWs)   bands (ev):

   -26.2948 -11.3474  -9.8050  -9.7897  -9.5946  -0.0264   0.4996   0.5746
     8.5641   9.2365  11.1710  11.5344  11.5610  12.0367  12.6956  13.2330

          k = 0.5833-0.2500 0.5833 (  3695 PWs)   bands (ev):

   -26.2947 -11.3552  -9.8126  -9.7844  -9.5804  -0.0472   0.5001   0.5496
     8.6665   9.3779  11.0540  11.3255  11.5500  12.6866  12.7742  12.9558

          k = 0.5000-0.1667 0.5000 (  3702 PWs)   bands (ev):

   -26.2957 -11.3516  -9.8151  -9.7781  -9.5819  -0.0044   0.5511   0.5587
     8.5111   9.1831  10.8302  10.9865  11.4623  12.4176  12.8328  13.6348

          k = 0.4167-0.0833 0.4167 (  3702 PWs)   bands (ev):

   -26.2977 -11.3374  -9.8103  -9.7723  -9.6007   0.1008   0.6000   0.6334
     8.0812   8.9493  10.3377  10.9523  11.0499  11.8848  13.2511  14.5141

          k = 0.3333 0.0000 0.3333 (  3703 PWs)   bands (ev):

   -26.3002 -11.3158  -9.7985  -9.7687  -9.6333   0.2543   0.6637   0.7179
     7.5197   8.8932   9.9509  10.5446  10.7813  11.3402  14.0309  14.9492

          k = 0.0000 0.5000 0.0000 (  3655 PWs)   bands (ev):

   -26.2994 -11.2685  -9.7966  -9.7966  -9.6896   0.2431   0.7472   0.7472
     7.5481   8.1597  10.6137  10.7647  10.7647  11.4310  13.9022  14.9562

          k =-0.0833 0.5833-0.0833 (  3683 PWs)   bands (ev):

   -26.2974 -11.2625  -9.8032  -9.8025  -9.7020   0.1756   0.6870   0.7071
     7.9776   8.0522  10.8134  11.1735  11.2323  11.5758  13.1356  14.5459

          k =-0.1667 0.6667-0.1667 (  3697 PWs)   bands (ev):

   -26.2954 -11.2666  -9.8154  -9.8043  -9.6966   0.1343   0.5815   0.6534
     8.0829   8.5970  11.1507  11.3227  11.5785  11.6936  12.5915  14.0471

          k = 0.7500-0.2500 0.7500 (  3695 PWs)   bands (ev):

   -26.2941 -11.2791  -9.8333  -9.8015  -9.6715   0.1152   0.4768   0.6007
     8.3045   9.1868  11.0475  11.3690  11.5654  11.9682  12.6420  13.6619

          k = 0.6667-0.1667 0.6667 (  3694 PWs)   bands (ev):

   -26.2936 -11.2970  -9.8458  -9.7951  -9.6393   0.0933   0.4319   0.5626
     8.5980   9.4497  10.8966  11.0773  11.5952  12.2650  12.9414  13.5121

          k = 0.5833-0.0833 0.5833 (  3703 PWs)   bands (ev):

   -26.2942 -11.3158  -9.8458  -9.7865  -9.6123   0.0629   0.4686   0.5486
     8.7481   9.2874  10.6552  11.1635  11.3977  12.6654  12.8528  13.4319

          k = 0.5000 0.0000 0.5000 (  3709 PWs)   bands (ev):

   -26.2957 -11.3306  -9.8325  -9.7782  -9.5983   0.0581   0.5501   0.5621
     8.5364   9.0401  10.7040  10.7838  11.4349  12.4163  12.8164  13.8608

          k = 0.0000 0.6667 0.0000 (  3691 PWs)   bands (ev):

   -26.2959 -11.2240  -9.8108  -9.8108  -9.7579   0.1664   0.6962   0.6962
     7.7713   8.2777  10.8644  11.5624  11.6494  11.6494  12.6300  14.4688

          k =-0.0833 0.7500-0.0833 (  3702 PWs)   bands (ev):

   -26.2944 -11.2018  -9.8320  -9.8148  -9.7780   0.1724   0.6391   0.6667
     7.7193   8.7167  11.0513  11.2963  11.9153  12.0323  12.3053  14.2999

          k = 0.8333-0.1667 0.8333 (  3706 PWs)   bands (ev):

   -26.2933 -11.2037  -9.8653  -9.8133  -9.7512   0.2049   0.5197   0.6269
     7.8770   9.2811  10.8097  11.3628  11.5193  12.1870  12.6879  14.1778

          k = 0.7500-0.0833 0.7500 (  3708 PWs)   bands (ev):

   -26.2928 -11.2295  -9.8792  -9.8069  -9.7067   0.2507   0.3806   0.5876
     8.2015   9.7813  10.4425  11.0617  11.7655  12.0014  13.1761  13.9494

          k = 0.6667-0.0000 0.6667 (  3717 PWs)   bands (ev):

   -26.2932 -11.2711  -9.8706  -9.7970  -9.6568   0.1790   0.3818   0.5591
     8.5830   9.5904  10.6519  10.9146  11.5742  12.2775  13.2853  13.6812

          k = 0.0000 0.8333 0.0000 (  3704 PWs)   bands (ev):

   -26.2934 -11.1546  -9.8608  -9.8212  -9.8212   0.1922   0.6640   0.6640
     7.5247   8.9495  11.0666  11.1870  11.8576  12.3168  12.3168  14.5098

          k = 0.9167-0.0833 0.9167 (  3706 PWs)   bands (ev):

   -26.2927 -11.1425  -9.8970  -9.8219  -9.8070   0.2202   0.6106   0.6462
     7.5563   9.2941  10.8653  11.2027  11.5433  12.4130  12.6167  14.6144

          k = 0.8333 0.0000 0.8333 (  3714 PWs)   bands (ev):

   -26.2925 -11.1713  -9.9010  -9.8167  -9.7666   0.2616   0.4835   0.6182
     7.8022   9.7355  10.4064  11.2708  11.4527  12.2649  13.0054  14.2959

          k = 0.0000-1.0000 0.0000 (  3692 PWs)   bands (ev):

   -26.2925 -11.1184  -9.9126  -9.8251  -9.8251   0.2186   0.6533   0.6533
     7.4406   9.2754  10.9729  11.1455  11.5246  12.5081  12.5081  14.8509

          k =-0.1667 0.3333 0.0000 (  3699 PWs)   bands (ev):

   -26.3022 -11.2847  -9.7868  -9.7737  -9.6753   0.4083   0.7493   0.7818
     7.0491   8.7572   9.9074  10.1353  10.5311  10.9719  14.9227  15.0761

          k =-0.2500 0.4167-0.0833 (  3701 PWs)   bands (ev):

   -26.2997 -11.3134  -9.7958  -9.7746  -9.6376   0.2257   0.6670   0.7112
     7.6029   8.7167  10.2324  10.6155  10.8145  11.3937  13.9350  14.8758

          k =-0.3333 0.5000-0.1667 (  3708 PWs)   bands (ev):

   -26.2973 -11.3408  -9.8007  -9.7784  -9.6026   0.0663   0.5869   0.6318
     8.1641   8.8718  10.6492  11.0875  11.1476  11.8194  13.1716  14.1653

          k = 0.5833-0.4167 0.7500 (  3709 PWs)   bands (ev):

   -26.2955 -11.3601  -9.8015  -9.7836  -9.5781  -0.0410   0.5302   0.5717
     8.5224   9.2041  11.0512  11.2388  11.6064  12.1982  12.7841  13.3932

          k = 0.5000-0.3333 0.6667 (  3706 PWs)   bands (ev):

   -26.2948 -11.3671  -9.8008  -9.7864  -9.5694  -0.0788   0.5100   0.5495
     8.6428   9.3822  11.1959  11.3199  11.7539  12.6248  12.7309  12.7934

          k =-0.1667 0.5000 0.0000 (  3687 PWs)   bands (ev):

   -26.2989 -11.2874  -9.8014  -9.7874  -9.6677   0.2110   0.6928   0.7171
     7.7157   8.3151  10.6829  10.7431  10.8703  11.4852  13.6663  14.8191

          k =-0.2500 0.5833-0.0833 (  3700 PWs)   bands (ev):

   -26.2967 -11.2958  -9.8115  -9.7919  -9.6562   0.1274   0.6061   0.6524
     8.2153   8.4048  10.9969  11.0605  11.3106  11.6803  12.9365  14.2802

          k = 0.6667-0.3333 0.8333 (  3710 PWs)   bands (ev):

   -26.2949 -11.3060  -9.8180  -9.7995  -9.6390   0.0740   0.5169   0.5934
     8.4479   8.9260  11.0201  11.3209  11.7118  11.8187  12.6420  13.6927

          k = 0.5833-0.2500 0.7500 (  3695 PWs)   bands (ev):

   -26.2940 -11.3155  -9.8254  -9.8006  -9.6216   0.0453   0.4681   0.5545
     8.6745   9.2675  11.0088  11.1090  11.7861  12.3295  12.7500  13.2240

          k = 0.5000-0.1667 0.6667 (  3702 PWs)   bands (ev):

   -26.2942 -11.3221  -9.8305  -9.7939  -9.6105   0.0373   0.4826   0.5446
     8.7520   9.2119  10.8130  11.2260  11.5892  12.6022  12.7177  13.2614

          k = 0.4167-0.0833 0.5833 (  3702 PWs)   bands (ev):

   -26.2955 -11.3242  -9.8272  -9.7847  -9.6096   0.0598   0.5459   0.5689
     8.5637   8.9020  10.8486  10.9613  11.4884  12.2238  12.7673  13.8738

          k = 0.3333 0.0000 0.5000 (  3693 PWs)   bands (ev):

   -26.2975 -11.3212  -9.8145  -9.7775  -9.6195   0.1235   0.6065   0.6412
     8.1103   8.7041  10.5515  10.9185  11.1197  11.8160  13.1823  14.5230

          k =-0.1667 0.6667-0.0000 (  3701 PWs)   bands (ev):

   -26.2956 -11.2452  -9.8161  -9.8099  -9.7223   0.1554   0.6423   0.6618
     7.9471   8.4316  10.9827  11.4237  11.5861  11.7282  12.5904  14.3836

          k = 0.7500-0.2500 0.9167 (  3710 PWs)   bands (ev):

   -26.2941 -11.2402  -9.8353  -9.8200  -9.7119   0.1638   0.5459   0.6112
     8.0607   8.9726  10.9030  11.4565  11.6505  11.9668  12.5532  14.0469

          k = 0.6667-0.1667 0.8333 (  3702 PWs)   bands (ev):

   -26.2932 -11.2496  -9.8563  -9.8180  -9.6844   0.1886   0.4374   0.5696
     8.3371   9.4309  10.5992  11.1857  11.8514  12.1068  12.8983  13.7747

          k = 0.5833-0.0833 0.7500 (  3710 PWs)   bands (ev):

   -26.2932 -11.2711  -9.8620  -9.8089  -9.6535   0.1700   0.4065   0.5433
     8.6781   9.3793  10.6727  10.9211  11.7841  12.3937  13.0632  13.5593

          k = 0.5000 0.0000 0.6667 (  3709 PWs)   bands (ev):

   -26.2940 -11.2987  -9.8506  -9.7962  -9.6270   0.1026   0.4713   0.5391
     8.8376   9.0699  10.5792  11.3627  11.3702  12.5832  12.7526  13.6342

          k = 0.8333-0.1667 1.0000 (  3708 PWs)   bands (ev):

   -26.2933 -11.1792  -9.8649  -9.8269  -9.7751   0.2022   0.6026   0.6266
     7.7113   9.1215  10.9006  11.2487  11.6736  12.2966  12.5379  14.3730

          k = 0.7500-0.0833 0.9167 (  3710 PWs)   bands (ev):

   -26.2926 -11.1860  -9.8882  -9.8300  -9.7426   0.2535   0.4905   0.5894
     7.9159   9.6256  10.3873  11.2910  11.5375  12.3606  12.9333  14.2243

          k = 0.6667 0.0000 0.8333 (  3711 PWs)   bands (ev):

   -26.2926 -11.2205  -9.8853  -9.8227  -9.6998   0.3239   0.3331   0.5607
     8.2817   9.7954  10.2667  10.9613  11.9376  12.1284  13.3609  13.6812

          k =-0.1667-1.0000-0.0000 (  3708 PWs)   bands (ev):

   -26.2925 -11.1449  -9.9067  -9.8309  -9.7862   0.2404   0.5847   0.6147
     7.6307   9.4997  10.6153  11.3068  11.3991  12.5136  12.7132  14.6066

          k = 0.6667-0.3333 1.0000 (  3694 PWs)   bands (ev):

   -26.2949 -11.2841  -9.8306  -9.8038  -9.6568   0.1198   0.5593   0.5750
     8.4289   8.7356  10.8331  11.4434  11.5700  11.8649  12.6396  14.1401

          k = 0.5833-0.2500 0.9167 (  3702 PWs)   bands (ev):

   -26.2937 -11.2748  -9.8428  -9.8198  -9.6527   0.1426   0.4810   0.5322
     8.6568   9.0865  10.5838  11.2962  11.8489  12.2060  12.8010  13.6444

          k = 0.5000-0.1667 0.8333 (  3698 PWs)   bands (ev):

   -26.2932 -11.2712  -9.8463  -9.8276  -9.6504   0.1620   0.4373   0.5202
     8.8637   9.0983  10.6990  10.8996  12.0475  12.6103  12.7917  13.2986

          k = 0.6667-0.1667 1.0000 (  3719 PWs)   bands (ev):

   -26.2931 -11.2247  -9.8566  -9.8425  -9.6991   0.2205   0.5023   0.5324
     8.2333   9.3506  10.4300  11.3173  11.8062  12.2368  12.8994  13.9772

          k = 0.5833-0.0833 0.9167 (  3709 PWs)   bands (ev):

   -26.2926 -11.2260  -9.8706  -9.8482  -9.6801   0.2874   0.4090   0.4978
     8.5638   9.3519  10.3659  10.9172  12.2506  12.3631  13.1720  13.5347

          k = 0.5000 0.0000 0.8333 (  3716 PWs)   bands (ev):

   -26.2928 -11.2448  -9.8639  -9.8398  -9.6644   0.2426   0.4203   0.4951
     8.9396   8.9856  10.4961  10.8991  12.1574  12.5870  12.8872  13.6764

          k =-0.3333-1.0000 0.0000 (  3730 PWs)   bands (ev):

   -26.2924 -11.1941  -9.8906  -9.8469  -9.7121   0.3041   0.4517   0.5179
     8.1645   9.8305  10.0115  11.0744  11.8407  12.5248  13.1321  13.8635

          k =-0.5000-1.0000 0.0000 (  3704 PWs)   bands (ev):

   -26.2924 -11.2170  -9.8687  -9.8687  -9.6766   0.3871   0.4030   0.4030
     8.9455   8.9455  10.4139  10.7578  12.5305  12.5792  13.0062  13.6298

     the Fermi energy is     3.5759 ev

!    total energy              =     -87.30622980 Ry
     estimated scf accuracy    <          8.6E-12 Ry
     smearing contrib. (-TS)   =      -0.00000000 Ry
     internal energy E=F+TS    =     -87.30622980 Ry

     The total energy is F=E-TS. E is the sum of the following terms:
     one-electron contribution =     -31.22312046 Ry
     hartree contribution      =      20.25740587 Ry
     xc contribution           =     -14.58337002 Ry
     ewald contribution        =     -61.75714519 Ry

     convergence has been achieved in   8 iterations

     Writing all to output data dir out/mp-23193.save/
 
     init_run     :      0.30s CPU      0.32s WALL (       1 calls)
     electrons    :      9.10s CPU     15.54s WALL (       1 calls)

     Called by init_run:
     wfcinit      :      0.24s CPU      0.26s WALL (       1 calls)
     potinit      :      0.01s CPU      0.01s WALL (       1 calls)
     hinit0       :      0.01s CPU      0.02s WALL (       1 calls)

     Called by electrons:
     c_bands      :      8.41s CPU     14.79s WALL (       8 calls)
     sum_band     :      0.67s CPU      0.69s WALL (       8 calls)
     v_of_rho     :      0.02s CPU      0.02s WALL (       9 calls)
     mix_rho      :      0.00s CPU      0.00s WALL (       8 calls)

     Called by c_bands:
     init_us_2    :      0.05s CPU      0.05s WALL (    1224 calls)
     init_us_2:cp :      0.04s CPU      0.05s WALL (    1224 calls)
     cegterg      :      8.24s CPU      8.47s WALL (     576 calls)

     Called by *egterg:
     cdiaghg      :      1.20s CPU      1.24s WALL (    5180 calls)
     h_psi        :      6.78s CPU      6.97s WALL (    5252 calls)
     g_psi        :      0.02s CPU      0.03s WALL (    4604 calls)

     Called by h_psi:
     h_psi:calbec :      0.11s CPU      0.11s WALL (    5252 calls)
     vloc_psi     :      6.59s CPU      6.77s WALL (    5252 calls)
     add_vuspsi   :      0.06s CPU      0.06s WALL (    5252 calls)

     General routines
     calbec       :      0.10s CPU      0.11s WALL (    5252 calls)
     fft          :      0.01s CPU      0.02s WALL (      89 calls)
     ffts         :      0.00s CPU      0.00s WALL (       8 calls)
     fftw         :      6.84s CPU      7.03s WALL (  100778 calls)
 
     Parallel routines
 
     PWSCF        :      9.56s CPU     19.13s WALL

 
   This run was terminated on:  15:13:14   8Apr2024            

=------------------------------------------------------------------------------=
   JOB DONE.
=------------------------------------------------------------------------------=
