
     Program POST-PROC v.7.1 starts on 11Apr2024 at  9:56:14 

     This program is part of the open-source Quantum ESPRESSO suite
     for quantum simulation of materials; please cite
         "P. Giannozzi et al., J. Phys.:Condens. Matter 21 395502 (2009);
         "P. Giannozzi et al., J. Phys.:Condens. Matter 29 465901 (2017);
         "P. Giannozzi et al., J. Chem. Phys. 152 154105 (2020);
          URL http://www.quantum-espresso.org", 
     in publications or presentations arising from this work. More details at
     http://www.quantum-espresso.org/quote

     Parallel version (MPI), running on     1 processors

     MPI processes distributed on     1 nodes
     245692 MiB available memory on the printing compute node when the environment starts
 

     Reading xml data from directory:

     out/mp-856.save/

     IMPORTANT: XC functional enforced from input :
     Exchange-correlation= PBE
                           (   1   4   3   4   0   0   0)
     Any further DFT definition will be discarded
     Please, verify this is what you really want

 
     G-vector sticks info
     --------------------
     sticks:   dense  smooth     PW     G-vecs:    dense   smooth      PW
     Sum        3869    3869   1085               121915   121915   18101
 
     Using Slab Decomposition
 

     Calling punch_plot, plot_num =  10
     Writing data to file  tmp.pp
     Reading data from file  tmp.pp

     Writing data to be plotted to file ldos.cube
     Plot Type: 3D                     Output format: Gaussian cube
 
     POST-PROC    :      1.88s CPU      3.81s WALL

 
   This run was terminated on:   9:56:17  11Apr2024            

=------------------------------------------------------------------------------=
   JOB DONE.
=------------------------------------------------------------------------------=
