
     Program PWSCF v.7.1 starts on 11Apr2024 at  9:51:50 

     This program is part of the open-source Quantum ESPRESSO suite
     for quantum simulation of materials; please cite
         "P. Giannozzi et al., J. Phys.:Condens. Matter 21 395502 (2009);
         "P. Giannozzi et al., J. Phys.:Condens. Matter 29 465901 (2017);
         "P. Giannozzi et al., J. Chem. Phys. 152 154105 (2020);
          URL http://www.quantum-espresso.org", 
     in publications or presentations arising from this work. More details at
     http://www.quantum-espresso.org/quote

     Parallel version (MPI), running on    16 processors

     MPI processes distributed on     1 nodes
     246904 MiB available memory on the printing compute node when the environment starts
 
     Reading input from pw_mp-856_nscf_k3000_E150.in
Warning: card &IONS ignored
Warning: card / ignored
Warning: card &CELL ignored
Warning: card / ignored

     Current dimensions of program PWSCF are:
     Max number of different atomic species (ntypx) = 10
     Max number of k-points (npk) =  40000
     Max angular momentum in pseudopotentials (lmaxx) =  4

     Atomic positions and unit cell read from directory:
     out/mp-856.save/
     Atomic positions from file used, from input discarded
 
 
     R & G space division:  proc/nbgrp/npool/nimage =      16
     Subspace diagonalization in iterative solution of the eigenvalue problem:
     a serial algorithm will be used

 
     Parallelization info
     --------------------
     sticks:   dense  smooth     PW     G-vecs:    dense   smooth      PW
     Min         241     241     67                 7617     7617    1129
     Max         242     242     68                 7620     7620    1132
     Sum        3869    3869   1085               121915   121915   18101
 
     Using Slab Decomposition
 


     bravais-lattice index     =            6
     lattice parameter (alat)  =       9.0042  a.u.
     unit-cell volume          =     491.4233 (a.u.)^3
     number of atoms/cell      =            6
     number of atomic types    =            2
     number of electrons       =        52.00
     number of Kohn-Sham states=           52
     kinetic-energy cutoff     =     150.0000  Ry
     charge density cutoff     =     600.0000  Ry
     Exchange-correlation= PBE
                           (   1   4   3   4   0   0   0)

     celldm(1)=   9.004200  celldm(2)=   0.000000  celldm(3)=   0.673163
     celldm(4)=   0.000000  celldm(5)=   0.000000  celldm(6)=   0.000000

     crystal axes: (cart. coord. in units of alat)
               a(1) = (   1.000000   0.000000   0.000000 )  
               a(2) = (   0.000000   1.000000   0.000000 )  
               a(3) = (   0.000000   0.000000   0.673163 )  

     reciprocal axes: (cart. coord. in units 2 pi/alat)
               b(1) = (  1.000000  0.000000  0.000000 )  
               b(2) = (  0.000000  1.000000  0.000000 )  
               b(3) = (  0.000000  0.000000  1.485524 )  


     PseudoPot. # 1 for O  read from file:
     /usr/scratch4/magr4826/Promotion/Python/Code/devEb/pseudo/SG15/O.upf
     MD5 check sum: e36c48deb68f4e355fffe4602be2c42c
     Pseudo is Norm-conserving, Zval =  6.0
     Generated using ONCVPSP code by D. R. Hamann
     Using radial grid of  602 points,  4 beta functions with: 
                l(1) =   0
                l(2) =   0
                l(3) =   1
                l(4) =   1

     PseudoPot. # 2 for Sn read from file:
     /usr/scratch4/magr4826/Promotion/Python/Code/devEb/pseudo/SG15/Sn.upf
     MD5 check sum: 6680f7ee4d83b53e0fcd4167fcb72813
     Pseudo is Norm-conserving, Zval = 14.0
     Generated using ONCVPSP code by D. R. Hamann
     Using radial grid of  602 points,  6 beta functions with: 
                l(1) =   0
                l(2) =   0
                l(3) =   1
                l(4) =   1
                l(5) =   2
                l(6) =   2

     atomic species   valence    mass     pseudopotential
        O              6.00    15.99940     O ( 1.00)
        Sn            14.00   118.71000     Sn( 1.00)

     16 Sym. Ops., with inversion, found ( 8 have fractional translation)



   Cartesian axes

     site n.     atom                  positions (alat units)
         1           Sn  tau(   1) = (   0.5000000   0.5000000   0.3365816  )
         2           Sn  tau(   2) = (   0.0000000   0.0000000   0.0000000  )
         3           O   tau(   3) = (   0.8059724   0.1940277   0.3365816  )
         4           O   tau(   4) = (   0.1940277   0.8059724   0.3365816  )
         5           O   tau(   5) = (   0.3059723   0.3059723   0.0000000  )
         6           O   tau(   6) = (   0.6940278   0.6940278   0.0000000  )

     number of k points=    60  Gaussian smearing, width (Ry)=  0.0005
                       cart. coord. in units 2pi/alat
        k(    1) = (   0.0000000   0.0000000   0.0000000), wk =   0.0055556
        k(    2) = (   0.0000000   0.0000000   0.1485524), wk =   0.0111111
        k(    3) = (   0.0000000   0.0000000   0.2971048), wk =   0.0111111
        k(    4) = (   0.0000000   0.0000000   0.4456572), wk =   0.0111111
        k(    5) = (   0.0000000   0.0000000   0.5942096), wk =   0.0111111
        k(    6) = (   0.0000000   0.0000000  -0.7427620), wk =   0.0055556
        k(    7) = (   0.0000000   0.1666667   0.0000000), wk =   0.0222222
        k(    8) = (   0.0000000   0.1666667   0.1485524), wk =   0.0444444
        k(    9) = (   0.0000000   0.1666667   0.2971048), wk =   0.0444444
        k(   10) = (   0.0000000   0.1666667   0.4456572), wk =   0.0444444
        k(   11) = (   0.0000000   0.1666667   0.5942096), wk =   0.0444444
        k(   12) = (   0.0000000   0.1666667  -0.7427620), wk =   0.0222222
        k(   13) = (   0.0000000   0.3333333   0.0000000), wk =   0.0222222
        k(   14) = (   0.0000000   0.3333333   0.1485524), wk =   0.0444444
        k(   15) = (   0.0000000   0.3333333   0.2971048), wk =   0.0444444
        k(   16) = (   0.0000000   0.3333333   0.4456572), wk =   0.0444444
        k(   17) = (   0.0000000   0.3333333   0.5942096), wk =   0.0444444
        k(   18) = (   0.0000000   0.3333333  -0.7427620), wk =   0.0222222
        k(   19) = (   0.0000000  -0.5000000   0.0000000), wk =   0.0111111
        k(   20) = (   0.0000000  -0.5000000   0.1485524), wk =   0.0222222
        k(   21) = (   0.0000000  -0.5000000   0.2971048), wk =   0.0222222
        k(   22) = (   0.0000000  -0.5000000   0.4456572), wk =   0.0222222
        k(   23) = (   0.0000000  -0.5000000   0.5942096), wk =   0.0222222
        k(   24) = (   0.0000000  -0.5000000  -0.7427620), wk =   0.0111111
        k(   25) = (   0.1666667   0.1666667   0.0000000), wk =   0.0222222
        k(   26) = (   0.1666667   0.1666667   0.1485524), wk =   0.0444444
        k(   27) = (   0.1666667   0.1666667   0.2971048), wk =   0.0444444
        k(   28) = (   0.1666667   0.1666667   0.4456572), wk =   0.0444444
        k(   29) = (   0.1666667   0.1666667   0.5942096), wk =   0.0444444
        k(   30) = (   0.1666667   0.1666667  -0.7427620), wk =   0.0222222
        k(   31) = (   0.1666667   0.3333333   0.0000000), wk =   0.0444444
        k(   32) = (   0.1666667   0.3333333   0.1485524), wk =   0.0888889
        k(   33) = (   0.1666667   0.3333333   0.2971048), wk =   0.0888889
        k(   34) = (   0.1666667   0.3333333   0.4456572), wk =   0.0888889
        k(   35) = (   0.1666667   0.3333333   0.5942096), wk =   0.0888889
        k(   36) = (   0.1666667   0.3333333  -0.7427620), wk =   0.0444444
        k(   37) = (   0.1666667  -0.5000000   0.0000000), wk =   0.0222222
        k(   38) = (   0.1666667  -0.5000000   0.1485524), wk =   0.0444444
        k(   39) = (   0.1666667  -0.5000000   0.2971048), wk =   0.0444444
        k(   40) = (   0.1666667  -0.5000000   0.4456572), wk =   0.0444444
        k(   41) = (   0.1666667  -0.5000000   0.5942096), wk =   0.0444444
        k(   42) = (   0.1666667  -0.5000000  -0.7427620), wk =   0.0222222
        k(   43) = (   0.3333333   0.3333333   0.0000000), wk =   0.0222222
        k(   44) = (   0.3333333   0.3333333   0.1485524), wk =   0.0444444
        k(   45) = (   0.3333333   0.3333333   0.2971048), wk =   0.0444444
        k(   46) = (   0.3333333   0.3333333   0.4456572), wk =   0.0444444
        k(   47) = (   0.3333333   0.3333333   0.5942096), wk =   0.0444444
        k(   48) = (   0.3333333   0.3333333  -0.7427620), wk =   0.0222222
        k(   49) = (   0.3333333  -0.5000000   0.0000000), wk =   0.0222222
        k(   50) = (   0.3333333  -0.5000000   0.1485524), wk =   0.0444444
        k(   51) = (   0.3333333  -0.5000000   0.2971048), wk =   0.0444444
        k(   52) = (   0.3333333  -0.5000000   0.4456572), wk =   0.0444444
        k(   53) = (   0.3333333  -0.5000000   0.5942096), wk =   0.0444444
        k(   54) = (   0.3333333  -0.5000000  -0.7427620), wk =   0.0222222
        k(   55) = (  -0.5000000  -0.5000000   0.0000000), wk =   0.0055556
        k(   56) = (  -0.5000000  -0.5000000   0.1485524), wk =   0.0111111
        k(   57) = (  -0.5000000  -0.5000000   0.2971048), wk =   0.0111111
        k(   58) = (  -0.5000000  -0.5000000   0.4456572), wk =   0.0111111
        k(   59) = (  -0.5000000  -0.5000000   0.5942096), wk =   0.0111111
        k(   60) = (  -0.5000000  -0.5000000  -0.7427620), wk =   0.0055556

     Dense  grid:   121915 G-vectors     FFT dimensions: (  72,  72,  48)

     Estimated max dynamical RAM per process >      56.94 MB

     Estimated total dynamical RAM >     911.03 MB

     The potential is recalculated from file :
     out/mp-856.save/charge-density

     Starting wfcs are random

     Band Structure Calculation
     Davidson diagonalization with overlap

     ethr =  5.00E-06,  avg # of iterations = 22.1

     total cpu time spent up to now is       20.5 secs

     End of band structure calculation

          k = 0.0000 0.0000 0.0000 ( 15235 PWs)   bands (ev):

   -10.5029  -9.7976  -9.5462  -9.5277  -9.5277  -9.4347  -9.3801  -9.3059
    -9.3059  -9.3011  -8.0948  -6.2664  -6.2664  -4.5938   2.6348   6.7336
     6.7336   6.8538   7.7123   8.7750   8.7873   9.4774   9.4774  10.0187
    10.0187  10.7538  11.7786  16.7343  17.0231  17.0231  21.1430  21.1549
    22.7289  22.7289  23.2274  23.3081  25.6960  27.6540  29.6794  30.1445
    30.3098  30.3098  30.7879  30.7880  31.9344  31.9344  32.5147  33.0143
    33.4744  34.3666  37.1663  37.1664

          k = 0.0000 0.0000 0.1486 ( 15279 PWs)   bands (ev):

   -10.4577  -9.7483  -9.6129  -9.6129  -9.5298  -9.4418  -9.3765  -9.3186
    -9.3185  -9.3013  -8.0382  -6.1220  -6.1220  -4.6651   2.6313   6.7627
     6.8232   6.8232   7.7783   8.0487   8.7300   9.1040   9.1040  10.0410
    10.0410  10.6743  12.4607  16.9392  17.4464  17.4464  20.3319  21.9394
    22.6951  22.6951  23.0972  23.2919  25.5401  26.7868  28.6381  28.6381
    30.5387  30.5415  31.2911  31.7840  31.7840  32.9718  32.9718  33.7948
    34.2487  34.8873  37.1057  37.1057

          k = 0.0000 0.0000 0.2971 ( 15244 PWs)   bands (ev):

   -10.3332  -9.8156  -9.8156  -9.6378  -9.4840  -9.4543  -9.3664  -9.3454
    -9.3453  -9.3026  -7.8548  -5.7648  -5.7648  -4.8867   2.6426   6.5930
     6.7948   7.0642   7.0642   7.9727   8.3277   8.3277   8.4267   9.9918
     9.9918  10.4433  13.7150  17.3376  18.4750  18.4750  19.7111  22.5756
    22.5756  22.6189  22.7072  23.2562  25.2941  25.5637  27.1344  27.1344
    30.1534  31.4885  31.6670  31.9074  31.9074  34.7268  35.2370  35.2471
    35.2471  36.1635  36.1635  36.5003

          k = 0.0000 0.0000 0.4457 ( 15268 PWs)   bands (ev):

   -10.1591 -10.0320 -10.0320  -9.6007  -9.4197  -9.4094  -9.3751  -9.3751
    -9.3523  -9.3060  -7.5156  -5.3478  -5.3477  -5.2698   2.7404   5.5345
     6.5273   7.2172   7.2172   7.7216   7.7216   7.9734   8.2834   9.8464
     9.8464  10.0844  14.9404  17.5058  19.4974  19.6863  19.6863  22.0629
    22.3434  22.3434  23.2381  23.2409  24.5802  25.2363  26.1088  26.1088
    29.6241  31.8052  31.8052  32.5284  32.5983  35.4331  35.4331  35.6272
    35.6649  36.8830  37.3219  37.3219

          k = 0.0000 0.0000 0.5942 ( 15280 PWs)   bands (ev):

   -10.1868 -10.1868  -9.9728  -9.6769  -9.3983  -9.3983  -9.3561  -9.3369
    -9.3362  -9.3126  -7.0171  -5.7994  -5.0192  -5.0192   3.0292   4.4376
     6.6623   6.7772   6.7772   7.4611   7.9387   7.9387   8.6887   9.6380
     9.6442   9.6442  15.9475  17.2610  19.7708  20.7434  20.7434  21.2526
    22.0069  22.0069  23.2936  23.8734  23.8988  25.0506  25.5586  25.5586
    30.2062  31.4319  31.4319  33.0316  33.5156  35.2508  35.6169  35.6609
    35.7555  35.7555  37.7018  37.7019

          k = 0.0000 0.0000-0.7428 ( 15272 PWs)   bands (ev):

   -10.2421 -10.2421  -9.8060  -9.8060  -9.4070  -9.4070  -9.3231  -9.3230
    -9.3195  -9.3195  -6.4136  -6.4136  -4.8943  -4.8943   3.5892   3.5892
     6.5697   6.5697   6.9937   6.9937   8.1086   8.1086   9.1553   9.1553
     9.5288   9.5288  16.7128  16.7128  20.4266  20.4267  21.3566  21.3566
    21.6589  21.6589  23.4903  23.4903  24.5199  24.5199  25.3951  25.3951
    31.2174  31.2174  31.7760  31.7760  34.5291  34.5291  35.3073  35.3073
    36.2735  36.2735  37.4365  37.4365

          k = 0.0000 0.1667 0.0000 ( 15261 PWs)   bands (ev):

   -10.4631  -9.8427  -9.5451  -9.5259  -9.5259  -9.4662  -9.3741  -9.3081
    -9.3080  -9.3055  -8.0077  -6.4466  -6.1158  -4.6518   2.8195   6.2383
     6.8671   6.9571   7.8669   8.5922   8.9707   9.4600   9.4870   9.5110
    10.0344  10.6197  12.4924  16.4923  17.1471  17.2706  21.3728  21.4118
    22.4802  22.7574  23.2774  23.2858  25.2884  27.7727  28.2590  29.1524
    29.8169  30.6113  30.8341  30.9741  31.7755  32.1291  33.1123  33.5021
    34.7403  35.4641  36.0934  36.7032

          k = 0.0000 0.1667 0.1486 ( 15243 PWs)   bands (ev):

   -10.4206  -9.8073  -9.6188  -9.6150  -9.5227  -9.4480  -9.3708  -9.3198
    -9.3185  -9.3052  -7.9487  -6.3168  -5.9851  -4.6987   2.8210   6.2999
     6.5582   7.2491   7.8237   7.9074   8.8864   9.1525   9.1940   9.7388
    10.0408  10.5771  12.9642  16.7294  17.5526  17.6467  20.5508  22.1291
    22.3956  22.7562  23.1423  23.2630  25.1431  26.8925  27.6199  28.7494
    29.8425  30.8266  31.2052  31.6740  31.8258  32.7257  33.0146  34.3984
    35.2233  35.7648  35.8380  36.7152

          k = 0.0000 0.1667 0.2971 ( 15239 PWs)   bands (ev):

   -10.3108  -9.8855  -9.8004  -9.6317  -9.4802  -9.4458  -9.3628  -9.3440
    -9.3431  -9.3056  -7.7702  -6.0186  -5.6569  -4.8322   2.8367   6.2412
     6.3422   6.7546   7.6116   7.8974   8.1951   8.5725   8.8627   9.9072
     9.9723  10.4118  13.9961  17.1870  18.5500  18.5766  19.8434  22.1098
    22.5337  22.8554  22.8625  23.2208  24.7769  25.7165  26.5398  27.8817
    29.9170  30.8757  31.4188  32.0940  32.3639  34.4391  34.6000  34.9080
    35.3994  35.6633  36.7251  37.1406

          k = 0.0000 0.1667 0.4457 ( 15243 PWs)   bands (ev):

   -10.2163 -10.0890  -9.9362  -9.5708  -9.4214  -9.4134  -9.3732  -9.3702
    -9.3468  -9.3078  -7.4572  -5.8030  -5.2694  -4.9665   2.9172   5.3812
     6.0705   6.7141   7.3446   7.3783   8.0338   8.5685   8.6371   9.8109
     9.8763  10.1106  15.1017  17.4221  19.4614  19.6223  19.7645  21.6230
    22.4096  22.6228  23.1985  23.2841  24.4130  24.7575  25.7884  27.2844
    29.3046  31.2509  32.0807  32.4698  33.2721  34.2513  34.6031  35.2660
    36.6250  36.7613  37.0470  37.5960

          k = 0.0000 0.1667 0.5942 ( 15263 PWs)   bands (ev):

   -10.2653 -10.2412  -9.8599  -9.6198  -9.4041  -9.4009  -9.3501  -9.3345
    -9.3335  -9.3128  -7.0079  -5.9996  -4.9639  -4.9075   3.1564   4.3912
     6.0826   6.5709   6.8424   6.8747   8.4528   8.5799   8.8627   9.6117
     9.7044   9.7228  16.0437  17.2446  19.5237  20.1857  20.8224  21.3298
    22.1730  22.3288  23.2911  23.6557  24.0567  24.1962  25.5626  26.4743
    29.9518  31.1592  31.9330  33.1976  33.9620  34.3823  34.7709  35.1039
    35.8345  36.7249  37.6029  37.7260

          k = 0.0000 0.1667-0.7428 ( 15278 PWs)   bands (ev):

   -10.3006 -10.3006  -9.7251  -9.7250  -9.4101  -9.4100  -9.3218  -9.3218
    -9.3159  -9.3159  -6.4798  -6.4798  -4.8419  -4.8419   3.6386   3.6386
     6.2338   6.2338   6.7353   6.7353   8.6418   8.6418   9.2569   9.2569
     9.5598   9.5598  16.7574  16.7574  19.8904  19.8904  21.4285  21.4285
    22.0353  22.0353  23.5427  23.5427  23.9956  23.9957  25.8191  25.8191
    30.8171  30.8171  32.5192  32.5192  34.2075  34.2075  34.9152  34.9152
    36.4539  36.4539  37.4651  37.4651

          k = 0.0000 0.3333 0.0000 ( 15251 PWs)   bands (ev):

   -10.3482  -9.9833  -9.5414  -9.5222  -9.5221  -9.5111  -9.3581  -9.3184
    -9.3125  -9.3124  -7.7498  -6.8703  -5.7350  -4.8756   3.3656   5.2442
     7.2428   7.2506   8.1721   8.2828   8.5758   9.1050   9.5112   9.5425
    10.0753  10.3312  13.7460  15.9277  17.4943  17.6490  21.5915  21.9352
    22.1241  22.9598  23.2428  23.6351  24.3017  26.1791  28.1090  28.5757
    29.1652  30.8562  31.0057  31.1443  31.4836  31.9087  32.5895  34.4260
    35.8387  35.9240  35.9909  37.7082

          k = 0.0000 0.3333 0.1486 ( 15255 PWs)   bands (ev):

   -10.3131  -9.9625  -9.6231  -9.6191  -9.5050  -9.4633  -9.3560  -9.3230
    -9.3218  -9.3149  -7.6812  -6.7648  -5.6379  -4.8735   3.3765   5.2785
     6.6043   7.3553   7.7789   8.2982   8.7907   9.2298   9.2762   9.3906
    10.0477  10.3225  14.0468  16.1600  17.8713  18.0075  20.9259  21.7171
    22.5301  23.0108  23.2302  23.4415  24.2908  25.8429  27.3220  28.6997
    29.2170  30.5544  31.5202  31.8180  31.9715  32.2109  32.8822  34.0794
    34.8969  36.4658  36.8444  37.4085

          k = 0.0000 0.3333 0.2971 ( 15231 PWs)   bands (ev):

   -10.2454 -10.0156  -9.7586  -9.6527  -9.4696  -9.4432  -9.3549  -9.3419
    -9.3382  -9.3142  -7.5039  -6.5334  -5.3866  -4.8646   3.3974   5.3043
     6.0132   6.3693   7.8319   8.0990   8.4536   8.9957   9.1990   9.6563
     9.9381  10.2562  14.7699  16.6639  18.8139  18.8405  20.0647  21.2313
    22.7537  23.0653  23.1340  23.2596  24.0674  25.2046  26.3594  28.5779
    29.5143  30.2939  31.6673  32.3530  32.4576  33.5625  33.7165  34.2243
    35.0659  36.2024  37.4337  37.5996

          k = 0.0000 0.3333 0.4457 ( 15257 PWs)   bands (ev):

   -10.2618 -10.1865  -9.7836  -9.5666  -9.4242  -9.4199  -9.3670  -9.3608
    -9.3349  -9.3133  -7.2492  -6.3543  -5.0829  -4.8344   3.4217   4.9286
     5.6320   5.8665   7.2820   7.3091   8.8201   9.0305   9.0678   9.7634
     9.8469  10.1185  15.6084  17.0707  19.4159  19.4707  19.9631  20.9982
    22.6773  22.8617  23.1970  23.2445  23.7457  24.6289  25.8021  28.1380
    29.3020  31.1678  32.2376  32.5271  32.7975  33.2695  33.7860  35.1907
    36.1738  36.5592  36.9030  38.0807

          k = 0.0000 0.3333 0.5942 ( 15251 PWs)   bands (ev):

   -10.3489 -10.3279  -9.6881  -9.5488  -9.4115  -9.4043  -9.3408  -9.3331
    -9.3256  -9.3143  -6.9326  -6.3760  -4.8441  -4.7737   3.5122   4.2646
     5.4986   5.7237   6.7840   6.8053   8.9500   9.1089   9.2363   9.6666
     9.8008   9.9531  16.3457  17.1418  19.0883  19.3432  20.9999  21.3909
    22.5282  22.6967  23.2476  23.2801  23.5092  24.0450  25.8737  27.0794
    30.3032  31.2912  32.5372  32.9779  33.1223  33.4282  34.2264  35.0221
    35.5158  36.2090  36.6245  38.2418

          k = 0.0000 0.3333-0.7428 ( 15256 PWs)   bands (ev):

   -10.3844 -10.3844  -9.5967  -9.5967  -9.4127  -9.4127  -9.3196  -9.3196
    -9.3092  -9.3092  -6.6054  -6.6054  -4.7461  -4.7461   3.7742   3.7742
     5.5543   5.5543   6.6358   6.6358   9.0209   9.0209   9.5464   9.5464
     9.7960   9.7960  16.8764  16.8764  19.0927  19.0927  21.5747  21.5748
    22.4997  22.4997  23.3414  23.3414  23.5573  23.5573  26.3232  26.3232
    31.0661  31.0661  32.9249  32.9249  33.5745  33.5745  34.2847  34.2847
    35.8316  35.8316  36.8982  36.8983

          k = 0.0000-0.5000 0.0000 ( 15200 PWs)   bands (ev):

   -10.1750 -10.1750  -9.5327  -9.5327  -9.5202  -9.5202  -9.3375  -9.3375
    -9.3147  -9.3147  -7.3476  -7.3475  -5.2716  -5.2716   4.2159   4.2159
     7.6841   7.6841   7.8233   7.8233   8.7972   8.7972   9.5367   9.5367
    10.1471  10.1471  14.9771  14.9771  17.7839  17.7839  21.5933  21.5933
    23.1507  23.1507  23.1758  23.1758  24.5835  24.5835  28.5973  28.5973
    29.3537  29.3537  31.0618  31.0618  32.0905  32.0905  32.8449  32.8449
    36.5051  36.5051  37.6688  37.6689

          k = 0.0000-0.5000 0.1486 ( 15210 PWs)   bands (ev):

   -10.1499 -10.1499  -9.6224  -9.6224  -9.4835  -9.4834  -9.3374  -9.3374
    -9.3213  -9.3213  -7.2627  -7.2627  -5.2190  -5.2190   4.2361   4.2361
     6.8992   6.8992   8.3118   8.3118   8.8066   8.8066   9.4041   9.4041
    10.1085  10.1085  15.2155  15.2156  18.1497  18.1497  21.1790  21.1790
    23.1673  23.1673  23.2817  23.2817  24.3882  24.3882  28.1881  28.1881
    29.4361  29.4361  31.8046  31.8046  32.3447  32.3447  32.8484  32.8484
    36.4198  36.4199  37.0478  37.0479

          k = 0.0000-0.5000 0.2971 ( 15236 PWs)   bands (ev):

   -10.1431 -10.1431  -9.7024  -9.7024  -9.4550  -9.4550  -9.3472  -9.3471
    -9.3265  -9.3265  -7.0688  -7.0688  -5.0776  -5.0776   4.2569   4.2569
     6.0775   6.0775   7.9437   7.9437   9.1152   9.1152   9.3262   9.3262
    10.0104  10.0104  15.7761  15.7761  19.0325  19.0325  20.4058  20.4058
    23.1592  23.1592  23.3474  23.3474  23.9634  23.9634  27.5714  27.5714
    29.8466  29.8466  32.2407  32.2407  32.5613  32.5613  34.1835  34.1835
    35.3941  35.3941  37.1603  37.1603

          k = 0.0000-0.5000 0.4457 ( 15250 PWs)   bands (ev):

   -10.2518 -10.2517  -9.6456  -9.6456  -9.4240  -9.4240  -9.3602  -9.3602
    -9.3227  -9.3227  -6.8661  -6.8661  -4.8990  -4.8990   4.1675   4.1675
     5.5261   5.5261   7.2678   7.2678   9.1556   9.1556   9.5572   9.5572
     9.9260   9.9261  16.3750  16.3750  19.3994  19.3994  20.3657  20.3657
    23.0755  23.0755  23.1818  23.1818  23.7053  23.7053  27.0431  27.0431
    30.5878  30.5878  32.2237  32.2237  32.9060  32.9060  34.1591  34.1591
    35.9612  35.9613  37.3180  37.3180

          k = 0.0000-0.5000 0.5942 ( 15274 PWs)   bands (ev):

   -10.3714 -10.3713  -9.5676  -9.5675  -9.4100  -9.4100  -9.3348  -9.3348
    -9.3183  -9.3182  -6.7195  -6.7195  -4.7554  -4.7554   3.9715   3.9715
     5.2992   5.2992   6.7719   6.7719   9.0785   9.0785   9.6885   9.6885
     9.9607   9.9607  16.8067  16.8067  18.9151  18.9151  21.2379  21.2379
    22.9475  22.9475  22.9955  22.9955  23.5513  23.5513  26.7161  26.7161
    31.2912  31.2912  32.5045  32.5046  32.9446  32.9446  34.0924  34.0924
    35.4850  35.4850  37.6715  37.6715

          k = 0.0000-0.5000-0.7428 ( 15272 PWs)   bands (ev):

   -10.4178 -10.4178  -9.5433  -9.5433  -9.4104  -9.4104  -9.3184  -9.3184
    -9.3060  -9.3060  -6.6659  -6.6659  -4.7017  -4.7017   3.8759   3.8759
     5.2367   5.2367   6.6078   6.6078   9.0308   9.0308   9.7089   9.7089
    10.0089  10.0089  16.9671  16.9671  18.7084  18.7084  21.6603  21.6603
    22.8845  22.8845  22.9016  22.9016  23.4618  23.4619  26.6117  26.6117
    31.4947  31.4947  32.6334  32.6334  33.4939  33.4939  33.8271  33.8271
    35.1645  35.1646  37.1891  37.1892

          k = 0.1667 0.1667 0.0000 ( 15267 PWs)   bands (ev):

   -10.4318  -9.8915  -9.5434  -9.5283  -9.5218  -9.4852  -9.3687  -9.3126
    -9.3092  -9.3057  -7.9139  -6.2980  -6.2958  -4.7315   3.0147   6.1231
     6.7490   7.0516   7.9910   8.4639   9.0138   9.1691   9.4580   9.5417
     9.9893  10.5104  12.9974  16.3080  17.3712  17.3953  21.3598  21.6422
    22.4355  22.7623  23.2396  23.4443  24.9708  27.8775  27.9582  28.6423
    29.3444  29.6166  30.1905  30.7829  32.9635  33.1315  33.5137  34.0104
    34.2479  36.2412  36.4322  37.1363

          k = 0.1667 0.1667 0.1486 ( 15250 PWs)   bands (ev):

   -10.3905  -9.8625  -9.6216  -9.6140  -9.5214  -9.4526  -9.3658  -9.3211
    -9.3188  -9.3085  -7.8519  -6.2040  -6.1504  -4.7579   3.0163   5.9581
     6.8446   7.1323   7.6753   7.9891   8.9064   9.1132   9.3213   9.5522
    10.0138  10.5061  13.3676  16.5453  17.7337  17.7770  20.6336  22.1123
    22.4003  22.8084  23.2197  23.2895  24.7777  26.9600  27.7377  28.0645
    29.4872  30.3020  30.4278  31.7325  32.0703  33.5643  33.9757  34.2958
    34.5947  36.0203  36.2251  37.3077

          k = 0.1667 0.1667 0.2971 ( 15229 PWs)   bands (ev):

   -10.2898  -9.9116  -9.8176  -9.6367  -9.4807  -9.4388  -9.3598  -9.3433
    -9.3427  -9.3083  -7.6753  -5.9963  -5.7909  -4.8252   3.0213   5.6128
     6.5727   7.1115   7.2627   7.7752   8.2369   8.6757   9.1374   9.8133
     9.9772  10.3943  14.2375  17.0063  18.6349  18.7149  19.8610  22.1358
    22.2673  22.9231  23.1329  23.1936  24.3331  25.8120  26.7697  27.6886
    29.6907  30.9071  31.0100  31.5348  32.7568  33.9139  34.1795  35.3272
    35.7718  36.1321  36.1667  37.6461

          k = 0.1667 0.1667 0.4457 ( 15240 PWs)   bands (ev):

   -10.2494 -10.0346  -9.9763  -9.5576  -9.4265  -9.4071  -9.3782  -9.3642
    -9.3430  -9.3094  -7.3848  -5.8841  -5.3711  -4.8619   3.0554   5.0936
     5.8094   7.0632   7.1038   7.5315   7.7162   8.7354   9.0337   9.8363
     9.8666  10.1312  15.2147  17.2597  19.2761  19.7758  19.8119  21.7626
    22.0192  22.7829  23.2290  23.4759  23.9754  24.9020  25.7509  27.7938
    29.1344  30.9710  31.4351  32.6149  33.4714  33.5542  34.2841  35.7184
    36.2787  37.1737  37.4232  37.8304

          k = 0.1667 0.1667 0.5942 ( 15242 PWs)   bands (ev):

   -10.3390 -10.1897  -9.8764  -9.5651  -9.4083  -9.4008  -9.3486  -9.3330
    -9.3312  -9.3132  -6.9849  -6.0664  -5.0401  -4.7921   3.1893   4.3492
     5.6469   6.5189   6.5517   7.5913   7.9230   9.0062   9.1313   9.6836
     9.7023   9.7732  16.0412  17.1707  19.0430  20.5556  20.7197  21.4853
    21.7273  22.7376  23.3754  23.5105  24.1009  24.1891  25.2016  27.1897
    29.7443  30.8708  31.7004  32.9589  33.8479  34.5693  34.7834  35.3623
    35.4004  36.8835  37.5518  37.8433

          k = 0.1667 0.1667-0.7428 ( 15252 PWs)   bands (ev):

   -10.3831 -10.2451  -9.8107  -9.5904  -9.4140  -9.4095  -9.3215  -9.3197
    -9.3176  -9.3106  -6.6241  -6.3713  -4.9142  -4.7384   3.3637   3.9280
     5.6587   6.2690   6.3406   7.5370   8.1159   9.3226   9.3518   9.3600
     9.4875   9.6376  16.4771  16.9723  18.9686  20.7141  21.1601  21.5126
    21.5720  22.6838  23.5172  23.6766  23.6832  24.1938  25.0437  26.8570
    30.2373  30.8050  31.9804  33.2784  33.9528  34.0204  34.7939  35.5111
    35.8857  36.2695  37.2843  38.1764

          k = 0.1667 0.3333 0.0000 ( 15250 PWs)   bands (ev):

   -10.3393 -10.0264  -9.5382  -9.5268  -9.5202  -9.5131  -9.3546  -9.3201
    -9.3147  -9.3077  -7.6398  -6.7273  -5.9129  -4.9996   3.5769   5.3703
     7.0577   7.3184   8.1286   8.3360   8.3805   9.1016   9.4650   9.5402
     9.9993  10.2575  14.0280  15.8667  17.6619  17.7558  21.3811  22.0066
    22.2783  22.9202  23.2035  23.9879  24.1673  26.1874  28.1774  28.5093
    29.0569  29.1265  29.6853  31.4923  31.5982  33.2717  33.8763  34.6148
    35.2185  36.0881  36.8069  37.2411

          k = 0.1667 0.3333 0.1486 ( 15249 PWs)   bands (ev):

   -10.3021 -10.0013  -9.6227  -9.6170  -9.5101  -9.4682  -9.3526  -9.3239
    -9.3213  -9.3160  -7.5682  -6.6275  -5.8176  -4.9842   3.5732   5.2876
     6.7437   7.3115   7.6418   8.2609   8.6858   9.1185   9.2272   9.4975
    10.0059  10.2960  14.2807  16.0740  18.0199  18.1039  20.8368  21.7987
    22.4755  22.9950  23.2005  23.8184  24.0745  26.1383  27.2647  28.2762
    28.8859  30.0865  30.5201  30.9134  32.0778  33.6542  33.9270  34.4567
    35.0624  35.9498  36.6807  37.5325

          k = 0.1667 0.3333 0.2971 ( 15241 PWs)   bands (ev):

   -10.2285 -10.0154  -9.7889  -9.6704  -9.4738  -9.4429  -9.3534  -9.3438
    -9.3377  -9.3159  -7.3895  -6.4182  -5.5625  -4.9353   3.5352   4.9830
     6.3762   6.5703   7.6747   7.8959   8.2974   9.0385   9.4137   9.5342
     9.9529  10.2732  14.8915  16.4988  18.9130  18.9336  19.9976  21.4035
    22.4649  23.0880  23.1881  23.5897  23.8068  25.7379  26.3238  28.1130
    29.2821  30.2986  30.9375  31.7195  32.1196  33.1704  34.4189  35.2464
    35.6341  36.2203  36.8108  37.3479

          k = 0.1667 0.3333 0.4457 ( 15249 PWs)   bands (ev):

   -10.2634 -10.1303  -9.8520  -9.5905  -9.4267  -9.4103  -9.3730  -9.3611
    -9.3335  -9.3144  -7.1479  -6.2731  -5.2384  -4.8483   3.4297   4.5042
     5.7616   6.4844   7.0198   7.3275   8.5111   9.0954   9.3666   9.7347
     9.8670  10.1292  15.5755  16.7829  19.2964  19.7474  20.0032  21.1772
    22.2750  22.9516  23.2672  23.3645  23.7862  25.1100  25.6517  28.4525
    28.9322  30.6148  31.2958  31.8716  32.8278  33.1822  34.3859  35.3264
    36.4688  37.0228  37.2976  37.8548

          k = 0.1667 0.3333 0.5942 ( 15258 PWs)   bands (ev):

   -10.3722 -10.2551  -9.7753  -9.5432  -9.4120  -9.4034  -9.3430  -9.3329
    -9.3250  -9.3148  -6.8674  -6.3020  -4.9708  -4.7470   3.3230   4.0355
     5.5199   6.1859   6.4770   7.1611   8.6961   9.2569   9.4221   9.6681
     9.8445   9.9263  16.1047  16.8209  18.8540  19.9936  20.9467  21.4398
    22.0528  22.8522  23.1935  23.5001  23.7768  24.4149  25.5140  27.6960
    29.8302  30.5215  31.3663  32.4218  33.4460  33.9073  34.5899  34.9523
    36.0267  36.3394  37.2479  37.9613

          k = 0.1667 0.3333-0.7428 ( 15264 PWs)   bands (ev):

   -10.4177 -10.3047  -9.7330  -9.5374  -9.4158  -9.4106  -9.3196  -9.3182
    -9.3126  -9.3072  -6.6665  -6.4196  -4.8675  -4.6997   3.2923   3.8333
     5.4684   6.0021   6.2867   7.1667   8.7574   9.3651   9.5098   9.6495
     9.6852   9.8723  16.3171  16.7909  18.6793  19.9908  21.3873  21.6277
    21.9676  22.7864  23.2104  23.7062  23.8123  23.8998  25.5382  27.3799
    30.2630  30.4226  31.4226  33.1353  33.9847  34.0237  34.1230  34.8402
    35.6319  36.1916  37.3946  37.6036

          k = 0.1667-0.5000 0.0000 ( 15218 PWs)   bands (ev):

   -10.1946 -10.1946  -9.5293  -9.5293  -9.5228  -9.5227  -9.3365  -9.3365
    -9.3122  -9.3122  -7.2190  -7.2190  -5.4320  -5.4320   4.4165   4.4165
     7.6514   7.6514   7.7066   7.7066   8.7984   8.7984   9.5040   9.5040
    10.0738  10.0738  15.0773  15.0773  17.8875  17.8875  21.5612  21.5612
    23.1329  23.1329  23.1829  23.1830  24.7712  24.7712  28.6192  28.6192
    29.2009  29.2009  29.6425  29.6425  32.9570  32.9570  33.6267  33.6267
    36.2327  36.2327  37.5444  37.5444

          k = 0.1667-0.5000 0.1486 ( 15234 PWs)   bands (ev):

   -10.1641 -10.1641  -9.6208  -9.6208  -9.4901  -9.4901  -9.3362  -9.3361
    -9.3206  -9.3205  -7.1340  -7.1340  -5.3738  -5.3738   4.3923   4.3924
     6.9336   6.9336   8.2016   8.2016   8.7008   8.7008   9.4231   9.4231
    10.0886  10.0886  15.2795  15.2795  18.2346  18.2346  21.1949  21.1949
    23.0876  23.0876  23.2100  23.2100  24.7700  24.7700  27.8951  27.8951
    29.5034  29.5034  30.2764  30.2764  32.8149  32.8149  34.0623  34.0623
    36.3680  36.3680  36.7137  36.7137

          k = 0.1667-0.5000 0.2971 ( 15250 PWs)   bands (ev):

   -10.1326 -10.1326  -9.7297  -9.7297  -9.4592  -9.4592  -9.3475  -9.3475
    -9.3270  -9.3269  -6.9437  -6.9436  -5.2135  -5.2135   4.2560   4.2560
     6.3006   6.3006   7.7880   7.7880   8.9756   8.9756   9.3852   9.3852
    10.0523  10.0523  15.7346  15.7346  19.0654  19.0654  20.5119  20.5119
    22.9588  22.9588  23.2322  23.2322  24.5545  24.5545  27.4089  27.4089
    29.5647  29.5647  31.2415  31.2416  32.6017  32.6017  34.9847  34.9847
    35.9133  35.9133  36.6685  36.6685

          k = 0.1667-0.5000 0.4457 ( 15274 PWs)   bands (ev):

   -10.2224 -10.2224  -9.7012  -9.7012  -9.4200  -9.4200  -9.3647  -9.3646
    -9.3229  -9.3229  -6.7515  -6.7515  -5.0026  -5.0026   3.9393   3.9393
     5.9676   5.9676   7.1118   7.1119   9.2186   9.2186   9.4713   9.4713
     9.9669   9.9669  16.1519  16.1519  19.5289  19.5289  20.4556  20.4556
    22.7305  22.7305  23.2554  23.2554  24.2645  24.2645  27.0452  27.0452
    29.9881  29.9881  31.6689  31.6689  32.5852  32.5852  34.7201  34.7201
    36.5181  36.5181  37.4794  37.4795

          k = 0.1667-0.5000 0.5942 ( 15276 PWs)   bands (ev):

   -10.3401 -10.3401  -9.6285  -9.6285  -9.4090  -9.4089  -9.3365  -9.3365
    -9.3187  -9.3186  -6.6172  -6.6172  -4.8259  -4.8259   3.6109   3.6109
     5.7929   5.7929   6.6960   6.6960   9.2155   9.2155   9.6648   9.6648
     9.8952   9.8952  16.3663  16.3663  19.2545  19.2545  21.2285  21.2285
    22.5283  22.5283  23.2753  23.2753  24.0182  24.0182  26.7919  26.7919
    30.4694  30.4694  31.5485  31.5485  33.2849  33.2849  34.6180  34.6180
    36.0019  36.0019  37.9818  37.9819

          k = 0.1667-0.5000-0.7428 ( 15260 PWs)   bands (ev):

   -10.3867 -10.3867  -9.6021  -9.6021  -9.4129  -9.4129  -9.3181  -9.3181
    -9.3082  -9.3082  -6.5689  -6.5689  -4.7579  -4.7579   3.4799   3.4800
     5.6987   5.6987   6.5987   6.5987   9.1859   9.1859   9.7612   9.7612
     9.8590   9.8590  16.4184  16.4184  19.1371  19.1371  21.6154  21.6154
    22.4201  22.4201  23.3082  23.3082  23.8770  23.8770  26.7062  26.7062
    30.6751  30.6751  31.4569  31.4569  34.1176  34.1176  34.5725  34.5725
    35.2533  35.2533  37.9160  37.9163

          k = 0.3333 0.3333 0.0000 ( 15225 PWs)   bands (ev):

   -10.3044 -10.1272  -9.5308  -9.5295  -9.5231  -9.5176  -9.3455  -9.3255
    -9.3120  -9.3052  -7.3274  -6.3548  -6.3422  -5.3525   4.1485   5.4370
     6.8434   7.5042   7.8465   7.9859   8.5334   9.0285   9.4198   9.4945
     9.9164  10.0762  14.6511  15.6842  17.9448  17.9822  21.3214  21.9089
    22.6934  22.9338  23.2255  23.7875  24.3972  25.5907  28.1005  28.3678
    28.6728  28.6873  28.9411  31.5741  32.2078  32.5362  34.2074  34.6877
    35.7378  36.1767  36.9108  37.6043

          k = 0.3333 0.3333 0.1486 ( 15242 PWs)   bands (ev):

   -10.2639 -10.0932  -9.6208  -9.6159  -9.5122  -9.4840  -9.3439  -9.3251
    -9.3221  -9.3172  -7.2495  -6.3120  -6.2073  -5.3097   4.0944   5.1834
     6.9370   7.1690   7.5657   8.2702   8.3918   8.8219   9.3153   9.6114
     9.9355  10.1650  14.8272  15.8387  18.2767  18.2971  20.9102  21.8519
    22.3282  23.1436  23.2324  23.4384  24.6290  26.0468  27.2117  27.7074
    28.2362  29.6226  29.9052  30.9832  32.5211  33.2392  34.1386  34.7381
    34.7976  36.0733  37.2798  37.7875

          k = 0.3333 0.3333 0.2971 ( 15253 PWs)   bands (ev):

   -10.1796 -10.0386  -9.8213  -9.7239  -9.4738  -9.4526  -9.3504  -9.3452
    -9.3345  -9.3206  -7.0701  -6.2463  -5.8428  -5.1823   3.8784   4.6109
     6.5551   7.1804   7.4338   7.5939   8.0628   9.1459   9.3050   9.6702
     9.9321  10.2228  15.2242  16.1204  19.0560  19.0813  20.1890  21.6575
    21.8838  22.9959  23.2931  23.3148  24.7013  26.1634  26.8049  27.0032
    28.5780  29.4622  30.6930  31.2830  32.3531  33.0239  34.4353  35.0915
    35.6556  36.0203  37.2165  38.1641

          k = 0.3333 0.3333 0.4457 ( 15250 PWs)   bands (ev):

   -10.2268 -10.0397  -9.9574  -9.6866  -9.4214  -9.4048  -9.3787  -9.3651
    -9.3290  -9.3178  -6.8628  -6.2059  -5.4174  -4.9969   3.4906   3.9900
     6.2779   6.7598   6.7631   7.6128   8.0791   9.4036   9.4376   9.6515
     9.9059  10.1368  15.5846  16.2258  19.4505  19.8215  20.2119  21.4485
    21.6940  22.6952  23.2793  23.5158  24.7991  25.4452  25.8580  28.1628
    28.9716  28.9904  30.3973  31.6923  32.2340  33.4199  34.8931  35.2303
    36.4424  36.7694  37.1171  38.4173

          k = 0.3333 0.3333 0.5942 ( 15234 PWs)   bands (ev):

   -10.3414 -10.1954  -9.8566  -9.6222  -9.4092  -9.4018  -9.3446  -9.3353
    -9.3224  -9.3163  -6.6630  -6.2341  -5.0816  -4.8292   3.1305   3.5183
     6.1778   6.1839   6.2537   7.9807   8.1302   9.5440   9.5932   9.6308
     9.8562   9.9518  15.7731  16.1455  19.1440  20.1325  20.9613  21.5333
    21.7693  22.4888  23.2713  23.7791  24.9069  24.9842  25.2309  28.6824
    28.8538  29.1777  30.0573  31.9046  32.8888  34.1829  34.8943  35.3320
    36.0640  37.1073  37.4242  37.4595

          k = 0.3333 0.3333-0.7428 ( 15240 PWs)   bands (ev):

   -10.3878 -10.2510  -9.8177  -9.6012  -9.4146  -9.4105  -9.3186  -9.3169
    -9.3147  -9.3091  -6.5512  -6.2848  -4.9536  -4.7620   2.9885   3.3452
     5.9573   5.9697   6.2736   8.1403   8.1519   9.6271   9.6397   9.6772
     9.7482   9.8593  15.8249  16.0835  19.0268  20.1441  21.2285  21.6686
    21.9402  22.3580  23.2960  23.9762  24.5565  25.0339  25.0749  28.5956
    28.6834  29.5759  30.0730  31.9862  33.6024  34.4264  34.8460  35.3845
    35.4241  36.7026  37.7037  37.7820

          k = 0.3333-0.5000 0.0000 ( 15246 PWs)   bands (ev):

   -10.2316 -10.2316  -9.5277  -9.5277  -9.5233  -9.5233  -9.3346  -9.3345
    -9.3073  -9.3072  -6.8664  -6.8664  -5.8464  -5.8463   4.8962   4.8962
     7.2169   7.2169   7.7542   7.7542   8.8102   8.8102   9.4362   9.4362
     9.9357   9.9357  15.2753  15.2754  18.0844  18.0844  21.5920  21.5920
    23.1800  23.1800  23.2481  23.2481  24.6513  24.6513  28.2652  28.2652
    28.6468  28.6468  29.8763  29.8763  33.2772  33.2772  33.4063  33.4063
    36.3569  36.3569  36.7427  36.7427

          k = 0.3333-0.5000 0.1486 ( 15236 PWs)   bands (ev):

   -10.1916 -10.1915  -9.6180  -9.6180  -9.5020  -9.5020  -9.3335  -9.3334
    -9.3192  -9.3192  -6.7842  -6.7842  -5.7753  -5.7753   4.7377   4.7377
     6.9915   6.9915   7.9687   7.9687   8.4702   8.4702   9.5270   9.5270
     9.9899   9.9899  15.4117  15.4117  18.3909  18.3909  21.3611  21.3611
    22.7554  22.7554  23.3119  23.3119  25.1958  25.1958  27.5144  27.5144
    28.6673  28.6673  30.4525  30.4525  33.0000  33.0000  33.9903  33.9903
    35.4523  35.4523  37.8068  37.8069

          k = 0.3333-0.5000 0.2971 ( 15236 PWs)   bands (ev):

   -10.1070 -10.1070  -9.7894  -9.7894  -9.4657  -9.4657  -9.3472  -9.3472
    -9.3276  -9.3276  -6.6183  -6.6182  -5.5619  -5.5619   4.2673   4.2673
     6.8362   6.8362   7.5405   7.5405   8.5036   8.5036   9.6124   9.6124
    10.0432  10.0432  15.6694  15.6694  19.1118  19.1118  20.8753  20.8753
    22.3439  22.3439  23.4141  23.4142  25.6131  25.6131  27.0555  27.0555
    28.3783  28.3783  30.9738  30.9738  32.8001  32.8001  34.7701  34.7701
    35.4476  35.4476  37.5978  37.5979

          k = 0.3333-0.5000 0.4457 ( 15214 PWs)   bands (ev):

   -10.1384 -10.1384  -9.8351  -9.8351  -9.4121  -9.4121  -9.3727  -9.3727
    -9.3230  -9.3230  -6.4770  -6.4770  -5.2587  -5.2587   3.6610   3.6610
     6.6187   6.6187   7.0660   7.0660   8.7867   8.7867   9.6728   9.6728
    10.0147  10.0147  15.7892  15.7892  19.6589  19.6589  20.7815  20.7815
    22.1023  22.1024  23.5564  23.5564  25.3722  25.3722  26.9804  26.9804
    28.5764  28.5764  30.7336  30.7336  33.0291  33.0291  35.0923  35.0923
    36.2556  36.2556  37.6385  37.6385

          k = 0.3333-0.5000 0.5942 ( 15228 PWs)   bands (ev):

   -10.2590 -10.2590  -9.7669  -9.7669  -9.4039  -9.4039  -9.3411  -9.3411
    -9.3189  -9.3189  -6.3894  -6.3894  -4.9947  -4.9947   3.1829   3.1829
     6.0864   6.0864   7.1701   7.1701   8.9943   8.9943   9.7177   9.7177
     9.9341   9.9341  15.7428  15.7428  19.6259  19.6259  21.2799  21.2799
    22.0229  22.0229  23.6483  23.6483  25.0886  25.0886  26.8392  26.8392
    29.0651  29.0651  30.4009  30.4009  33.5817  33.5817  35.2543  35.2543
    36.3799  36.3799  37.9177  37.9177

          k = 0.3333-0.5000-0.7428 ( 15216 PWs)   bands (ev):

   -10.3085 -10.3085  -9.7375  -9.7375  -9.4114  -9.4114  -9.3176  -9.3176
    -9.3129  -9.3129  -6.3591  -6.3591  -4.8910  -4.8910   3.0049   3.0050
     5.8746   5.8746   7.2396   7.2396   9.0728   9.0728   9.7397   9.7397
     9.8844   9.8844  15.6976  15.6976  19.5544  19.5544  21.5653  21.5653
    21.9983  21.9983  23.6836  23.6836  24.9589  24.9589  26.7823  26.7823
    29.2940  29.2940  30.3005  30.3005  33.9411  33.9411  35.2750  35.2750
    36.4480  36.4480  37.2487  37.2488

          k =-0.5000-0.5000 0.0000 ( 15240 PWs)   bands (ev):

   -10.2491 -10.2491  -9.5301  -9.5300  -9.5207  -9.5207  -9.3336  -9.3336
    -9.3049  -9.3049  -6.3844  -6.3844  -6.3583  -6.3583   5.2183   5.2184
     6.9126   6.9126   7.7793   7.7793   8.8201   8.8201   9.4009   9.4009
     9.8695   9.8695  15.3746  15.3746  18.1732  18.1732  21.6676  21.6676
    23.2810  23.2810  23.3682  23.3682  24.1958  24.1958  28.0375  28.0375
    28.6521  28.6521  30.6221  30.6221  32.1408  32.1408  33.9495  33.9495
    35.3942  35.3942  37.0470  37.0470

          k =-0.5000-0.5000 0.1486 ( 15248 PWs)   bands (ev):

   -10.2049 -10.2048  -9.6168  -9.6168  -9.5074  -9.5074  -9.3320  -9.3320
    -9.3186  -9.3186  -6.3492  -6.3492  -6.2357  -6.2357   4.9356   4.9356
     6.9987   6.9987   7.8672   7.8672   8.3342   8.3342   9.6431   9.6431
     9.8774   9.8774  15.4802  15.4802  18.4579  18.4579  21.5897  21.5897
    22.4832  22.4832  23.4012  23.4012  25.1535  25.1535  27.7807  27.7807
    27.9997  27.9997  31.1751  31.1751  32.2960  32.2960  34.1842  34.1842
    34.7886  34.7886  38.1847  38.1847

          k =-0.5000-0.5000 0.2971 ( 15244 PWs)   bands (ev):

   -10.0904 -10.0904  -9.8230  -9.8229  -9.4683  -9.4683  -9.3466  -9.3465
    -9.3280  -9.3280  -6.3235  -6.3235  -5.8688  -5.8688   4.2784   4.2784
     7.1633   7.1633   7.5928   7.5928   8.0391   8.0391   9.8490   9.8490
     9.8984   9.8984  15.6454  15.6454  19.1232  19.1232  21.3583  21.3583
    21.7659  21.7659  23.5426  23.5426  26.3785  26.3785  27.1736  27.1736
    27.1981  27.1981  31.1118  31.1118  32.7255  32.7255  34.6960  34.6960
    35.2121  35.2122  37.5368  37.5368

          k =-0.5000-0.5000 0.4457 ( 15204 PWs)   bands (ev):

   -10.0420 -10.0420  -9.9550  -9.9550  -9.4077  -9.4077  -9.3770  -9.3769
    -9.3230  -9.3230  -6.2877  -6.2877  -5.4404  -5.4404   3.5612   3.5612
     6.6067   6.6067   7.6926   7.6926   8.1952   8.1952   9.9078   9.9078
     9.9246   9.9247  15.6389  15.6389  19.6758  19.6758  21.2176  21.2176
    21.5576  21.5576  23.7375  23.7375  26.5955  26.5955  26.7078  26.7078
    27.4177  27.4178  30.4259  30.4259  33.2693  33.2693  35.1916  35.1916
    36.3975  36.3975  36.9324  36.9324

          k =-0.5000-0.5000 0.5942 ( 15224 PWs)   bands (ev):

   -10.1981 -10.1981  -9.8550  -9.8550  -9.4005  -9.4005  -9.3441  -9.3441
    -9.3189  -9.3189  -6.2545  -6.2545  -5.1021  -5.1021   3.0254   3.0254
     6.0274   6.0274   8.0251   8.0251   8.3006   8.3006   9.8653   9.8653
     9.9462   9.9462  15.4959  15.4959  19.7188  19.7188  21.4699  21.4699
    21.6578  21.6578  23.8400  23.8400  26.1707  26.1707  26.5346  26.5346
    28.1680  28.1680  29.9989  29.9989  33.6279  33.6279  35.5208  35.5208
    36.8960  36.8960  37.0752  37.0753

          k =-0.5000-0.5000-0.7428 ( 15224 PWs)   bands (ev):

   -10.2538 -10.2538  -9.8200  -9.8200  -9.4093  -9.4093  -9.3174  -9.3173
    -9.3154  -9.3154  -6.2407  -6.2407  -4.9731  -4.9731   2.8277   2.8278
     5.8119   5.8119   8.1770   8.1770   8.3382   8.3382   9.8238   9.8238
     9.9545   9.9545  15.4171  15.4171  19.6505  19.6505  21.6510  21.6510
    21.7366  21.7366  23.8593  23.8594  26.0196  26.0196  26.4832  26.4832
    28.4606  28.4606  29.9061  29.9061  33.7054  33.7054  35.6343  35.6343
    37.2309  37.2309  37.2324  37.2324

     the Fermi energy is    10.8918 ev
     (compare with:    10.8937 eV, computed in scf)

     Writing all to output data dir out/mp-856.save/
 
     init_run     :      0.18s CPU      0.21s WALL (       1 calls)
     electrons    :     17.00s CPU     19.71s WALL (       1 calls)

     Called by init_run:
     wfcinit      :      0.00s CPU      0.00s WALL (       1 calls)
     potinit      :      0.02s CPU      0.03s WALL (       1 calls)
     hinit0       :      0.06s CPU      0.07s WALL (       1 calls)

     Called by electrons:
     c_bands      :     17.00s CPU     19.71s WALL (       1 calls)
     v_of_rho     :      0.01s CPU      0.01s WALL (       1 calls)

     Called by c_bands:
     init_us_2    :      0.01s CPU      0.02s WALL (      60 calls)
     init_us_2:cp :      0.01s CPU      0.02s WALL (      60 calls)
     cegterg      :     15.85s CPU     16.09s WALL (      94 calls)

     Called by *egterg:
     cdiaghg      :      3.39s CPU      3.41s WALL (    1385 calls)
     h_psi        :     10.35s CPU     10.58s WALL (    1479 calls)
     g_psi        :      0.09s CPU      0.09s WALL (    1325 calls)

     Called by h_psi:
     h_psi:calbec :      0.53s CPU      0.54s WALL (    1479 calls)
     vloc_psi     :      9.38s CPU      9.58s WALL (    1479 calls)
     add_vuspsi   :      0.38s CPU      0.39s WALL (    1479 calls)

     General routines
     calbec       :      0.52s CPU      0.54s WALL (    1479 calls)
     fft          :      0.01s CPU      0.01s WALL (      10 calls)
     fftw         :      8.56s CPU      8.74s WALL (   90114 calls)
 
     Parallel routines
 
     PWSCF        :     18.25s CPU     26.75s WALL

 
   This run was terminated on:   9:52:17  11Apr2024            

=------------------------------------------------------------------------------=
   JOB DONE.
=------------------------------------------------------------------------------=
