 vasp.5.4.4.18Apr17-6-g9f103f2a35 (build Aug 24 2017 11:22:49) complex          
  
 executed on             LinuxIFC date 2023.12.25  13:07:26
 running on    8 total cores
 distrk:  each k-point on    8 cores,    1 groups
 distr:  one band on NCORES_PER_BAND=   1 cores,    8 groups


--------------------------------------------------------------------------------------------------------


 INCAR:
 POTCAR:    PAW_PBE C 08Apr2002                   
 POTCAR:    PAW_PBE N 08Apr2002                   

 ----------------------------------------------------------------------------- 
|                                                                             |
|           W    W    AA    RRRRR   N    N  II  N    N   GGGG   !!!           |
|           W    W   A  A   R    R  NN   N  II  NN   N  G    G  !!!           |
|           W    W  A    A  R    R  N N  N  II  N N  N  G       !!!           |
|           W WW W  AAAAAA  RRRRR   N  N N  II  N  N N  G  GGG   !            |
|           WW  WW  A    A  R   R   N   NN  II  N   NN  G    G                |
|           W    W  A    A  R    R  N    N  II  N    N   GGGG   !!!           |
|                                                                             |
|      For optimal performance we recommend to set                            |
|        NCORE= 4 - approx SQRT( number of cores)                             |
|      NCORE specifies how many cores store one orbital (NPAR=cpu/NCORE).     |
|      This setting can  greatly improve the performance of VASP for DFT.     |
|      The default,   NCORE=1            might be grossly inefficient         |
|      on modern multi-core architectures or massively parallel machines.     |
|      Do your own testing !!!!                                               |
|      Unfortunately you need to use the default for GW and RPA calculations. |
|      (for HF NCORE is supported but not extensively tested yet)             |
|                                                                             |
 ----------------------------------------------------------------------------- 

 POTCAR:    PAW_PBE C 08Apr2002                   
   VRHFIN =C: s2p2                                                              
   LEXCH  = PE                                                                  
   EATOM  =   147.1560 eV,   10.8157 Ry                                         
                                                                                
   TITEL  = PAW_PBE C 08Apr2002                                                 
   LULTRA =        F    use ultrasoft PP ?                                      
   IUNSCR =        1    unscreen: 0-lin 1-nonlin 2-no                           
   RPACOR =    1.200    partial core radius                                     
   POMASS =   12.011; ZVAL   =    4.000    mass and valenz                      
   RCORE  =    1.500    outmost cutoff radius                                   
   RWIGS  =    1.630; RWIGS  =    0.863    wigner-seitz radius (au A)           
   ENMAX  =  400.000; ENMIN  =  300.000 eV                                      
   ICORE  =        2    local potential                                         
   LCOR   =        T    correct aug charges                                     
   LPAW   =        T    paw PP                                                  
   EAUG   =  644.873                                                            
   DEXC   =    0.000                                                            
   RMAX   =    1.529    core radius for proj-oper                               
   RAUG   =    1.300    factor for augmentation sphere                          
   RDEP   =    1.501    radius for radial grids                                 
   RDEPT  =    1.300    core radius for aug-charge                              
                                                                                
   Atomic configuration                                                         
    4 entries                                                                   
     n  l   j            E        occ.                                          
     1  0  0.50      -273.3789   2.0000                                         
     2  0  0.50       -13.7508   2.0000                                         
     2  1  0.50        -5.2854   2.0000                                         
     3  2  1.50        -5.4423   0.0000                                         
   Description                                                                  
     l       E           TYP  RCUT    TYP  RCUT                                 
     0    -13.7508458     23  1.200                                             
     0     -8.2022199     23  1.200                                             
     1     -5.2854383     23  1.500                                             
     1     34.0145650     23  1.500                                             
     2     -5.4423304      7  1.500                                             
  local pseudopotential read in
  partial core-charges read in
  partial kinetic energy density read in
  atomic valenz-charges read in
  non local Contribution for L=           0  read in
    real space projection operators read in
  non local Contribution for L=           0  read in
    real space projection operators read in
  non local Contribution for L=           1  read in
    real space projection operators read in
  non local Contribution for L=           1  read in
    real space projection operators read in
    PAW grid and wavefunctions read in
 
   number of l-projection  operators is LMAX  =           4
   number of lm-projection operators is LMMAX =           8
 
 POTCAR:    PAW_PBE N 08Apr2002                   
   VRHFIN =N: s2p3                                                              
   LEXCH  = PE                                                                  
   EATOM  =   264.5486 eV,   19.4438 Ry                                         
                                                                                
   TITEL  = PAW_PBE N 08Apr2002                                                 
   LULTRA =        F    use ultrasoft PP ?                                      
   IUNSCR =        1    unscreen: 0-lin 1-nonlin 2-no                           
   RPACOR =    1.200    partial core radius                                     
   POMASS =   14.001; ZVAL   =    5.000    mass and valenz                      
   RCORE  =    1.500    outmost cutoff radius                                   
   RWIGS  =    1.400; RWIGS  =    0.741    wigner-seitz radius (au A)           
   ENMAX  =  400.000; ENMIN  =  300.000 eV                                      
   ICORE  =        2    local potential                                         
   LCOR   =        T    correct aug charges                                     
   LPAW   =        T    paw PP                                                  
   EAUG   =  627.112                                                            
   DEXC   =    0.000                                                            
   RMAX   =    1.529    core radius for proj-oper                               
   RAUG   =    1.300    factor for augmentation sphere                          
   RDEP   =    1.514    radius for radial grids                                 
   RDEPT  =    1.338    core radius for aug-charge                              
                                                                                
   Atomic configuration                                                         
    4 entries                                                                   
     n  l   j            E        occ.                                          
     1  0  0.50      -384.7179   2.0000                                         
     2  0  0.50       -18.5828   2.0000                                         
     2  1  0.50        -7.0898   3.0000                                         
     3  2  1.50        -6.8029   0.0000                                         
   Description                                                                  
     l       E           TYP  RCUT    TYP  RCUT                                 
     0    -18.5828119     23  1.200                                             
     0    -13.5018863     23  1.200                                             
     1     -7.0897853     23  1.500                                             
     1      9.5240782     23  1.500                                             
     2     -6.8029130      7  1.500                                             
  local pseudopotential read in
  partial core-charges read in
  partial kinetic energy density read in
  atomic valenz-charges read in
  non local Contribution for L=           0  read in
    real space projection operators read in
  non local Contribution for L=           0  read in
    real space projection operators read in
  non local Contribution for L=           1  read in
    real space projection operators read in
  non local Contribution for L=           1  read in
    real space projection operators read in
    PAW grid and wavefunctions read in
 
   number of l-projection  operators is LMAX  =           4
   number of lm-projection operators is LMMAX =           8
 
  PAW_PBE C 08Apr2002                   :
 energy of atom  1       EATOM= -147.1560
 kinetic energy error for atom=    0.0071 (will be added to EATOM!!)
  PAW_PBE N 08Apr2002                   :
 energy of atom  2       EATOM= -264.5486
 kinetic energy error for atom=    0.0125 (will be added to EATOM!!)
 
 
 POSCAR: C6 N8                                   
  positions in direct lattice
  No initial velocities read in
 exchange correlation table for  LEXCH =        8
   RHO(1)=    0.500       N(1)  =     2000
   RHO(2)=  100.500       N(2)  =     4000
 


--------------------------------------------------------------------------------------------------------


 ion  position               nearest neighbor table
   1  0.595  0.822  0.750-  11 1.46  11 1.46   7 1.46  13 1.47
   2  0.178  0.773  0.750-  12 1.46  12 1.46   8 1.46  13 1.47
   3  0.227  0.405  0.750-  10 1.46  10 1.46   9 1.46  13 1.47
   4  0.405  0.178  0.250-   8 1.46   8 1.46  10 1.46  14 1.47
   5  0.822  0.227  0.250-   9 1.46   9 1.46  11 1.46  14 1.47
   6  0.773  0.595  0.250-   7 1.46   7 1.46  12 1.46  14 1.47
   7  0.703  0.670  0.750-   6 1.46   6 1.46   1 1.46
   8  0.330  0.033  0.750-   4 1.46   4 1.46   2 1.46
   9  0.967  0.297  0.750-   5 1.46   5 1.46   3 1.46
  10  0.297  0.330  0.250-   3 1.46   3 1.46   4 1.46
  11  0.670  0.967  0.250-   1 1.46   1 1.46   5 1.46
  12  0.033  0.703  0.250-   2 1.46   2 1.46   6 1.46
  13  0.333  0.667  0.750-   2 1.47   1 1.47   3 1.47
  14  0.667  0.333  0.250-   4 1.47   6 1.47   5 1.47
 
  LATTYP: Found a hexagonal cell.
 ALAT       =     6.4505257714
 C/A-ratio  =     0.3756499702
  
  Lattice vectors:
  
 A1 = (   6.4505257714,   0.0000000000,   0.0000000000)
 A2 = (  -3.2252628857,   5.5863191858,   0.0000000000)
 A3 = (   0.0000000000,   0.0000000000,   2.4231398139)


Analysis of symmetry for initial positions (statically):
=====================================================================
 Subroutine PRICEL returns:
 Original cell was already a primitive cell.
 

 Routine SETGRP: Setting up the symmetry group for a 
 hexagonal supercell.


 Subroutine GETGRP returns: Found  2 space group operations
 (whereof  1 operations were pure point group operations)
 out of a pool of 24 trial point group operations.


The static configuration has the point symmetry C_1 .
 The point group associated with its full space group is S_2 .


Analysis of symmetry for dynamics (positions and initial velocities):
=====================================================================
 Subroutine PRICEL returns:
 Original cell was already a primitive cell.
 

 Routine SETGRP: Setting up the symmetry group for a 
 hexagonal supercell.


 Subroutine GETGRP returns: Found  2 space group operations
 (whereof  1 operations were pure point group operations)
 out of a pool of 24 trial point group operations.


The dynamic configuration has the point symmetry C_1 .
 The point group associated with its full space group is S_2 .


 Subroutine INISYM returns: Found  2 space group operations
 (whereof  1 operations are pure point group operations),
 and found     1 'primitive' translations

 
 
 KPOINTS: pymatgen with grid density = 3000 / numb

Automatic generation of k-mesh.
Space group operators:
 irot       det(A)        alpha          n_x          n_y          n_z        tau_x        tau_y        tau_z
    1     1.000000     0.000001     1.000000     0.000000     0.000000     0.000000     0.000000     0.000000
    2    -1.000000     0.000001     1.000000     0.000000     0.000000     0.000000     0.000000     0.000000
 
 Subroutine IBZKPT returns following result:
 ===========================================
 
 Found    100 irreducible k-points:
 
 Following reciprocal coordinates:
            Coordinates               Weight
  0.000000  0.000000  0.000000      1.000000
  0.250000  0.000000  0.000000      2.000000
  0.500000  0.000000  0.000000      1.000000
  0.000000  0.250000  0.000000      2.000000
  0.250000  0.250000  0.000000      2.000000
  0.500000  0.250000  0.000000      2.000000
 -0.250000  0.250000  0.000000      2.000000
  0.000000  0.500000  0.000000      1.000000
  0.250000  0.500000  0.000000      2.000000
  0.500000  0.500000  0.000000      1.000000
  0.000000  0.000000  0.083333      2.000000
  0.250000  0.000000  0.083333      2.000000
  0.500000  0.000000  0.083333      2.000000
 -0.250000 -0.000000  0.083333      2.000000
  0.000000  0.250000  0.083333      2.000000
  0.250000  0.250000  0.083333      2.000000
  0.500000  0.250000  0.083333      2.000000
 -0.250000  0.250000  0.083333      2.000000
  0.000000  0.500000  0.083333      2.000000
  0.250000  0.500000  0.083333      2.000000
  0.500000  0.500000  0.083333      2.000000
 -0.250000  0.500000  0.083333      2.000000
  0.000000 -0.250000  0.083333      2.000000
  0.250000 -0.250000  0.083333      2.000000
  0.500000 -0.250000  0.083333      2.000000
 -0.250000 -0.250000  0.083333      2.000000
  0.000000  0.000000  0.166667      2.000000
  0.250000  0.000000  0.166667      2.000000
  0.500000  0.000000  0.166667      2.000000
 -0.250000 -0.000000  0.166667      2.000000
  0.000000  0.250000  0.166667      2.000000
  0.250000  0.250000  0.166667      2.000000
  0.500000  0.250000  0.166667      2.000000
 -0.250000  0.250000  0.166667      2.000000
  0.000000  0.500000  0.166667      2.000000
  0.250000  0.500000  0.166667      2.000000
  0.500000  0.500000  0.166667      2.000000
 -0.250000  0.500000  0.166667      2.000000
  0.000000 -0.250000  0.166667      2.000000
  0.250000 -0.250000  0.166667      2.000000
  0.500000 -0.250000  0.166667      2.000000
 -0.250000 -0.250000  0.166667      2.000000
  0.000000  0.000000  0.250000      2.000000
  0.250000  0.000000  0.250000      2.000000
  0.500000  0.000000  0.250000      2.000000
 -0.250000 -0.000000  0.250000      2.000000
  0.000000  0.250000  0.250000      2.000000
  0.250000  0.250000  0.250000      2.000000
  0.500000  0.250000  0.250000      2.000000
 -0.250000  0.250000  0.250000      2.000000
  0.000000  0.500000  0.250000      2.000000
  0.250000  0.500000  0.250000      2.000000
  0.500000  0.500000  0.250000      2.000000
 -0.250000  0.500000  0.250000      2.000000
  0.000000 -0.250000  0.250000      2.000000
  0.250000 -0.250000  0.250000      2.000000
  0.500000 -0.250000  0.250000      2.000000
 -0.250000 -0.250000  0.250000      2.000000
  0.000000  0.000000  0.333333      2.000000
  0.250000  0.000000  0.333333      2.000000
  0.500000  0.000000  0.333333      2.000000
 -0.250000 -0.000000  0.333333      2.000000
  0.000000  0.250000  0.333333      2.000000
  0.250000  0.250000  0.333333      2.000000
  0.500000  0.250000  0.333333      2.000000
 -0.250000  0.250000  0.333333      2.000000
  0.000000  0.500000  0.333333      2.000000
  0.250000  0.500000  0.333333      2.000000
  0.500000  0.500000  0.333333      2.000000
 -0.250000  0.500000  0.333333      2.000000
  0.000000 -0.250000  0.333333      2.000000
  0.250000 -0.250000  0.333333      2.000000
  0.500000 -0.250000  0.333333      2.000000
 -0.250000 -0.250000  0.333333      2.000000
  0.000000  0.000000  0.416667      2.000000
  0.250000  0.000000  0.416667      2.000000
  0.500000  0.000000  0.416667      2.000000
 -0.250000 -0.000000  0.416667      2.000000
  0.000000  0.250000  0.416667      2.000000
  0.250000  0.250000  0.416667      2.000000
  0.500000  0.250000  0.416667      2.000000
 -0.250000  0.250000  0.416667      2.000000
  0.000000  0.500000  0.416667      2.000000
  0.250000  0.500000  0.416667      2.000000
  0.500000  0.500000  0.416667      2.000000
 -0.250000  0.500000  0.416667      2.000000
  0.000000 -0.250000  0.416667      2.000000
  0.250000 -0.250000  0.416667      2.000000
  0.500000 -0.250000  0.416667      2.000000
 -0.250000 -0.250000  0.416667      2.000000
  0.000000  0.000000  0.500000      1.000000
  0.250000  0.000000  0.500000      2.000000
  0.500000  0.000000  0.500000      1.000000
  0.000000  0.250000  0.500000      2.000000
  0.250000  0.250000  0.500000      2.000000
  0.500000  0.250000  0.500000      2.000000
 -0.250000  0.250000  0.500000      2.000000
  0.000000  0.500000  0.500000      1.000000
  0.250000  0.500000  0.500000      2.000000
  0.500000  0.500000  0.500000      1.000000
 
 Following cartesian coordinates:
            Coordinates               Weight
  0.000000  0.000000  0.000000      1.000000
  0.038757  0.022376  0.000000      2.000000
  0.077513  0.044752  0.000000      1.000000
  0.000000  0.044752  0.000000      2.000000
  0.038757  0.067128  0.000000      2.000000
  0.077513  0.089504  0.000000      2.000000
 -0.038757  0.022376  0.000000      2.000000
  0.000000  0.089504  0.000000      1.000000
  0.038757  0.111880  0.000000      2.000000
  0.077513  0.134257  0.000000      1.000000
  0.000000  0.000000  0.034391      2.000000
  0.038757  0.022376  0.034391      2.000000
  0.077513  0.044752  0.034391      2.000000
 -0.038757 -0.022376  0.034391      2.000000
  0.000000  0.044752  0.034391      2.000000
  0.038757  0.067128  0.034391      2.000000
  0.077513  0.089504  0.034391      2.000000
 -0.038757  0.022376  0.034391      2.000000
  0.000000  0.089504  0.034391      2.000000
  0.038757  0.111880  0.034391      2.000000
  0.077513  0.134257  0.034391      2.000000
 -0.038757  0.067128  0.034391      2.000000
  0.000000 -0.044752  0.034391      2.000000
  0.038757 -0.022376  0.034391      2.000000
  0.077513  0.000000  0.034391      2.000000
 -0.038757 -0.067128  0.034391      2.000000
  0.000000  0.000000  0.068781      2.000000
  0.038757  0.022376  0.068781      2.000000
  0.077513  0.044752  0.068781      2.000000
 -0.038757 -0.022376  0.068781      2.000000
  0.000000  0.044752  0.068781      2.000000
  0.038757  0.067128  0.068781      2.000000
  0.077513  0.089504  0.068781      2.000000
 -0.038757  0.022376  0.068781      2.000000
  0.000000  0.089504  0.068781      2.000000
  0.038757  0.111880  0.068781      2.000000
  0.077513  0.134257  0.068781      2.000000
 -0.038757  0.067128  0.068781      2.000000
  0.000000 -0.044752  0.068781      2.000000
  0.038757 -0.022376  0.068781      2.000000
  0.077513  0.000000  0.068781      2.000000
 -0.038757 -0.067128  0.068781      2.000000
  0.000000  0.000000  0.103172      2.000000
  0.038757  0.022376  0.103172      2.000000
  0.077513  0.044752  0.103172      2.000000
 -0.038757 -0.022376  0.103172      2.000000
  0.000000  0.044752  0.103172      2.000000
  0.038757  0.067128  0.103172      2.000000
  0.077513  0.089504  0.103172      2.000000
 -0.038757  0.022376  0.103172      2.000000
  0.000000  0.089504  0.103172      2.000000
  0.038757  0.111880  0.103172      2.000000
  0.077513  0.134257  0.103172      2.000000
 -0.038757  0.067128  0.103172      2.000000
  0.000000 -0.044752  0.103172      2.000000
  0.038757 -0.022376  0.103172      2.000000
  0.077513  0.000000  0.103172      2.000000
 -0.038757 -0.067128  0.103172      2.000000
  0.000000  0.000000  0.137563      2.000000
  0.038757  0.022376  0.137563      2.000000
  0.077513  0.044752  0.137563      2.000000
 -0.038757 -0.022376  0.137563      2.000000
  0.000000  0.044752  0.137563      2.000000
  0.038757  0.067128  0.137563      2.000000
  0.077513  0.089504  0.137563      2.000000
 -0.038757  0.022376  0.137563      2.000000
  0.000000  0.089504  0.137563      2.000000
  0.038757  0.111880  0.137563      2.000000
  0.077513  0.134257  0.137563      2.000000
 -0.038757  0.067128  0.137563      2.000000
  0.000000 -0.044752  0.137563      2.000000
  0.038757 -0.022376  0.137563      2.000000
  0.077513  0.000000  0.137563      2.000000
 -0.038757 -0.067128  0.137563      2.000000
  0.000000  0.000000  0.171953      2.000000
  0.038757  0.022376  0.171953      2.000000
  0.077513  0.044752  0.171953      2.000000
 -0.038757 -0.022376  0.171953      2.000000
  0.000000  0.044752  0.171953      2.000000
  0.038757  0.067128  0.171953      2.000000
  0.077513  0.089504  0.171953      2.000000
 -0.038757  0.022376  0.171953      2.000000
  0.000000  0.089504  0.171953      2.000000
  0.038757  0.111880  0.171953      2.000000
  0.077513  0.134257  0.171953      2.000000
 -0.038757  0.067128  0.171953      2.000000
  0.000000 -0.044752  0.171953      2.000000
  0.038757 -0.022376  0.171953      2.000000
  0.077513  0.000000  0.171953      2.000000
 -0.038757 -0.067128  0.171953      2.000000
  0.000000  0.000000  0.206344      1.000000
  0.038757  0.022376  0.206344      2.000000
  0.077513  0.044752  0.206344      1.000000
  0.000000  0.044752  0.206344      2.000000
  0.038757  0.067128  0.206344      2.000000
  0.077513  0.089504  0.206344      2.000000
 -0.038757  0.022376  0.206344      2.000000
  0.000000  0.089504  0.206344      1.000000
  0.038757  0.111880  0.206344      2.000000
  0.077513  0.134257  0.206344      1.000000
 
 
 Subroutine IBZKPT_HF returns following result:
 ==============================================
 
 Found    192 k-points in 1st BZ
 the following    192 k-points will be used (e.g. in the exchange kernel)
 Following reciprocal coordinates:   # in IRBZ
  0.000000  0.000000  0.000000    0.00520833   1 t-inv F
  0.250000  0.000000  0.000000    0.00520833   2 t-inv F
  0.500000  0.000000  0.000000    0.00520833   3 t-inv F
  0.000000  0.250000  0.000000    0.00520833   4 t-inv F
  0.250000  0.250000  0.000000    0.00520833   5 t-inv F
  0.500000  0.250000  0.000000    0.00520833   6 t-inv F
 -0.250000  0.250000  0.000000    0.00520833   7 t-inv F
  0.000000  0.500000  0.000000    0.00520833   8 t-inv F
  0.250000  0.500000  0.000000    0.00520833   9 t-inv F
  0.500000  0.500000  0.000000    0.00520833  10 t-inv F
  0.000000  0.000000  0.083333    0.00520833  11 t-inv F
  0.250000  0.000000  0.083333    0.00520833  12 t-inv F
  0.500000  0.000000  0.083333    0.00520833  13 t-inv F
 -0.250000 -0.000000  0.083333    0.00520833  14 t-inv F
  0.000000  0.250000  0.083333    0.00520833  15 t-inv F
  0.250000  0.250000  0.083333    0.00520833  16 t-inv F
  0.500000  0.250000  0.083333    0.00520833  17 t-inv F
 -0.250000  0.250000  0.083333    0.00520833  18 t-inv F
  0.000000  0.500000  0.083333    0.00520833  19 t-inv F
  0.250000  0.500000  0.083333    0.00520833  20 t-inv F
  0.500000  0.500000  0.083333    0.00520833  21 t-inv F
 -0.250000  0.500000  0.083333    0.00520833  22 t-inv F
  0.000000 -0.250000  0.083333    0.00520833  23 t-inv F
  0.250000 -0.250000  0.083333    0.00520833  24 t-inv F
  0.500000 -0.250000  0.083333    0.00520833  25 t-inv F
 -0.250000 -0.250000  0.083333    0.00520833  26 t-inv F
  0.000000  0.000000  0.166667    0.00520833  27 t-inv F
  0.250000  0.000000  0.166667    0.00520833  28 t-inv F
  0.500000  0.000000  0.166667    0.00520833  29 t-inv F
 -0.250000 -0.000000  0.166667    0.00520833  30 t-inv F
  0.000000  0.250000  0.166667    0.00520833  31 t-inv F
  0.250000  0.250000  0.166667    0.00520833  32 t-inv F
  0.500000  0.250000  0.166667    0.00520833  33 t-inv F
 -0.250000  0.250000  0.166667    0.00520833  34 t-inv F
  0.000000  0.500000  0.166667    0.00520833  35 t-inv F
  0.250000  0.500000  0.166667    0.00520833  36 t-inv F
  0.500000  0.500000  0.166667    0.00520833  37 t-inv F
 -0.250000  0.500000  0.166667    0.00520833  38 t-inv F
  0.000000 -0.250000  0.166667    0.00520833  39 t-inv F
  0.250000 -0.250000  0.166667    0.00520833  40 t-inv F
  0.500000 -0.250000  0.166667    0.00520833  41 t-inv F
 -0.250000 -0.250000  0.166667    0.00520833  42 t-inv F
  0.000000  0.000000  0.250000    0.00520833  43 t-inv F
  0.250000  0.000000  0.250000    0.00520833  44 t-inv F
  0.500000  0.000000  0.250000    0.00520833  45 t-inv F
 -0.250000 -0.000000  0.250000    0.00520833  46 t-inv F
  0.000000  0.250000  0.250000    0.00520833  47 t-inv F
  0.250000  0.250000  0.250000    0.00520833  48 t-inv F
  0.500000  0.250000  0.250000    0.00520833  49 t-inv F
 -0.250000  0.250000  0.250000    0.00520833  50 t-inv F
  0.000000  0.500000  0.250000    0.00520833  51 t-inv F
  0.250000  0.500000  0.250000    0.00520833  52 t-inv F
  0.500000  0.500000  0.250000    0.00520833  53 t-inv F
 -0.250000  0.500000  0.250000    0.00520833  54 t-inv F
  0.000000 -0.250000  0.250000    0.00520833  55 t-inv F
  0.250000 -0.250000  0.250000    0.00520833  56 t-inv F
  0.500000 -0.250000  0.250000    0.00520833  57 t-inv F
 -0.250000 -0.250000  0.250000    0.00520833  58 t-inv F
  0.000000  0.000000  0.333333    0.00520833  59 t-inv F
  0.250000  0.000000  0.333333    0.00520833  60 t-inv F
  0.500000  0.000000  0.333333    0.00520833  61 t-inv F
 -0.250000 -0.000000  0.333333    0.00520833  62 t-inv F
  0.000000  0.250000  0.333333    0.00520833  63 t-inv F
  0.250000  0.250000  0.333333    0.00520833  64 t-inv F
  0.500000  0.250000  0.333333    0.00520833  65 t-inv F
 -0.250000  0.250000  0.333333    0.00520833  66 t-inv F
  0.000000  0.500000  0.333333    0.00520833  67 t-inv F
  0.250000  0.500000  0.333333    0.00520833  68 t-inv F
  0.500000  0.500000  0.333333    0.00520833  69 t-inv F
 -0.250000  0.500000  0.333333    0.00520833  70 t-inv F
  0.000000 -0.250000  0.333333    0.00520833  71 t-inv F
  0.250000 -0.250000  0.333333    0.00520833  72 t-inv F
  0.500000 -0.250000  0.333333    0.00520833  73 t-inv F
 -0.250000 -0.250000  0.333333    0.00520833  74 t-inv F
  0.000000  0.000000  0.416667    0.00520833  75 t-inv F
  0.250000  0.000000  0.416667    0.00520833  76 t-inv F
  0.500000  0.000000  0.416667    0.00520833  77 t-inv F
 -0.250000 -0.000000  0.416667    0.00520833  78 t-inv F
  0.000000  0.250000  0.416667    0.00520833  79 t-inv F
  0.250000  0.250000  0.416667    0.00520833  80 t-inv F
  0.500000  0.250000  0.416667    0.00520833  81 t-inv F
 -0.250000  0.250000  0.416667    0.00520833  82 t-inv F
  0.000000  0.500000  0.416667    0.00520833  83 t-inv F
  0.250000  0.500000  0.416667    0.00520833  84 t-inv F
  0.500000  0.500000  0.416667    0.00520833  85 t-inv F
 -0.250000  0.500000  0.416667    0.00520833  86 t-inv F
  0.000000 -0.250000  0.416667    0.00520833  87 t-inv F
  0.250000 -0.250000  0.416667    0.00520833  88 t-inv F
  0.500000 -0.250000  0.416667    0.00520833  89 t-inv F
 -0.250000 -0.250000  0.416667    0.00520833  90 t-inv F
  0.000000  0.000000  0.500000    0.00520833  91 t-inv F
  0.250000  0.000000  0.500000    0.00520833  92 t-inv F
  0.500000  0.000000  0.500000    0.00520833  93 t-inv F
  0.000000  0.250000  0.500000    0.00520833  94 t-inv F
  0.250000  0.250000  0.500000    0.00520833  95 t-inv F
  0.500000  0.250000  0.500000    0.00520833  96 t-inv F
 -0.250000  0.250000  0.500000    0.00520833  97 t-inv F
  0.000000  0.500000  0.500000    0.00520833  98 t-inv F
  0.250000  0.500000  0.500000    0.00520833  99 t-inv F
  0.500000  0.500000  0.500000    0.00520833 100 t-inv F
 -0.250000 -0.000000  0.000000    0.00520833   2 t-inv F
  0.000000 -0.250000  0.000000    0.00520833   4 t-inv F
 -0.250000 -0.250000  0.000000    0.00520833   5 t-inv F
 -0.500000 -0.250000  0.000000    0.00520833   6 t-inv F
  0.250000 -0.250000  0.000000    0.00520833   7 t-inv F
 -0.250000 -0.500000  0.000000    0.00520833   9 t-inv F
  0.000000  0.000000 -0.083333    0.00520833  11 t-inv F
 -0.250000 -0.000000 -0.083333    0.00520833  12 t-inv F
 -0.500000 -0.000000 -0.083333    0.00520833  13 t-inv F
  0.250000  0.000000 -0.083333    0.00520833  14 t-inv F
  0.000000 -0.250000 -0.083333    0.00520833  15 t-inv F
 -0.250000 -0.250000 -0.083333    0.00520833  16 t-inv F
 -0.500000 -0.250000 -0.083333    0.00520833  17 t-inv F
  0.250000 -0.250000 -0.083333    0.00520833  18 t-inv F
  0.000000 -0.500000 -0.083333    0.00520833  19 t-inv F
 -0.250000 -0.500000 -0.083333    0.00520833  20 t-inv F
 -0.500000 -0.500000 -0.083333    0.00520833  21 t-inv F
  0.250000 -0.500000 -0.083333    0.00520833  22 t-inv F
  0.000000  0.250000 -0.083333    0.00520833  23 t-inv F
 -0.250000  0.250000 -0.083333    0.00520833  24 t-inv F
 -0.500000  0.250000 -0.083333    0.00520833  25 t-inv F
  0.250000  0.250000 -0.083333    0.00520833  26 t-inv F
  0.000000  0.000000 -0.166667    0.00520833  27 t-inv F
 -0.250000 -0.000000 -0.166667    0.00520833  28 t-inv F
 -0.500000 -0.000000 -0.166667    0.00520833  29 t-inv F
  0.250000  0.000000 -0.166667    0.00520833  30 t-inv F
  0.000000 -0.250000 -0.166667    0.00520833  31 t-inv F
 -0.250000 -0.250000 -0.166667    0.00520833  32 t-inv F
 -0.500000 -0.250000 -0.166667    0.00520833  33 t-inv F
  0.250000 -0.250000 -0.166667    0.00520833  34 t-inv F
  0.000000 -0.500000 -0.166667    0.00520833  35 t-inv F
 -0.250000 -0.500000 -0.166667    0.00520833  36 t-inv F
 -0.500000 -0.500000 -0.166667    0.00520833  37 t-inv F
  0.250000 -0.500000 -0.166667    0.00520833  38 t-inv F
  0.000000  0.250000 -0.166667    0.00520833  39 t-inv F
 -0.250000  0.250000 -0.166667    0.00520833  40 t-inv F
 -0.500000  0.250000 -0.166667    0.00520833  41 t-inv F
  0.250000  0.250000 -0.166667    0.00520833  42 t-inv F
  0.000000  0.000000 -0.250000    0.00520833  43 t-inv F
 -0.250000 -0.000000 -0.250000    0.00520833  44 t-inv F
 -0.500000 -0.000000 -0.250000    0.00520833  45 t-inv F
  0.250000  0.000000 -0.250000    0.00520833  46 t-inv F
  0.000000 -0.250000 -0.250000    0.00520833  47 t-inv F
 -0.250000 -0.250000 -0.250000    0.00520833  48 t-inv F
 -0.500000 -0.250000 -0.250000    0.00520833  49 t-inv F
  0.250000 -0.250000 -0.250000    0.00520833  50 t-inv F
  0.000000 -0.500000 -0.250000    0.00520833  51 t-inv F
 -0.250000 -0.500000 -0.250000    0.00520833  52 t-inv F
 -0.500000 -0.500000 -0.250000    0.00520833  53 t-inv F
  0.250000 -0.500000 -0.250000    0.00520833  54 t-inv F
  0.000000  0.250000 -0.250000    0.00520833  55 t-inv F
 -0.250000  0.250000 -0.250000    0.00520833  56 t-inv F
 -0.500000  0.250000 -0.250000    0.00520833  57 t-inv F
  0.250000  0.250000 -0.250000    0.00520833  58 t-inv F
  0.000000  0.000000 -0.333333    0.00520833  59 t-inv F
 -0.250000 -0.000000 -0.333333    0.00520833  60 t-inv F
 -0.500000 -0.000000 -0.333333    0.00520833  61 t-inv F
  0.250000  0.000000 -0.333333    0.00520833  62 t-inv F
  0.000000 -0.250000 -0.333333    0.00520833  63 t-inv F
 -0.250000 -0.250000 -0.333333    0.00520833  64 t-inv F
 -0.500000 -0.250000 -0.333333    0.00520833  65 t-inv F
  0.250000 -0.250000 -0.333333    0.00520833  66 t-inv F
  0.000000 -0.500000 -0.333333    0.00520833  67 t-inv F
 -0.250000 -0.500000 -0.333333    0.00520833  68 t-inv F
 -0.500000 -0.500000 -0.333333    0.00520833  69 t-inv F
  0.250000 -0.500000 -0.333333    0.00520833  70 t-inv F
  0.000000  0.250000 -0.333333    0.00520833  71 t-inv F
 -0.250000  0.250000 -0.333333    0.00520833  72 t-inv F
 -0.500000  0.250000 -0.333333    0.00520833  73 t-inv F
  0.250000  0.250000 -0.333333    0.00520833  74 t-inv F
  0.000000  0.000000 -0.416667    0.00520833  75 t-inv F
 -0.250000 -0.000000 -0.416667    0.00520833  76 t-inv F
 -0.500000 -0.000000 -0.416667    0.00520833  77 t-inv F
  0.250000  0.000000 -0.416667    0.00520833  78 t-inv F
  0.000000 -0.250000 -0.416667    0.00520833  79 t-inv F
 -0.250000 -0.250000 -0.416667    0.00520833  80 t-inv F
 -0.500000 -0.250000 -0.416667    0.00520833  81 t-inv F
  0.250000 -0.250000 -0.416667    0.00520833  82 t-inv F
  0.000000 -0.500000 -0.416667    0.00520833  83 t-inv F
 -0.250000 -0.500000 -0.416667    0.00520833  84 t-inv F
 -0.500000 -0.500000 -0.416667    0.00520833  85 t-inv F
  0.250000 -0.500000 -0.416667    0.00520833  86 t-inv F
  0.000000  0.250000 -0.416667    0.00520833  87 t-inv F
 -0.250000  0.250000 -0.416667    0.00520833  88 t-inv F
 -0.500000  0.250000 -0.416667    0.00520833  89 t-inv F
  0.250000  0.250000 -0.416667    0.00520833  90 t-inv F
 -0.250000 -0.000000 -0.500000    0.00520833  92 t-inv F
  0.000000 -0.250000 -0.500000    0.00520833  94 t-inv F
 -0.250000 -0.250000 -0.500000    0.00520833  95 t-inv F
 -0.500000 -0.250000 -0.500000    0.00520833  96 t-inv F
  0.250000 -0.250000 -0.500000    0.00520833  97 t-inv F
 -0.250000 -0.500000 -0.500000    0.00520833  99 t-inv F


--------------------------------------------------------------------------------------------------------




 Dimension of arrays:
   k-points           NKPTS =    100   k-points in BZ     NKDIM =    100   number of bands    NBANDS=     40
   number of dos      NEDOS =    301   number of ions     NIONS =     14
   non local maximal  LDIM  =      4   non local SUM 2l+1 LMDIM =      8
   total plane-waves  NPLWV =  41472
   max r-space proj   IRMAX =      1   max aug-charges    IRDMAX=   6044
   dimension x,y,z NGX =    48 NGY =   48 NGZ =   18
   dimension x,y,z NGXF=    96 NGYF=   96 NGZF=   36
   support grid    NGXF=    96 NGYF=   96 NGZF=   36
   ions per type =               6   8
   NGX,Y,Z   is equivalent  to a cutoff of  12.37, 12.37, 12.35 a.u.
   NGXF,Y,Z  is equivalent  to a cutoff of  24.74, 24.74, 24.70 a.u.

 SYSTEM =  unknown system                          
 POSCAR =  C6 N8                                   

 Startparameter for this run:
   NWRITE =      2    write-flag & timer
   PREC   = accura    normal or accurate (medium, high low for compatibility)
   ISTART =      0    job   : 0-new  1-cont  2-samecut
   ICHARG =      2    charge: 1-file 2-atom 10-const
   ISPIN  =      1    spin polarized calculation?
   LNONCOLLINEAR =      F non collinear calculations
   LSORBIT =      F    spin-orbit coupling
   INIWAV =      1    electr: 0-lowe 1-rand  2-diag
   LASPH  =      F    aspherical Exc in radial PAW
   METAGGA=      F    non-selfconsistent MetaGGA calc.

 Electronic Relaxation 1
   ENCUT  =  520.0 eV  38.22 Ry    6.18 a.u.  11.99 11.99  4.51*2*pi/ulx,y,z
   ENINI  =  520.0     initial cutoff
   ENAUG  =  644.9 eV  augmentation charge cutoff
   NELM   =    100;   NELMIN=  2; NELMDL= -5     # of ELM steps 
   EDIFF  = 0.1E-07   stopping-criterion for ELM
   LREAL  =      F    real-space projection
   NLSPLINE    = F    spline interpolate recip. space projectors
   LCOMPAT=      F    compatible to vasp.4.4
   GGA_COMPAT  = T    GGA compatible to vasp.4.4-vasp.4.6
   LMAXPAW     = -100 max onsite density
   LMAXMIX     =    2 max onsite mixed and CHGCAR
   VOSKOWN=      0    Vosko Wilk Nusair interpolation
   ROPT   =    0.00000   0.00000
 Ionic relaxation
   EDIFFG = 0.1E-06   stopping-criterion for IOM
   NSW    =      1    number of steps for IOM
   NBLOCK =      1;   KBLOCK =      1    inner block; outer block 
   IBRION =      8    ionic relax: 0-MD 1-quasi-New 2-CG
   NFREE  =      0    steps in history (QN), initial steepest desc. (CG)
   ISIF   =      2    stress and relaxation
   IWAVPR =     11    prediction:  0-non 1-charg 2-wave 3-comb
   ISYM   =      2    0-nonsym 1-usesym 2-fastsym
   LCORR  =      T    Harris-Foulkes like correction to forces

   POTIM  = 0.5000    time-step for ionic-motion
   TEIN   =    0.0    initial temperature
   TEBEG  =    0.0;   TEEND  =   0.0 temperature during run
   SMASS  =  -3.00    Nose mass-parameter (am)
   estimated Nose-frequenzy (Omega)   =  0.10E-29 period in steps =****** mass=  -0.951E-27a.u.
   SCALEE = 1.0000    scale energy and forces
   NPACO  =    256;   APACO  = 16.0  distance and # of slots for P.C.
   PSTRESS=    0.0 pullay stress

  Mass of Ions in am
   POMASS =  12.01 14.00
  Ionic Valenz
   ZVAL   =   4.00  5.00
  Atomic Wigner-Seitz radii
   RWIGS  =  -1.00 -1.00
  virtual crystal weights 
   VCA    =   1.00  1.00
   NELECT =      64.0000    total number of electrons
   NUPDOWN=      -1.0000    fix difference up-down

 DOS related values:
   EMIN   =  10.00;   EMAX   =-10.00  energy-range for DOS
   EFERMI =   0.00
   ISMEAR =     0;   SIGMA  =   0.01  broadening in eV -4-tet -1-fermi 0-gaus

 Electronic relaxation 2 (details)
   IALGO  =     38    algorithm
   LDIAG  =      T    sub-space diagonalisation (order eigenvalues)
   LSUBROT=      F    optimize rotation matrix (better conditioning)
   TURBO    =      0    0=normal 1=particle mesh
   IRESTART =      0    0=no restart 2=restart with 2 vectors
   NREBOOT  =      0    no. of reboots
   NMIN     =      0    reboot dimension
   EREF     =   0.00    reference energy to select bands
   IMIX   =      4    mixing-type and parameters
     AMIX     =   0.40;   BMIX     =  1.00
     AMIX_MAG =   1.60;   BMIX_MAG =  1.00
     AMIN     =   0.10
     WC   =   100.;   INIMIX=   1;  MIXPRE=   1;  MAXMIX= -45

 Intra band minimization:
   WEIMIN = 0.0010     energy-eigenvalue tresh-hold
   EBREAK =  0.63E-10  absolut break condition
   DEPER  =   0.30     relativ break condition  

   TIME   =   0.40     timestep for ELM

  volume/ion in A,a.u.               =       6.24        42.09
  Fermi-wavevector in a.u.,A,eV,Ry     =   1.476052  2.789334 29.643422  2.178730
  Thomas-Fermi vector in A             =   2.590626
 
 Write flags
   LWAVE        =      F    write WAVECAR
   LDOWNSAMPLE  =      F    k-point downsampling of WAVECAR
   LCHARG       =      T    write CHGCAR
   LVTOT        =      F    write LOCPOT, total local potential
   LVHAR        =      F    write LOCPOT, Hartree potential only
   LELF         =      F    write electronic localiz. function (ELF)
   LORBIT       =      0    0 simple, 1 ext, 2 COOP (PROOUT), +10 PAW based schemes


 Dipole corrections
   LMONO  =      F    monopole corrections only (constant potential shift)
   LDIPOL =      F    correct potential (dipole corrections)
   IDIPOL =      0    1-x, 2-y, 3-z, 4-all directions 
   EPSILON=  1.0000000 bulk dielectric constant

 Exchange correlation treatment:
   GGA     =    --    GGA type
   LEXCH   =     8    internal setting for exchange type
   VOSKOWN=      0    Vosko Wilk Nusair interpolation
   LHFCALC =     F    Hartree Fock is set to
   LHFONE  =     F    Hartree Fock one center treatment
   AEXX    =    0.0000 exact exchange contribution

 Linear response parameters
   LEPSILON=     T    determine dielectric tensor
   LRPA    =     F    only Hartree local field effects (RPA)
   LNABLA  =     F    use nabla operator in PAW spheres
   LVEL    =     F    velocity operator in full k-point grid
   LINTERFAST=   F  fast interpolation
   KINTER  =     0    interpolate to denser k-point grid
   CSHIFT  =0.1000    complex shift for real part using Kramers Kronig
   OMEGAMAX=  -1.0    maximum frequency
   DEG_THRESHOLD= 0.2000000E-02 threshold for treating states as degnerate
   RTIME   =   -0.100 relaxation time in fs
  (WPLASMAI=    0.000 imaginary part of plasma frequency in eV, 0.658/RTIME)
   DFIELD  = 0.0000000 0.0000000 0.0000000 field for delta impulse in time
 
 Orbital magnetization related:
   ORBITALMAG=     F  switch on orbital magnetization
   LCHIMAG   =     F  perturbation theory with respect to B field
   DQ        =  0.001000  dq finite difference perturbation B field
   LLRAUG    =     F  two centre corrections for induced B field

 PEAD related settings:
   LPEAD      =     T    switch on PEAD
   IPEAD      =     4    finite difference order for dpsi/dk
   LCALCPOL   =     F    calculate macroscopic polarization
   LCALCEPS   =     F    calculate dielectric tensor
   EFIELD_PEAD=    0.0000    0.0000    0.0000
   SKIP_EDOTP =     F
   LRPA       =     F
   SKIP_SCF   =     F


--------------------------------------------------------------------------------------------------------


 linear response using symmetry
 charge density and potential will be updated during run
 non-spin polarized calculation
 Variant of blocked Davidson
 Davidson routine will perform the subspace rotation
 perform sub-space diagonalisation
    after iterative eigenvector-optimisation
 modified Broyden-mixing scheme, WC =      100.0
 initial mixing is a Kerker type mixing with AMIX =  0.4000 and BMIX =      1.0000
 Hartree-type preconditioning will be used
 using additional bands            8
 reciprocal scheme for non local part
 use partial core corrections
 calculate Harris-corrections to forces 
   (improved forces if not selfconsistent)
 use gradient corrections 
 use of overlap-Matrix (Vanderbilt PP)
 Gauss-broadening in eV      SIGMA  =   0.01


--------------------------------------------------------------------------------------------------------


  energy-cutoff  :      520.00
  volume of cell :       87.32
      direct lattice vectors                 reciprocal lattice vectors
     6.450525771  0.000000000  0.000000000     0.155026123  0.089504374  0.000000000
    -3.225262886  5.586319186  0.000000000     0.000000000  0.179008747  0.000000000
     0.000000000  0.000000000  2.423139814     0.000000000  0.000000000  0.412687701

  length of vectors
     6.450525771  6.450525771  2.423139814     0.179008747  0.179008747  0.412687701


 
 k-points in units of 2pi/SCALE and weight: pymatgen with grid density = 3000 / numb
   0.00000000  0.00000000  0.00000000       0.005
   0.03875653  0.02237609  0.00000000       0.010
   0.07751306  0.04475219  0.00000000       0.005
   0.00000000  0.04475219  0.00000000       0.010
   0.03875653  0.06712828  0.00000000       0.010
   0.07751306  0.08950437  0.00000000       0.010
  -0.03875653  0.02237609  0.00000000       0.010
   0.00000000  0.08950437  0.00000000       0.005
   0.03875653  0.11188047  0.00000000       0.010
   0.07751306  0.13425656  0.00000000       0.005
   0.00000000  0.00000000  0.03439064       0.010
   0.03875653  0.02237609  0.03439064       0.010
   0.07751306  0.04475219  0.03439064       0.010
  -0.03875653 -0.02237609  0.03439064       0.010
   0.00000000  0.04475219  0.03439064       0.010
   0.03875653  0.06712828  0.03439064       0.010
   0.07751306  0.08950437  0.03439064       0.010
  -0.03875653  0.02237609  0.03439064       0.010
   0.00000000  0.08950437  0.03439064       0.010
   0.03875653  0.11188047  0.03439064       0.010
   0.07751306  0.13425656  0.03439064       0.010
  -0.03875653  0.06712828  0.03439064       0.010
   0.00000000 -0.04475219  0.03439064       0.010
   0.03875653 -0.02237609  0.03439064       0.010
   0.07751306  0.00000000  0.03439064       0.010
  -0.03875653 -0.06712828  0.03439064       0.010
   0.00000000  0.00000000  0.06878128       0.010
   0.03875653  0.02237609  0.06878128       0.010
   0.07751306  0.04475219  0.06878128       0.010
  -0.03875653 -0.02237609  0.06878128       0.010
   0.00000000  0.04475219  0.06878128       0.010
   0.03875653  0.06712828  0.06878128       0.010
   0.07751306  0.08950437  0.06878128       0.010
  -0.03875653  0.02237609  0.06878128       0.010
   0.00000000  0.08950437  0.06878128       0.010
   0.03875653  0.11188047  0.06878128       0.010
   0.07751306  0.13425656  0.06878128       0.010
  -0.03875653  0.06712828  0.06878128       0.010
   0.00000000 -0.04475219  0.06878128       0.010
   0.03875653 -0.02237609  0.06878128       0.010
   0.07751306  0.00000000  0.06878128       0.010
  -0.03875653 -0.06712828  0.06878128       0.010
   0.00000000  0.00000000  0.10317193       0.010
   0.03875653  0.02237609  0.10317193       0.010
   0.07751306  0.04475219  0.10317193       0.010
  -0.03875653 -0.02237609  0.10317193       0.010
   0.00000000  0.04475219  0.10317193       0.010
   0.03875653  0.06712828  0.10317193       0.010
   0.07751306  0.08950437  0.10317193       0.010
  -0.03875653  0.02237609  0.10317193       0.010
   0.00000000  0.08950437  0.10317193       0.010
   0.03875653  0.11188047  0.10317193       0.010
   0.07751306  0.13425656  0.10317193       0.010
  -0.03875653  0.06712828  0.10317193       0.010
   0.00000000 -0.04475219  0.10317193       0.010
   0.03875653 -0.02237609  0.10317193       0.010
   0.07751306  0.00000000  0.10317193       0.010
  -0.03875653 -0.06712828  0.10317193       0.010
   0.00000000  0.00000000  0.13756257       0.010
   0.03875653  0.02237609  0.13756257       0.010
   0.07751306  0.04475219  0.13756257       0.010
  -0.03875653 -0.02237609  0.13756257       0.010
   0.00000000  0.04475219  0.13756257       0.010
   0.03875653  0.06712828  0.13756257       0.010
   0.07751306  0.08950437  0.13756257       0.010
  -0.03875653  0.02237609  0.13756257       0.010
   0.00000000  0.08950437  0.13756257       0.010
   0.03875653  0.11188047  0.13756257       0.010
   0.07751306  0.13425656  0.13756257       0.010
  -0.03875653  0.06712828  0.13756257       0.010
   0.00000000 -0.04475219  0.13756257       0.010
   0.03875653 -0.02237609  0.13756257       0.010
   0.07751306  0.00000000  0.13756257       0.010
  -0.03875653 -0.06712828  0.13756257       0.010
   0.00000000  0.00000000  0.17195321       0.010
   0.03875653  0.02237609  0.17195321       0.010
   0.07751306  0.04475219  0.17195321       0.010
  -0.03875653 -0.02237609  0.17195321       0.010
   0.00000000  0.04475219  0.17195321       0.010
   0.03875653  0.06712828  0.17195321       0.010
   0.07751306  0.08950437  0.17195321       0.010
  -0.03875653  0.02237609  0.17195321       0.010
   0.00000000  0.08950437  0.17195321       0.010
   0.03875653  0.11188047  0.17195321       0.010
   0.07751306  0.13425656  0.17195321       0.010
  -0.03875653  0.06712828  0.17195321       0.010
   0.00000000 -0.04475219  0.17195321       0.010
   0.03875653 -0.02237609  0.17195321       0.010
   0.07751306  0.00000000  0.17195321       0.010
  -0.03875653 -0.06712828  0.17195321       0.010
   0.00000000  0.00000000  0.20634385       0.005
   0.03875653  0.02237609  0.20634385       0.010
   0.07751306  0.04475219  0.20634385       0.005
   0.00000000  0.04475219  0.20634385       0.010
   0.03875653  0.06712828  0.20634385       0.010
   0.07751306  0.08950437  0.20634385       0.010
  -0.03875653  0.02237609  0.20634385       0.010
   0.00000000  0.08950437  0.20634385       0.005
   0.03875653  0.11188047  0.20634385       0.010
   0.07751306  0.13425656  0.20634385       0.005
 
 k-points in reciprocal lattice and weights: pymatgen with grid density = 3000 / numb
   0.00000000  0.00000000  0.00000000       0.005
   0.25000000  0.00000000  0.00000000       0.010
   0.50000000  0.00000000  0.00000000       0.005
   0.00000000  0.25000000  0.00000000       0.010
   0.25000000  0.25000000  0.00000000       0.010
   0.50000000  0.25000000  0.00000000       0.010
  -0.25000000  0.25000000  0.00000000       0.010
   0.00000000  0.50000000  0.00000000       0.005
   0.25000000  0.50000000  0.00000000       0.010
   0.50000000  0.50000000  0.00000000       0.005
   0.00000000  0.00000000  0.08333333       0.010
   0.25000000  0.00000000  0.08333333       0.010
   0.50000000  0.00000000  0.08333333       0.010
  -0.25000000 -0.00000000  0.08333333       0.010
   0.00000000  0.25000000  0.08333333       0.010
   0.25000000  0.25000000  0.08333333       0.010
   0.50000000  0.25000000  0.08333333       0.010
  -0.25000000  0.25000000  0.08333333       0.010
   0.00000000  0.50000000  0.08333333       0.010
   0.25000000  0.50000000  0.08333333       0.010
   0.50000000  0.50000000  0.08333333       0.010
  -0.25000000  0.50000000  0.08333333       0.010
   0.00000000 -0.25000000  0.08333333       0.010
   0.25000000 -0.25000000  0.08333333       0.010
   0.50000000 -0.25000000  0.08333333       0.010
  -0.25000000 -0.25000000  0.08333333       0.010
   0.00000000  0.00000000  0.16666667       0.010
   0.25000000  0.00000000  0.16666667       0.010
   0.50000000  0.00000000  0.16666667       0.010
  -0.25000000 -0.00000000  0.16666667       0.010
   0.00000000  0.25000000  0.16666667       0.010
   0.25000000  0.25000000  0.16666667       0.010
   0.50000000  0.25000000  0.16666667       0.010
  -0.25000000  0.25000000  0.16666667       0.010
   0.00000000  0.50000000  0.16666667       0.010
   0.25000000  0.50000000  0.16666667       0.010
   0.50000000  0.50000000  0.16666667       0.010
  -0.25000000  0.50000000  0.16666667       0.010
   0.00000000 -0.25000000  0.16666667       0.010
   0.25000000 -0.25000000  0.16666667       0.010
   0.50000000 -0.25000000  0.16666667       0.010
  -0.25000000 -0.25000000  0.16666667       0.010
   0.00000000  0.00000000  0.25000000       0.010
   0.25000000  0.00000000  0.25000000       0.010
   0.50000000  0.00000000  0.25000000       0.010
  -0.25000000 -0.00000000  0.25000000       0.010
   0.00000000  0.25000000  0.25000000       0.010
   0.25000000  0.25000000  0.25000000       0.010
   0.50000000  0.25000000  0.25000000       0.010
  -0.25000000  0.25000000  0.25000000       0.010
   0.00000000  0.50000000  0.25000000       0.010
   0.25000000  0.50000000  0.25000000       0.010
   0.50000000  0.50000000  0.25000000       0.010
  -0.25000000  0.50000000  0.25000000       0.010
   0.00000000 -0.25000000  0.25000000       0.010
   0.25000000 -0.25000000  0.25000000       0.010
   0.50000000 -0.25000000  0.25000000       0.010
  -0.25000000 -0.25000000  0.25000000       0.010
   0.00000000  0.00000000  0.33333333       0.010
   0.25000000  0.00000000  0.33333333       0.010
   0.50000000  0.00000000  0.33333333       0.010
  -0.25000000 -0.00000000  0.33333333       0.010
   0.00000000  0.25000000  0.33333333       0.010
   0.25000000  0.25000000  0.33333333       0.010
   0.50000000  0.25000000  0.33333333       0.010
  -0.25000000  0.25000000  0.33333333       0.010
   0.00000000  0.50000000  0.33333333       0.010
   0.25000000  0.50000000  0.33333333       0.010
   0.50000000  0.50000000  0.33333333       0.010
  -0.25000000  0.50000000  0.33333333       0.010
   0.00000000 -0.25000000  0.33333333       0.010
   0.25000000 -0.25000000  0.33333333       0.010
   0.50000000 -0.25000000  0.33333333       0.010
  -0.25000000 -0.25000000  0.33333333       0.010
   0.00000000  0.00000000  0.41666667       0.010
   0.25000000  0.00000000  0.41666667       0.010
   0.50000000  0.00000000  0.41666667       0.010
  -0.25000000 -0.00000000  0.41666667       0.010
   0.00000000  0.25000000  0.41666667       0.010
   0.25000000  0.25000000  0.41666667       0.010
   0.50000000  0.25000000  0.41666667       0.010
  -0.25000000  0.25000000  0.41666667       0.010
   0.00000000  0.50000000  0.41666667       0.010
   0.25000000  0.50000000  0.41666667       0.010
   0.50000000  0.50000000  0.41666667       0.010
  -0.25000000  0.50000000  0.41666667       0.010
   0.00000000 -0.25000000  0.41666667       0.010
   0.25000000 -0.25000000  0.41666667       0.010
   0.50000000 -0.25000000  0.41666667       0.010
  -0.25000000 -0.25000000  0.41666667       0.010
   0.00000000  0.00000000  0.50000000       0.005
   0.25000000  0.00000000  0.50000000       0.010
   0.50000000  0.00000000  0.50000000       0.005
   0.00000000  0.25000000  0.50000000       0.010
   0.25000000  0.25000000  0.50000000       0.010
   0.50000000  0.25000000  0.50000000       0.010
  -0.25000000  0.25000000  0.50000000       0.010
   0.00000000  0.50000000  0.50000000       0.005
   0.25000000  0.50000000  0.50000000       0.010
   0.50000000  0.50000000  0.50000000       0.005
 
 position of ions in fractional coordinates (direct lattice) 
   0.59490505  0.82165999  0.75000006
   0.17834001  0.77324498  0.75000006
   0.22675502  0.40509495  0.75000006
   0.40509503  0.17834001  0.25000002
   0.82166006  0.22675502  0.25000002
   0.77324506  0.59490505  0.25000002
   0.70342005  0.67011305  0.75000006
   0.32988703  0.03330700  0.75000006
   0.96669307  0.29658002  0.75000006
   0.29658002  0.32988695  0.25000002
   0.67011305  0.96669300  0.25000002
   0.03330700  0.70341998  0.25000002
   0.33333336  0.66666664  0.75000006
   0.66666672  0.33333336  0.25000002
 
 position of ions in cartesian coordinates  (Angst):
   1.18738087  4.59005495  1.81735500
  -1.34353149  4.31959328  1.81735500
   0.15615136  2.26298972  1.81735500
   2.03788251  0.99626424  0.60578500
   4.56879487  1.26672590  0.60578500
   3.06911202  3.32332947  0.60578500
   2.37613843  3.74346540  1.81735500
   2.02052092  0.18606355  1.81735500
   5.27913005  1.65679067  1.81735500
   0.84912495  1.84285379  0.60578500
   1.20474246  5.40025564  0.60578500
  -2.05386667  3.92952851  0.60578500
   0.00000025  3.72421265  1.81735500
   3.22526313  1.86210654  0.60578500
 


--------------------------------------------------------------------------------------------------------


 k-point  1 :   0.0000 0.0000 0.0000  plane waves:    2331
 k-point  2 :   0.2500 0.0000 0.0000  plane waves:    2351
 k-point  3 :   0.5000 0.0000 0.0000  plane waves:    2376
 k-point  4 :   0.0000 0.2500 0.0000  plane waves:    2351
 k-point  5 :   0.2500 0.2500 0.0000  plane waves:    2360
 k-point  6 :   0.5000 0.2500 0.0000  plane waves:    2360
 k-point  7 :  -0.2500 0.2500 0.0000  plane waves:    2351
 k-point  8 :   0.0000 0.5000 0.0000  plane waves:    2376
 k-point  9 :   0.2500 0.5000 0.0000  plane waves:    2360
 k-point 10 :   0.5000 0.5000 0.0000  plane waves:    2376
 k-point 11 :   0.0000 0.0000 0.0833  plane waves:    2349
 k-point 12 :   0.2500 0.0000 0.0833  plane waves:    2350
 k-point 13 :   0.5000 0.0000 0.0833  plane waves:    2380
 k-point 14 :  -0.2500-0.0000 0.0833  plane waves:    2350
 k-point 15 :   0.0000 0.2500 0.0833  plane waves:    2350
 k-point 16 :   0.2500 0.2500 0.0833  plane waves:    2369
 k-point 17 :   0.5000 0.2500 0.0833  plane waves:    2369
 k-point 18 :  -0.2500 0.2500 0.0833  plane waves:    2350
 k-point 19 :   0.0000 0.5000 0.0833  plane waves:    2380
 k-point 20 :   0.2500 0.5000 0.0833  plane waves:    2369
 k-point 21 :   0.5000 0.5000 0.0833  plane waves:    2380
 k-point 22 :  -0.2500 0.5000 0.0833  plane waves:    2369
 k-point 23 :   0.0000-0.2500 0.0833  plane waves:    2350
 k-point 24 :   0.2500-0.2500 0.0833  plane waves:    2350
 k-point 25 :   0.5000-0.2500 0.0833  plane waves:    2369
 k-point 26 :  -0.2500-0.2500 0.0833  plane waves:    2369
 k-point 27 :   0.0000 0.0000 0.1667  plane waves:    2343
 k-point 28 :   0.2500 0.0000 0.1667  plane waves:    2360
 k-point 29 :   0.5000 0.0000 0.1667  plane waves:    2356
 k-point 30 :  -0.2500-0.0000 0.1667  plane waves:    2360
 k-point 31 :   0.0000 0.2500 0.1667  plane waves:    2360
 k-point 32 :   0.2500 0.2500 0.1667  plane waves:    2363
 k-point 33 :   0.5000 0.2500 0.1667  plane waves:    2363
 k-point 34 :  -0.2500 0.2500 0.1667  plane waves:    2360
 k-point 35 :   0.0000 0.5000 0.1667  plane waves:    2356
 k-point 36 :   0.2500 0.5000 0.1667  plane waves:    2363
 k-point 37 :   0.5000 0.5000 0.1667  plane waves:    2356
 k-point 38 :  -0.2500 0.5000 0.1667  plane waves:    2363
 k-point 39 :   0.0000-0.2500 0.1667  plane waves:    2360
 k-point 40 :   0.2500-0.2500 0.1667  plane waves:    2360
 k-point 41 :   0.5000-0.2500 0.1667  plane waves:    2363
 k-point 42 :  -0.2500-0.2500 0.1667  plane waves:    2363
 k-point 43 :   0.0000 0.0000 0.2500  plane waves:    2349
 k-point 44 :   0.2500 0.0000 0.2500  plane waves:    2353
 k-point 45 :   0.5000 0.0000 0.2500  plane waves:    2332
 k-point 46 :  -0.2500-0.0000 0.2500  plane waves:    2353
 k-point 47 :   0.0000 0.2500 0.2500  plane waves:    2353
 k-point 48 :   0.2500 0.2500 0.2500  plane waves:    2360
 k-point 49 :   0.5000 0.2500 0.2500  plane waves:    2360
 k-point 50 :  -0.2500 0.2500 0.2500  plane waves:    2353
 k-point 51 :   0.0000 0.5000 0.2500  plane waves:    2332
 k-point 52 :   0.2500 0.5000 0.2500  plane waves:    2360
 k-point 53 :   0.5000 0.5000 0.2500  plane waves:    2332
 k-point 54 :  -0.2500 0.5000 0.2500  plane waves:    2360
 k-point 55 :   0.0000-0.2500 0.2500  plane waves:    2353
 k-point 56 :   0.2500-0.2500 0.2500  plane waves:    2353
 k-point 57 :   0.5000-0.2500 0.2500  plane waves:    2360
 k-point 58 :  -0.2500-0.2500 0.2500  plane waves:    2360
 k-point 59 :   0.0000 0.0000 0.3333  plane waves:    2331
 k-point 60 :   0.2500 0.0000 0.3333  plane waves:    2346
 k-point 61 :   0.5000 0.0000 0.3333  plane waves:    2348
 k-point 62 :  -0.2500-0.0000 0.3333  plane waves:    2346
 k-point 63 :   0.0000 0.2500 0.3333  plane waves:    2346
 k-point 64 :   0.2500 0.2500 0.3333  plane waves:    2352
 k-point 65 :   0.5000 0.2500 0.3333  plane waves:    2352
 k-point 66 :  -0.2500 0.2500 0.3333  plane waves:    2346
 k-point 67 :   0.0000 0.5000 0.3333  plane waves:    2348
 k-point 68 :   0.2500 0.5000 0.3333  plane waves:    2352
 k-point 69 :   0.5000 0.5000 0.3333  plane waves:    2348
 k-point 70 :  -0.2500 0.5000 0.3333  plane waves:    2352
 k-point 71 :   0.0000-0.2500 0.3333  plane waves:    2346
 k-point 72 :   0.2500-0.2500 0.3333  plane waves:    2346
 k-point 73 :   0.5000-0.2500 0.3333  plane waves:    2352
 k-point 74 :  -0.2500-0.2500 0.3333  plane waves:    2352
 k-point 75 :   0.0000 0.0000 0.4167  plane waves:    2337
 k-point 76 :   0.2500 0.0000 0.4167  plane waves:    2333
 k-point 77 :   0.5000 0.0000 0.4167  plane waves:    2340
 k-point 78 :  -0.2500-0.0000 0.4167  plane waves:    2333
 k-point 79 :   0.0000 0.2500 0.4167  plane waves:    2333
 k-point 80 :   0.2500 0.2500 0.4167  plane waves:    2335
 k-point 81 :   0.5000 0.2500 0.4167  plane waves:    2335
 k-point 82 :  -0.2500 0.2500 0.4167  plane waves:    2333
 k-point 83 :   0.0000 0.5000 0.4167  plane waves:    2340
 k-point 84 :   0.2500 0.5000 0.4167  plane waves:    2335
 k-point 85 :   0.5000 0.5000 0.4167  plane waves:    2340
 k-point 86 :  -0.2500 0.5000 0.4167  plane waves:    2335
 k-point 87 :   0.0000-0.2500 0.4167  plane waves:    2333
 k-point 88 :   0.2500-0.2500 0.4167  plane waves:    2333
 k-point 89 :   0.5000-0.2500 0.4167  plane waves:    2335
 k-point 90 :  -0.2500-0.2500 0.4167  plane waves:    2335
 k-point 91 :   0.0000 0.0000 0.5000  plane waves:    2290
 k-point 92 :   0.2500 0.0000 0.5000  plane waves:    2320
 k-point 93 :   0.5000 0.0000 0.5000  plane waves:    2320
 k-point 94 :   0.0000 0.2500 0.5000  plane waves:    2320
 k-point 95 :   0.2500 0.2500 0.5000  plane waves:    2336
 k-point 96 :   0.5000 0.2500 0.5000  plane waves:    2336
 k-point 97 :  -0.2500 0.2500 0.5000  plane waves:    2320
 k-point 98 :   0.0000 0.5000 0.5000  plane waves:    2320
 k-point 99 :   0.2500 0.5000 0.5000  plane waves:    2336
 k-point ** :   0.5000 0.5000 0.5000  plane waves:    2320

 maximum and minimum number of plane-waves per node :      2380     2290

 maximum number of plane-waves:      2380
 maximum index in each direction: 
   IXMAX=   12   IYMAX=   12   IZMAX=    4
   IXMIN=  -12   IYMIN=  -12   IZMIN=   -5


 serial   3D FFT for wavefunctions
 parallel 3D FFT for charge:
    minimum data exchange during FFTs selected (reduces bandwidth)


 total amount of memory used by VASP MPI-rank0    86823. kBytes
=======================================================================

   base      :      30000. kBytes
   nonl-proj :      31049. kBytes
   fftplans  :       1653. kBytes
   grid      :       4110. kBytes
   one-center:         43. kBytes
   wavefun   :      19968. kBytes
 
     INWAV:  cpu time    0.0000: real time    0.0000
 Broyden mixing: mesh for mixing (old mesh)
   NGX = 23   NGY = 23   NGZ =  9
  (NGX  = 96   NGY  = 96   NGZ  = 36)
  gives a total of   4761 points

 initial charge density was supplied:
 charge density of overlapping atoms calculated
 number of electron      64.0000000 magnetization 
 keeping initial charge density in first step


--------------------------------------------------------------------------------------------------------


 Maximum index for augmentation-charges          745 (set IRDMAX)


--------------------------------------------------------------------------------------------------------


 First call to EWALD:  gamma=   0.400
 Maximum number of real-space cells 2x 2x 5
 Maximum number of reciprocal cells 4x 4x 2

    FEWALD:  cpu time    0.0014: real time    0.0014


--------------------------------------- Iteration      1(   1)  ---------------------------------------


    POTLOK:  cpu time    0.0217: real time    0.0240
    SETDIJ:  cpu time    0.0030: real time    0.0030
     EDDAV:  cpu time    3.1460: real time    3.1654
       DOS:  cpu time    0.0014: real time    0.0016
    --------------------------------------------
      LOOP:  cpu time    3.1721: real time    3.1939

 eigenvalue-minimisations  :  8016
 total energy-change (2. order) : 0.3186743E+03  (-0.3652022E+04)
 number of electron      64.0000000 magnetization 
 augmentation part       64.0000000 magnetization 

 Free energy of the ion-electron system (eV)
  ---------------------------------------------------
  alpha Z        PSCENC =       216.67315718
  Ewald energy   TEWEN  =     -2851.23040344
  -Hartree energ DENC   =      -511.54491042
  -exchange      EXHF   =         0.00000000
  -V(xc)+E(xc)   XCENC  =       245.56995719
  PAW double counting   =      2290.59413118    -2303.53843876
  entropy T*S    EENTRO =        -0.00007702
  eigenvalues    EBANDS =       232.96899590
  atomic energy  EATOM  =      2999.18192289
  Solvation  Ediel_sol  =         0.00000000
  ---------------------------------------------------
  free energy    TOTEN  =       318.67433469 eV

  energy without entropy =      318.67441171  energy(sigma->0) =      318.67437320


--------------------------------------------------------------------------------------------------------




--------------------------------------- Iteration      1(   2)  ---------------------------------------


     EDDAV:  cpu time    4.1177: real time    4.1371
       DOS:  cpu time    0.0009: real time    0.0010
    --------------------------------------------
      LOOP:  cpu time    4.1186: real time    4.1381

 eigenvalue-minimisations  : 10288
 total energy-change (2. order) :-0.4194320E+03  (-0.4017996E+03)
 number of electron      64.0000000 magnetization 
 augmentation part       64.0000000 magnetization 

 Free energy of the ion-electron system (eV)
  ---------------------------------------------------
  alpha Z        PSCENC =       216.67315718
  Ewald energy   TEWEN  =     -2851.23040344
  -Hartree energ DENC   =      -511.54491042
  -exchange      EXHF   =         0.00000000
  -V(xc)+E(xc)   XCENC  =       245.56995719
  PAW double counting   =      2290.59413118    -2303.53843876
  entropy T*S    EENTRO =        -0.00000000
  eigenvalues    EBANDS =      -186.46311372
  atomic energy  EATOM  =      2999.18192289
  Solvation  Ediel_sol  =         0.00000000
  ---------------------------------------------------
  free energy    TOTEN  =      -100.75769791 eV

  energy without entropy =     -100.75769791  energy(sigma->0) =     -100.75769791


--------------------------------------------------------------------------------------------------------




--------------------------------------- Iteration      1(   3)  ---------------------------------------


     EDDAV:  cpu time    4.0490: real time    4.0698
       DOS:  cpu time    0.0007: real time    0.0007
    --------------------------------------------
      LOOP:  cpu time    4.0497: real time    4.0705

 eigenvalue-minimisations  :  9656
 total energy-change (2. order) :-0.1923331E+02  (-0.1904915E+02)
 number of electron      64.0000000 magnetization 
 augmentation part       64.0000000 magnetization 

 Free energy of the ion-electron system (eV)
  ---------------------------------------------------
  alpha Z        PSCENC =       216.67315718
  Ewald energy   TEWEN  =     -2851.23040344
  -Hartree energ DENC   =      -511.54491042
  -exchange      EXHF   =         0.00000000
  -V(xc)+E(xc)   XCENC  =       245.56995719
  PAW double counting   =      2290.59413118    -2303.53843876
  entropy T*S    EENTRO =        -0.00000000
  eigenvalues    EBANDS =      -205.69641917
  atomic energy  EATOM  =      2999.18192289
  Solvation  Ediel_sol  =         0.00000000
  ---------------------------------------------------
  free energy    TOTEN  =      -119.99100336 eV

  energy without entropy =     -119.99100336  energy(sigma->0) =     -119.99100336


--------------------------------------------------------------------------------------------------------




--------------------------------------- Iteration      1(   4)  ---------------------------------------


     EDDAV:  cpu time    3.9557: real time    3.9795
       DOS:  cpu time    0.0005: real time    0.0005
    --------------------------------------------
      LOOP:  cpu time    3.9562: real time    3.9799

 eigenvalue-minimisations  : 10328
 total energy-change (2. order) :-0.4319690E+00  (-0.4304354E+00)
 number of electron      64.0000000 magnetization 
 augmentation part       64.0000000 magnetization 

 Free energy of the ion-electron system (eV)
  ---------------------------------------------------
  alpha Z        PSCENC =       216.67315718
  Ewald energy   TEWEN  =     -2851.23040344
  -Hartree energ DENC   =      -511.54491042
  -exchange      EXHF   =         0.00000000
  -V(xc)+E(xc)   XCENC  =       245.56995719
  PAW double counting   =      2290.59413118    -2303.53843876
  entropy T*S    EENTRO =        -0.00000000
  eigenvalues    EBANDS =      -206.12838816
  atomic energy  EATOM  =      2999.18192289
  Solvation  Ediel_sol  =         0.00000000
  ---------------------------------------------------
  free energy    TOTEN  =      -120.42297234 eV

  energy without entropy =     -120.42297234  energy(sigma->0) =     -120.42297234


--------------------------------------------------------------------------------------------------------




--------------------------------------- Iteration      1(   5)  ---------------------------------------


     EDDAV:  cpu time    3.8731: real time    3.8898
       DOS:  cpu time    0.0007: real time    0.0007
    CHARGE:  cpu time    0.2456: real time    0.2456
    MIXING:  cpu time    0.0016: real time    0.0016
    --------------------------------------------
      LOOP:  cpu time    4.1210: real time    4.1377

 eigenvalue-minimisations  :  9656
 total energy-change (2. order) :-0.8605373E-02  (-0.8599724E-02)
 number of electron      63.9999991 magnetization 
 augmentation part        2.8607677 magnetization 

 Broyden mixing:
  rms(total) = 0.18917E+01    rms(broyden)= 0.18894E+01
  rms(prec ) = 0.29040E+01
  weight for this iteration     100.00

 Free energy of the ion-electron system (eV)
  ---------------------------------------------------
  alpha Z        PSCENC =       216.67315718
  Ewald energy   TEWEN  =     -2851.23040344
  -Hartree energ DENC   =      -511.54491042
  -exchange      EXHF   =         0.00000000
  -V(xc)+E(xc)   XCENC  =       245.56995719
  PAW double counting   =      2290.59413118    -2303.53843876
  entropy T*S    EENTRO =        -0.00000000
  eigenvalues    EBANDS =      -206.13699353
  atomic energy  EATOM  =      2999.18192289
  Solvation  Ediel_sol  =         0.00000000
  ---------------------------------------------------
  free energy    TOTEN  =      -120.43157772 eV

  energy without entropy =     -120.43157772  energy(sigma->0) =     -120.43157772


--------------------------------------------------------------------------------------------------------




--------------------------------------- Iteration      1(   6)  ---------------------------------------


    POTLOK:  cpu time    0.0232: real time    0.0242
    SETDIJ:  cpu time    0.0034: real time    0.0034
     EDDAV:  cpu time    3.8214: real time    3.8371
       DOS:  cpu time    0.0007: real time    0.0007
    CHARGE:  cpu time    0.2360: real time    0.2360
    MIXING:  cpu time    0.0016: real time    0.0016
    --------------------------------------------
      LOOP:  cpu time    4.0862: real time    4.1030

 eigenvalue-minimisations  :  9776
 total energy-change (2. order) : 0.5547299E+01  (-0.1689350E+01)
 number of electron      63.9999992 magnetization 
 augmentation part        2.5863570 magnetization 

 Broyden mixing:
  rms(total) = 0.90797E+00    rms(broyden)= 0.90785E+00
  rms(prec ) = 0.11610E+01
  weight for this iteration     100.00

 eigenvalues of (default mixing * dielectric matrix)
  average eigenvalue GAMMA=   1.3218
  1.3218

 Free energy of the ion-electron system (eV)
  ---------------------------------------------------
  alpha Z        PSCENC =       216.67315718
  Ewald energy   TEWEN  =     -2851.23040344
  -Hartree energ DENC   =      -560.85606549
  -exchange      EXHF   =         0.00000000
  -V(xc)+E(xc)   XCENC  =       249.40807839
  PAW double counting   =      3632.91370617    -3647.23744056
  entropy T*S    EENTRO =        -0.00000000
  eigenvalues    EBANDS =      -153.73723337
  atomic energy  EATOM  =      2999.18192289
  Solvation  Ediel_sol  =         0.00000000
  ---------------------------------------------------
  free energy    TOTEN  =      -114.88427823 eV

  energy without entropy =     -114.88427823  energy(sigma->0) =     -114.88427823


--------------------------------------------------------------------------------------------------------




--------------------------------------- Iteration      1(   7)  ---------------------------------------


    POTLOK:  cpu time    0.0239: real time    0.0256
    SETDIJ:  cpu time    0.0035: real time    0.0035
     EDDAV:  cpu time    3.8477: real time    3.8814
       DOS:  cpu time    0.0005: real time    0.0005
    CHARGE:  cpu time    0.2350: real time    0.2350
    MIXING:  cpu time    0.0011: real time    0.0011
    --------------------------------------------
      LOOP:  cpu time    4.1116: real time    4.1471

 eigenvalue-minimisations  : 10352
 total energy-change (2. order) : 0.3760034E+00  (-0.1204919E+00)
 number of electron      63.9999992 magnetization 
 augmentation part        2.5575970 magnetization 

 Broyden mixing:
  rms(total) = 0.53500E+00    rms(broyden)= 0.53499E+00
  rms(prec ) = 0.63650E+00
  weight for this iteration     100.00

 eigenvalues of (default mixing * dielectric matrix)
  average eigenvalue GAMMA=   1.8640
  1.1360  2.5921

 Free energy of the ion-electron system (eV)
  ---------------------------------------------------
  alpha Z        PSCENC =       216.67315718
  Ewald energy   TEWEN  =     -2851.23040344
  -Hartree energ DENC   =      -580.79470161
  -exchange      EXHF   =         0.00000000
  -V(xc)+E(xc)   XCENC  =       250.95236500
  PAW double counting   =      4882.28925309    -4897.42134370
  entropy T*S    EENTRO =        -0.00000000
  eigenvalues    EBANDS =      -134.15852427
  atomic energy  EATOM  =      2999.18192289
  Solvation  Ediel_sol  =         0.00000000
  ---------------------------------------------------
  free energy    TOTEN  =      -114.50827486 eV

  energy without entropy =     -114.50827486  energy(sigma->0) =     -114.50827486


--------------------------------------------------------------------------------------------------------




--------------------------------------- Iteration      1(   8)  ---------------------------------------


    POTLOK:  cpu time    0.0205: real time    0.0221
    SETDIJ:  cpu time    0.0029: real time    0.0029
     EDDAV:  cpu time    3.7409: real time    3.7595
       DOS:  cpu time    0.0005: real time    0.0005
    CHARGE:  cpu time    0.2274: real time    0.2274
    MIXING:  cpu time    0.0016: real time    0.0016
    --------------------------------------------
      LOOP:  cpu time    3.9937: real time    4.0139

 eigenvalue-minimisations  :  9600
 total energy-change (2. order) : 0.6335033E-01  (-0.3328090E-01)
 number of electron      63.9999993 magnetization 
 augmentation part        2.5477474 magnetization 

 Broyden mixing:
  rms(total) = 0.65763E-01    rms(broyden)= 0.65722E-01
  rms(prec ) = 0.99098E-01
  weight for this iteration     100.00

 eigenvalues of (default mixing * dielectric matrix)
  average eigenvalue GAMMA=   1.5733
  2.5144  1.1027  1.1027

 Free energy of the ion-electron system (eV)
  ---------------------------------------------------
  alpha Z        PSCENC =       216.67315718
  Ewald energy   TEWEN  =     -2851.23040344
  -Hartree energ DENC   =      -595.30127537
  -exchange      EXHF   =         0.00000000
  -V(xc)+E(xc)   XCENC  =       252.12489107
  PAW double counting   =      6488.89895183    -6504.80682362
  entropy T*S    EENTRO =        -0.00000000
  eigenvalues    EBANDS =      -119.98534506
  atomic energy  EATOM  =      2999.18192289
  Solvation  Ediel_sol  =         0.00000000
  ---------------------------------------------------
  free energy    TOTEN  =      -114.44492453 eV

  energy without entropy =     -114.44492453  energy(sigma->0) =     -114.44492453


--------------------------------------------------------------------------------------------------------




--------------------------------------- Iteration      1(   9)  ---------------------------------------


    POTLOK:  cpu time    0.0245: real time    0.0261
    SETDIJ:  cpu time    0.0037: real time    0.0037
     EDDAV:  cpu time    3.7620: real time    3.7831
       DOS:  cpu time    0.0004: real time    0.0004
    CHARGE:  cpu time    0.1974: real time    0.1974
    MIXING:  cpu time    0.0008: real time    0.0008
    --------------------------------------------
      LOOP:  cpu time    3.9889: real time    4.0115

 eigenvalue-minimisations  :  9928
 total energy-change (2. order) : 0.6045864E-02  (-0.2280240E-02)
 number of electron      63.9999993 magnetization 
 augmentation part        2.5455437 magnetization 

 Broyden mixing:
  rms(total) = 0.31701E-01    rms(broyden)= 0.31700E-01
  rms(prec ) = 0.39043E-01
  weight for this iteration     100.00

 eigenvalues of (default mixing * dielectric matrix)
  average eigenvalue GAMMA=   1.6077
  2.5687  1.7087  1.0767  1.0767

 Free energy of the ion-electron system (eV)
  ---------------------------------------------------
  alpha Z        PSCENC =       216.67315718
  Ewald energy   TEWEN  =     -2851.23040344
  -Hartree energ DENC   =      -594.72566428
  -exchange      EXHF   =         0.00000000
  -V(xc)+E(xc)   XCENC  =       252.08461629
  PAW double counting   =      6493.68053606    -6509.53662304
  entropy T*S    EENTRO =        -0.00000000
  eigenvalues    EBANDS =      -120.56642033
  atomic energy  EATOM  =      2999.18192289
  Solvation  Ediel_sol  =         0.00000000
  ---------------------------------------------------
  free energy    TOTEN  =      -114.43887867 eV

  energy without entropy =     -114.43887867  energy(sigma->0) =     -114.43887867


--------------------------------------------------------------------------------------------------------




--------------------------------------- Iteration      1(  10)  ---------------------------------------


    POTLOK:  cpu time    0.0186: real time    0.0203
    SETDIJ:  cpu time    0.0027: real time    0.0027
     EDDAV:  cpu time    3.8692: real time    3.8911
       DOS:  cpu time    0.0005: real time    0.0005
    CHARGE:  cpu time    0.2399: real time    0.2399
    MIXING:  cpu time    0.0011: real time    0.0011
    --------------------------------------------
      LOOP:  cpu time    4.1320: real time    4.1556

 eigenvalue-minimisations  : 10024
 total energy-change (2. order) :-0.4823031E-03  (-0.4909170E-03)
 number of electron      63.9999993 magnetization 
 augmentation part        2.5453729 magnetization 

 Broyden mixing:
  rms(total) = 0.95773E-02    rms(broyden)= 0.95734E-02
  rms(prec ) = 0.14409E-01
  weight for this iteration     100.00

 eigenvalues of (default mixing * dielectric matrix)
  average eigenvalue GAMMA=   1.4823
  2.4969  1.8861  1.0567  1.0567  0.9149

 Free energy of the ion-electron system (eV)
  ---------------------------------------------------
  alpha Z        PSCENC =       216.67315718
  Ewald energy   TEWEN  =     -2851.23040344
  -Hartree energ DENC   =      -594.49354224
  -exchange      EXHF   =         0.00000000
  -V(xc)+E(xc)   XCENC  =       252.07254035
  PAW double counting   =      6552.79585384    -6568.62824085
  entropy T*S    EENTRO =        -0.00000000
  eigenvalues    EBANDS =      -120.81064870
  atomic energy  EATOM  =      2999.18192289
  Solvation  Ediel_sol  =         0.00000000
  ---------------------------------------------------
  free energy    TOTEN  =      -114.43936097 eV

  energy without entropy =     -114.43936097  energy(sigma->0) =     -114.43936097


--------------------------------------------------------------------------------------------------------




--------------------------------------- Iteration      1(  11)  ---------------------------------------


    POTLOK:  cpu time    0.0201: real time    0.0210
    SETDIJ:  cpu time    0.0027: real time    0.0027
     EDDAV:  cpu time    4.0040: real time    4.0179
       DOS:  cpu time    0.0006: real time    0.0006
    CHARGE:  cpu time    0.2410: real time    0.2410
    MIXING:  cpu time    0.0011: real time    0.0011
    --------------------------------------------
      LOOP:  cpu time    4.2694: real time    4.2843

 eigenvalue-minimisations  :  9736
 total energy-change (2. order) : 0.3525258E-04  (-0.5993042E-04)
 number of electron      63.9999993 magnetization 
 augmentation part        2.5467977 magnetization 

 Broyden mixing:
  rms(total) = 0.30284E-02    rms(broyden)= 0.30274E-02
  rms(prec ) = 0.39771E-02
  weight for this iteration     100.00

 eigenvalues of (default mixing * dielectric matrix)
  average eigenvalue GAMMA=   1.5236
  2.5589  2.0600  0.9861  1.2470  1.1449  1.1449

 Free energy of the ion-electron system (eV)
  ---------------------------------------------------
  alpha Z        PSCENC =       216.67315718
  Ewald energy   TEWEN  =     -2851.23040344
  -Hartree energ DENC   =      -594.30532946
  -exchange      EXHF   =         0.00000000
  -V(xc)+E(xc)   XCENC  =       252.05755529
  PAW double counting   =      6553.26067786    -6569.08474449
  entropy T*S    EENTRO =        -0.00000000
  eigenvalues    EBANDS =      -120.99216154
  atomic energy  EATOM  =      2999.18192289
  Solvation  Ediel_sol  =         0.00000000
  ---------------------------------------------------
  free energy    TOTEN  =      -114.43932572 eV

  energy without entropy =     -114.43932572  energy(sigma->0) =     -114.43932572


--------------------------------------------------------------------------------------------------------




--------------------------------------- Iteration      1(  12)  ---------------------------------------


    POTLOK:  cpu time    0.0194: real time    0.0201
    SETDIJ:  cpu time    0.0029: real time    0.0029
     EDDAV:  cpu time    3.8431: real time    3.8590
       DOS:  cpu time    0.0006: real time    0.0006
    CHARGE:  cpu time    0.2279: real time    0.2279
    MIXING:  cpu time    0.0014: real time    0.0014
    --------------------------------------------
      LOOP:  cpu time    4.0953: real time    4.1119

 eigenvalue-minimisations  :  9616
[...]
      5.279130  1.656791  1.817355    -0.000024    0.000049    0.117973  
      0.849125  1.842854  0.605785     0.000016   -0.000019   -0.389812  
      1.204742  5.400256  0.605785    -0.000059   -0.000016    0.271810  
     -2.053867  3.929529  0.605785    -0.000024    0.000049    0.117973  
      0.000000  3.724213  1.817355     0.000030   -0.000022    0.000011  
      3.225263  1.862107  0.605785     0.000030   -0.000022    0.000011  
 
  29 f  =   17.501602 THz   109.965809 2PiTHz  583.790590 cm-1    72.380834 meV
             X         Y         Z           dx          dy          dz
      1.187381  4.590055  1.817355    -0.000001   -0.000045    0.378448  
     -1.343531  4.319593  1.817355    -0.000033   -0.000041   -0.339918  
      0.156151  2.262990  1.817355    -0.000014   -0.000017   -0.038538  
      2.037883  0.996264  0.605785    -0.000001   -0.000045    0.378448  
      4.568795  1.266726  0.605785    -0.000033   -0.000041   -0.339918  
      3.069112  3.323329  0.605785    -0.000014   -0.000017   -0.038538  
      2.376138  3.743465  1.817355     0.000030    0.000057    0.088814  
      2.020521  0.186064  1.817355     0.000010   -0.000017    0.293168  
      5.279130  1.656791  1.817355    -0.000046    0.000039   -0.381985  
      0.849125  1.842854  0.605785     0.000030    0.000057    0.088814  
      1.204742  5.400256  0.605785     0.000010   -0.000017    0.293168  
     -2.053867  3.929529  0.605785    -0.000046    0.000039   -0.381985  
      0.000000  3.724213  1.817355    -0.000015   -0.000037    0.000008  
      3.225263  1.862107  0.605785    -0.000015   -0.000037    0.000008  
 
  30 f  =   16.260509 THz   102.167789 2PiTHz  542.392169 cm-1    67.248082 meV
             X         Y         Z           dx          dy          dz
      1.187381  4.590055  1.817355    -0.039395    0.146959    0.000064  
     -1.343531  4.319593  1.817355     0.133908    0.132326   -0.000050  
      0.156151  2.262990  1.817355     0.034585   -0.010460   -0.000005  
      2.037883  0.996264  0.605785    -0.039395    0.146959    0.000064  
      4.568795  1.266726  0.605785     0.133908    0.132326   -0.000050  
      3.069112  3.323329  0.605785     0.034585   -0.010460   -0.000005  
      2.376138  3.743465  1.817355    -0.280162   -0.397522    0.000018  
      2.020521  0.186064  1.817355    -0.223486    0.173383    0.000049  
      5.279130  1.656791  1.817355     0.242571   -0.161126   -0.000054  
      0.849125  1.842854  0.605785    -0.280162   -0.397522    0.000018  
      1.204742  5.400256  0.605785    -0.223486    0.173383    0.000049  
     -2.053867  3.929529  0.605785     0.242571   -0.161126   -0.000054  
      0.000000  3.724213  1.817355     0.141834    0.136612   -0.000003  
      3.225263  1.862107  0.605785     0.141834    0.136612   -0.000003  
 
  31 f  =   16.260172 THz   102.165674 2PiTHz  542.380941 cm-1    67.246690 meV
             X         Y         Z           dx          dy          dz
      1.187381  4.590055  1.817355     0.032275   -0.125467   -0.000047  
     -1.343531  4.319593  1.817355     0.046905    0.047845   -0.000027  
      0.156151  2.262990  1.817355     0.189676   -0.051475    0.000066  
      2.037883  0.996264  0.605785     0.032275   -0.125467   -0.000047  
      4.568795  1.266726  0.605785     0.046905    0.047845   -0.000027  
      3.069112  3.323329  0.605785     0.189676   -0.051475    0.000066  
      2.376138  3.743465  1.817355     0.140668   -0.106105    0.000043  
      2.020521  0.186064  1.817355    -0.430221   -0.049446   -0.000059  
      5.279130  1.656791  1.817355    -0.095709    0.416633   -0.000015  
      0.849125  1.842854  0.605785     0.140668   -0.106105    0.000043  
      1.204742  5.400256  0.605785    -0.430221   -0.049446   -0.000059  
     -2.053867  3.929529  0.605785    -0.095709    0.416633   -0.000015  
      0.000000  3.724213  1.817355     0.136613   -0.141822    0.000054  
      3.225263  1.862107  0.605785     0.136613   -0.141822    0.000054  
 
  32 f  =   14.164878 THz    89.000552 2PiTHz  472.489451 cm-1    58.581247 meV
             X         Y         Z           dx          dy          dz
      1.187381  4.590055  1.817355    -0.000001    0.000002   -0.066491  
     -1.343531  4.319593  1.817355     0.000004    0.000002   -0.066489  
      0.156151  2.262990  1.817355    -0.000020    0.000008   -0.066476  
      2.037883  0.996264  0.605785    -0.000001    0.000002   -0.066491  
      4.568795  1.266726  0.605785     0.000004    0.000002   -0.066489  
      3.069112  3.323329  0.605785    -0.000020    0.000008   -0.066476  
      2.376138  3.743465  1.817355    -0.000032   -0.000022   -0.153324  
      2.020521  0.186064  1.817355     0.000054   -0.000004   -0.153345  
      5.279130  1.656791  1.817355    -0.000008   -0.000015   -0.153328  
      0.849125  1.842854  0.605785    -0.000032   -0.000022   -0.153324  
      1.204742  5.400256  0.605785     0.000054   -0.000004   -0.153345  
     -2.053867  3.929529  0.605785    -0.000008   -0.000015   -0.153328  
      0.000000  3.724213  1.817355    -0.000022    0.000015    0.645141  
      3.225263  1.862107  0.605785    -0.000022    0.000015    0.645141  
 
  33 f  =   12.858754 THz    80.793932 2PiTHz  428.921838 cm-1    53.179549 meV
             X         Y         Z           dx          dy          dz
      1.187381  4.590055  1.817355     0.164812   -0.251364    0.000049  
     -1.343531  4.319593  1.817355     0.135344    0.268377    0.000017  
      0.156151  2.262990  1.817355    -0.300133   -0.017072   -0.000023  
      2.037883  0.996264  0.605785    -0.164812    0.251364   -0.000049  
      4.568795  1.266726  0.605785    -0.135344   -0.268377   -0.000017  
      3.069112  3.323329  0.605785     0.300133    0.017072    0.000023  
      2.376138  3.743465  1.817355     0.269028   -0.062912    0.000045  
      2.020521  0.186064  1.817355    -0.079919    0.264393   -0.000031  
      5.279130  1.656791  1.817355    -0.189079   -0.201401   -0.000015  
      0.849125  1.842854  0.605785    -0.269028    0.062912   -0.000045  
      1.204742  5.400256  0.605785     0.079919   -0.264393    0.000031  
     -2.053867  3.929529  0.605785     0.189079    0.201401    0.000015  
      0.000000  3.724213  1.817355     0.000033   -0.000023    0.000219  
      3.225263  1.862107  0.605785    -0.000033    0.000023   -0.000219  
 
  34 f  =   12.032582 THz    75.602940 2PiTHz  401.363705 cm-1    49.762775 meV
             X         Y         Z           dx          dy          dz
      1.187381  4.590055  1.817355     0.000070   -0.000064   -0.140631  
     -1.343531  4.319593  1.817355     0.000003    0.000090   -0.143119  
      0.156151  2.262990  1.817355    -0.000072   -0.000011   -0.144022  
      2.037883  0.996264  0.605785    -0.000070    0.000064    0.140631  
      4.568795  1.266726  0.605785    -0.000003   -0.000090    0.143119  
      3.069112  3.323329  0.605785     0.000072    0.000011    0.144022  
      2.376138  3.743465  1.817355     0.000089   -0.000005    0.068154  
      2.020521  0.186064  1.817355    -0.000080    0.000078    0.064204  
      5.279130  1.656791  1.817355    -0.000036   -0.000082    0.066033  
      0.849125  1.842854  0.605785    -0.000089    0.000005   -0.068154  
      1.204742  5.400256  0.605785     0.000080   -0.000078   -0.064204  
     -2.053867  3.929529  0.605785     0.000036    0.000082   -0.066033  
      0.000000  3.724213  1.817355     0.000009    0.000002   -0.652587  
      3.225263  1.862107  0.605785    -0.000009   -0.000002    0.652587  
 
  35 f  =   11.996199 THz    75.374340 2PiTHz  400.150105 cm-1    49.612308 meV
             X         Y         Z           dx          dy          dz
      1.187381  4.590055  1.817355     0.000046   -0.000005   -0.136166  
     -1.343531  4.319593  1.817355     0.000010    0.000013   -0.243563  
      0.156151  2.262990  1.817355    -0.000035    0.000030    0.378408  
      2.037883  0.996264  0.605785    -0.000046    0.000005    0.136166  
      4.568795  1.266726  0.605785    -0.000010   -0.000013    0.243563  
      3.069112  3.323329  0.605785     0.000035   -0.000030   -0.378408  
      2.376138  3.743465  1.817355    -0.000018   -0.000084   -0.384703  
      2.020521  0.186064  1.817355    -0.000098    0.000030    0.024265  
      5.279130  1.656791  1.817355    -0.000009   -0.000009    0.361045  
      0.849125  1.842854  0.605785     0.000018    0.000084    0.384703  
      1.204742  5.400256  0.605785     0.000098   -0.000030   -0.024265  
     -2.053867  3.929529  0.605785     0.000009    0.000009   -0.361045  
      0.000000  3.724213  1.817355     0.000008    0.000046   -0.002010  
      3.225263  1.862107  0.605785    -0.000008   -0.000046    0.002010  
 
  36 f  =   11.995439 THz    75.369566 2PiTHz  400.124762 cm-1    49.609166 meV
             X         Y         Z           dx          dy          dz
      1.187381  4.590055  1.817355    -0.000011    0.000001    0.359707  
     -1.343531  4.319593  1.817355    -0.000053   -0.000002   -0.296476  
      0.156151  2.262990  1.817355     0.000024    0.000039   -0.061382  
      2.037883  0.996264  0.605785     0.000011   -0.000001   -0.359707  
      4.568795  1.266726  0.605785     0.000053    0.000002    0.296476  
      3.069112  3.323329  0.605785    -0.000024   -0.000039    0.061382  
      2.376138  3.743465  1.817355    -0.000052   -0.000050    0.194147  
      2.020521  0.186064  1.817355     0.000030   -0.000015   -0.430845  
      5.279130  1.656791  1.817355     0.000060   -0.000062    0.235832  
      0.849125  1.842854  0.605785     0.000052    0.000050   -0.194147  
      1.204742  5.400256  0.605785    -0.000030    0.000015    0.430845  
     -2.053867  3.929529  0.605785    -0.000060    0.000062   -0.235832  
      0.000000  3.724213  1.817355    -0.000043    0.000014    0.002801  
      3.225263  1.862107  0.605785     0.000043   -0.000014   -0.002801  
 
  37 f  =    8.784168 THz    55.192555 2PiTHz  293.008293 cm-1    36.328411 meV
             X         Y         Z           dx          dy          dz
      1.187381  4.590055  1.817355     0.163213    0.111946    0.000066  
     -1.343531  4.319593  1.817355     0.146519   -0.148877   -0.000048  
      0.156151  2.262990  1.817355    -0.070858   -0.004011   -0.000013  
      2.037883  0.996264  0.605785    -0.163213   -0.111946   -0.000066  
      4.568795  1.266726  0.605785    -0.146519    0.148877    0.000048  
      3.069112  3.323329  0.605785     0.070858    0.004011    0.000013  
      2.376138  3.743465  1.817355     0.215290    0.210696    0.000035  
      2.020521  0.186064  1.817355    -0.182549   -0.130208   -0.000072  
      5.279130  1.656791  1.817355    -0.278776    0.384876    0.000036  
      0.849125  1.842854  0.605785    -0.215290   -0.210696   -0.000035  
      1.204742  5.400256  0.605785     0.182549    0.130208    0.000072  
     -2.053867  3.929529  0.605785     0.278776   -0.384876   -0.000036  
      0.000000  3.724213  1.817355     0.207863    0.045682   -0.000002  
      3.225263  1.862107  0.605785    -0.207863   -0.045682    0.000002  
 
  38 f  =    8.783436 THz    55.187957 2PiTHz  292.983886 cm-1    36.325385 meV
             X         Y         Z           dx          dy          dz
      1.187381  4.590055  1.817355     0.139215   -0.004029    0.000018  
     -1.343531  4.319593  1.817355    -0.121547    0.012749    0.000070  
      0.156151  2.262990  1.817355     0.023248    0.230162   -0.000063  
      2.037883  0.996264  0.605785    -0.139215    0.004029   -0.000018  
      4.568795  1.266726  0.605785     0.121547   -0.012749   -0.000070  
      3.069112  3.323329  0.605785    -0.023248   -0.230162    0.000063  
      2.376138  3.743465  1.817355    -0.099517   -0.379339    0.000059  
      2.020521  0.186064  1.817355    -0.440424    0.018577    0.000019  
      5.279130  1.656791  1.817355     0.074587    0.114766   -0.000085  
      0.849125  1.842854  0.605785     0.099517    0.379339   -0.000059  
      1.204742  5.400256  0.605785     0.440424   -0.018577   -0.000019  
     -2.053867  3.929529  0.605785    -0.074587   -0.114766    0.000085  
      0.000000  3.724213  1.817355    -0.045687    0.207868    0.000032  
      3.225263  1.862107  0.605785     0.045687   -0.207868   -0.000032  
 
  39 f  =    5.308886 THz    33.356717 2PiTHz  177.085386 cm-1    21.955797 meV
             X         Y         Z           dx          dy          dz
      1.187381  4.590055  1.817355     0.074804   -0.005348    0.000032  
     -1.343531  4.319593  1.817355    -0.032835    0.067428    0.000030  
      0.156151  2.262990  1.817355    -0.042043   -0.062175    0.000032  
      2.037883  0.996264  0.605785     0.074804   -0.005348    0.000032  
      4.568795  1.266726  0.605785    -0.032835    0.067428    0.000030  
      3.069112  3.323329  0.605785    -0.042043   -0.062175    0.000032  
      2.376138  3.743465  1.817355    -0.192743   -0.352006    0.000039  
      2.020521  0.186064  1.817355     0.401177    0.009054    0.000034  
      5.279130  1.656791  1.817355    -0.208503    0.342872    0.000039  
      0.849125  1.842854  0.605785    -0.192743   -0.352006    0.000039  
      1.204742  5.400256  0.605785     0.401177    0.009054    0.000034  
     -2.053867  3.929529  0.605785    -0.208503    0.342872    0.000039  
      0.000000  3.724213  1.817355    -0.000029   -0.000033   -0.000014  
      3.225263  1.862107  0.605785    -0.000029   -0.000033   -0.000014  
 
  40 f/i=    0.003463 THz     0.021756 2PiTHz    0.115501 cm-1     0.014320 meV
             X         Y         Z           dx          dy          dz
      1.187381  4.590055  1.817355    -0.003650    0.017054    0.254858  
     -1.343531  4.319593  1.817355    -0.003630    0.017062    0.254856  
      0.156151  2.262990  1.817355    -0.003648    0.017079    0.254845  
      2.037883  0.996264  0.605785    -0.003650    0.017054    0.254858  
      4.568795  1.266726  0.605785    -0.003630    0.017062    0.254856  
      3.069112  3.323329  0.605785    -0.003648    0.017079    0.254845  
      2.376138  3.743465  1.817355    -0.003912    0.018469    0.275183  
      2.020521  0.186064  1.817355    -0.003971    0.018419    0.275194  
      5.279130  1.656791  1.817355    -0.003918    0.018401    0.275190  
      0.849125  1.842854  0.605785    -0.003912    0.018469    0.275183  
      1.204742  5.400256  0.605785    -0.003971    0.018419    0.275194  
     -2.053867  3.929529  0.605785    -0.003918    0.018401    0.275190  
      0.000000  3.724213  1.817355    -0.003939    0.018423    0.275007  
      3.225263  1.862107  0.605785    -0.003939    0.018423    0.275007  
 
  41 f/i=    0.004550 THz     0.028588 2PiTHz    0.151771 cm-1     0.018817 meV
             X         Y         Z           dx          dy          dz
      1.187381  4.590055  1.817355    -0.013667   -0.254487    0.016836  
     -1.343531  4.319593  1.817355    -0.013628   -0.254513    0.016852  
      0.156151  2.262990  1.817355    -0.013657   -0.254510    0.016866  
      2.037883  0.996264  0.605785    -0.013667   -0.254487    0.016836  
      4.568795  1.266726  0.605785    -0.013628   -0.254513    0.016852  
      3.069112  3.323329  0.605785    -0.013657   -0.254510    0.016866  
      2.376138  3.743465  1.817355    -0.014786   -0.274816    0.018205  
      2.020521  0.186064  1.817355    -0.014758   -0.274764    0.018178  
      5.279130  1.656791  1.817355    -0.014650   -0.274940    0.018208  
      0.849125  1.842854  0.605785    -0.014786   -0.274816    0.018205  
      1.204742  5.400256  0.605785    -0.014758   -0.274764    0.018178  
     -2.053867  3.929529  0.605785    -0.014650   -0.274940    0.018208  
      0.000000  3.724213  1.817355    -0.014729   -0.274719    0.018177  
      3.225263  1.862107  0.605785    -0.014729   -0.274719    0.018177  
 
  42 f/i=    0.004902 THz     0.030801 2PiTHz    0.163515 cm-1     0.020273 meV
             X         Y         Z           dx          dy          dz
      1.187381  4.590055  1.817355     0.255057   -0.013370    0.004553  
     -1.343531  4.319593  1.817355     0.255027   -0.013393    0.004525  
      0.156151  2.262990  1.817355     0.255016   -0.013374    0.004550  
      2.037883  0.996264  0.605785     0.255057   -0.013370    0.004553  
      4.568795  1.266726  0.605785     0.255027   -0.013393    0.004525  
      3.069112  3.323329  0.605785     0.255016   -0.013374    0.004550  
      2.376138  3.743465  1.817355     0.275379   -0.014384    0.004920  
      2.020521  0.186064  1.817355     0.275535   -0.014460    0.004903  
      5.279130  1.656791  1.817355     0.275337   -0.014471    0.004886  
      0.849125  1.842854  0.605785     0.275379   -0.014384    0.004920  
      1.204742  5.400256  0.605785     0.275535   -0.014460    0.004903  
     -2.053867  3.929529  0.605785     0.275337   -0.014471    0.004886  
      0.000000  3.724213  1.817355     0.275285   -0.014432    0.004910  
      3.225263  1.862107  0.605785     0.275285   -0.014432    0.004910  
 


--------------------------------------------------------------------------------------------------------




 MACROSCOPIC STATIC DIELECTRIC TENSOR IONIC CONTRIBUTION
 ------------------------------------------------------
           2.935537    -0.000010    -0.000015
          -0.000010     2.935586    -0.000002
          -0.000015    -0.000002     1.478791
 ------------------------------------------------------


 ELASTIC MODULI IONIC CONTR (kBar)
 Direction    XX          YY          ZZ          XY          YZ          ZX
 --------------------------------------------------------------------------------
 XX        -917.9424    841.9039     11.1219     -0.8225     -2.3014     -3.1625
 YY         841.9039   -918.3697     11.3363      0.9047      2.3634      2.0520
 ZZ          11.1219     11.3363   -201.6669     -0.0560     -1.5052      0.8143
 XY          -0.8225      0.9047     -0.0560   -878.7554      1.8808     -3.8167
 YZ          -2.3014      2.3634     -1.5052      1.8808   -457.4570     -2.5099
 ZX          -3.1625      2.0520      0.8143     -3.8167     -2.5099   -430.0433
 --------------------------------------------------------------------------------


 PIEZOELECTRIC TENSOR IONIC CONTR  for field in x, y, z        (C/m^2)
          XX          YY          ZZ          XY          YZ          ZX
  --------------------------------------------------------------------------------
  x     0.00000    -0.00000     0.00000    -0.00001    -0.00000    -0.00002
  y     0.00001    -0.00001     0.00000    -0.00001    -0.00001     0.00003
  z    -0.00001    -0.00000    -0.00001    -0.00001    -0.00001    -0.00000


--------------------------------------------------------------------------------------------------------


     LOOP+:  cpu time 2000.7758: real time 2011.3837
    4ORBIT:  cpu time    0.0000: real time    0.0000

 total amount of memory used by VASP MPI-rank0    86823. kBytes
=======================================================================

   base      :      30000. kBytes
   nonl-proj :      31049. kBytes
   fftplans  :       1653. kBytes
   grid      :       4110. kBytes
   one-center:         43. kBytes
   wavefun   :      19968. kBytes
 
  
  
 General timing and accounting informations for this job:
 ========================================================
  
                  Total CPU time used (sec):     2002.874
                            User time (sec):     1986.851
                          System time (sec):       16.023
                         Elapsed time (sec):     2013.557
  
                   Maximum memory used (kb):      251376.
                   Average memory used (kb):           0.
  
                          Minor page faults:       297733
                          Major page faults:           12
                 Voluntary context switches:        10210
