<?xml version="1.0" encoding="ISO-8859-1"?>
<modeling>
 <generator>
  <i name="program" type="string">vasp </i>
  <i name="version" type="string">5.4.4.18Apr17-6-g9f103f2a35  </i>
  <i name="subversion" type="string">(build Aug 24 2017 11:22:49) complex            parallel </i>
  <i name="platform" type="string">LinuxIFC </i>
  <i name="date" type="string">2023 12 25 </i>
  <i name="time" type="string">13:07:26 </i>
 </generator>
 <incar>
  <i type="string" name="PREC">accurate</i>
  <i type="string" name="ALGO"> Normal</i>
  <i type="int" name="NELM">   100</i>
  <i type="int" name="IBRION">     8</i>
  <i name="EDIFF">      0.00000001</i>
  <i name="SYMPREC">      0.00000001</i>
  <i name="ENCUT">    520.00000000</i>
  <i type="logical" name="LREAL"> F  </i>
  <i type="int" name="ISMEAR">     0</i>
  <i name="SIGMA">      0.01000000</i>
  <i type="logical" name="LWAVE"> F  </i>
  <v type="int" name="KPOINT_BSE">    -1     0     0     0</v>
  <i type="int" name="NELM">   100</i>
  <i type="logical" name="LPEAD"> T  </i>
  <i type="logical" name="LEPSILON"> T  </i>
 </incar>
 <structure name="primitive_cell" >
  <crystal>
   <varray name="basis" >
    <v>       6.45052577       0.00000000       0.00000000 </v>
    <v>      -3.22526289       5.58631919       0.00000000 </v>
    <v>       0.00000000       0.00000000       2.42313981 </v>
   </varray>
   <i name="volume">     87.31710626 </i>
   <varray name="rec_basis" >
    <v>       0.15502612       0.08950437       0.00000000 </v>
    <v>       0.00000000       0.17900875       0.00000000 </v>
    <v>       0.00000000       0.00000000       0.41268770 </v>
   </varray>
  </crystal>
  <varray name="positions" >
   <v>      -0.40509495      -0.17834001      -0.24999994 </v>
   <v>      -0.32988695      -0.03330700       0.25000002 </v>
   <v>      -0.29657995      -0.32988695      -0.24999994 </v>
   <v>       0.33333336      -0.33333336      -0.24999994 </v>
   <v>       0.22675502       0.40509495      -0.24999994 </v>
   <v>       0.17834001      -0.22675502      -0.24999994 </v>
   <v>      -0.22675494      -0.40509495       0.25000002 </v>
   <v>      -0.17833994       0.22675502       0.25000002 </v>
   <v>       0.32988703       0.03330700      -0.24999994 </v>
   <v>      -0.03330693       0.29658002      -0.24999994 </v>
   <v>       0.29658002       0.32988695       0.25000002 </v>
   <v>      -0.33333328       0.33333336       0.25000002 </v>
   <v>       0.40509503       0.17834001       0.25000002 </v>
   <v>       0.03330700      -0.29658002       0.25000002 </v>
  </varray>
 </structure>
 <varray name="primitive_index" >
  <v type="int" >        1 </v>
  <v type="int" >       11 </v>
  <v type="int" >        7 </v>
  <v type="int" >       13 </v>
  <v type="int" >        3 </v>
  <v type="int" >        2 </v>
  <v type="int" >        6 </v>
  <v type="int" >        5 </v>
  <v type="int" >        8 </v>
  <v type="int" >        9 </v>
  <v type="int" >       10 </v>
  <v type="int" >       14 </v>
  <v type="int" >        4 </v>
  <v type="int" >       12 </v>
 </varray>
 <kpoints>
  <generation param="Gamma">
   <v type="int" name="divisions">       4        4       12 </v>
   <v name="usershift">      0.00000000       0.00000000       0.00000000 </v>
   <v name="genvec1">      0.25000000      -0.00000000       0.00000000 </v>
   <v name="genvec2">      0.00000000       0.25000000       0.00000000 </v>
   <v name="genvec3">      0.00000000       0.00000000       0.08333333 </v>
   <v name="shift">      0.00000000       0.00000000       0.00000000 </v>
  </generation>
  <varray name="kpointlist" >
   <v>       0.00000000       0.00000000       0.00000000 </v>
   <v>       0.25000000       0.00000000       0.00000000 </v>
   <v>       0.50000000       0.00000000       0.00000000 </v>
   <v>       0.00000000       0.25000000       0.00000000 </v>
   <v>       0.25000000       0.25000000       0.00000000 </v>
   <v>       0.50000000       0.25000000       0.00000000 </v>
   <v>      -0.25000000       0.25000000       0.00000000 </v>
   <v>       0.00000000       0.50000000       0.00000000 </v>
   <v>       0.25000000       0.50000000       0.00000000 </v>
   <v>       0.50000000       0.50000000       0.00000000 </v>
   <v>       0.00000000       0.00000000       0.08333333 </v>
   <v>       0.25000000       0.00000000       0.08333333 </v>
   <v>       0.50000000       0.00000000       0.08333333 </v>
   <v>      -0.25000000      -0.00000000       0.08333333 </v>
   <v>       0.00000000       0.25000000       0.08333333 </v>
   <v>       0.25000000       0.25000000       0.08333333 </v>
   <v>       0.50000000       0.25000000       0.08333333 </v>
   <v>      -0.25000000       0.25000000       0.08333333 </v>
   <v>       0.00000000       0.50000000       0.08333333 </v>
   <v>       0.25000000       0.50000000       0.08333333 </v>
   <v>       0.50000000       0.50000000       0.08333333 </v>
   <v>      -0.25000000       0.50000000       0.08333333 </v>
   <v>       0.00000000      -0.25000000       0.08333333 </v>
   <v>       0.25000000      -0.25000000       0.08333333 </v>
   <v>       0.50000000      -0.25000000       0.08333333 </v>
   <v>      -0.25000000      -0.25000000       0.08333333 </v>
   <v>       0.00000000       0.00000000       0.16666667 </v>
   <v>       0.25000000       0.00000000       0.16666667 </v>
   <v>       0.50000000       0.00000000       0.16666667 </v>
   <v>      -0.25000000      -0.00000000       0.16666667 </v>
   <v>       0.00000000       0.25000000       0.16666667 </v>
   <v>       0.25000000       0.25000000       0.16666667 </v>
   <v>       0.50000000       0.25000000       0.16666667 </v>
   <v>      -0.25000000       0.25000000       0.16666667 </v>
   <v>       0.00000000       0.50000000       0.16666667 </v>
   <v>       0.25000000       0.50000000       0.16666667 </v>
   <v>       0.50000000       0.50000000       0.16666667 </v>
   <v>      -0.25000000       0.50000000       0.16666667 </v>
   <v>       0.00000000      -0.25000000       0.16666667 </v>
   <v>       0.25000000      -0.25000000       0.16666667 </v>
   <v>       0.50000000      -0.25000000       0.16666667 </v>
   <v>      -0.25000000      -0.25000000       0.16666667 </v>
   <v>       0.00000000       0.00000000       0.25000000 </v>
   <v>       0.25000000       0.00000000       0.25000000 </v>
   <v>       0.50000000       0.00000000       0.25000000 </v>
   <v>      -0.25000000      -0.00000000       0.25000000 </v>
   <v>       0.00000000       0.25000000       0.25000000 </v>
   <v>       0.25000000       0.25000000       0.25000000 </v>
   <v>       0.50000000       0.25000000       0.25000000 </v>
   <v>      -0.25000000       0.25000000       0.25000000 </v>
   <v>       0.00000000       0.50000000       0.25000000 </v>
   <v>       0.25000000       0.50000000       0.25000000 </v>
   <v>       0.50000000       0.50000000       0.25000000 </v>
   <v>      -0.25000000       0.50000000       0.25000000 </v>
   <v>       0.00000000      -0.25000000       0.25000000 </v>
   <v>       0.25000000      -0.25000000       0.25000000 </v>
   <v>       0.50000000      -0.25000000       0.25000000 </v>
   <v>      -0.25000000      -0.25000000       0.25000000 </v>
   <v>       0.00000000       0.00000000       0.33333333 </v>
   <v>       0.25000000       0.00000000       0.33333333 </v>
   <v>       0.50000000       0.00000000       0.33333333 </v>
   <v>      -0.25000000      -0.00000000       0.33333333 </v>
   <v>       0.00000000       0.25000000       0.33333333 </v>
   <v>       0.25000000       0.25000000       0.33333333 </v>
   <v>       0.50000000       0.25000000       0.33333333 </v>
   <v>      -0.25000000       0.25000000       0.33333333 </v>
   <v>       0.00000000       0.50000000       0.33333333 </v>
   <v>       0.25000000       0.50000000       0.33333333 </v>
   <v>       0.50000000       0.50000000       0.33333333 </v>
   <v>      -0.25000000       0.50000000       0.33333333 </v>
   <v>       0.00000000      -0.25000000       0.33333333 </v>
   <v>       0.25000000      -0.25000000       0.33333333 </v>
   <v>       0.50000000      -0.25000000       0.33333333 </v>
   <v>      -0.25000000      -0.25000000       0.33333333 </v>
   <v>       0.00000000       0.00000000       0.41666667 </v>
   <v>       0.25000000       0.00000000       0.41666667 </v>
   <v>       0.50000000       0.00000000       0.41666667 </v>
   <v>      -0.25000000      -0.00000000       0.41666667 </v>
   <v>       0.00000000       0.25000000       0.41666667 </v>
   <v>       0.25000000       0.25000000       0.41666667 </v>
   <v>       0.50000000       0.25000000       0.41666667 </v>
   <v>      -0.25000000       0.25000000       0.41666667 </v>
   <v>       0.00000000       0.50000000       0.41666667 </v>
   <v>       0.25000000       0.50000000       0.41666667 </v>
   <v>       0.50000000       0.50000000       0.41666667 </v>
   <v>      -0.25000000       0.50000000       0.41666667 </v>
   <v>       0.00000000      -0.25000000       0.41666667 </v>
   <v>       0.25000000      -0.25000000       0.41666667 </v>
   <v>       0.50000000      -0.25000000       0.41666667 </v>
   <v>      -0.25000000      -0.25000000       0.41666667 </v>
   <v>       0.00000000       0.00000000       0.50000000 </v>
   <v>       0.25000000       0.00000000       0.50000000 </v>
   <v>       0.50000000       0.00000000       0.50000000 </v>
   <v>       0.00000000       0.25000000       0.50000000 </v>
   <v>       0.25000000       0.25000000       0.50000000 </v>
   <v>       0.50000000       0.25000000       0.50000000 </v>
   <v>      -0.25000000       0.25000000       0.50000000 </v>
   <v>       0.00000000       0.50000000       0.50000000 </v>
   <v>       0.25000000       0.50000000       0.50000000 </v>
   <v>       0.50000000       0.50000000       0.50000000 </v>
  </varray>
  <varray name="weights" >
   <v>       0.00520833 </v>
   <v>       0.01041667 </v>
   <v>       0.00520833 </v>
   <v>       0.01041667 </v>
   <v>       0.01041667 </v>
   <v>       0.01041667 </v>
   <v>       0.01041667 </v>
   <v>       0.00520833 </v>
   <v>       0.01041667 </v>
   <v>       0.00520833 </v>
   <v>       0.01041667 </v>
   <v>       0.01041667 </v>
   <v>       0.01041667 </v>
   <v>       0.01041667 </v>
   <v>       0.01041667 </v>
   <v>       0.01041667 </v>
   <v>       0.01041667 </v>
   <v>       0.01041667 </v>
   <v>       0.01041667 </v>
   <v>       0.01041667 </v>
   <v>       0.01041667 </v>
   <v>       0.01041667 </v>
   <v>       0.01041667 </v>
   <v>       0.01041667 </v>
   <v>       0.01041667 </v>
   <v>       0.01041667 </v>
   <v>       0.01041667 </v>
   <v>       0.01041667 </v>
   <v>       0.01041667 </v>
   <v>       0.01041667 </v>
   <v>       0.01041667 </v>
   <v>       0.01041667 </v>
   <v>       0.01041667 </v>
   <v>       0.01041667 </v>
   <v>       0.01041667 </v>
   <v>       0.01041667 </v>
   <v>       0.01041667 </v>
   <v>       0.01041667 </v>
   <v>       0.01041667 </v>
   <v>       0.01041667 </v>
   <v>       0.01041667 </v>
   <v>       0.01041667 </v>
   <v>       0.01041667 </v>
   <v>       0.01041667 </v>
   <v>       0.01041667 </v>
   <v>       0.01041667 </v>
   <v>       0.01041667 </v>
   <v>       0.01041667 </v>
   <v>       0.01041667 </v>
   <v>       0.01041667 </v>
   <v>       0.01041667 </v>
   <v>       0.01041667 </v>
   <v>       0.01041667 </v>
   <v>       0.01041667 </v>
   <v>       0.01041667 </v>
   <v>       0.01041667 </v>
   <v>       0.01041667 </v>
   <v>       0.01041667 </v>
   <v>       0.01041667 </v>
   <v>       0.01041667 </v>
   <v>       0.01041667 </v>
   <v>       0.01041667 </v>
   <v>       0.01041667 </v>
   <v>       0.01041667 </v>
   <v>       0.01041667 </v>
   <v>       0.01041667 </v>
   <v>       0.01041667 </v>
   <v>       0.01041667 </v>
   <v>       0.01041667 </v>
   <v>       0.01041667 </v>
   <v>       0.01041667 </v>
   <v>       0.01041667 </v>
   <v>       0.01041667 </v>
   <v>       0.01041667 </v>
   <v>       0.01041667 </v>
   <v>       0.01041667 </v>
   <v>       0.01041667 </v>
   <v>       0.01041667 </v>
   <v>       0.01041667 </v>
   <v>       0.01041667 </v>
   <v>       0.01041667 </v>
   <v>       0.01041667 </v>
   <v>       0.01041667 </v>
   <v>       0.01041667 </v>
   <v>       0.01041667 </v>
   <v>       0.01041667 </v>
   <v>       0.01041667 </v>
   <v>       0.01041667 </v>
   <v>       0.01041667 </v>
   <v>       0.01041667 </v>
   <v>       0.00520833 </v>
   <v>       0.01041667 </v>
   <v>       0.00520833 </v>
   <v>       0.01041667 </v>
   <v>       0.01041667 </v>
   <v>       0.01041667 </v>
   <v>       0.01041667 </v>
   <v>       0.00520833 </v>
   <v>       0.01041667 </v>
   <v>       0.00520833 </v>
  </varray>
 </kpoints>
 <parameters>
  <separator name="general" >
   <i type="string" name="SYSTEM">unknown system</i>
   <i type="logical" name="LCOMPAT"> F  </i>
  </separator>
  <separator name="electronic" >
   <i type="string" name="PREC">accura</i>
   <i name="ENMAX">    520.00000000</i>
   <i name="ENAUG">    644.87300000</i>
   <i name="EDIFF">      0.00000001</i>
   <i type="int" name="IALGO">    38</i>
   <i type="int" name="IWAVPR">    11</i>
   <i type="int" name="NBANDS">    40</i>
   <i name="NELECT">     64.00000000</i>
   <i type="int" name="TURBO">     0</i>
   <i type="int" name="IRESTART">     0</i>
   <i type="int" name="NREBOOT">     0</i>
   <i type="int" name="NMIN">     0</i>
   <i name="EREF">      0.00000000</i>
   <separator name="electronic smearing" >
    <i type="int" name="ISMEAR">     0</i>
    <i name="SIGMA">      0.01000000</i>
    <i name="KSPACING">      0.50000000</i>
    <i type="logical" name="KGAMMA"> T  </i>
   </separator>
   <separator name="electronic projectors" >
    <i type="logical" name="LREAL"> F  </i>
    <v name="ROPT">      0.00000000      0.00000000</v>
    <i type="int" name="LMAXPAW">  -100</i>
    <i type="int" name="LMAXMIX">     2</i>
    <i type="logical" name="NLSPLINE"> F  </i>
   </separator>
   <separator name="electronic startup" >
    <i type="int" name="ISTART">     0</i>
    <i type="int" name="ICHARG">     2</i>
    <i type="int" name="INIWAV">     1</i>
   </separator>
   <separator name="electronic spin" >
    <i type="int" name="ISPIN">     1</i>
    <i type="logical" name="LNONCOLLINEAR"> F  </i>
    <v name="MAGMOM">      1.00000000      1.00000000      1.00000000      1.00000000      1.00000000      1.00000000      1.00000000      1.00000000      1.00000000      1.00000000      1.00000000      1.00000000      1.00000000      1.00000000</v>
    <i name="NUPDOWN">     -1.00000000</i>
    <i type="logical" name="LSORBIT"> F  </i>
    <v name="SAXIS">      0.00000000      0.00000000      1.00000000</v>
    <i type="logical" name="LSPIRAL"> F  </i>
    <v name="QSPIRAL">      0.00000000      0.00000000      0.00000000</v>
    <i type="logical" name="LZEROZ"> F  </i>
   </separator>
   <separator name="electronic exchange-correlation" >
    <i type="logical" name="LASPH"> F  </i>
    <i type="logical" name="LMETAGGA"> F  </i>
   </separator>
   <separator name="electronic convergence" >
    <i type="int" name="NELM">   100</i>
    <i type="int" name="NELMDL">    -5</i>
    <i type="int" name="NELMIN">     2</i>
    <i name="ENINI">    520.00000000</i>
    <separator name="electronic convergence detail" >
     <i type="logical" name="LDIAG"> T  </i>
     <i type="logical" name="LSUBROT"> F  </i>
     <i name="WEIMIN">      0.00100000</i>
     <i name="EBREAK">      0.00000000</i>
     <i name="DEPER">      0.30000000</i>
     <i type="int" name="NRMM">     4</i>
     <i name="TIME">      0.40000000</i>
    </separator>
   </separator>
   <separator name="electronic mixer" >
    <i name="AMIX">      0.40000000</i>
    <i name="BMIX">      1.00000000</i>
    <i name="AMIN">      0.10000000</i>
    <i name="AMIX_MAG">      1.60000000</i>
    <i name="BMIX_MAG">      1.00000000</i>
    <separator name="electronic mixer details" >
     <i type="int" name="IMIX">     4</i>
     <i type="logical" name="MIXFIRST"> F  </i>
     <i type="int" name="MAXMIX">   -45</i>
     <i name="WC">    100.00000000</i>
     <i type="int" name="INIMIX">     1</i>
     <i type="int" name="MIXPRE">     1</i>
     <i type="int" name="MREMOVE">     5</i>
    </separator>
   </separator>
   <separator name="electronic dipolcorrection" >
    <i type="logical" name="LDIPOL"> F  </i>
    <i type="logical" name="LMONO"> F  </i>
    <i type="int" name="IDIPOL">     0</i>
    <i name="EPSILON">      1.00000000</i>
    <v name="DIPOL">   -100.00000000   -100.00000000   -100.00000000</v>
    <i name="EFIELD">      0.00000000</i>
   </separator>
  </separator>
  <separator name="grids" >
   <i type="int" name="NGX">    48</i>
   <i type="int" name="NGY">    48</i>
   <i type="int" name="NGZ">    18</i>
   <i type="int" name="NGXF">    96</i>
   <i type="int" name="NGYF">    96</i>
   <i type="int" name="NGZF">    36</i>
   <i type="logical" name="ADDGRID"> F  </i>
  </separator>
  <separator name="ionic" >
   <i type="int" name="NSW">     1</i>
   <i type="int" name="IBRION">     8</i>
   <i type="int" name="MDALGO">     0</i>
   <i type="int" name="ISIF">     2</i>
   <i name="PSTRESS">      0.00000000</i>
   <i name="EDIFFG">      0.00000010</i>
   <i type="int" name="NFREE">     0</i>
   <i name="POTIM">      0.50000000</i>
   <i name="SMASS">     -3.00000000</i>
   <i name="SCALEE">      1.00000000</i>
  </separator>
  <separator name="ionic md" >
   <i name="TEBEG">      0.00010000</i>
   <i name="TEEND">      0.00010000</i>
   <i type="int" name="NBLOCK">     1</i>
   <i type="int" name="KBLOCK">     1</i>
   <i type="int" name="NPACO">   256</i>
   <i name="APACO">     16.00000000</i>
  </separator>
  <separator name="symmetry" >
   <i type="int" name="ISYM">     2</i>
   <i name="SYMPREC">      0.00000001</i>
  </separator>
  <separator name="dos" >
   <i type="int" name="LORBIT">     0</i>
   <v name="RWIGS">     -1.00000000     -1.00000000</v>
   <i type="int" name="NEDOS">   301</i>
   <i name="EMIN">     10.00000000</i>
   <i name="EMAX">    -10.00000000</i>
   <i name="EFERMI">      0.00000000</i>
  </separator>
  <separator name="writing" >
   <i type="int" name="NWRITE">     2</i>
   <i type="logical" name="LWAVE"> F  </i>
   <i type="logical" name="LDOWNSAMPLE"> F  </i>
   <i type="logical" name="LCHARG"> T  </i>
   <i type="logical" name="LPARD"> F  </i>
   <i type="logical" name="LVTOT"> F  </i>
   <i type="logical" name="LVHAR"> F  </i>
   <i type="logical" name="LELF"> F  </i>
   <i type="logical" name="LOPTICS"> F  </i>
   <v name="STM">      0.00000000      0.00000000      0.00000000      0.00000000      0.00000000      0.00000000      0.00000000</v>
  </separator>
  <separator name="performance" >
   <i type="int" name="NPAR">     8</i>
   <i type="int" name="NSIM">     4</i>
   <i type="int" name="NBLK">    -1</i>
   <i type="logical" name="LPLANE"> T  </i>
   <i type="logical" name="LSCALAPACK"> T  </i>
   <i type="logical" name="LSCAAWARE"> F  </i>
   <i type="logical" name="LSCALU"> F  </i>
   <i type="logical" name="LASYNC"> F  </i>
   <i type="logical" name="LORBITALREAL"> F  </i>
  </separator>
  <separator name="miscellaneous" >
   <i type="int" name="IDIOT">     3</i>
   <i type="int" name="ISPECIAL">     0</i>
   <i type="logical" name="LMUSIC"> F  </i>
   <v name="POMASS">     12.01100000     14.00100000</v>
   <v name="DARWINR">      0.00000000      0.00000000</v>
   <v name="DARWINV">      1.00000000      1.00000000</v>
   <i type="logical" name="LCORR"> T  </i>
  </separator>
  <i type="logical" name="GGA_COMPAT"> T  </i>
  <i type="logical" name="LBERRY"> F  </i>
  <i type="int" name="ICORELEVEL">     0</i>
  <i type="logical" name="LDAU"> F  </i>
  <i type="int" name="I_CONSTRAINED_M">     0</i>
  <separator name="electronic exchange-correlation" >
   <i type="string" name="GGA">--</i>
   <i type="int" name="VOSKOWN">     0</i>
   <i type="logical" name="LHFCALC"> F  </i>
   <i type="string" name="PRECFOCK"></i>
   <i type="logical" name="LSYMGRAD"> F  </i>
   <i type="logical" name="LHFONE"> F  </i>
   <i type="logical" name="LRHFCALC"> F  </i>
   <i type="logical" name="LTHOMAS"> F  </i>
   <i type="logical" name="LMODELHF"> F  </i>
   <i name="ENCUT4O">     -1.00000000</i>
   <i type="int" name="EXXOEP">     0</i>
   <i type="int" name="FOURORBIT">     0</i>
   <i name="AEXX">      0.00000000</i>
   <i name="HFALPHA">      0.00000000</i>
   <i name="MCALPHA">      0.00000000</i>
   <i name="ALDAX">      1.00000000</i>
   <i name="AGGAX">      1.00000000</i>
   <i name="ALDAC">      1.00000000</i>
   <i name="AGGAC">      1.00000000</i>
   <i type="int" name="NKREDX">     1</i>
   <i type="int" name="NKREDY">     1</i>
   <i type="int" name="NKREDZ">     1</i>
   <i type="logical" name="SHIFTRED"> F  </i>
   <i type="logical" name="ODDONLY"> F  </i>
   <i type="logical" name="EVENONLY"> F  </i>
   <i type="int" name="LMAXFOCK">     0</i>
   <i type="int" name="NMAXFOCKAE">     0</i>
   <i type="logical" name="LFOCKAEDFT"> F  </i>
   <i name="HFSCREEN">      0.00000000</i>
   <i name="HFSCREENC">      0.00000000</i>
   <i type="int" name="NBANDSGWLOW">     0</i>
  </separator>
  <separator name="vdW DFT" >
   <i type="logical" name="LUSE_VDW"> F  </i>
   <i name="Zab_VDW">     -0.84910000</i>
   <i name="PARAM1">      0.12340000</i>
   <i name="PARAM2">      1.00000000</i>
   <i name="PARAM3">      0.00000000</i>
  </separator>
  <separator name="model GW" >
   <i type="int" name="MODEL_GW">     0</i>
   <i name="MODEL_EPS0">      3.74216170</i>
   <i name="MODEL_ALPHA">      1.00000000</i>
  </separator>
  <separator name="linear response parameters" >
   <i type="logical" name="LEPSILON"> T  </i>
   <i type="logical" name="LRPA"> F  </i>
   <i type="logical" name="LNABLA"> F  </i>
   <i type="logical" name="LVEL"> F  </i>
   <i type="int" name="KINTER">     0</i>
   <i name="CSHIFT">      0.10000000</i>
   <i name="OMEGAMAX">     -1.00000000</i>
   <i name="DEG_THRESHOLD">      0.00200000</i>
   <i name="RTIME">     -0.10000000</i>
   <i name="WPLASMAI">      0.00000000</i>
   <v name="DFIELD">      0.00000000      0.00000000      0.00000000</v>
   <v name="WPLASMA">      0.00000000      0.00000000      0.00000000      0.00000000      0.00000000      0.00000000      0.00000000      0.00000000      0.00000000</v>
  </separator>
  <separator name="orbital magnetization" >
   <i type="logical" name="NUCIND"> F  </i>
   <v name="MAGPOS">      0.00000000      0.00000000      0.00000000</v>
   <i type="logical" name="LNICSALL"> T  </i>
   <i type="logical" name="ORBITALMAG"> F  </i>
   <i type="logical" name="LMAGBLOCH"> F  </i>
   <i type="logical" name="LCHIMAG"> F  </i>
   <i type="logical" name="LGAUGE"> T  </i>
   <i type="int" name="MAGATOM">     0</i>
   <v name="MAGDIPOL">      0.00000000      0.00000000      0.00000000</v>
   <v name="AVECCONST">      0.00000000      0.00000000      0.00000000</v>
  </separator>
  <separator name="response functions" >
   <i type="logical" name="LADDER"> F  </i>
   <i type="logical" name="LRPAFORCE"> F  </i>
   <i type="logical" name="LFXC"> F  </i>
   <i type="logical" name="LHARTREE"> T  </i>
   <i type="int" name="IBSE">     0</i>
   <v type="int" name="KPOINT">    -1     0     0     0</v>
   <i type="logical" name="LTCTE"> F  </i>
   <i type="logical" name="LTETE"> F  </i>
   <i type="logical" name="LTRIPLET"> F  </i>
   <i type="logical" name="LFXCEPS"> F  </i>
   <i type="logical" name="LFXHEG"> F  </i>
   <i type="int" name="NATURALO">     2</i>
   <i type="logical" name="L2ORDER"> F  </i>
   <i type="logical" name="LMP2LT"> F  </i>
   <i type="logical" name="LUSEW"> F  </i>
   <i name="ENCUTGW">     -2.00000000</i>
   <i name="ENCUTGWSOFT">     -2.00000000</i>
   <i name="ENCUTLF">     -1.00000000</i>
   <i type="int" name="LMAXMP2">    -1</i>
   <i name="SCISSOR">      0.00000000</i>
   <i type="int" name="NOMEGA">     0</i>
   <i type="int" name="NOMEGAR">     0</i>
   <i type="int" name="NBANDSGW">    -1</i>
   <i type="int" name="NBANDSO">    -1</i>
   <i type="int" name="NBANDSV">    -1</i>
   <i type="int" name="NELM">   100</i>
   <i type="int" name="NELMHF">     1</i>
   <i type="int" name="DIM">     3</i>
   <i type="int" name="ANTIRES">     0</i>
   <i name="OMEGAMAX">    -30.00000000</i>
   <i name="OMEGAMIN">    -30.00000000</i>
   <i name="OMEGATL">   -200.00000000</i>
   <i type="int" name="OMEGAGRID">   140</i>
   <i name="CSHIFT">     -0.10000000</i>
   <i type="logical" name="SELFENERGY"> F  </i>
   <i type="logical" name="LSPECTRAL"> F  </i>
   <i type="logical" name="LSPECTRALGW"> F  </i>
   <i type="logical" name="LSINGLES"> F  </i>
   <i type="logical" name="LFERMIGW"> F  </i>
   <i type="logical" name="ODDONLYGW"> F  </i>
   <i type="logical" name="EVENONLYGW"> F  </i>
   <i type="int" name="NKREDLFX">     1</i>
   <i type="int" name="NKREDLFY">     1</i>
   <i type="int" name="NKREDLFZ">     1</i>
   <i type="int" name="MAXMEM">  2800</i>
   <i type="int" name="TELESCOPE">     0</i>
   <i type="int" name="TAUPAR">     1</i>
   <i type="int" name="OMEGAPAR">    -1</i>
   <i name="LAMBDA">      1.00000000</i>
  </separator>
  <separator name="External order field" >
   <i name="OFIELD_KAPPA">      0.00000000</i>
   <v name="OFIELD_K">      0.00000000      0.00000000      0.00000000</v>
   <i name="OFIELD_Q6_NEAR">      0.00000000</i>
   <i name="OFIELD_Q6_FAR">      0.00000000</i>
   <i name="OFIELD_A">      0.00000000</i>
  </separator>
 </parameters>
 <atominfo>
  <atoms>      14 </atoms>
  <types>       2 </types>
  <array name="atoms" >
   <dimension dim="1">ion</dimension>
   <field type="string">element</field>
   <field type="int">atomtype</field>
   <set>
    <rc><c>C </c><c>   1</c></rc>
    <rc><c>C </c><c>   1</c></rc>
    <rc><c>C </c><c>   1</c></rc>
    <rc><c>C </c><c>   1</c></rc>
    <rc><c>C </c><c>   1</c></rc>
    <rc><c>C </c><c>   1</c></rc>
    <rc><c>N </c><c>   2</c></rc>
    <rc><c>N </c><c>   2</c></rc>
    <rc><c>N </c><c>   2</c></rc>
    <rc><c>N </c><c>   2</c></rc>
    <rc><c>N </c><c>   2</c></rc>
    <rc><c>N </c><c>   2</c></rc>
    <rc><c>N </c><c>   2</c></rc>
    <rc><c>N </c><c>   2</c></rc>
   </set>
  </array>
  <array name="atomtypes" >
   <dimension dim="1">type</dimension>
   <field type="int">atomspertype</field>
   <field type="string">element</field>
   <field>mass</field>
   <field>valence</field>
   <field type="string">pseudopotential</field>
   <set>
    <rc><c>   6</c><c>C </c><c>     12.01100000</c><c>      4.00000000</c><c>  PAW_PBE C 08Apr2002                   </c></rc>
    <rc><c>   8</c><c>N </c><c>     14.00100000</c><c>      5.00000000</c><c>  PAW_PBE N 08Apr2002                   </c></rc>
   </set>
  </array>
 </atominfo>
 <structure name="initialpos" >
  <crystal>
   <varray name="basis" >
    <v>       6.45052577       0.00000000       0.00000000 </v>
    <v>      -3.22526289       5.58631919       0.00000000 </v>
    <v>       0.00000000       0.00000000       2.42313981 </v>
   </varray>
   <i name="volume">     87.31710626 </i>
   <varray name="rec_basis" >
    <v>       0.15502612       0.08950437       0.00000000 </v>
    <v>       0.00000000       0.17900875       0.00000000 </v>
    <v>       0.00000000       0.00000000       0.41268770 </v>
   </varray>
  </crystal>
  <varray name="positions" >
   <v>       0.59490505       0.82165999       0.75000006 </v>
   <v>       0.17834001       0.77324498       0.75000006 </v>
   <v>       0.22675502       0.40509495       0.75000006 </v>
   <v>       0.40509503       0.17834001       0.25000002 </v>
   <v>       0.82166006       0.22675502       0.25000002 </v>
   <v>       0.77324506       0.59490505       0.25000002 </v>
   <v>       0.70342005       0.67011305       0.75000006 </v>
   <v>       0.32988703       0.03330700       0.75000006 </v>
   <v>       0.96669307       0.29658002       0.75000006 </v>
   <v>       0.29658002       0.32988695       0.25000002 </v>
   <v>       0.67011305       0.96669300       0.25000002 </v>
   <v>       0.03330700       0.70341998       0.25000002 </v>
   <v>       0.33333336       0.66666664       0.75000006 </v>
   <v>       0.66666672       0.33333336       0.25000002 </v>
  </varray>
 </structure>
 <calculation>
  <scstep>
   <time name="dav">    3.15    3.17</time>
   <time name="total">    3.17    3.19</time>
   <energy>
    <i name="alphaZ">    216.67315718 </i>
    <i name="ewald">  -2851.23040344 </i>
    <i name="hartreedc">   -511.54491042 </i>
    <i name="XCdc">    245.56995719 </i>
    <i name="pawpsdc">   2290.59413118 </i>
    <i name="pawaedc">  -2303.53843876 </i>
    <i name="eentropy">     -0.00007702 </i>
    <i name="bandstr">    232.96899590 </i>
    <i name="atom">   2999.18192289 </i>
    <i name="e_fr_energy">    318.67433469 </i>
    <i name="e_wo_entrp">    318.67441171 </i>
    <i name="e_0_energy">    318.67437320 </i>
   </energy>
  </scstep>
  <scstep>
   <time name="dav">    4.12    4.14</time>
   <time name="total">    4.12    4.14</time>
   <energy>
    <i name="e_fr_energy">   -100.75769791 </i>
    <i name="e_wo_entrp">   -100.75769791 </i>
    <i name="e_0_energy">   -100.75769791 </i>
   </energy>
  </scstep>
  <scstep>
   <time name="dav">    4.05    4.07</time>
   <time name="total">    4.05    4.07</time>
   <energy>
    <i name="e_fr_energy">   -119.99100336 </i>
    <i name="e_wo_entrp">   -119.99100336 </i>
    <i name="e_0_energy">   -119.99100336 </i>
   </energy>
  </scstep>
  <scstep>
   <time name="dav">    3.96    3.98</time>
   <time name="total">    3.96    3.98</time>
   <energy>
    <i name="e_fr_energy">   -120.42297234 </i>
    <i name="e_wo_entrp">   -120.42297234 </i>
    <i name="e_0_energy">   -120.42297234 </i>
   </energy>
  </scstep>
  <scstep>
   <time name="dav">    3.87    3.89</time>
   <time name="total">    4.12    4.14</time>
   <energy>
    <i name="e_fr_energy">   -120.43157772 </i>
    <i name="e_wo_entrp">   -120.43157772 </i>
    <i name="e_0_energy">   -120.43157772 </i>
   </energy>
  </scstep>
  <scstep>
   <time name="dav">    3.82    3.84</time>
   <time name="total">    4.09    4.10</time>
   <energy>
    <i name="e_fr_energy">   -114.88427823 </i>
    <i name="e_wo_entrp">   -114.88427823 </i>
    <i name="e_0_energy">   -114.88427823 </i>
   </energy>
  </scstep>
  <scstep>
   <time name="dav">    3.85    3.88</time>
   <time name="total">    4.11    4.15</time>
   <energy>
    <i name="e_fr_energy">   -114.50827486 </i>
    <i name="e_wo_entrp">   -114.50827486 </i>
    <i name="e_0_energy">   -114.50827486 </i>
   </energy>
  </scstep>
  <scstep>
   <time name="dav">    3.74    3.76</time>
   <time name="total">    3.99    4.01</time>
   <energy>
    <i name="e_fr_energy">   -114.44492453 </i>
    <i name="e_wo_entrp">   -114.44492453 </i>
    <i name="e_0_energy">   -114.44492453 </i>
   </energy>
  </scstep>
  <scstep>
   <time name="dav">    3.76    3.78</time>
   <time name="total">    3.99    4.01</time>
   <energy>
    <i name="e_fr_energy">   -114.43887867 </i>
    <i name="e_wo_entrp">   -114.43887867 </i>
    <i name="e_0_energy">   -114.43887867 </i>
   </energy>
  </scstep>
  <scstep>
   <time name="dav">    3.87    3.89</time>
   <time name="total">    4.13    4.16</time>
   <energy>
    <i name="e_fr_energy">   -114.43936097 </i>
    <i name="e_wo_entrp">   -114.43936097 </i>
    <i name="e_0_energy">   -114.43936097 </i>
   </energy>
  </scstep>
  <scstep>
   <time name="dav">    4.00    4.02</time>
   <time name="total">    4.27    4.28</time>
   <energy>
    <i name="e_fr_energy">   -114.43932572 </i>
    <i name="e_wo_entrp">   -114.43932572 </i>
    <i name="e_0_energy">   -114.43932572 </i>
   </energy>
  </scstep>
  <scstep>
   <time name="dav">    3.84    3.86</time>
   <time name="total">    4.10    4.11</time>
   <energy>
    <i name="e_fr_energy">   -114.43936597 </i>
    <i name="e_wo_entrp">   -114.43936597 </i>
    <i name="e_0_energy">   -114.43936597 </i>
   </energy>
  </scstep>
  <scstep>
   <time name="dav">    4.06    4.08</time>
   <time name="total">    4.29    4.31</time>
   <energy>
    <i name="e_fr_energy">   -114.43937490 </i>
    <i name="e_wo_entrp">   -114.43937490 </i>
    <i name="e_0_energy">   -114.43937490 </i>
   </energy>
  </scstep>
  <scstep>
   <time name="dav">    4.00    4.03</time>
   <time name="total">    4.25    4.29</time>
   <energy>
    <i name="e_fr_energy">   -114.43937447 </i>
    <i name="e_wo_entrp">   -114.43937447 </i>
    <i name="e_0_energy">   -114.43937447 </i>
   </energy>
  </scstep>
  <scstep>
   <time name="dav">    3.94    3.95</time>
   <time name="total">    4.21    4.22</time>
   <energy>
    <i name="e_fr_energy">   -114.43937471 </i>
    <i name="e_wo_entrp">   -114.43937471 </i>
    <i name="e_0_energy">   -114.43937471 </i>
   </energy>
  </scstep>
  <scstep>
   <time name="dav">    3.94    3.96</time>
   <time name="total">    3.97    3.98</time>
   <energy>
    <i name="alphaZ">    216.67315718 </i>
    <i name="ewald">  -2851.23040344 </i>
    <i name="hartreedc">   -594.39420532 </i>
    <i name="XCdc">    252.06342061 </i>
    <i name="pawpsdc">   6551.99376084 </i>
    <i name="pawaedc">  -6567.81480185 </i>
    <i name="eentropy">     -0.00000000 </i>
    <i name="bandstr">   -120.91222562 </i>
    <i name="atom">   2999.18192289 </i>
    <i name="e_fr_energy">   -114.43937471 </i>
    <i name="e_wo_entrp">   -114.43937471 </i>
    <i name="e_0_energy">   -114.43937471 </i>
   </energy>
  </scstep>
  <structure>
   <crystal>
    <varray name="basis" >
     <v>       6.45052577       0.00000000       0.00000000 </v>
     <v>      -3.22526289       5.58631919       0.00000000 </v>
     <v>       0.00000000       0.00000000       2.42313981 </v>
    </varray>
    <i name="volume">     87.31710626 </i>
    <varray name="rec_basis" >
     <v>       0.15502612       0.08950437       0.00000000 </v>
     <v>       0.00000000       0.17900875       0.00000000 </v>
     <v>       0.00000000       0.00000000       0.41268770 </v>
    </varray>
   </crystal>
   <varray name="positions" >
    <v>       0.59490505       0.82165999       0.75000006 </v>
    <v>       0.17834001       0.77324498       0.75000006 </v>
    <v>       0.22675502       0.40509495       0.75000006 </v>
    <v>       0.40509503       0.17834001       0.25000002 </v>
    <v>       0.82166006       0.22675502       0.25000002 </v>
    <v>       0.77324506       0.59490505       0.25000002 </v>
    <v>       0.70342005       0.67011305       0.75000006 </v>
    <v>       0.32988703       0.03330700       0.75000006 </v>
    <v>       0.96669307       0.29658002       0.75000006 </v>
    <v>       0.29658002       0.32988695       0.25000002 </v>
    <v>       0.67011305       0.96669300       0.25000002 </v>
    <v>       0.03330700       0.70341998       0.25000002 </v>
    <v>       0.33333336       0.66666664       0.75000006 </v>
    <v>       0.66666672       0.33333336       0.25000002 </v>
   </varray>
  </structure>
  <varray name="forces" >
   <v>      -0.00073036      -0.00543397      -0.00000193 </v>
   <v>       0.00507343       0.00209203      -0.00000198 </v>
   <v>      -0.00434464       0.00335102      -0.00000207 </v>
   <v>       0.00073036       0.00543397       0.00000193 </v>
   <v>      -0.00507343      -0.00209203       0.00000198 </v>
   <v>       0.00434464      -0.00335102       0.00000207 </v>
   <v>      -0.00193989       0.00221487      -0.00000270 </v>
   <v>      -0.00094767      -0.00280254      -0.00000259 </v>
   <v>       0.00288711       0.00056831      -0.00000271 </v>
   <v>       0.00193989      -0.00221487       0.00000270 </v>
   <v>       0.00094767       0.00280254       0.00000259 </v>
   <v>      -0.00288711      -0.00056831       0.00000271 </v>
   <v>      -0.00000187       0.00000395      -0.00000038 </v>
   <v>       0.00000187      -0.00000395       0.00000038 </v>
  </varray>
  <varray name="stress" >
   <v>      -1.09932902      -0.00025948       0.00000208 </v>
   <v>      -0.00025942      -1.09994737       0.00000041 </v>
   <v>       0.00000205       0.00000046      -0.89368614 </v>
  </varray>
  <energy>
   <i name="e_fr_energy">   -114.43937471 </i>
   <i name="e_wo_entrp">   -114.43937471 </i>
   <i name="e_0_energy">     -0.00000000 </i>
  </energy>
  <scstep>
   <time name="total">    3.39    3.42</time>
   <energy>
    <i name="e_fr_energy">     -0.97917036 </i>
    <i name="e_wo_entrp">     -0.97917036 </i>
    <i name="e_0_energy">     -0.97917036 </i>
   </energy>
  </scstep>
  <scstep>
   <time name="total">    3.49    3.50</time>
   <energy>
    <i name="e_fr_energy">     -1.02485328 </i>
    <i name="e_wo_entrp">     -1.02485328 </i>
    <i name="e_0_energy">     -1.02485328 </i>
   </energy>
  </scstep>
  <scstep>
   <time name="total">    3.53    3.55</time>
   <energy>
    <i name="e_fr_energy">     -1.02541018 </i>
    <i name="e_wo_entrp">     -1.02541018 </i>
    <i name="e_0_energy">     -1.02541018 </i>
   </energy>
  </scstep>
  <scstep>
   <time name="total">    3.47    3.49</time>
   <energy>
    <i name="e_fr_energy">     -1.02543472 </i>
    <i name="e_wo_entrp">     -1.02543472 </i>
    <i name="e_0_energy">     -1.02543472 </i>
   </energy>
  </scstep>
  <scstep>
   <time name="total">    3.63    3.64</time>
   <energy>
    <i name="e_fr_energy">     -1.02543594 </i>
    <i name="e_wo_entrp">     -1.02543594 </i>
    <i name="e_0_energy">     -1.02543594 </i>
   </energy>
  </scstep>
  <scstep>
   <time name="total">    3.38    3.41</time>
   <energy>
    <i name="e_fr_energy">     -1.02543601 </i>
    <i name="e_wo_entrp">     -1.02543601 </i>
    <i name="e_0_energy">     -1.02543601 </i>
   </energy>
  </scstep>
  <scstep>
   <time name="total">    3.42    3.45</time>
   <energy>
    <i name="e_fr_energy">     -1.02543601 </i>
    <i name="e_wo_entrp">     -1.02543601 </i>
    <i name="e_0_energy">     -1.02543601 </i>
   </energy>
  </scstep>
  <scstep>
   <time name="total">    3.53    3.54</time>
   <energy>
    <i name="e_fr_energy">     -1.02543601 </i>
    <i name="e_wo_entrp">     -1.02543601 </i>
    <i name="e_0_energy">     -1.02543601 </i>
   </energy>
  </scstep>
  <scstep>
   <time name="total">    3.49    3.50</time>
   <energy>
    <i name="e_fr_energy">     -1.02543601 </i>
    <i name="e_wo_entrp">     -1.02543601 </i>
    <i name="e_0_energy">     -1.02543601 </i>
   </energy>
  </scstep>
  <scstep>
   <time name="total">    3.63    3.65</time>
   <energy>
    <i name="e_fr_energy">     -0.97941790 </i>
    <i name="e_wo_entrp">     -0.97941790 </i>
    <i name="e_0_energy">     -0.97941790 </i>
   </energy>
  </scstep>
  <scstep>
   <time name="total">    3.69    3.71</time>
   <energy>
    <i name="e_fr_energy">     -1.02482031 </i>
    <i name="e_wo_entrp">     -1.02482031 </i>
    <i name="e_0_energy">     -1.02482031 </i>
   </energy>
  </scstep>
  <scstep>
   <time name="total">    3.58    3.61</time>
   <energy>
    <i name="e_fr_energy">     -1.02537530 </i>
    <i name="e_wo_entrp">     -1.02537530 </i>
    <i name="e_0_energy">     -1.02537530 </i>
   </energy>
  </scstep>
  <scstep>
   <time name="total">    3.61    3.62</time>
   <energy>
    <i name="e_fr_energy">     -1.02540017 </i>
    <i name="e_wo_entrp">     -1.02540017 </i>
    <i name="e_0_energy">     -1.02540017 </i>
   </energy>
  </scstep>
  <scstep>
   <time name="total">    3.74    3.76</time>
   <energy>
    <i name="e_fr_energy">     -1.02540140 </i>
    <i name="e_wo_entrp">     -1.02540140 </i>
    <i name="e_0_energy">     -1.02540140 </i>
   </energy>
  </scstep>
  <scstep>
   <time name="total">    3.45    3.46</time>
   <energy>
    <i name="e_fr_energy">     -1.02540147 </i>
    <i name="e_wo_entrp">     -1.02540147 </i>
    <i name="e_0_energy">     -1.02540147 </i>
   </energy>
  </scstep>
  <scstep>
   <time name="total">    3.53    3.55</time>
   <energy>
    <i name="e_fr_energy">     -1.02540147 </i>
    <i name="e_wo_entrp">     -1.02540147 </i>
    <i name="e_0_energy">     -1.02540147 </i>
   </energy>
  </scstep>
  <scstep>
   <time name="total">    3.47    3.48</time>
   <energy>
    <i name="e_fr_energy">     -1.02540147 </i>
    <i name="e_wo_entrp">     -1.02540147 </i>
    <i name="e_0_energy">     -1.02540147 </i>
   </energy>
  </scstep>
  <scstep>
   <time name="total">    3.45    3.47</time>
   <energy>
    <i name="e_fr_energy">     -1.02540147 </i>
    <i name="e_wo_entrp">     -1.02540147 </i>
    <i name="e_0_energy">     -1.02540147 </i>
   </energy>
  </scstep>
  <scstep>
   <time name="total">    3.70    3.71</time>
   <energy>
    <i name="e_fr_energy">     -0.92419664 </i>
    <i name="e_wo_entrp">     -0.92419664 </i>
    <i name="e_0_energy">     -0.92419664 </i>
   </energy>
  </scstep>
  <scstep>
   <time name="total">    3.56    3.59</time>
   <energy>
    <i name="e_fr_energy">     -0.96288713 </i>
    <i name="e_wo_entrp">     -0.96288713 </i>
    <i name="e_0_energy">     -0.96288713 </i>
   </energy>
  </scstep>
  <scstep>
   <time name="total">    3.59    3.61</time>
   <energy>
    <i name="e_fr_energy">     -0.96352663 </i>
    <i name="e_wo_entrp">     -0.96352663 </i>
    <i name="e_0_energy">     -0.96352663 </i>
   </energy>
  </scstep>
  <scstep>
   <time name="total">    3.64    3.64</time>
   <energy>
    <i name="e_fr_energy">     -0.96355310 </i>
    <i name="e_wo_entrp">     -0.96355310 </i>
    <i name="e_0_energy">     -0.96355310 </i>
   </energy>
  </scstep>
  <scstep>
   <time name="total">    3.65    3.67</time>
   <energy>
    <i name="e_fr_energy">     -0.96355421 </i>
    <i name="e_wo_entrp">     -0.96355421 </i>
    <i name="e_0_energy">     -0.96355421 </i>
   </energy>
  </scstep>
  <scstep>
   <time name="total">    3.34    3.35</time>
   <energy>
    <i name="e_fr_energy">     -0.96355429 </i>
    <i name="e_wo_entrp">     -0.96355429 </i>
    <i name="e_0_energy">     -0.96355429 </i>
   </energy>
  </scstep>
  <scstep>
   <time name="total">    3.45    3.47</time>
   <energy>
    <i name="e_fr_energy">     -0.96355429 </i>
    <i name="e_wo_entrp">     -0.96355429 </i>
    <i name="e_0_energy">     -0.96355429 </i>
   </energy>
  </scstep>
  <scstep>
   <time name="total">    3.50    3.52</time>
   <energy>
    <i name="e_fr_energy">     -0.96355429 </i>
    <i name="e_wo_entrp">     -0.96355429 </i>
    <i name="e_0_energy">     -0.96355429 </i>
   </energy>
  </scstep>
  <scstep>
   <time name="total">    3.46    3.47</time>
   <energy>
    <i name="e_fr_energy">     -0.96355429 </i>
    <i name="e_wo_entrp">     -0.96355429 </i>
    <i name="e_0_energy">     -0.96355429 </i>
   </energy>
  </scstep>
  <varray name="epsilon_rpa" >
   <v>       5.25015947      -0.00012089      -0.00000201 </v>
   <v>      -0.00012446       5.25002508      -0.00000634 </v>
   <v>      -0.00001902      -0.00000294       4.99366942 </v>
  </varray>
  <kpoints>
   <generation param="Gamma">
    <v type="int" name="divisions">       4        4       12 </v>
    <v name="usershift">      0.00000000       0.00000000       0.00000000 </v>
    <v name="genvec1">      0.25000000      -0.00000000       0.00000000 </v>
    <v name="genvec2">      0.00000000       0.25000000       0.00000000 </v>
    <v name="genvec3">      0.00000000       0.00000000       0.08333333 </v>
    <v name="shift">      0.00000000       0.00000000       0.00000000 </v>
   </generation>
   <varray name="kpointlist" >
    <v>       0.00000000       0.00000000       0.00000000 </v>
    <v>       0.25000000       0.00000000       0.00000000 </v>
    <v>       0.50000000       0.00000000       0.00000000 </v>
    <v>       0.00000000       0.25000000       0.00000000 </v>
    <v>       0.25000000       0.25000000       0.00000000 </v>
    <v>       0.50000000       0.25000000       0.00000000 </v>
    <v>      -0.25000000       0.25000000       0.00000000 </v>
    <v>       0.00000000       0.50000000       0.00000000 </v>
    <v>       0.25000000       0.50000000       0.00000000 </v>
    <v>       0.50000000       0.50000000       0.00000000 </v>
    <v>       0.00000000       0.00000000       0.08333333 </v>
    <v>       0.25000000       0.00000000       0.08333333 </v>
    <v>       0.50000000       0.00000000       0.08333333 </v>
    <v>      -0.25000000      -0.00000000       0.08333333 </v>
    <v>       0.00000000       0.25000000       0.08333333 </v>
    <v>       0.25000000       0.25000000       0.08333333 </v>
    <v>       0.50000000       0.25000000       0.08333333 </v>
    <v>      -0.25000000       0.25000000       0.08333333 </v>
    <v>       0.00000000       0.50000000       0.08333333 </v>
    <v>       0.25000000       0.50000000       0.08333333 </v>
    <v>       0.50000000       0.50000000       0.08333333 </v>
    <v>      -0.25000000       0.50000000       0.08333333 </v>
    <v>       0.00000000      -0.25000000       0.08333333 </v>
    <v>       0.25000000      -0.25000000       0.08333333 </v>
    <v>       0.50000000      -0.25000000       0.08333333 </v>
    <v>      -0.25000000      -0.25000000       0.08333333 </v>
    <v>       0.00000000       0.00000000       0.16666667 </v>
    <v>       0.25000000       0.00000000       0.16666667 </v>
    <v>       0.50000000       0.00000000       0.16666667 </v>
    <v>      -0.25000000      -0.00000000       0.16666667 </v>
    <v>       0.00000000       0.25000000       0.16666667 </v>
    <v>       0.25000000       0.25000000       0.16666667 </v>
    <v>       0.50000000       0.25000000       0.16666667 </v>
    <v>      -0.25000000       0.25000000       0.16666667 </v>
    <v>       0.00000000       0.50000000       0.16666667 </v>
    <v>       0.25000000       0.50000000       0.16666667 </v>
    <v>       0.50000000       0.50000000       0.16666667 </v>
    <v>      -0.25000000       0.50000000       0.16666667 </v>
    <v>       0.00000000      -0.25000000       0.16666667 </v>
    <v>       0.25000000      -0.25000000       0.16666667 </v>
    <v>       0.50000000      -0.25000000       0.16666667 </v>
    <v>      -0.25000000      -0.25000000       0.16666667 </v>
    <v>       0.00000000       0.00000000       0.25000000 </v>
    <v>       0.25000000       0.00000000       0.25000000 </v>
    <v>       0.50000000       0.00000000       0.25000000 </v>
    <v>      -0.25000000      -0.00000000       0.25000000 </v>
    <v>       0.00000000       0.25000000       0.25000000 </v>
    <v>       0.25000000       0.25000000       0.25000000 </v>
    <v>       0.50000000       0.25000000       0.25000000 </v>
    <v>      -0.25000000       0.25000000       0.25000000 </v>
    <v>       0.00000000       0.50000000       0.25000000 </v>
    <v>       0.25000000       0.50000000       0.25000000 </v>
    <v>       0.50000000       0.50000000       0.25000000 </v>
    <v>      -0.25000000       0.50000000       0.25000000 </v>
    <v>       0.00000000      -0.25000000       0.25000000 </v>
    <v>       0.25000000      -0.25000000       0.25000000 </v>
    <v>       0.50000000      -0.25000000       0.25000000 </v>
    <v>      -0.25000000      -0.25000000       0.25000000 </v>
    <v>       0.00000000       0.00000000       0.33333333 </v>
    <v>       0.25000000       0.00000000       0.33333333 </v>
    <v>       0.50000000       0.00000000       0.33333333 </v>
    <v>      -0.25000000      -0.00000000       0.33333333 </v>
    <v>       0.00000000       0.25000000       0.33333333 </v>
    <v>       0.25000000       0.25000000       0.33333333 </v>
    <v>       0.50000000       0.25000000       0.33333333 </v>
    <v>      -0.25000000       0.25000000       0.33333333 </v>
    <v>       0.00000000       0.50000000       0.33333333 </v>
    <v>       0.25000000       0.50000000       0.33333333 </v>
    <v>       0.50000000       0.50000000       0.33333333 </v>
    <v>      -0.25000000       0.50000000       0.33333333 </v>
    <v>       0.00000000      -0.25000000       0.33333333 </v>
    <v>       0.25000000      -0.25000000       0.33333333 </v>
    <v>       0.50000000      -0.25000000       0.33333333 </v>
    <v>      -0.25000000      -0.25000000       0.33333333 </v>
    <v>       0.00000000       0.00000000       0.41666667 </v>
    <v>       0.25000000       0.00000000       0.41666667 </v>
    <v>       0.50000000       0.00000000       0.41666667 </v>
    <v>      -0.25000000      -0.00000000       0.41666667 </v>
    <v>       0.00000000       0.25000000       0.41666667 </v>
    <v>       0.25000000       0.25000000       0.41666667 </v>
    <v>       0.50000000       0.25000000       0.41666667 </v>
    <v>      -0.25000000       0.25000000       0.41666667 </v>
    <v>       0.00000000       0.50000000       0.41666667 </v>
    <v>       0.25000000       0.50000000       0.41666667 </v>
    <v>       0.50000000       0.50000000       0.41666667 </v>
    <v>      -0.25000000       0.50000000       0.41666667 </v>
    <v>       0.00000000      -0.25000000       0.41666667 </v>
    <v>       0.25000000      -0.25000000       0.41666667 </v>
    <v>       0.50000000      -0.25000000       0.41666667 </v>
    <v>      -0.25000000      -0.25000000       0.41666667 </v>
    <v>       0.00000000       0.00000000       0.50000000 </v>
    <v>       0.25000000       0.00000000       0.50000000 </v>
    <v>       0.50000000       0.00000000       0.50000000 </v>
    <v>       0.00000000       0.25000000       0.50000000 </v>
    <v>       0.25000000       0.25000000       0.50000000 </v>
    <v>       0.50000000       0.25000000       0.50000000 </v>
    <v>      -0.25000000       0.25000000       0.50000000 </v>
    <v>       0.00000000       0.50000000       0.50000000 </v>
    <v>       0.25000000       0.50000000       0.50000000 </v>
    <v>       0.50000000       0.50000000       0.50000000 </v>
   </varray>
   <varray name="weights" >
    <v>       0.00520833 </v>
    <v>       0.01041667 </v>
    <v>       0.00520833 </v>
    <v>       0.01041667 </v>
    <v>       0.01041667 </v>
    <v>       0.01041667 </v>
    <v>       0.01041667 </v>
    <v>       0.00520833 </v>
    <v>       0.01041667 </v>
    <v>       0.00520833 </v>
    <v>       0.01041667 </v>
    <v>       0.01041667 </v>
    <v>       0.01041667 </v>
    <v>       0.01041667 </v>
    <v>       0.01041667 </v>
    <v>       0.01041667 </v>
    <v>       0.01041667 </v>
    <v>       0.01041667 </v>
    <v>       0.01041667 </v>
    <v>       0.01041667 </v>
    <v>       0.01041667 </v>
    <v>       0.01041667 </v>
    <v>       0.01041667 </v>
    <v>       0.01041667 </v>
    <v>       0.01041667 </v>
    <v>       0.01041667 </v>
    <v>       0.01041667 </v>
    <v>       0.01041667 </v>
    <v>       0.01041667 </v>
    <v>       0.01041667 </v>
    <v>       0.01041667 </v>
    <v>       0.01041667 </v>
    <v>       0.01041667 </v>
    <v>       0.01041667 </v>
    <v>       0.01041667 </v>
    <v>       0.01041667 </v>
    <v>       0.01041667 </v>
    <v>       0.01041667 </v>
    <v>       0.01041667 </v>
    <v>       0.01041667 </v>
    <v>       0.01041667 </v>
    <v>       0.01041667 </v>
    <v>       0.01041667 </v>
    <v>       0.01041667 </v>
    <v>       0.01041667 </v>
    <v>       0.01041667 </v>
    <v>       0.01041667 </v>
    <v>       0.01041667 </v>
    <v>       0.01041667 </v>
    <v>       0.01041667 </v>
    <v>       0.01041667 </v>
    <v>       0.01041667 </v>
    <v>       0.01041667 </v>
    <v>       0.01041667 </v>
    <v>       0.01041667 </v>
    <v>       0.01041667 </v>
    <v>       0.01041667 </v>
    <v>       0.01041667 </v>
    <v>       0.01041667 </v>
    <v>       0.01041667 </v>
    <v>       0.01041667 </v>
    <v>       0.01041667 </v>
    <v>       0.01041667 </v>
    <v>       0.01041667 </v>
    <v>       0.01041667 </v>
    <v>       0.01041667 </v>
    <v>       0.01041667 </v>
    <v>       0.01041667 </v>
    <v>       0.01041667 </v>
    <v>       0.01041667 </v>
    <v>       0.01041667 </v>
    <v>       0.01041667 </v>
    <v>       0.01041667 </v>
    <v>       0.01041667 </v>
    <v>       0.01041667 </v>
    <v>       0.01041667 </v>
    <v>       0.01041667 </v>
    <v>       0.01041667 </v>
    <v>       0.01041667 </v>
    <v>       0.01041667 </v>
    <v>       0.01041667 </v>
    <v>       0.01041667 </v>
    <v>       0.01041667 </v>
    <v>       0.01041667 </v>
    <v>       0.01041667 </v>
    <v>       0.01041667 </v>
    <v>       0.01041667 </v>
    <v>       0.01041667 </v>
    <v>       0.01041667 </v>
    <v>       0.01041667 </v>
    <v>       0.00520833 </v>
    <v>       0.01041667 </v>
    <v>       0.00520833 </v>
    <v>       0.01041667 </v>
    <v>       0.01041667 </v>
    <v>       0.01041667 </v>
    <v>       0.01041667 </v>
    <v>       0.00520833 </v>
    <v>       0.01041667 </v>
    <v>       0.00520833 </v>
   </varray>
  </kpoints>
  <scstep>
   <time name="total">    3.61    3.63</time>
   <energy>
    <i name="e_fr_energy">     -0.97917036 </i>
    <i name="e_wo_entrp">     -0.97917036 </i>
    <i name="e_0_energy">     -0.97917036 </i>
   </energy>
  </scstep>
  <scstep>
   <time name="total">    4.05    4.06</time>
   <energy>
    <i name="e_fr_energy">     -1.02485328 </i>
    <i name="e_wo_entrp">     -1.02485328 </i>
    <i name="e_0_energy">     -1.02485328 </i>
   </energy>
  </scstep>
  <scstep>
   <time name="total">    4.72    4.74</time>
   <energy>
    <i name="e_fr_energy">     -1.00716533 </i>
    <i name="e_wo_entrp">     -1.00716533 </i>
    <i name="e_0_energy">     -1.00716533 </i>
   </energy>
  </scstep>
  <scstep>
   <time name="total">    4.77    4.79</time>
   <energy>
    <i name="e_fr_energy">     -1.03861391 </i>
    <i name="e_wo_entrp">     -1.03861391 </i>
    <i name="e_0_energy">     -1.03861391 </i>
   </energy>
  </scstep>
  <scstep>
   <time name="total">    4.67    4.72</time>
   <energy>
    <i name="e_fr_energy">     -1.04918399 </i>
    <i name="e_wo_entrp">     -1.04918399 </i>
    <i name="e_0_energy">     -1.04918399 </i>
   </energy>
  </scstep>
  <scstep>
   <time name="total">    4.69    4.71</time>
   <energy>
    <i name="e_fr_energy">     -1.05092479 </i>
    <i name="e_wo_entrp">     -1.05092479 </i>
    <i name="e_0_energy">     -1.05092479 </i>
   </energy>
  </scstep>
  <scstep>
   <time name="total">    4.80    4.83</time>
   <energy>
    <i name="e_fr_energy">     -1.05136958 </i>
    <i name="e_wo_entrp">     -1.05136958 </i>
    <i name="e_0_energy">     -1.05136958 </i>
   </energy>
  </scstep>
  <scstep>
   <time name="total">    4.73    4.76</time>
   <energy>
    <i name="e_fr_energy">     -1.05146705 </i>
    <i name="e_wo_entrp">     -1.05146705 </i>
    <i name="e_0_energy">     -1.05146705 </i>
   </energy>
  </scstep>
  <scstep>
   <time name="total">    4.73    4.75</time>
   <energy>
    <i name="e_fr_energy">     -1.05153137 </i>
    <i name="e_wo_entrp">     -1.05153137 </i>
    <i name="e_0_energy">     -1.05153137 </i>
   </energy>
  </scstep>
  <scstep>
   <time name="total">    4.77    4.79</time>
   <energy>
    <i name="e_fr_energy">     -1.05153438 </i>
    <i name="e_wo_entrp">     -1.05153438 </i>
    <i name="e_0_energy">     -1.05153438 </i>
   </energy>
  </scstep>
  <scstep>
   <time name="total">    4.87    4.91</time>
   <energy>
    <i name="e_fr_energy">     -1.05153658 </i>
    <i name="e_wo_entrp">     -1.05153658 </i>
    <i name="e_0_energy">     -1.05153658 </i>
   </energy>
  </scstep>
  <scstep>
   <time name="total">    4.90    4.92</time>
   <energy>
    <i name="e_fr_energy">     -1.05153592 </i>
    <i name="e_wo_entrp">     -1.05153592 </i>
    <i name="e_0_energy">     -1.05153592 </i>
   </energy>
  </scstep>
  <scstep>
   <time name="total">    4.63    4.64</time>
   <energy>
    <i name="e_fr_energy">     -1.05153595 </i>
    <i name="e_wo_entrp">     -1.05153595 </i>
    <i name="e_0_energy">     -1.05153595 </i>
   </energy>
  </scstep>
  <kpoints>
   <generation param="Gamma">
    <v type="int" name="divisions">       4        4       12 </v>
    <v name="usershift">      0.00000000       0.00000000       0.00000000 </v>
    <v name="genvec1">      0.25000000      -0.00000000       0.00000000 </v>
    <v name="genvec2">      0.00000000       0.25000000       0.00000000 </v>
    <v name="genvec3">      0.00000000       0.00000000       0.08333333 </v>
    <v name="shift">      0.00000000       0.00000000       0.00000000 </v>
   </generation>
   <varray name="kpointlist" >
    <v>       0.00000000       0.00000000       0.00000000 </v>
    <v>       0.25000000       0.00000000       0.00000000 </v>
    <v>       0.50000000       0.00000000       0.00000000 </v>
    <v>       0.00000000       0.25000000       0.00000000 </v>
    <v>       0.25000000       0.25000000       0.00000000 </v>
    <v>       0.50000000       0.25000000       0.00000000 </v>
    <v>      -0.25000000       0.25000000       0.00000000 </v>
    <v>       0.00000000       0.50000000       0.00000000 </v>
    <v>       0.25000000       0.50000000       0.00000000 </v>
    <v>       0.50000000       0.50000000       0.00000000 </v>
    <v>       0.00000000       0.00000000       0.08333333 </v>
    <v>       0.25000000       0.00000000       0.08333333 </v>
    <v>       0.50000000       0.00000000       0.08333333 </v>
    <v>      -0.25000000      -0.00000000       0.08333333 </v>
    <v>       0.00000000       0.25000000       0.08333333 </v>
    <v>       0.25000000       0.25000000       0.08333333 </v>
    <v>       0.50000000       0.25000000       0.08333333 </v>
    <v>      -0.25000000       0.25000000       0.08333333 </v>
    <v>       0.00000000       0.50000000       0.08333333 </v>
    <v>       0.25000000       0.50000000       0.08333333 </v>
    <v>       0.50000000       0.50000000       0.08333333 </v>
    <v>      -0.25000000       0.50000000       0.08333333 </v>
    <v>       0.00000000      -0.25000000       0.08333333 </v>
    <v>       0.25000000      -0.25000000       0.08333333 </v>
    <v>       0.50000000      -0.25000000       0.08333333 </v>
    <v>      -0.25000000      -0.25000000       0.08333333 </v>
    <v>       0.00000000       0.00000000       0.16666667 </v>
    <v>       0.25000000       0.00000000       0.16666667 </v>
    <v>       0.50000000       0.00000000       0.16666667 </v>
    <v>      -0.25000000      -0.00000000       0.16666667 </v>
    <v>       0.00000000       0.25000000       0.16666667 </v>
    <v>       0.25000000       0.25000000       0.16666667 </v>
    <v>       0.50000000       0.25000000       0.16666667 </v>
    <v>      -0.25000000       0.25000000       0.16666667 </v>
    <v>       0.00000000       0.50000000       0.16666667 </v>
    <v>       0.25000000       0.50000000       0.16666667 </v>
    <v>       0.50000000       0.50000000       0.16666667 </v>
    <v>      -0.25000000       0.50000000       0.16666667 </v>
    <v>       0.00000000      -0.25000000       0.16666667 </v>
    <v>       0.25000000      -0.25000000       0.16666667 </v>
    <v>       0.50000000      -0.25000000       0.16666667 </v>
    <v>      -0.25000000      -0.25000000       0.16666667 </v>
    <v>       0.00000000       0.00000000       0.25000000 </v>
    <v>       0.25000000       0.00000000       0.25000000 </v>
    <v>       0.50000000       0.00000000       0.25000000 </v>
    <v>      -0.25000000      -0.00000000       0.25000000 </v>
    <v>       0.00000000       0.25000000       0.25000000 </v>
    <v>       0.25000000       0.25000000       0.25000000 </v>
    <v>       0.50000000       0.25000000       0.25000000 </v>
    <v>      -0.25000000       0.25000000       0.25000000 </v>
    <v>       0.00000000       0.50000000       0.25000000 </v>
    <v>       0.25000000       0.50000000       0.25000000 </v>
    <v>       0.50000000       0.50000000       0.25000000 </v>
    <v>      -0.25000000       0.50000000       0.25000000 </v>
    <v>       0.00000000      -0.25000000       0.25000000 </v>
    <v>       0.25000000      -0.25000000       0.25000000 </v>
    <v>       0.50000000      -0.25000000       0.25000000 </v>
    <v>      -0.25000000      -0.25000000       0.25000000 </v>
    <v>       0.00000000       0.00000000       0.33333333 </v>
    <v>       0.25000000       0.00000000       0.33333333 </v>
    <v>       0.50000000       0.00000000       0.33333333 </v>
    <v>      -0.25000000      -0.00000000       0.33333333 </v>
    <v>       0.00000000       0.25000000       0.33333333 </v>
    <v>       0.25000000       0.25000000       0.33333333 </v>
    <v>       0.50000000       0.25000000       0.33333333 </v>
    <v>      -0.25000000       0.25000000       0.33333333 </v>
    <v>       0.00000000       0.50000000       0.33333333 </v>
    <v>       0.25000000       0.50000000       0.33333333 </v>
    <v>       0.50000000       0.50000000       0.33333333 </v>
    <v>      -0.25000000       0.50000000       0.33333333 </v>
    <v>       0.00000000      -0.25000000       0.33333333 </v>
    <v>       0.25000000      -0.25000000       0.33333333 </v>
    <v>       0.50000000      -0.25000000       0.33333333 </v>
    <v>      -0.25000000      -0.25000000       0.33333333 </v>
    <v>       0.00000000       0.00000000       0.41666667 </v>
    <v>       0.25000000       0.00000000       0.41666667 </v>
    <v>       0.50000000       0.00000000       0.41666667 </v>
    <v>      -0.25000000      -0.00000000       0.41666667 </v>
    <v>       0.00000000       0.25000000       0.41666667 </v>
    <v>       0.25000000       0.25000000       0.41666667 </v>
    <v>       0.50000000       0.25000000       0.41666667 </v>
    <v>      -0.25000000       0.25000000       0.41666667 </v>
    <v>       0.00000000       0.50000000       0.41666667 </v>
    <v>       0.25000000       0.50000000       0.41666667 </v>
    <v>       0.50000000       0.50000000       0.41666667 </v>
    <v>      -0.25000000       0.50000000       0.41666667 </v>
    <v>       0.00000000      -0.25000000       0.41666667 </v>
    <v>       0.25000000      -0.25000000       0.41666667 </v>
    <v>       0.50000000      -0.25000000       0.41666667 </v>
    <v>      -0.25000000      -0.25000000       0.41666667 </v>
    <v>       0.00000000       0.00000000       0.50000000 </v>
    <v>       0.25000000       0.00000000       0.50000000 </v>
    <v>       0.50000000       0.00000000       0.50000000 </v>
    <v>       0.00000000       0.25000000       0.50000000 </v>
    <v>       0.25000000       0.25000000       0.50000000 </v>
    <v>       0.50000000       0.25000000       0.50000000 </v>
    <v>      -0.25000000       0.25000000       0.50000000 </v>
    <v>       0.00000000       0.50000000       0.50000000 </v>
    <v>       0.25000000       0.50000000       0.50000000 </v>
    <v>       0.50000000       0.50000000       0.50000000 </v>
   </varray>
   <varray name="weights" >
    <v>       0.00520833 </v>
    <v>       0.01041667 </v>
    <v>       0.00520833 </v>
    <v>       0.01041667 </v>
    <v>       0.01041667 </v>
    <v>       0.01041667 </v>
    <v>       0.01041667 </v>
    <v>       0.00520833 </v>
    <v>       0.01041667 </v>
    <v>       0.00520833 </v>
    <v>       0.01041667 </v>
    <v>       0.01041667 </v>
    <v>       0.01041667 </v>
    <v>       0.01041667 </v>
    <v>       0.01041667 </v>
    <v>       0.01041667 </v>
    <v>       0.01041667 </v>
    <v>       0.01041667 </v>
    <v>       0.01041667 </v>
    <v>       0.01041667 </v>
    <v>       0.01041667 </v>
    <v>       0.01041667 </v>
    <v>       0.01041667 </v>
    <v>       0.01041667 </v>
    <v>       0.01041667 </v>
    <v>       0.01041667 </v>
    <v>       0.01041667 </v>
    <v>       0.01041667 </v>
    <v>       0.01041667 </v>
    <v>       0.01041667 </v>
    <v>       0.01041667 </v>
    <v>       0.01041667 </v>
    <v>       0.01041667 </v>
    <v>       0.01041667 </v>
    <v>       0.01041667 </v>
    <v>       0.01041667 </v>
    <v>       0.01041667 </v>
    <v>       0.01041667 </v>
    <v>       0.01041667 </v>
    <v>       0.01041667 </v>
    <v>       0.01041667 </v>
    <v>       0.01041667 </v>
    <v>       0.01041667 </v>
    <v>       0.01041667 </v>
    <v>       0.01041667 </v>
    <v>       0.01041667 </v>
    <v>       0.01041667 </v>
    <v>       0.01041667 </v>
    <v>       0.01041667 </v>
    <v>       0.01041667 </v>
    <v>       0.01041667 </v>
    <v>       0.01041667 </v>
    <v>       0.01041667 </v>
    <v>       0.01041667 </v>
    <v>       0.01041667 </v>
    <v>       0.01041667 </v>
    <v>       0.01041667 </v>
    <v>       0.01041667 </v>
    <v>       0.01041667 </v>
    <v>       0.01041667 </v>
    <v>       0.01041667 </v>
    <v>       0.01041667 </v>
    <v>       0.01041667 </v>
    <v>       0.01041667 </v>
    <v>       0.01041667 </v>
    <v>       0.01041667 </v>
    <v>       0.01041667 </v>
    <v>       0.01041667 </v>
    <v>       0.01041667 </v>
    <v>       0.01041667 </v>
    <v>       0.01041667 </v>
    <v>       0.01041667 </v>
    <v>       0.01041667 </v>
    <v>       0.01041667 </v>
    <v>       0.01041667 </v>
    <v>       0.01041667 </v>
    <v>       0.01041667 </v>
    <v>       0.01041667 </v>
    <v>       0.01041667 </v>
    <v>       0.01041667 </v>
    <v>       0.01041667 </v>
    <v>       0.01041667 </v>
    <v>       0.01041667 </v>
    <v>       0.01041667 </v>
    <v>       0.01041667 </v>
    <v>       0.01041667 </v>
    <v>       0.01041667 </v>
    <v>       0.01041667 </v>
    <v>       0.01041667 </v>
    <v>       0.01041667 </v>
    <v>       0.00520833 </v>
    <v>       0.01041667 </v>
    <v>       0.00520833 </v>
    <v>       0.01041667 </v>
    <v>       0.01041667 </v>
    <v>       0.01041667 </v>
    <v>       0.01041667 </v>
    <v>       0.00520833 </v>
    <v>       0.01041667 </v>
    <v>       0.00520833 </v>
   </varray>
  </kpoints>
  <scstep>
   <time name="total">    3.55    3.56</time>
   <energy>
    <i name="e_fr_energy">     -0.97941790 </i>
    <i name="e_wo_entrp">     -0.97941790 </i>
    <i name="e_0_energy">     -0.97941790 </i>
   </energy>
  </scstep>
  <scstep>
   <time name="total">    4.04    4.08</time>
   <energy>
    <i name="e_fr_energy">     -1.02482031 </i>
    <i name="e_wo_entrp">     -1.02482031 </i>
    <i name="e_0_energy">     -1.02482031 </i>
   </energy>
  </scstep>
  <scstep>
   <time name="total">    4.71    4.72</time>
   <energy>
    <i name="e_fr_energy">     -1.00714246 </i>
    <i name="e_wo_entrp">     -1.00714246 </i>
    <i name="e_0_energy">     -1.00714246 </i>
   </energy>
  </scstep>
  <scstep>
   <time name="total">    4.81    4.83</time>
   <energy>
    <i name="e_fr_energy">     -1.03860672 </i>
    <i name="e_wo_entrp">     -1.03860672 </i>
    <i name="e_0_energy">     -1.03860672 </i>
   </energy>
  </scstep>
  <scstep>
   <time name="total">    4.73    4.76</time>
   <energy>
    <i name="e_fr_energy">     -1.04915991 </i>
    <i name="e_wo_entrp">     -1.04915991 </i>
    <i name="e_0_energy">     -1.04915991 </i>
   </energy>
  </scstep>
  <scstep>
   <time name="total">    4.79    4.81</time>
   <energy>
    <i name="e_fr_energy">     -1.05089632 </i>
    <i name="e_wo_entrp">     -1.05089632 </i>
    <i name="e_0_energy">     -1.05089632 </i>
   </energy>
  </scstep>
  <scstep>
   <time name="total">    4.85    4.87</time>
   <energy>
    <i name="e_fr_energy">     -1.05133960 </i>
    <i name="e_wo_entrp">     -1.05133960 </i>
    <i name="e_0_energy">     -1.05133960 </i>
   </energy>
  </scstep>
  <scstep>
   <time name="total">    4.80    4.83</time>
   <energy>
    <i name="e_fr_energy">     -1.05143707 </i>
    <i name="e_wo_entrp">     -1.05143707 </i>
    <i name="e_0_energy">     -1.05143707 </i>
   </energy>
  </scstep>
  <scstep>
   <time name="total">    4.81    4.85</time>
   <energy>
    <i name="e_fr_energy">     -1.05150216 </i>
    <i name="e_wo_entrp">     -1.05150216 </i>
    <i name="e_0_energy">     -1.05150216 </i>
   </energy>
  </scstep>
  <scstep>
   <time name="total">    4.92    4.95</time>
   <energy>
    <i name="e_fr_energy">     -1.05150547 </i>
    <i name="e_wo_entrp">     -1.05150547 </i>
    <i name="e_0_energy">     -1.05150547 </i>
   </energy>
  </scstep>
  <scstep>
   <time name="total">    5.03    5.06</time>
   <energy>
    <i name="e_fr_energy">     -1.05150762 </i>
    <i name="e_wo_entrp">     -1.05150762 </i>
    <i name="e_0_energy">     -1.05150762 </i>
   </energy>
  </scstep>
  <scstep>
   <time name="total">    4.88    4.91</time>
   <energy>
    <i name="e_fr_energy">     -1.05150683 </i>
    <i name="e_wo_entrp">     -1.05150683 </i>
    <i name="e_0_energy">     -1.05150683 </i>
   </energy>
  </scstep>
  <scstep>
   <time name="total">    4.63    4.65</time>
   <energy>
    <i name="e_fr_energy">     -1.05150688 </i>
    <i name="e_wo_entrp">     -1.05150688 </i>
    <i name="e_0_energy">     -1.05150688 </i>
   </energy>
  </scstep>
  <kpoints>
   <generation param="Gamma">
    <v type="int" name="divisions">       4        4       12 </v>
    <v name="usershift">      0.00000000       0.00000000       0.00000000 </v>
    <v name="genvec1">      0.25000000      -0.00000000       0.00000000 </v>
    <v name="genvec2">      0.00000000       0.25000000       0.00000000 </v>
    <v name="genvec3">      0.00000000       0.00000000       0.08333333 </v>
    <v name="shift">      0.00000000       0.00000000       0.00000000 </v>
   </generation>
   <varray name="kpointlist" >
    <v>       0.00000000       0.00000000       0.00000000 </v>
    <v>       0.25000000       0.00000000       0.00000000 </v>
    <v>       0.50000000       0.00000000       0.00000000 </v>
    <v>       0.00000000       0.25000000       0.00000000 </v>
    <v>       0.25000000       0.25000000       0.00000000 </v>
    <v>       0.50000000       0.25000000       0.00000000 </v>
    <v>      -0.25000000       0.25000000       0.00000000 </v>
    <v>       0.00000000       0.50000000       0.00000000 </v>
    <v>       0.25000000       0.50000000       0.00000000 </v>
    <v>       0.50000000       0.50000000       0.00000000 </v>
    <v>       0.00000000       0.00000000       0.08333333 </v>
    <v>       0.25000000       0.00000000       0.08333333 </v>
    <v>       0.50000000       0.00000000       0.08333333 </v>
    <v>      -0.25000000      -0.00000000       0.08333333 </v>
    <v>       0.00000000       0.25000000       0.08333333 </v>
    <v>       0.25000000       0.25000000       0.08333333 </v>
    <v>       0.50000000       0.25000000       0.08333333 </v>
    <v>      -0.25000000       0.25000000       0.08333333 </v>
    <v>       0.00000000       0.50000000       0.08333333 </v>
    <v>       0.25000000       0.50000000       0.08333333 </v>
    <v>       0.50000000       0.50000000       0.08333333 </v>
    <v>      -0.25000000       0.50000000       0.08333333 </v>
    <v>       0.00000000      -0.25000000       0.08333333 </v>
    <v>       0.25000000      -0.25000000       0.08333333 </v>
    <v>       0.50000000      -0.25000000       0.08333333 </v>
    <v>      -0.25000000      -0.25000000       0.08333333 </v>
    <v>       0.00000000       0.00000000       0.16666667 </v>
    <v>       0.25000000       0.00000000       0.16666667 </v>
    <v>       0.50000000       0.00000000       0.16666667 </v>
    <v>      -0.25000000      -0.00000000       0.16666667 </v>
    <v>       0.00000000       0.25000000       0.16666667 </v>
    <v>       0.25000000       0.25000000       0.16666667 </v>
    <v>       0.50000000       0.25000000       0.16666667 </v>
    <v>      -0.25000000       0.25000000       0.16666667 </v>
    <v>       0.00000000       0.50000000       0.16666667 </v>
    <v>       0.25000000       0.50000000       0.16666667 </v>
    <v>       0.50000000       0.50000000       0.16666667 </v>
    <v>      -0.25000000       0.50000000       0.16666667 </v>
    <v>       0.00000000      -0.25000000       0.16666667 </v>
    <v>       0.25000000      -0.25000000       0.16666667 </v>
    <v>       0.50000000      -0.25000000       0.16666667 </v>
    <v>      -0.25000000      -0.25000000       0.16666667 </v>
    <v>       0.00000000       0.00000000       0.25000000 </v>
    <v>       0.25000000       0.00000000       0.25000000 </v>
    <v>       0.50000000       0.00000000       0.25000000 </v>
    <v>      -0.25000000      -0.00000000       0.25000000 </v>
    <v>       0.00000000       0.25000000       0.25000000 </v>
    <v>       0.25000000       0.25000000       0.25000000 </v>
    <v>       0.50000000       0.25000000       0.25000000 </v>
    <v>      -0.25000000       0.25000000       0.25000000 </v>
    <v>       0.00000000       0.50000000       0.25000000 </v>
    <v>       0.25000000       0.50000000       0.25000000 </v>
    <v>       0.50000000       0.50000000       0.25000000 </v>
    <v>      -0.25000000       0.50000000       0.25000000 </v>
    <v>       0.00000000      -0.25000000       0.25000000 </v>
    <v>       0.25000000      -0.25000000       0.25000000 </v>
    <v>       0.50000000      -0.25000000       0.25000000 </v>
    <v>      -0.25000000      -0.25000000       0.25000000 </v>
    <v>       0.00000000       0.00000000       0.33333333 </v>
    <v>       0.25000000       0.00000000       0.33333333 </v>
    <v>       0.50000000       0.00000000       0.33333333 </v>
    <v>      -0.25000000      -0.00000000       0.33333333 </v>
    <v>       0.00000000       0.25000000       0.33333333 </v>
    <v>       0.25000000       0.25000000       0.33333333 </v>
    <v>       0.50000000       0.25000000       0.33333333 </v>
    <v>      -0.25000000       0.25000000       0.33333333 </v>
    <v>       0.00000000       0.50000000       0.33333333 </v>
    <v>       0.25000000       0.50000000       0.33333333 </v>
    <v>       0.50000000       0.50000000       0.33333333 </v>
    <v>      -0.25000000       0.50000000       0.33333333 </v>
    <v>       0.00000000      -0.25000000       0.33333333 </v>
    <v>       0.25000000      -0.25000000       0.33333333 </v>
    <v>       0.50000000      -0.25000000       0.33333333 </v>
    <v>      -0.25000000      -0.25000000       0.33333333 </v>
    <v>       0.00000000       0.00000000       0.41666667 </v>
    <v>       0.25000000       0.00000000       0.41666667 </v>
    <v>       0.50000000       0.00000000       0.41666667 </v>
    <v>      -0.25000000      -0.00000000       0.41666667 </v>
    <v>       0.00000000       0.25000000       0.41666667 </v>
    <v>       0.25000000       0.25000000       0.41666667 </v>
    <v>       0.50000000       0.25000000       0.41666667 </v>
    <v>      -0.25000000       0.25000000       0.41666667 </v>
    <v>       0.00000000       0.50000000       0.41666667 </v>
    <v>       0.25000000       0.50000000       0.41666667 </v>
    <v>       0.50000000       0.50000000       0.41666667 </v>
    <v>      -0.25000000       0.50000000       0.41666667 </v>
    <v>       0.00000000      -0.25000000       0.41666667 </v>
    <v>       0.25000000      -0.25000000       0.41666667 </v>
    <v>       0.50000000      -0.25000000       0.41666667 </v>
    <v>      -0.25000000      -0.25000000       0.41666667 </v>
    <v>       0.00000000       0.00000000       0.50000000 </v>
    <v>       0.25000000       0.00000000       0.50000000 </v>
    <v>       0.50000000       0.00000000       0.50000000 </v>
    <v>       0.00000000       0.25000000       0.50000000 </v>
    <v>       0.25000000       0.25000000       0.50000000 </v>
    <v>       0.50000000       0.25000000       0.50000000 </v>
    <v>      -0.25000000       0.25000000       0.50000000 </v>
    <v>       0.00000000       0.50000000       0.50000000 </v>
    <v>       0.25000000       0.50000000       0.50000000 </v>
    <v>       0.50000000       0.50000000       0.50000000 </v>
   </varray>
   <varray name="weights" >
    <v>       0.00520833 </v>
    <v>       0.01041667 </v>
    <v>       0.00520833 </v>
    <v>       0.01041667 </v>
    <v>       0.01041667 </v>
    <v>       0.01041667 </v>
    <v>       0.01041667 </v>
    <v>       0.00520833 </v>
    <v>       0.01041667 </v>
    <v>       0.00520833 </v>
    <v>       0.01041667 </v>
    <v>       0.01041667 </v>
    <v>       0.01041667 </v>
    <v>       0.01041667 </v>
    <v>       0.01041667 </v>
    <v>       0.01041667 </v>
    <v>       0.01041667 </v>
    <v>       0.01041667 </v>
    <v>       0.01041667 </v>
    <v>       0.01041667 </v>
    <v>       0.01041667 </v>
    <v>       0.01041667 </v>
    <v>       0.01041667 </v>
    <v>       0.01041667 </v>
    <v>       0.01041667 </v>
    <v>       0.01041667 </v>
    <v>       0.01041667 </v>
    <v>       0.01041667 </v>
    <v>       0.01041667 </v>
    <v>       0.01041667 </v>
    <v>       0.01041667 </v>
    <v>       0.01041667 </v>
    <v>       0.01041667 </v>
    <v>       0.01041667 </v>
    <v>       0.01041667 </v>
    <v>       0.01041667 </v>
    <v>       0.01041667 </v>
    <v>       0.01041667 </v>
    <v>       0.01041667 </v>
    <v>       0.01041667 </v>
    <v>       0.01041667 </v>
    <v>       0.01041667 </v>
    <v>       0.01041667 </v>
    <v>       0.01041667 </v>
    <v>       0.01041667 </v>
    <v>       0.01041667 </v>
    <v>       0.01041667 </v>
    <v>       0.01041667 </v>
    <v>       0.01041667 </v>
    <v>       0.01041667 </v>
    <v>       0.01041667 </v>
    <v>       0.01041667 </v>
    <v>       0.01041667 </v>
    <v>       0.01041667 </v>
    <v>       0.01041667 </v>
    <v>       0.01041667 </v>
    <v>       0.01041667 </v>
    <v>       0.01041667 </v>
    <v>       0.01041667 </v>
    <v>       0.01041667 </v>
    <v>       0.01041667 </v>
    <v>       0.01041667 </v>
    <v>       0.01041667 </v>
    <v>       0.01041667 </v>
    <v>       0.01041667 </v>
    <v>       0.01041667 </v>
    <v>       0.01041667 </v>
    <v>       0.01041667 </v>
    <v>       0.01041667 </v>
    <v>       0.01041667 </v>
    <v>       0.01041667 </v>
    <v>       0.01041667 </v>
    <v>       0.01041667 </v>
    <v>       0.01041667 </v>
    <v>       0.01041667 </v>
    <v>       0.01041667 </v>
    <v>       0.01041667 </v>
    <v>       0.01041667 </v>
    <v>       0.01041667 </v>
    <v>       0.01041667 </v>
    <v>       0.01041667 </v>
    <v>       0.01041667 </v>
    <v>       0.01041667 </v>
    <v>       0.01041667 </v>
    <v>       0.01041667 </v>
    <v>       0.01041667 </v>
    <v>       0.01041667 </v>
    <v>       0.01041667 </v>
    <v>       0.01041667 </v>
    <v>       0.01041667 </v>
    <v>       0.00520833 </v>
    <v>       0.01041667 </v>
    <v>       0.00520833 </v>
    <v>       0.01041667 </v>
    <v>       0.01041667 </v>
    <v>       0.01041667 </v>
    <v>       0.01041667 </v>
    <v>       0.00520833 </v>
    <v>       0.01041667 </v>
    <v>       0.00520833 </v>
   </varray>
  </kpoints>
  <scstep>
   <time name="total">    3.50    3.52</time>
   <energy>
    <i name="e_fr_energy">     -0.92419664 </i>
    <i name="e_wo_entrp">     -0.92419664 </i>
    <i name="e_0_energy">     -0.92419664 </i>
   </energy>
  </scstep>
  <scstep>
   <time name="total">    3.94    3.97</time>
   <energy>
    <i name="e_fr_energy">     -0.96288713 </i>
    <i name="e_wo_entrp">     -0.96288713 </i>
    <i name="e_0_energy">     -0.96288713 </i>
   </energy>
  </scstep>
  <scstep>
   <time name="total">    4.26    4.28</time>
   <energy>
    <i name="e_fr_energy">     -0.95392236 </i>
    <i name="e_wo_entrp">     -0.95392236 </i>
[...]
       <r>   13.9878    0.0000 </r>
       <r>   14.4370    0.0000 </r>
       <r>   14.4370    0.0000 </r>
       <r>   15.6702    0.0000 </r>
       <r>   15.6702    0.0000 </r>
      </set>
      <set comment="kpoint 99">
       <r>  -11.3751    1.0000 </r>
       <r>  -11.3751    1.0000 </r>
       <r>  -10.2031    1.0000 </r>
       <r>  -10.2031    1.0000 </r>
       <r>   -9.9959    1.0000 </r>
       <r>   -9.9959    1.0000 </r>
       <r>   -8.5303    1.0000 </r>
       <r>   -8.5303    1.0000 </r>
       <r>   -6.5497    1.0000 </r>
       <r>   -6.5497    1.0000 </r>
       <r>   -5.5110    1.0000 </r>
       <r>   -5.5110    1.0000 </r>
       <r>   -4.2673    1.0000 </r>
       <r>   -4.2673    1.0000 </r>
       <r>   -2.6211    1.0000 </r>
       <r>   -2.6211    1.0000 </r>
       <r>   -1.7636    1.0000 </r>
       <r>   -1.7636    1.0000 </r>
       <r>   -0.3853    1.0000 </r>
       <r>   -0.3853    1.0000 </r>
       <r>    0.6298    1.0000 </r>
       <r>    0.6298    1.0000 </r>
       <r>    0.7297    1.0000 </r>
       <r>    0.7297    1.0000 </r>
       <r>    4.1177    1.0000 </r>
       <r>    4.1177    1.0000 </r>
       <r>    5.8774    1.0000 </r>
       <r>    5.8774    1.0000 </r>
       <r>    6.5866    1.0000 </r>
       <r>    6.5866    1.0000 </r>
       <r>    7.1650    1.0000 </r>
       <r>    7.1650    1.0000 </r>
       <r>   13.1978    0.0000 </r>
       <r>   13.1978    0.0000 </r>
       <r>   13.8882    0.0000 </r>
       <r>   13.8882    0.0000 </r>
       <r>   14.5863    0.0000 </r>
       <r>   14.5863    0.0000 </r>
       <r>   15.6586    0.0000 </r>
       <r>   15.6586    0.0000 </r>
      </set>
      <set comment="kpoint 100">
       <r>  -11.3719    1.0000 </r>
       <r>  -11.3719    1.0000 </r>
       <r>  -10.2818    1.0000 </r>
       <r>  -10.2818    1.0000 </r>
       <r>   -9.8919    1.0000 </r>
       <r>   -9.8919    1.0000 </r>
       <r>   -8.5801    1.0000 </r>
       <r>   -8.5801    1.0000 </r>
       <r>   -6.5233    1.0000 </r>
       <r>   -6.5233    1.0000 </r>
       <r>   -5.4674    1.0000 </r>
       <r>   -5.4674    1.0000 </r>
       <r>   -4.3274    1.0000 </r>
       <r>   -4.3274    1.0000 </r>
       <r>   -2.7555    1.0000 </r>
       <r>   -2.7555    1.0000 </r>
       <r>   -1.3972    1.0000 </r>
       <r>   -1.3972    1.0000 </r>
       <r>   -0.6842    1.0000 </r>
       <r>   -0.6842    1.0000 </r>
       <r>    0.6466    1.0000 </r>
       <r>    0.6466    1.0000 </r>
       <r>    0.7944    1.0000 </r>
       <r>    0.7944    1.0000 </r>
       <r>    4.1127    1.0000 </r>
       <r>    4.1127    1.0000 </r>
       <r>    5.8974    1.0000 </r>
       <r>    5.8974    1.0000 </r>
       <r>    6.5136    1.0000 </r>
       <r>    6.5136    1.0000 </r>
       <r>    7.2299    1.0000 </r>
       <r>    7.2299    1.0000 </r>
       <r>   13.1452    0.0000 </r>
       <r>   13.1452    0.0000 </r>
       <r>   13.9878    0.0000 </r>
       <r>   13.9878    0.0000 </r>
       <r>   14.4370    0.0000 </r>
       <r>   14.4370    0.0000 </r>
       <r>   15.6702    0.0000 </r>
       <r>   15.6702    0.0000 </r>
      </set>
     </set>
    </set>
   </array>
  </eigenvalues>
  <separator name="orbital magnetization" >
   <v name="MAGDIPOLOUT">      0.00000000      0.00000000      0.00000000</v>
  </separator>
  <dos>
   <i name="efermi">      9.34521409 </i>
   <total>
    <array>
     <dimension dim="1">gridpoints</dimension>
     <dimension dim="2">spin</dimension>
     <field>energy</field>
     <field>total</field>
     <field>integrated</field>
     <set>
      <set comment="spin 1">
       <r>   -17.3906     0.0000     0.0000 </r>
       <r>   -17.2703     0.0000     0.0000 </r>
       <r>   -17.1500     0.0000     0.0000 </r>
       <r>   -17.0297     0.0000     0.0000 </r>
       <r>   -16.9094     0.0000     0.0000 </r>
       <r>   -16.7891     0.0000     0.0000 </r>
       <r>   -16.6688     0.0000     0.0000 </r>
       <r>   -16.5485     0.0000     0.0000 </r>
       <r>   -16.4282     0.0000     0.0000 </r>
       <r>   -16.3079     0.0000     0.0000 </r>
       <r>   -16.1876     0.0000     0.0000 </r>
       <r>   -16.0673     0.0000     0.0000 </r>
       <r>   -15.9470     0.0000     0.0000 </r>
       <r>   -15.8267     0.0000     0.0000 </r>
       <r>   -15.7064     0.0866     0.0104 </r>
       <r>   -15.5861     0.1732     0.0313 </r>
       <r>   -15.4658     0.0000     0.0938 </r>
       <r>   -15.3455     1.0391     0.2188 </r>
       <r>   -15.2253     0.1692     0.2391 </r>
       <r>   -15.1050     0.5196     0.3021 </r>
       <r>   -14.9847     2.0782     0.5833 </r>
       <r>   -14.8644     0.0033     0.6462 </r>
       <r>   -14.7441     0.0003     0.6771 </r>
       <r>   -14.6238     1.0459     0.8654 </r>
       <r>   -14.5035     0.5196     0.9479 </r>
       <r>   -14.3832     1.0391     1.1354 </r>
       <r>   -14.2629     2.0782     1.3854 </r>
       <r>   -14.1426     1.0391     1.5104 </r>
       <r>   -14.0223     1.5586     1.6979 </r>
       <r>   -13.9020     2.5978     2.0104 </r>
       <r>   -13.7817     1.2989     2.1667 </r>
       <r>   -13.6614     1.5578     2.3749 </r>
       <r>   -13.5411     3.1148     2.7497 </r>
       <r>   -13.4208     0.0000     2.7708 </r>
       <r>   -13.3005     1.4661     2.9889 </r>
       <r>   -13.1802     2.9464     3.3544 </r>
       <r>   -13.0599     0.7862     3.4696 </r>
       <r>   -12.9396     1.6055     3.7661 </r>
       <r>   -12.8193     0.5196     3.9479 </r>
       <r>   -12.6990     0.2292     3.9755 </r>
       <r>   -12.5787     1.5883     4.2848 </r>
       <r>   -12.4584     1.1257     4.7917 </r>
       <r>   -12.3381     1.4990     4.9720 </r>
       <r>   -12.2179     1.1879     5.1221 </r>
       <r>   -12.0976     3.3222     5.5247 </r>
       <r>   -11.9773     1.0391     5.6875 </r>
       <r>   -11.8570     1.7078     5.8929 </r>
       <r>   -11.7367     3.2526     6.3288 </r>
       <r>   -11.6164     1.1280     6.4899 </r>
       <r>   -11.4961     1.0258     6.8109 </r>
       <r>   -11.3758     3.2092     7.2298 </r>
       <r>   -11.2555     2.0780     7.7812 </r>
       <r>   -11.1352     0.3464     7.8229 </r>
       <r>   -11.0149     0.7361     7.9115 </r>
       <r>   -10.8946     1.0559     8.0958 </r>
       <r>   -10.7743     1.5597     8.5522 </r>
       <r>   -10.6540     1.5592     8.8646 </r>
       <r>   -10.5337     0.0000     9.0312 </r>
       <r>   -10.4134     0.8659     9.1354 </r>
       <r>   -10.2931     0.2880     9.1701 </r>
       <r>   -10.1728     4.1447     9.7278 </r>
       <r>   -10.0525     3.1172    10.1042 </r>
       <r>    -9.9322     2.0782    10.3542 </r>
       <r>    -9.8119     1.5460    10.6026 </r>
       <r>    -9.6916     2.7709    11.0000 </r>
       <r>    -9.5713     1.0377    11.1248 </r>
       <r>    -9.4510     1.5211    11.4330 </r>
       <r>    -9.3307     0.5197    11.5000 </r>
       <r>    -9.2104     1.2096    11.7184 </r>
       <r>    -9.0902     1.0645    11.9718 </r>
       <r>    -8.9699     1.2112    12.2082 </r>
       <r>    -8.8496     1.8834    12.5599 </r>
       <r>    -8.7293     2.6819    12.9580 </r>
       <r>    -8.6090     3.9003    13.6046 </r>
       <r>    -8.4887     6.1029    14.8487 </r>
       <r>    -8.3684     4.8505    15.5106 </r>
       <r>    -8.2481     3.5471    15.9580 </r>
       <r>    -8.1278     0.1491    15.9763 </r>
       <r>    -8.0075     0.0000    16.0000 </r>
       <r>    -7.8872     0.0000    16.0000 </r>
       <r>    -7.7669     0.0000    16.0000 </r>
       <r>    -7.6466     0.0000    16.0000 </r>
       <r>    -7.5263     0.0000    16.0000 </r>
       <r>    -7.4060     0.0000    16.0000 </r>
       <r>    -7.2857     0.0000    16.0000 </r>
       <r>    -7.1654     0.0000    16.0000 </r>
       <r>    -7.0451     0.0000    16.0000 </r>
       <r>    -6.9248     0.5196    16.0625 </r>
       <r>    -6.8045     0.7794    16.2813 </r>
       <r>    -6.6842     1.6066    16.5370 </r>
       <r>    -6.5639     1.0824    16.7656 </r>
       <r>    -6.4436     4.5946    17.5423 </r>
       <r>    -6.3233     1.0391    17.6771 </r>
       <r>    -6.2030     0.6277    17.7526 </r>
       <r>    -6.0828     0.5196    17.9896 </r>
       <r>    -5.9625     0.4469    18.0433 </r>
       <r>    -5.8422     0.9686    18.1686 </r>
       <r>    -5.7219     0.6957    18.2608 </r>
       <r>    -5.6016     1.0197    18.6539 </r>
       <r>    -5.4813     3.3487    19.0591 </r>
       <r>    -5.3610     1.3855    19.3854 </r>
       <r>    -5.2407     0.5195    19.4479 </r>
       <r>    -5.1204     1.0391    19.5729 </r>
       <r>    -5.0001     0.5196    19.6354 </r>
       <r>    -4.8798     1.2293    19.7833 </r>
       <r>    -4.7595     4.6705    20.3535 </r>
       <r>    -4.6392     2.5848    20.7276 </r>
       <r>    -4.5189     1.2196    20.8759 </r>
       <r>    -4.3986     0.0161    20.9811 </r>
       <r>    -4.2783     3.2256    21.5339 </r>
       <r>    -4.1580     0.5051    21.7795 </r>
       <r>    -4.0377     3.7109    22.5402 </r>
       <r>    -3.9174     0.5946    22.6444 </r>
       <r>    -3.7971     2.4192    23.0514 </r>
       <r>    -3.6768     3.0305    23.6875 </r>
       <r>    -3.5565     1.2123    23.8333 </r>
       <r>    -3.4362     1.3749    23.9987 </r>
       <r>    -3.3159     1.9266    24.2318 </r>
       <r>    -3.1956     2.2544    24.6879 </r>
       <r>    -3.0754     0.0000    24.7292 </r>
       <r>    -2.9551     4.0863    25.3457 </r>
       <r>    -2.8348     1.0391    25.4792 </r>
       <r>    -2.7145     0.5200    25.5417 </r>
       <r>    -2.5942     2.0786    25.8125 </r>
       <r>    -2.4739     3.4120    26.4105 </r>
       <r>    -2.3536     1.0404    26.9377 </r>
       <r>    -2.2333     2.1317    27.4439 </r>
       <r>    -2.1130     3.8244    28.0538 </r>
       <r>    -1.9927     2.0756    28.3851 </r>
       <r>    -1.8724     3.0869    28.8818 </r>
       <r>    -1.7521     3.8033    29.3429 </r>
       <r>    -1.6318     4.1290    29.9238 </r>
       <r>    -1.5115     0.6796    30.1338 </r>
       <r>    -1.3912     0.4166    30.2897 </r>
       <r>    -1.2709     0.8523    30.4046 </r>
       <r>    -1.1506     4.1787    31.0339 </r>
       <r>    -1.0303     2.5493    31.5358 </r>
       <r>    -0.9100     2.6476    32.2872 </r>
       <r>    -0.7897     4.2658    32.9611 </r>
       <r>    -0.6694     2.2264    33.4866 </r>
       <r>    -0.5491     3.6265    34.2175 </r>
       <r>    -0.4288     2.2825    34.4933 </r>
       <r>    -0.3085     3.1355    35.0543 </r>
       <r>    -0.1882     5.2136    36.1168 </r>
       <r>    -0.0680     2.0739    36.4474 </r>
       <r>     0.0523     6.0203    37.4221 </r>
       <r>     0.1726     2.4587    37.8791 </r>
       <r>     0.2929     3.0515    38.3567 </r>
       <r>     0.4132     3.7570    39.1186 </r>
       <r>     0.5335     4.1599    39.9171 </r>
       <r>     0.6538     1.7697    40.6296 </r>
       <r>     0.7741     1.3832    41.0518 </r>
       <r>     0.8944     2.4467    41.5860 </r>
       <r>     1.0147     5.5127    42.3715 </r>
       <r>     1.1350     2.3916    42.7252 </r>
       <r>     1.2553     1.9772    43.3629 </r>
       <r>     1.3756     2.2950    43.9219 </r>
       <r>     1.4959     1.0388    44.3645 </r>
       <r>     1.6162     1.5600    44.6772 </r>
       <r>     1.7365     2.4233    45.1561 </r>
       <r>     1.8568     3.7051    45.6020 </r>
       <r>     1.9771     1.0453    45.7612 </r>
       <r>     2.0974     2.5929    46.1348 </r>
       <r>     2.2177     0.4291    46.2704 </r>
       <r>     2.3380     1.8173    46.6874 </r>
       <r>     2.4583     1.3264    47.0137 </r>
       <r>     2.5786     1.2989    47.2604 </r>
       <r>     2.6989     0.7366    47.3490 </r>
       <r>     2.8192     0.3981    47.5166 </r>
       <r>     2.9395     0.0000    47.5208 </r>
       <r>     3.0597     1.0391    47.6458 </r>
       <r>     3.1800     1.5512    47.8324 </r>
       <r>     3.3003     0.0866    47.8438 </r>
       <r>     3.4206     0.0021    47.8648 </r>
       <r>     3.5409     0.6061    47.9583 </r>
       <r>     3.6612     1.5818    48.1695 </r>
       <r>     3.7815     1.0391    48.3854 </r>
       <r>     3.9018     0.0080    48.3864 </r>
       <r>     4.0221     1.5773    48.5960 </r>
       <r>     4.1424     3.2393    49.0668 </r>
       <r>     4.2627     0.4403    49.2509 </r>
       <r>     4.3830     2.0905    49.8452 </r>
       <r>     4.5033     2.5551    50.2761 </r>
       <r>     4.6236     2.4550    50.6391 </r>
       <r>     4.7439     0.5196    50.8333 </r>
       <r>     4.8642     0.2598    50.8646 </r>
       <r>     4.9845     0.5196    50.9271 </r>
       <r>     5.1048     0.0000    50.9271 </r>
       <r>     5.2251     1.0391    51.1146 </r>
       <r>     5.3454     0.5196    51.1771 </r>
       <r>     5.4657     0.0000    51.1771 </r>
       <r>     5.5860     0.8366    51.4027 </r>
       <r>     5.7063     1.4873    51.7935 </r>
       <r>     5.8266     1.3854    52.3021 </r>
       <r>     5.9469     4.5543    52.8500 </r>
       <r>     6.0671     2.6951    53.3763 </r>
       <r>     6.1874     1.0391    53.8021 </r>
       <r>     6.3077     2.8327    54.1428 </r>
       <r>     6.4280     7.2970    55.2007 </r>
       <r>     6.5483     4.1030    55.8061 </r>
       <r>     6.6686     2.3630    56.2218 </r>
       <r>     6.7889     6.7891    57.3375 </r>
       <r>     6.9092     3.6968    57.9135 </r>
       <r>     7.0295     3.8661    58.4755 </r>
       <r>     7.1498     1.7797    59.1308 </r>
       <r>     7.2701     4.0920    60.0131 </r>
       <r>     7.3904     3.2488    60.5158 </r>
       <r>     7.5107     1.4554    60.9459 </r>
       <r>     7.6310     0.0040    61.0213 </r>
       <r>     7.7513     1.0391    61.1875 </r>
       <r>     7.8716     4.1370    61.8102 </r>
       <r>     7.9919     0.1520    61.8933 </r>
       <r>     8.1122     1.4129    62.2533 </r>
       <r>     8.2325     1.3458    62.4640 </r>
       <r>     8.3528     1.1257    62.6250 </r>
       <r>     8.4731     0.6927    62.7083 </r>
       <r>     8.5934     1.2399    62.8575 </r>
       <r>     8.7137     2.5956    63.2914 </r>
       <r>     8.8340     0.9484    63.4058 </r>
       <r>     8.9543     0.0973    63.5117 </r>
       <r>     9.0745     0.0856    63.7290 </r>
       <r>     9.1948     0.6162    63.9075 </r>
       <r>     9.3151     0.6061    64.0000 </r>
       <r>     9.4354     0.0000    64.0000 </r>
       <r>     9.5557     0.0000    64.0000 </r>
       <r>     9.6760     0.0000    64.0000 </r>
       <r>     9.7963     0.0000    64.0000 </r>
       <r>     9.9166     0.0000    64.0000 </r>
       <r>    10.0369     0.0000    64.0000 </r>
       <r>    10.1572     0.0000    64.0000 </r>
       <r>    10.2775     0.0000    64.0000 </r>
       <r>    10.3978     0.0000    64.0000 </r>
       <r>    10.5181     0.0000    64.0000 </r>
       <r>    10.6384     0.0000    64.0000 </r>
       <r>    10.7587     0.0000    64.0000 </r>
       <r>    10.8790     0.0000    64.0000 </r>
       <r>    10.9993     0.0000    64.0000 </r>
       <r>    11.1196     0.0000    64.0000 </r>
       <r>    11.2399     0.0000    64.0000 </r>
       <r>    11.3602     0.0000    64.0000 </r>
       <r>    11.4805     0.0000    64.0000 </r>
       <r>    11.6008     0.0000    64.0000 </r>
       <r>    11.7211     0.0000    64.0000 </r>
       <r>    11.8414     0.0000    64.0000 </r>
       <r>    11.9617     0.0000    64.0000 </r>
       <r>    12.0819     0.0000    64.0000 </r>
       <r>    12.2022     0.0000    64.0000 </r>
       <r>    12.3225     0.0000    64.0000 </r>
       <r>    12.4428     0.0000    64.0000 </r>
       <r>    12.5631     0.0563    64.0068 </r>
       <r>    12.6834     0.5200    64.1980 </r>
       <r>    12.8037     1.0776    64.4525 </r>
       <r>    12.9240     1.6548    64.7720 </r>
       <r>    13.0443     0.8147    64.9938 </r>
       <r>    13.1646     2.8915    65.6082 </r>
       <r>    13.2849     5.2939    66.6160 </r>
       <r>    13.4052     1.6129    67.2044 </r>
       <r>    13.5255     2.5037    67.5408 </r>
       <r>    13.6458     2.1507    67.9254 </r>
       <r>    13.7661     2.4166    68.4574 </r>
       <r>    13.8864     2.2818    68.7953 </r>
       <r>    14.0067     4.3696    69.5881 </r>
       <r>    14.1270     1.4368    69.8291 </r>
       <r>    14.2473     4.4153    70.4478 </r>
       <r>    14.3676     1.7012    70.6526 </r>
       <r>    14.4879     5.1279    71.6273 </r>
       <r>    14.6082     6.4555    72.5995 </r>
       <r>    14.7285     1.8261    72.9176 </r>
       <r>    14.8488     2.6989    73.4393 </r>
       <r>    14.9691     1.2158    73.7192 </r>
       <r>    15.0893     1.5587    74.0313 </r>
       <r>    15.2096     2.3693    74.4413 </r>
       <r>    15.3299     1.2122    74.8854 </r>
       <r>    15.4502     4.1226    75.3813 </r>
       <r>    15.5705     3.3607    76.0397 </r>
       <r>    15.6908     5.2867    76.7922 </r>
       <r>    15.8111     2.2431    77.1761 </r>
       <r>    15.9314     4.1027    77.8060 </r>
       <r>    16.0517     1.7289    78.1246 </r>
       <r>    16.1720     0.6399    78.3270 </r>
       <r>    16.2923     3.2573    78.7877 </r>
       <r>    16.4126     1.0031    79.0790 </r>
       <r>    16.5329     1.5416    79.2896 </r>
       <r>    16.6532     1.5587    79.6667 </r>
       <r>    16.7735     0.4040    79.8403 </r>
       <r>    16.8938     0.3464    79.9792 </r>
       <r>    17.0141     0.0000    79.9792 </r>
       <r>    17.1344     0.1732    80.0000 </r>
       <r>    17.2547     0.0000    80.0000 </r>
       <r>    17.3750     0.0000    80.0000 </r>
       <r>    17.4953     0.0000    80.0000 </r>
       <r>    17.6156     0.0000    80.0000 </r>
       <r>    17.7359     0.0000    80.0000 </r>
       <r>    17.8562     0.0000    80.0000 </r>
       <r>    17.9765     0.0000    80.0000 </r>
       <r>    18.0968     0.0000    80.0000 </r>
       <r>    18.2170     0.0000    80.0000 </r>
       <r>    18.3373     0.0000    80.0000 </r>
       <r>    18.4576     0.0000    80.0000 </r>
       <r>    18.5779     0.0000    80.0000 </r>
       <r>    18.6982     0.0000    80.0000 </r>
      </set>
     </set>
    </array>
   </total>
  </dos>
 </calculation>
 <structure name="finalpos" >
  <crystal>
   <varray name="basis" >
    <v>       6.45052577       0.00000000       0.00000000 </v>
    <v>      -3.22526289       5.58631919       0.00000000 </v>
    <v>       0.00000000       0.00000000       2.42313981 </v>
   </varray>
   <i name="volume">     87.31710626 </i>
   <varray name="rec_basis" >
    <v>       0.15502612       0.08950437       0.00000000 </v>
    <v>       0.00000000       0.17900875       0.00000000 </v>
    <v>       0.00000000       0.00000000       0.41268770 </v>
   </varray>
  </crystal>
  <varray name="positions" >
   <v>       0.59490505       0.82165999       0.75000006 </v>
   <v>       0.17834001       0.77324498       0.75000006 </v>
   <v>       0.22675502       0.40509495       0.75000006 </v>
   <v>       0.40509503       0.17834001       0.25000002 </v>
   <v>       0.82166006       0.22675502       0.25000002 </v>
   <v>       0.77324506       0.59490505       0.25000002 </v>
   <v>       0.70342005       0.67011305       0.75000006 </v>
   <v>       0.32988703       0.03330700       0.75000006 </v>
   <v>       0.96669307       0.29658002       0.75000006 </v>
   <v>       0.29658002       0.32988695       0.25000002 </v>
   <v>       0.67011305       0.96669300       0.25000002 </v>
   <v>       0.03330700       0.70341998       0.25000002 </v>
   <v>       0.33333336       0.66666664       0.75000006 </v>
   <v>       0.66666672       0.33333336       0.25000002 </v>
  </varray>
 </structure>
</modeling>
