
     Program PWSCF v.7.1 starts on  3Jan2024 at 14:31:29 

     This program is part of the open-source Quantum ESPRESSO suite
     for quantum simulation of materials; please cite
         "P. Giannozzi et al., J. Phys.:Condens. Matter 21 395502 (2009);
         "P. Giannozzi et al., J. Phys.:Condens. Matter 29 465901 (2017);
         "P. Giannozzi et al., J. Chem. Phys. 152 154105 (2020);
          URL http://www.quantum-espresso.org", 
     in publications or presentations arising from this work. More details at
     http://www.quantum-espresso.org/quote

     Parallel version (MPI), running on     8 processors

     MPI processes distributed on     1 nodes
     121679 MiB available memory on the printing compute node when the environment starts
 
     Reading input from pw_mp-1415_nscf_k3000_E130.in
Warning: card &IONS ignored
Warning: card / ignored
Warning: card &CELL ignored
Warning: card / ignored

     Current dimensions of program PWSCF are:
     Max number of different atomic species (ntypx) = 10
     Max number of k-points (npk) =  40000
     Max angular momentum in pseudopotentials (lmaxx) =  4

     Atomic positions and unit cell read from directory:
     out/mp-1415.save/
     Atomic positions from file used, from input discarded
 
 
     R & G space division:  proc/nbgrp/npool/nimage =       8
     Subspace diagonalization in iterative solution of the eigenvalue problem:
     a serial algorithm will be used

 
     Parallelization info
     --------------------
     sticks:   dense  smooth     PW     G-vecs:    dense   smooth      PW
     Min         280     280     81                 8862     8862    1346
     Max         281     281     82                 8866     8866    1348
     Sum        2245    2245    649                70913    70913   10777
 
     Using Slab Decomposition
 


     bravais-lattice index     =            2
     lattice parameter (alat)  =      11.2259  a.u.
     unit-cell volume          =     353.6717 (a.u.)^3
     number of atoms/cell      =            2
     number of atomic types    =            2
     number of electrons       =        16.00
     number of Kohn-Sham states=           16
     kinetic-energy cutoff     =     130.0000  Ry
     charge density cutoff     =     520.0000  Ry
     Exchange-correlation= PBE
                           (   1   4   3   4   0   0   0)

     celldm(1)=  11.225872  celldm(2)=   0.000000  celldm(3)=   0.000000
     celldm(4)=   0.000000  celldm(5)=   0.000000  celldm(6)=   0.000000

     crystal axes: (cart. coord. in units of alat)
               a(1) = (  -0.500000   0.000000   0.500000 )  
               a(2) = (   0.000000   0.500000   0.500000 )  
               a(3) = (  -0.500000   0.500000   0.000000 )  

     reciprocal axes: (cart. coord. in units 2 pi/alat)
               b(1) = ( -1.000000 -1.000000  1.000000 )  
               b(2) = (  1.000000  1.000000  1.000000 )  
               b(3) = ( -1.000000  1.000000 -1.000000 )  


     PseudoPot. # 1 for Ca read from file:
     /usr/scratch4/magr4985/MG/devEb/pseudo/SG15/Ca.upf
     MD5 check sum: d3df06507a1658a66563533e58c348d1
     Pseudo is Norm-conserving, Zval = 10.0
     Generated using ONCVPSP code by D. R. Hamann
     Using radial grid of  602 points,  6 beta functions with: 
                l(1) =   0
                l(2) =   0
                l(3) =   1
                l(4) =   1
                l(5) =   2
                l(6) =   2

     PseudoPot. # 2 for Se read from file:
     /usr/scratch4/magr4985/MG/devEb/pseudo/SG15/Se.upf
     MD5 check sum: c44afd8c4e480dd2a5f8f6cb06637de2
     Pseudo is Norm-conserving, Zval =  6.0
     Generated using ONCVPSP code by D. R. Hamann
     Using radial grid of  602 points,  6 beta functions with: 
                l(1) =   0
                l(2) =   0
                l(3) =   1
                l(4) =   1
                l(5) =   2
                l(6) =   2

     atomic species   valence    mass     pseudopotential
        Ca            10.00    40.07800     Ca( 1.00)
        Se             6.00    78.96000     Se( 1.00)

     48 Sym. Ops., with inversion, found



   Cartesian axes

     site n.     atom                  positions (alat units)
         1           Ca  tau(   1) = (   0.0000000   0.0000000   0.0000000  )
         2           Se  tau(   2) = (  -0.5000000   0.5000000   0.5000000  )

     number of k points=    72  Gaussian smearing, width (Ry)=  0.0005
                       cart. coord. in units 2pi/alat
        k(    1) = (   0.0000000   0.0000000   0.0000000), wk =   0.0011574
        k(    2) = (  -0.0833333   0.0833333  -0.0833333), wk =   0.0092593
        k(    3) = (  -0.1666667   0.1666667  -0.1666667), wk =   0.0092593
        k(    4) = (  -0.2500000   0.2500000  -0.2500000), wk =   0.0092593
        k(    5) = (  -0.3333333   0.3333333  -0.3333333), wk =   0.0092593
        k(    6) = (  -0.4166667   0.4166667  -0.4166667), wk =   0.0092593
        k(    7) = (   0.5000000  -0.5000000   0.5000000), wk =   0.0046296
        k(    8) = (   0.0000000   0.1666667   0.0000000), wk =   0.0069444
        k(    9) = (  -0.0833333   0.2500000  -0.0833333), wk =   0.0277778
        k(   10) = (  -0.1666667   0.3333333  -0.1666667), wk =   0.0277778
        k(   11) = (  -0.2500000   0.4166667  -0.2500000), wk =   0.0277778
        k(   12) = (  -0.3333333   0.5000000  -0.3333333), wk =   0.0277778
        k(   13) = (   0.5833333  -0.4166667   0.5833333), wk =   0.0277778
        k(   14) = (   0.5000000  -0.3333333   0.5000000), wk =   0.0277778
        k(   15) = (   0.4166667  -0.2500000   0.4166667), wk =   0.0277778
        k(   16) = (   0.3333333  -0.1666667   0.3333333), wk =   0.0277778
        k(   17) = (   0.2500000  -0.0833333   0.2500000), wk =   0.0277778
        k(   18) = (   0.1666667  -0.0000000   0.1666667), wk =   0.0138889
        k(   19) = (   0.0000000   0.3333333   0.0000000), wk =   0.0069444
        k(   20) = (  -0.0833333   0.4166667  -0.0833333), wk =   0.0277778
        k(   21) = (  -0.1666667   0.5000000  -0.1666667), wk =   0.0277778
        k(   22) = (  -0.2500000   0.5833333  -0.2500000), wk =   0.0277778
        k(   23) = (   0.6666667  -0.3333333   0.6666667), wk =   0.0277778
        k(   24) = (   0.5833333  -0.2500000   0.5833333), wk =   0.0277778
        k(   25) = (   0.5000000  -0.1666667   0.5000000), wk =   0.0277778
        k(   26) = (   0.4166667  -0.0833333   0.4166667), wk =   0.0277778
        k(   27) = (   0.3333333   0.0000000   0.3333333), wk =   0.0138889
        k(   28) = (   0.0000000   0.5000000   0.0000000), wk =   0.0069444
        k(   29) = (  -0.0833333   0.5833333  -0.0833333), wk =   0.0277778
        k(   30) = (  -0.1666667   0.6666667  -0.1666667), wk =   0.0277778
        k(   31) = (   0.7500000  -0.2500000   0.7500000), wk =   0.0277778
        k(   32) = (   0.6666667  -0.1666667   0.6666667), wk =   0.0277778
        k(   33) = (   0.5833333  -0.0833333   0.5833333), wk =   0.0277778
        k(   34) = (   0.5000000   0.0000000   0.5000000), wk =   0.0138889
        k(   35) = (   0.0000000   0.6666667   0.0000000), wk =   0.0069444
        k(   36) = (  -0.0833333   0.7500000  -0.0833333), wk =   0.0277778
        k(   37) = (   0.8333333  -0.1666667   0.8333333), wk =   0.0277778
        k(   38) = (   0.7500000  -0.0833333   0.7500000), wk =   0.0277778
        k(   39) = (   0.6666667  -0.0000000   0.6666667), wk =   0.0138889
        k(   40) = (   0.0000000   0.8333333   0.0000000), wk =   0.0069444
        k(   41) = (   0.9166667  -0.0833333   0.9166667), wk =   0.0277778
        k(   42) = (   0.8333333   0.0000000   0.8333333), wk =   0.0138889
        k(   43) = (   0.0000000  -1.0000000   0.0000000), wk =   0.0034722
        k(   44) = (  -0.1666667   0.3333333  -0.0000000), wk =   0.0277778
        k(   45) = (  -0.2500000   0.4166667  -0.0833333), wk =   0.0555556
        k(   46) = (  -0.3333333   0.5000000  -0.1666667), wk =   0.0555556
        k(   47) = (   0.5833333  -0.4166667   0.7500000), wk =   0.0555556
        k(   48) = (   0.5000000  -0.3333333   0.6666667), wk =   0.0277778
        k(   49) = (  -0.1666667   0.5000000   0.0000000), wk =   0.0277778
        k(   50) = (  -0.2500000   0.5833333  -0.0833333), wk =   0.0555556
        k(   51) = (   0.6666667  -0.3333333   0.8333333), wk =   0.0555556
        k(   52) = (   0.5833333  -0.2500000   0.7500000), wk =   0.0555556
        k(   53) = (   0.5000000  -0.1666667   0.6666667), wk =   0.0555556
        k(   54) = (   0.4166667  -0.0833333   0.5833333), wk =   0.0555556
        k(   55) = (   0.3333333   0.0000000   0.5000000), wk =   0.0277778
        k(   56) = (  -0.1666667   0.6666667  -0.0000000), wk =   0.0277778
        k(   57) = (   0.7500000  -0.2500000   0.9166667), wk =   0.0555556
        k(   58) = (   0.6666667  -0.1666667   0.8333333), wk =   0.0555556
        k(   59) = (   0.5833333  -0.0833333   0.7500000), wk =   0.0555556
        k(   60) = (   0.5000000  -0.0000000   0.6666667), wk =   0.0277778
        k(   61) = (   0.8333333  -0.1666667   1.0000000), wk =   0.0277778
        k(   62) = (   0.7500000  -0.0833333   0.9166667), wk =   0.0555556
        k(   63) = (   0.6666667   0.0000000   0.8333333), wk =   0.0277778
        k(   64) = (  -0.1666667  -1.0000000   0.0000000), wk =   0.0138889
        k(   65) = (   0.6666667  -0.3333333   1.0000000), wk =   0.0277778
        k(   66) = (   0.5833333  -0.2500000   0.9166667), wk =   0.0555556
        k(   67) = (   0.5000000  -0.1666667   0.8333333), wk =   0.0277778
        k(   68) = (   0.6666667  -0.1666667   1.0000000), wk =   0.0277778
        k(   69) = (   0.5833333  -0.0833333   0.9166667), wk =   0.0555556
        k(   70) = (   0.5000000   0.0000000   0.8333333), wk =   0.0277778
        k(   71) = (  -0.3333333  -1.0000000   0.0000000), wk =   0.0138889
        k(   72) = (  -0.5000000  -1.0000000   0.0000000), wk =   0.0069444

     Dense  grid:    70913 G-vectors     FFT dimensions: (  60,  60,  60)

     Estimated max dynamical RAM per process >      28.53 MB

     Estimated total dynamical RAM >     228.23 MB

     The potential is recalculated from file :
     out/mp-1415.save/charge-density

     Starting wfcs are random

     Band Structure Calculation
     Davidson diagonalization with overlap

     ethr =  5.00E-06,  avg # of iterations = 22.7

     total cpu time spent up to now is       14.8 secs

     End of band structure calculation

          k = 0.0000 0.0000 0.0000 (  8801 PWs)   bands (ev):

   -33.9454 -14.9302 -14.9302 -14.9302  -5.8636   5.9001   5.9001   5.9001
     9.1590   9.5933   9.5933   9.5933  10.1451  10.1451  15.5979  18.1099

          k =-0.0833 0.0833-0.0833 (  8840 PWs)   bands (ev):

   -33.9450 -14.9375 -14.9307 -14.9307  -5.8231   5.5154   5.7885   5.7885
     9.4188   9.6909   9.6909   9.7691  10.3254  10.3254  15.6994  17.8237

          k =-0.1667 0.1667-0.1667 (  8876 PWs)   bands (ev):

   -33.9438 -14.9573 -14.9321 -14.9321  -5.7098   4.7288   5.5211   5.5211
     9.5022   9.9423   9.9423  10.6340  10.8243  10.8243  15.6449  17.2662

          k =-0.2500 0.2500-0.2500 (  8865 PWs)   bands (ev):

   -33.9423 -14.9840 -14.9339 -14.9339  -5.5482   3.9218   5.2163   5.2163
     9.6001  10.3066  10.3066  11.5129  11.5129  11.5491  15.2283  16.3013

          k =-0.3333 0.3333-0.3333 (  8862 PWs)   bands (ev):

   -33.9407 -15.0104 -14.9357 -14.9357  -5.3773   3.2552   4.9572   4.9572
     9.8163  10.7451  10.7451  11.9160  12.2456  12.2456  15.2719  15.3101

          k =-0.4167 0.4167-0.4167 (  8832 PWs)   bands (ev):

   -33.9396 -15.0294 -14.9371 -14.9371  -5.2452   2.8169   4.7880   4.7880
    10.1458  11.1595  11.1595  11.6127  12.9034  12.9034  14.4374  14.4375

          k = 0.5000-0.5000 0.5000 (  8850 PWs)   bands (ev):

   -33.9392 -15.0364 -14.9376 -14.9376  -5.1951   2.6637   4.7296   4.7296
    10.3833  11.3199  11.3473  11.3473  13.3086  13.3087  13.9327  13.9327

          k = 0.0000 0.1667 0.0000 (  8873 PWs)   bands (ev):

   -33.9448 -14.9370 -14.9323 -14.9323  -5.8107   5.3715   5.7882   5.7882
     9.4365   9.5190   9.8466   9.8466  10.1898  10.6534  15.7556  17.6596

          k =-0.0833 0.2500-0.0833 (  8877 PWs)   bands (ev):

   -33.9439 -14.9515 -14.9345 -14.9330  -5.7249   4.7984   5.5641   5.6051
     9.3770   9.8041  10.1027  10.2730  10.4510  11.3395  15.8167  17.0521

          k =-0.1667 0.3333-0.1667 (  8877 PWs)   bands (ev):

   -33.9425 -14.9753 -14.9369 -14.9342  -5.5839   4.1023   5.2333   5.3311
     9.4388  10.1689  10.4143  10.9720  11.0147  12.1371  15.3883  16.2484

          k =-0.2500 0.4167-0.2500 (  8866 PWs)   bands (ev):

   -33.9410 -15.0010 -14.9388 -14.9364  -5.4208   3.4591   4.9375   5.0610
     9.6239  10.6000  10.8211  11.6451  11.6530  12.6810  14.9705  15.5381

          k =-0.3333 0.5000-0.3333 (  8843 PWs)   bands (ev):

   -33.9397 -15.0218 -14.9396 -14.9390  -5.2791   2.9836   4.7348   4.8548
     9.9430  11.0576  11.2205  11.6842  12.2557  13.1019  14.3446  14.9954

          k = 0.5833-0.4167 0.5833 (  8837 PWs)   bands (ev):

   -33.9390 -15.0324 -14.9412 -14.9392  -5.2026   2.7501   4.6467   4.7445
    10.3165  11.2753  11.3759  11.4330  12.8486  13.2085  14.0133  14.4581

          k = 0.5000-0.3333 0.5000 (  8846 PWs)   bands (ev):

   -33.9392 -15.0302 -14.9425 -14.9376  -5.2177   2.7960   4.6790   4.7437
    10.2951  11.1626  11.3042  11.5601  12.5864  13.2892  14.2713  14.4471

          k = 0.4167-0.2500 0.4167 (  8850 PWs)   bands (ev):

   -33.9401 -15.0158 -14.9423 -14.9353  -5.3191   3.1147   4.8272   4.8529
     9.9695  10.7499  11.1860  11.6848  12.0983  12.9197  14.9395  15.0223

          k = 0.3333-0.1667 0.3333 (  8873 PWs)   bands (ev):

   -33.9415 -14.9928 -14.9408 -14.9330  -5.4727   3.6579   5.0587   5.0746
     9.7376  10.3178  10.7384  11.1014  12.0555  12.1956  15.1773  15.6707

          k = 0.2500-0.0833 0.2500 (  8881 PWs)   bands (ev):

   -33.9430 -14.9675 -14.9381 -14.9311  -5.6331   4.3425   5.3297   5.3828
     9.6504   9.9631  10.2407  10.4524  11.4288  11.4688  15.5574  16.2929

          k = 0.1667-0.0000 0.1667 (  8873 PWs)   bands (ev):

   -33.9443 -14.9471 -14.9344 -14.9303  -5.7594   5.0389   5.6049   5.6657
     9.6659   9.7033   9.7393  10.0830  10.6757  10.7666  15.7777  17.0689

          k = 0.0000 0.3333 0.0000 (  8889 PWs)   bands (ev):

   -33.9433 -14.9544 -14.9379 -14.9379  -5.6751   4.4888   5.5427   5.5427
     9.0595   9.9116  10.3154  10.4701  10.4701  12.1136  16.0650  16.4805

          k =-0.0833 0.4167-0.0833 (  8873 PWs)   bands (ev):

   -33.9422 -14.9705 -14.9412 -14.9400  -5.5715   4.0441   5.2953   5.3626
     8.9901  10.2127  10.4796  10.8916  10.9086  12.9349  15.3301  15.9781

          k =-0.1667 0.5000-0.1667 (  8894 PWs)   bands (ev):

   -33.9407 -14.9917 -14.9436 -14.9426  -5.4384   3.5972   4.9372   5.1358
     9.1470  10.6949  10.8320  11.3705  11.3740  13.4203  14.3872  15.7655

          k =-0.2500 0.5833-0.2500 (  8859 PWs)   bands (ev):

   -33.9395 -15.0105 -14.9465 -14.9444  -5.3098   3.2225   4.6345   4.9289
     9.4647  11.2159  11.2719  11.6390  11.7576  13.4494  13.7794  15.6420

          k = 0.6667-0.3333 0.6667 (  8843 PWs)   bands (ev):

   -33.9387 -15.0220 -14.9508 -14.9435  -5.2227   2.9879   4.4595   4.7863
     9.9220  11.3262  11.4544  11.6604  12.2428  13.1387  13.8797  15.2794

          k = 0.5833-0.2500 0.5833 (  8840 PWs)   bands (ev):

   -33.9386 -15.0234 -14.9541 -14.9410  -5.2047   2.9439   4.4269   4.7315
    10.4069  10.9495  11.2423  11.8469  12.4828  12.8878  14.4462  14.9959

          k = 0.5000-0.1667 0.5000 (  8852 PWs)   bands (ev):

   -33.9392 -15.0150 -14.9551 -14.9377  -5.2621   3.1031   4.5335   4.7726
    10.3221  10.8613  11.2475  11.5174  12.0512  13.2725  14.8441  14.9308

          k = 0.4167-0.0833 0.4167 (  8860 PWs)   bands (ev):

   -33.9404 -14.9995 -14.9527 -14.9343  -5.3760   3.4341   4.7663   4.9035
    10.1312  10.4671  10.8555  11.2595  12.0926  12.9027  15.1419  15.2603

          k = 0.3333 0.0000 0.3333 (  8875 PWs)   bands (ev):

   -33.9418 -14.9821 -14.9465 -14.9319  -5.5120   3.8735   5.0849   5.1028
    10.0010  10.1497  10.3301  10.7697  12.0617  12.1713  15.4018  15.4757

          k = 0.0000 0.5000 0.0000 (  8868 PWs)   bands (ev):

   -33.9413 -14.9752 -14.9456 -14.9456  -5.5142   3.8162   5.2966   5.2966
     8.6292  10.3103  10.4957  11.1754  11.1754  13.7794  14.5726  16.3129

          k =-0.0833 0.5833-0.0833 (  8873 PWs)   bands (ev):

   -33.9401 -14.9881 -14.9494 -14.9490  -5.4260   3.5743   5.0601   5.1568
     8.6017  10.6551  10.6973  11.4752  11.4792  13.6636  14.3619  16.0888

          k =-0.1667 0.6667-0.1667 (  8864 PWs)   bands (ev):

   -33.9390 -15.0011 -14.9549 -14.9503  -5.3291   3.3915   4.6747   4.9909
     8.8568  11.0887  11.2286  11.6437  11.6662  12.9641  14.3148  16.0544

          k = 0.7500-0.2500 0.7500 (  8856 PWs)   bands (ev):

   -33.9382 -15.0093 -14.9622 -14.9494  -5.2494   3.2866   4.3234   4.8459
     9.2923  11.4864  11.5322  11.7460  11.7963  12.6469  14.1713  15.9242

          k = 0.6667-0.1667 0.6667 (  8845 PWs)   bands (ev):

   -33.9379 -15.0109 -14.9689 -14.9464  -5.2097   3.2442   4.1359   4.7545
     9.8691  11.1301  11.3866  11.8018  12.3133  12.7335  14.3857  15.5437

          k = 0.5833-0.0833 0.5833 (  8851 PWs)   bands (ev):

   -33.9383 -15.0079 -14.9710 -14.9421  -5.2224   3.2417   4.1776   4.7341
    10.5411  10.8601  11.0648  11.3439  12.6566  12.9405  14.7632  15.2524

          k = 0.5000 0.0000 0.5000 (  8864 PWs)   bands (ev):

   -33.9392 -15.0040 -14.9648 -14.9377  -5.2839   3.2952   4.4208   4.7872
    10.6203  10.7321  10.8447  11.2573  12.2043  13.2674  14.9148  15.3009

          k = 0.0000 0.6667 0.0000 (  8836 PWs)   bands (ev):

   -33.9392 -14.9928 -14.9534 -14.9534  -5.3874   3.4768   5.1143   5.1143
     8.2638  10.6875  10.7183  11.6626  11.6626  12.9651  15.1580  16.4655

          k =-0.0833 0.7500-0.0833 (  8861 PWs)   bands (ev):

   -33.9383 -14.9998 -14.9583 -14.9557  -5.3326   3.4158   4.8896   5.0215
     8.3084  10.8779  11.0409  11.7594  11.7674  12.3866  15.2786  16.3194

          k = 0.8333-0.1667 0.8333 (  8839 PWs)   bands (ev):

   -33.9376 -15.0026 -14.9674 -14.9553  -5.2754   3.4420   4.4546   4.9088
     8.6578  11.2491  11.6117  11.6775  11.7357  12.0113  15.0343  16.1017

          k = 0.7500-0.0833 0.7500 (  8847 PWs)   bands (ev):

   -33.9374 -14.9988 -14.9799 -14.9523  -5.2308   3.5625   3.9909   4.8090
     9.1839  11.4414  11.5628  11.7102  11.7660  12.3816  14.8859  15.5787

          k = 0.6667-0.0000 0.6667 (  8868 PWs)   bands (ev):

   -33.9376 -14.9970 -14.9850 -14.9474  -5.2111   3.5114   3.8712   4.7466
     9.8362  11.2994  11.3200  11.3353  12.3553  12.9030  14.9061  15.0051

          k = 0.0000 0.8333 0.0000 (  8876 PWs)   bands (ev):

   -33.9377 -15.0037 -14.9591 -14.9591  -5.3198   3.3984   5.0091   5.0091
     8.0256  10.8364  10.9394  11.8400  11.8400  12.0289  15.8026  16.5481

          k = 0.9167-0.0833 0.9167 (  8863 PWs)   bands (ev):

   -33.9373 -15.0051 -14.9638 -14.9596  -5.2940   3.4275   4.7946   4.9572
     8.1532  10.9854  11.1050  11.8055  11.8293  11.8752  15.7395  16.3967

          k = 0.8333 0.0000 0.8333 (  8836 PWs)   bands (ev):

   -33.9372 -15.0011 -14.9736 -14.9571  -5.2617   3.5236   4.3464   4.8830
     8.5868  11.3064  11.4960  11.7281  11.7372  11.8523  15.4702  15.9459

          k = 0.0000-1.0000 0.0000 (  8904 PWs)   bands (ev):

   -33.9371 -15.0072 -14.9612 -14.9612  -5.3008   3.4059   4.9754   4.9754
     7.9435  10.8866  10.8929  11.8408  11.8667  11.8667  15.9367  16.5744

          k =-0.1667 0.3333-0.0000 (  8879 PWs)   bands (ev):

   -33.9429 -14.9649 -14.9402 -14.9335  -5.6286   4.3120   5.3633   5.3976
     9.3518  10.0661  10.3593  10.4043  10.9866  12.1270  15.7642  16.0056

          k =-0.2500 0.4167-0.0833 (  8871 PWs)   bands (ev):

   -33.9415 -14.9852 -14.9451 -14.9349  -5.4924   3.7807   5.0512   5.1377
     9.4840  10.3898  10.7839  10.7945  11.6110  12.7904  15.0753  15.5450

          k =-0.3333 0.5000-0.1667 (  8857 PWs)   bands (ev):

   -33.9401 -15.0061 -14.9480 -14.9374  -5.3500   3.3099   4.7564   4.9204
     9.7190  10.7738  11.2416  11.3688  11.9022  13.1434  14.5061  15.3026

          k = 0.5833-0.4167 0.7500 (  8852 PWs)   bands (ev):

   -33.9390 -15.0214 -14.9491 -14.9401  -5.2413   2.9855   4.5661   4.7752
    10.0719  11.1508  11.3324  11.6934  12.0915  13.3368  14.1330  15.0154

          k = 0.5000-0.3333 0.6667 (  8850 PWs)   bands (ev):

   -33.9387 -15.0270 -14.9493 -14.9413  -5.2004   2.8698   4.5014   4.7243
    10.3755  10.9404  11.4496  11.7119  12.6438  12.8858  14.3148  14.7957

          k =-0.1667 0.5000 0.0000 (  8868 PWs)   bands (ev):

   -33.9410 -14.9830 -14.9482 -14.9413  -5.4753   3.7244   5.1274   5.1409
     8.9542  10.4439  10.7599  11.1034  11.3963  13.6088  14.4424  15.7346

          k =-0.2500 0.5833-0.0833 (  8847 PWs)   bands (ev):

   -33.9397 -14.9977 -14.9538 -14.9436  -5.3637   3.4439   4.7757   4.9574
     9.1700  10.7732  11.2771  11.3986  11.6721  13.6419  13.8918  15.5345

          k = 0.6667-0.3333 0.8333 (  8851 PWs)   bands (ev):

   -33.9387 -15.0098 -14.9577 -14.9461  -5.2664   3.2397   4.4620   4.8068
     9.5366  11.2178  11.4201  11.6454  11.8746  13.2934  13.8558  15.4787

          k = 0.5833-0.2500 0.7500 (  8849 PWs)   bands (ev):

   -33.9382 -15.0156 -14.9611 -14.9464  -5.2116   3.1346   4.2900   4.7168
    10.0263  10.9237  11.5572  11.8204  12.1315  13.0205  14.2367  15.5130

          k = 0.5000-0.1667 0.6667 (  8840 PWs)   bands (ev):

   -33.9383 -15.0141 -14.9632 -14.9440  -5.2163   3.1443   4.2942   4.7039
    10.3769  10.7132  11.3292  11.6866  12.3037  13.1251  14.4997  15.1735

          k = 0.4167-0.0833 0.5833 (  8856 PWs)   bands (ev):

   -33.9391 -15.0064 -14.9617 -14.9402  -5.2792   3.2677   4.4703   4.7709
    10.0501  10.9224  11.2648  11.3149  12.0801  13.4463  14.3048  15.0515

          k = 0.3333 0.0000 0.5000 (  8841 PWs)   bands (ev):

   -33.9402 -14.9959 -14.9552 -14.9368  -5.3810   3.4881   4.7714   4.9107
     9.7408  10.6182  10.9165  11.2886  11.9062  13.2245  14.5649  15.2097

          k =-0.1667 0.6667-0.0000 (  8843 PWs)   bands (ev):

   -33.9391 -14.9961 -14.9562 -14.9510  -5.3572   3.4500   4.9238   4.9590
     8.6161  10.7503  11.1331  11.6314  11.6673  12.9642  14.6882  15.9087

          k = 0.7500-0.2500 0.9167 (  8849 PWs)   bands (ev):

   -33.9382 -15.0021 -14.9629 -14.9535  -5.2865   3.4049   4.5492   4.8223
     8.9208  11.0261  11.5410  11.7386  11.7517  12.5091  14.6209  15.8085

          k = 0.6667-0.1667 0.8333 (  8850 PWs)   bands (ev):

   -33.9376 -15.0034 -14.9716 -14.9532  -5.2328   3.4393   4.1667   4.7249
     9.3894  11.1982  11.4703  11.7172  11.8836  12.7684  14.5434  15.6857

          k = 0.5833-0.0833 0.7500 (  8835 PWs)   bands (ev):

   -33.9376 -15.0013 -14.9784 -14.9498  -5.2111   3.4526   3.9895   4.6775
     9.9756  10.8361  11.4083  11.6557  12.0436  13.2875  14.6496  15.2408

          k = 0.5000-0.0000 0.6667 (  8853 PWs)   bands (ev):

   -33.9382 -15.0030 -14.9745 -14.9448  -5.2281   3.3401   4.1553   4.6915
    10.4629  10.6462  11.1136  11.4268  12.4128  13.3309  14.6338  14.9395

          k = 0.8333-0.1667 1.0000 (  8848 PWs)   bands (ev):

   -33.9377 -15.0025 -14.9621 -14.9593  -5.2964   3.4292   4.8035   4.8263
     8.3966  10.9129  11.4257  11.6990  11.8341  12.0165  15.4063  16.1807

          k = 0.7500-0.0833 0.9167 (  8847 PWs)   bands (ev):

   -33.9373 -15.0004 -14.9712 -14.9594  -5.2578   3.5252   4.3828   4.7433
     8.7863  11.0980  11.4933  11.7513  11.8408  12.0895  15.2853  15.9259

          k = 0.6667 0.0000 0.8333 (  8834 PWs)   bands (ev):

   -33.9373 -14.9928 -14.9847 -14.9555  -5.2265   3.7005   3.9066   4.6929
     9.3322  11.2277  11.3874  11.6467  11.7573  12.8406  15.1618  15.3406

          k =-0.1667-1.0000 0.0000 (  8834 PWs)   bands (ev):

   -33.9371 -15.0041 -14.9643 -14.9627  -5.2800   3.4651   4.7643   4.7714
     8.3212  10.9295  11.4023  11.7233  11.8166  11.8680  15.6803  16.2778

          k = 0.6667-0.3333 1.0000 (  8849 PWs)   bands (ev):

   -33.9387 -15.0016 -14.9639 -14.9468  -5.2880   3.3729   4.5330   4.7373
     9.4594  10.8951  11.3938  11.5452  11.9420  13.3160  14.0459  15.3124

          k = 0.5833-0.2500 0.9167 (  8837 PWs)   bands (ev):

   -33.9379 -15.0035 -14.9705 -14.9509  -5.2318   3.3832   4.2448   4.6236
     9.8691  10.8865  11.2034  11.6963  12.0878  13.4086  14.2543  15.2914

          k = 0.5000-0.1667 0.8333 (  8850 PWs)   bands (ev):

   -33.9376 -15.0040 -14.9726 -14.9529  -5.2111   3.4102   4.1124   4.5875
    10.3081  10.3872  11.5708  11.7230  11.8074  13.6371  14.4235  15.4735

          k = 0.6667-0.1667 1.0000 (  8846 PWs)   bands (ev):

   -33.9375 -14.9993 -14.9703 -14.9589  -5.2469   3.5084   4.3899   4.5412
     9.2753  11.0358  11.2003  11.8163  11.9016  12.7712  14.8151  15.6061

          k = 0.5833-0.0833 0.9167 (  8841 PWs)   bands (ev):

   -33.9373 -14.9933 -14.9791 -14.9610  -5.2209   3.6866   4.0479   4.4608
     9.7644  10.7680  11.2260  11.6321  11.8387  13.6040  14.8619  15.4574

          k = 0.5000 0.0000 0.8333 (  8845 PWs)   bands (ev):

   -33.9374 -14.9935 -14.9815 -14.9571  -5.2152   3.6360   3.9954   4.4971
    10.3081  10.3226  11.2371  11.7689  11.7885  14.0815  14.4472  15.2047

          k =-0.3333-1.0000 0.0000 (  8848 PWs)   bands (ev):

   -33.9371 -14.9957 -14.9726 -14.9656  -5.2379   3.6440   4.3426   4.4134
     9.2121  11.0254  11.1985  11.6308  11.8708  12.8258  15.3211  15.7434

          k =-0.5000-1.0000 0.0000 (  8792 PWs)   bands (ev):

   -33.9371 -14.9841 -14.9841 -14.9671  -5.2166   3.9425   3.9425   4.2528
    10.2739  10.2739  11.0908  11.5588  11.8722  14.4074  14.8128  15.3494

     the Fermi energy is     6.7580 ev
     (compare with:     6.7580 eV, computed in scf)

     Writing all to output data dir out/mp-1415.save/
 
     init_run     :      0.13s CPU      0.16s WALL (       1 calls)
     electrons    :     14.09s CPU     14.44s WALL (       1 calls)

     Called by init_run:
     wfcinit      :      0.00s CPU      0.00s WALL (       1 calls)
     potinit      :      0.02s CPU      0.03s WALL (       1 calls)
     hinit0       :      0.02s CPU      0.03s WALL (       1 calls)

     Called by electrons:
     c_bands      :     14.09s CPU     14.44s WALL (       1 calls)
     v_of_rho     :      0.01s CPU      0.01s WALL (       1 calls)

     Called by c_bands:
     init_us_2    :      0.03s CPU      0.03s WALL (      72 calls)
     init_us_2:cp :      0.03s CPU      0.03s WALL (      72 calls)
     cegterg      :     13.08s CPU     13.40s WALL (     124 calls)

     Called by *egterg:
     cdiaghg      :      0.61s CPU      0.64s WALL (    1705 calls)
     h_psi        :     11.63s CPU     11.92s WALL (    1829 calls)
     g_psi        :      0.12s CPU      0.12s WALL (    1633 calls)

     Called by h_psi:
     h_psi:calbec :      0.38s CPU      0.39s WALL (    1829 calls)
     vloc_psi     :     10.90s CPU     11.17s WALL (    1829 calls)
     add_vuspsi   :      0.29s CPU      0.30s WALL (    1829 calls)

     General routines
     calbec       :      0.37s CPU      0.38s WALL (    1829 calls)
     fft          :      0.01s CPU      0.02s WALL (      10 calls)
     fftw         :      9.57s CPU      9.81s WALL (   40080 calls)
 
     Parallel routines
 
     PWSCF        :     14.58s CPU     15.29s WALL

 
   This run was terminated on:  14:31:44   3Jan2024            

=------------------------------------------------------------------------------=
   JOB DONE.
=------------------------------------------------------------------------------=
