<?xml version="1.0" encoding="ISO-8859-1"?>
<modeling>
 <generator>
  <i name="program" type="string">vasp </i>
  <i name="version" type="string">5.4.4.18Apr17-6-g9f103f2a35  </i>
  <i name="subversion" type="string">(build Aug 24 2017 11:22:49) complex            parallel </i>
  <i name="platform" type="string">LinuxIFC </i>
  <i name="date" type="string">2023 12 25 </i>
  <i name="time" type="string">13:07:39 </i>
 </generator>
 <incar>
  <i type="string" name="PREC">accurate</i>
  <i type="string" name="ALGO"> Normal</i>
  <i type="int" name="NELM">   100</i>
  <i type="int" name="IBRION">     8</i>
  <i name="EDIFF">      0.00000001</i>
  <i name="SYMPREC">      0.00000001</i>
  <i name="ENCUT">    520.00000000</i>
  <i type="logical" name="LREAL"> F  </i>
  <i type="int" name="ISMEAR">     0</i>
  <i name="SIGMA">      0.01000000</i>
  <i type="logical" name="LWAVE"> F  </i>
  <v type="int" name="KPOINT_BSE">    -1     0     0     0</v>
  <i type="int" name="NELM">   100</i>
  <i type="logical" name="LPEAD"> T  </i>
  <i type="logical" name="LEPSILON"> T  </i>
 </incar>
 <structure name="primitive_cell" >
  <crystal>
   <varray name="basis" >
    <v>      -3.69116708       0.00000000       3.69116708 </v>
    <v>       0.00000000       3.69116708       3.69116708 </v>
    <v>      -3.69116708       3.69116708       0.00000000 </v>
   </varray>
   <i name="volume">    100.58219475 </i>
   <varray name="rec_basis" >
    <v>      -0.13545851      -0.13545851       0.13545851 </v>
    <v>       0.13545851       0.13545851       0.13545851 </v>
    <v>      -0.13545851       0.13545851      -0.13545851 </v>
   </varray>
  </crystal>
  <varray name="positions" >
   <v>       0.00000000       0.00000000       0.00000000 </v>
   <v>       0.49999996      -0.49999996       0.49999996 </v>
  </varray>
 </structure>
 <varray name="primitive_index" >
  <v type="int" >        1 </v>
  <v type="int" >        2 </v>
 </varray>
 <kpoints>
  <generation param="Gamma">
   <v type="int" name="divisions">      12       12       12 </v>
   <v name="usershift">      0.00000000       0.00000000       0.00000000 </v>
   <v name="genvec1">      0.08333333       0.00000000       0.00000000 </v>
   <v name="genvec2">      0.00000000       0.08333333      -0.00000000 </v>
   <v name="genvec3">     -0.00000000      -0.00000000       0.08333333 </v>
   <v name="shift">      0.00000000       0.00000000       0.00000000 </v>
  </generation>
  <varray name="kpointlist" >
   <v>       0.00000000       0.00000000       0.00000000 </v>
   <v>       0.08333333       0.00000000       0.00000000 </v>
   <v>       0.16666667      -0.00000000      -0.00000000 </v>
   <v>       0.25000000      -0.00000000      -0.00000000 </v>
   <v>       0.33333333      -0.00000000      -0.00000000 </v>
   <v>       0.41666667      -0.00000000      -0.00000000 </v>
   <v>       0.50000000      -0.00000000      -0.00000000 </v>
   <v>       0.08333333       0.08333333      -0.00000000 </v>
   <v>       0.16666667       0.08333333      -0.00000000 </v>
   <v>       0.25000000       0.08333333      -0.00000000 </v>
   <v>       0.33333333       0.08333333      -0.00000000 </v>
   <v>       0.41666667       0.08333333      -0.00000000 </v>
   <v>       0.50000000       0.08333333      -0.00000000 </v>
   <v>      -0.41666667       0.08333333       0.00000000 </v>
   <v>      -0.33333333       0.08333333       0.00000000 </v>
   <v>      -0.25000000       0.08333333       0.00000000 </v>
   <v>      -0.16666667       0.08333333       0.00000000 </v>
   <v>      -0.08333333       0.08333333      -0.00000000 </v>
   <v>       0.16666667       0.16666667      -0.00000000 </v>
   <v>       0.25000000       0.16666667      -0.00000000 </v>
   <v>       0.33333333       0.16666667      -0.00000000 </v>
   <v>       0.41666667       0.16666667      -0.00000000 </v>
   <v>       0.50000000       0.16666667      -0.00000000 </v>
   <v>      -0.41666667       0.16666667      -0.00000000 </v>
   <v>      -0.33333333       0.16666667       0.00000000 </v>
   <v>      -0.25000000       0.16666667       0.00000000 </v>
   <v>      -0.16666667       0.16666667       0.00000000 </v>
   <v>       0.25000000       0.25000000      -0.00000000 </v>
   <v>       0.33333333       0.25000000      -0.00000000 </v>
   <v>       0.41666667       0.25000000      -0.00000000 </v>
   <v>       0.50000000       0.25000000      -0.00000000 </v>
   <v>      -0.41666667       0.25000000      -0.00000000 </v>
   <v>      -0.33333333       0.25000000       0.00000000 </v>
   <v>      -0.25000000       0.25000000       0.00000000 </v>
   <v>       0.33333333       0.33333333      -0.00000000 </v>
   <v>       0.41666667       0.33333333       0.00000000 </v>
   <v>       0.50000000       0.33333333      -0.00000000 </v>
   <v>      -0.41666667       0.33333333      -0.00000000 </v>
   <v>      -0.33333333       0.33333333       0.00000000 </v>
   <v>       0.41666667       0.41666667      -0.00000000 </v>
   <v>       0.50000000       0.41666667       0.00000000 </v>
   <v>      -0.41666667       0.41666667       0.00000000 </v>
   <v>       0.50000000       0.50000000      -0.00000000 </v>
   <v>       0.08333333       0.00000000       0.08333333 </v>
   <v>       0.16666667       0.00000000       0.08333333 </v>
   <v>       0.25000000      -0.00000000       0.08333333 </v>
   <v>       0.33333333      -0.00000000       0.08333333 </v>
   <v>       0.41666667      -0.00000000       0.08333333 </v>
   <v>       0.50000000      -0.00000000       0.08333333 </v>
   <v>      -0.41666667       0.00000000       0.08333333 </v>
   <v>      -0.33333333       0.00000000       0.08333333 </v>
   <v>      -0.25000000       0.00000000       0.08333333 </v>
   <v>      -0.16666667       0.00000000       0.08333333 </v>
   <v>      -0.08333333      -0.00000000       0.08333333 </v>
   <v>       0.25000000       0.16666667       0.08333333 </v>
   <v>       0.33333333       0.16666667       0.08333333 </v>
   <v>       0.41666667       0.16666667       0.08333333 </v>
   <v>       0.50000000       0.16666667       0.08333333 </v>
   <v>      -0.41666667       0.16666667       0.08333333 </v>
   <v>       0.16666667       0.25000000       0.08333333 </v>
   <v>       0.33333333       0.25000000       0.08333333 </v>
   <v>       0.41666667       0.25000000       0.08333333 </v>
   <v>       0.50000000       0.25000000       0.08333333 </v>
   <v>      -0.41666667       0.25000000       0.08333333 </v>
   <v>      -0.33333333       0.25000000       0.08333333 </v>
   <v>      -0.25000000       0.25000000       0.08333333 </v>
   <v>      -0.16666667       0.25000000       0.08333333 </v>
   <v>       0.16666667       0.33333333       0.08333333 </v>
   <v>       0.25000000       0.33333333       0.08333333 </v>
   <v>       0.41666667       0.33333333       0.08333333 </v>
   <v>       0.50000000       0.33333333       0.08333333 </v>
   <v>      -0.41666667       0.33333333       0.08333333 </v>
   <v>      -0.33333333       0.33333333       0.08333333 </v>
   <v>      -0.25000000       0.33333333       0.08333333 </v>
   <v>       0.16666667       0.41666667       0.08333333 </v>
   <v>       0.25000000       0.41666667       0.08333333 </v>
   <v>       0.33333333       0.41666667       0.08333333 </v>
   <v>       0.50000000       0.41666667       0.08333333 </v>
   <v>      -0.41666667       0.41666667       0.08333333 </v>
   <v>      -0.33333333       0.41666667       0.08333333 </v>
   <v>       0.16666667       0.50000000       0.08333333 </v>
   <v>       0.25000000       0.50000000       0.08333333 </v>
   <v>       0.33333333       0.50000000       0.08333333 </v>
   <v>       0.41666667       0.50000000       0.08333333 </v>
   <v>      -0.41666667       0.50000000       0.08333333 </v>
   <v>       0.16666667      -0.41666667       0.08333333 </v>
   <v>       0.25000000      -0.41666667       0.08333333 </v>
   <v>       0.33333333      -0.41666667       0.08333333 </v>
   <v>       0.41666667      -0.41666667       0.08333333 </v>
   <v>       0.50000000      -0.41666667       0.08333333 </v>
   <v>       0.16666667      -0.33333333       0.08333333 </v>
   <v>       0.25000000      -0.33333333       0.08333333 </v>
   <v>       0.33333333      -0.33333333       0.08333333 </v>
   <v>       0.41666667      -0.33333333       0.08333333 </v>
   <v>       0.16666667      -0.25000000       0.08333333 </v>
   <v>       0.25000000      -0.25000000       0.08333333 </v>
   <v>       0.33333333      -0.25000000       0.08333333 </v>
   <v>       0.16666667      -0.16666667       0.08333333 </v>
   <v>       0.25000000      -0.16666667       0.08333333 </v>
   <v>       0.16666667      -0.08333333       0.08333333 </v>
   <v>       0.16666667      -0.00000000       0.16666667 </v>
   <v>       0.25000000       0.00000000       0.16666667 </v>
   <v>       0.33333333       0.00000000       0.16666667 </v>
   <v>       0.41666667      -0.00000000       0.16666667 </v>
   <v>       0.50000000      -0.00000000       0.16666667 </v>
   <v>      -0.41666667      -0.00000000       0.16666667 </v>
   <v>      -0.33333333      -0.00000000       0.16666667 </v>
   <v>      -0.25000000       0.00000000       0.16666667 </v>
   <v>      -0.16666667       0.00000000       0.16666667 </v>
   <v>       0.50000000       0.33333333       0.16666667 </v>
   <v>      -0.41666667       0.33333333       0.16666667 </v>
   <v>      -0.33333333       0.33333333       0.16666667 </v>
   <v>       0.25000000       0.41666667       0.16666667 </v>
   <v>      -0.41666667       0.41666667       0.16666667 </v>
   <v>      -0.33333333       0.41666667       0.16666667 </v>
   <v>      -0.25000000       0.41666667       0.16666667 </v>
   <v>       0.25000000       0.50000000       0.16666667 </v>
   <v>       0.33333333       0.50000000       0.16666667 </v>
   <v>      -0.33333333       0.50000000       0.16666667 </v>
   <v>       0.25000000      -0.41666667       0.16666667 </v>
   <v>       0.33333333      -0.41666667       0.16666667 </v>
   <v>       0.41666667      -0.41666667       0.16666667 </v>
   <v>       0.25000000      -0.33333333       0.16666667 </v>
   <v>       0.33333333      -0.33333333       0.16666667 </v>
   <v>       0.41666667      -0.33333333       0.16666667 </v>
   <v>       0.50000000      -0.33333333       0.16666667 </v>
   <v>       0.25000000      -0.25000000       0.16666667 </v>
   <v>       0.33333333      -0.25000000       0.16666667 </v>
   <v>       0.41666667      -0.25000000       0.16666667 </v>
   <v>       0.25000000      -0.16666667       0.16666667 </v>
   <v>       0.33333333      -0.16666667       0.16666667 </v>
   <v>       0.25000000      -0.08333333       0.16666667 </v>
   <v>       0.25000000      -0.00000000       0.25000000 </v>
   <v>       0.33333333      -0.00000000       0.25000000 </v>
   <v>       0.41666667      -0.00000000       0.25000000 </v>
   <v>       0.50000000      -0.00000000       0.25000000 </v>
   <v>      -0.41666667      -0.00000000       0.25000000 </v>
   <v>      -0.33333333       0.00000000       0.25000000 </v>
   <v>      -0.25000000       0.00000000       0.25000000 </v>
   <v>      -0.25000000       0.50000000       0.25000000 </v>
   <v>       0.33333333      -0.41666667       0.25000000 </v>
   <v>       0.33333333      -0.33333333       0.25000000 </v>
   <v>       0.41666667      -0.33333333       0.25000000 </v>
   <v>       0.33333333      -0.25000000       0.25000000 </v>
   <v>       0.41666667      -0.25000000       0.25000000 </v>
   <v>       0.50000000      -0.25000000       0.25000000 </v>
   <v>       0.33333333      -0.16666667       0.25000000 </v>
   <v>       0.41666667      -0.16666667       0.25000000 </v>
   <v>       0.33333333      -0.08333333       0.25000000 </v>
   <v>       0.33333333      -0.00000000       0.33333333 </v>
   <v>       0.41666667       0.00000000       0.33333333 </v>
   <v>       0.50000000      -0.00000000       0.33333333 </v>
   <v>      -0.41666667      -0.00000000       0.33333333 </v>
   <v>      -0.33333333       0.00000000       0.33333333 </v>
   <v>       0.41666667      -0.25000000       0.33333333 </v>
   <v>       0.41666667      -0.16666667       0.33333333 </v>
   <v>       0.50000000      -0.16666667       0.33333333 </v>
   <v>       0.41666667      -0.08333333       0.33333333 </v>
   <v>       0.41666667      -0.00000000       0.41666667 </v>
   <v>       0.50000000      -0.00000000       0.41666667 </v>
   <v>      -0.41666667       0.00000000       0.41666667 </v>
   <v>       0.50000000      -0.08333333       0.41666667 </v>
   <v>       0.50000000      -0.00000000       0.50000000 </v>
  </varray>
  <varray name="weights" >
   <v>       0.00057870 </v>
   <v>       0.00462963 </v>
   <v>       0.00462963 </v>
   <v>       0.00462963 </v>
   <v>       0.00462963 </v>
   <v>       0.00462963 </v>
   <v>       0.00231481 </v>
   <v>       0.00231481 </v>
   <v>       0.00925926 </v>
   <v>       0.00925926 </v>
   <v>       0.00925926 </v>
   <v>       0.00925926 </v>
   <v>       0.00925926 </v>
   <v>       0.00925926 </v>
   <v>       0.00925926 </v>
   <v>       0.00925926 </v>
   <v>       0.00925926 </v>
   <v>       0.00462963 </v>
   <v>       0.00231481 </v>
   <v>       0.00925926 </v>
   <v>       0.00925926 </v>
   <v>       0.00925926 </v>
   <v>       0.00925926 </v>
   <v>       0.00925926 </v>
   <v>       0.00925926 </v>
   <v>       0.00925926 </v>
   <v>       0.00462963 </v>
   <v>       0.00231481 </v>
   <v>       0.00925926 </v>
   <v>       0.00925926 </v>
   <v>       0.00925926 </v>
   <v>       0.00925926 </v>
   <v>       0.00925926 </v>
   <v>       0.00462963 </v>
   <v>       0.00231481 </v>
   <v>       0.00925926 </v>
   <v>       0.00925926 </v>
   <v>       0.00925926 </v>
   <v>       0.00462963 </v>
   <v>       0.00231481 </v>
   <v>       0.00925926 </v>
   <v>       0.00462963 </v>
   <v>       0.00115741 </v>
   <v>       0.00115741 </v>
   <v>       0.00462963 </v>
   <v>       0.00462963 </v>
   <v>       0.00462963 </v>
   <v>       0.00462963 </v>
   <v>       0.00462963 </v>
   <v>       0.00462963 </v>
   <v>       0.00462963 </v>
   <v>       0.00462963 </v>
   <v>       0.00462963 </v>
   <v>       0.00231481 </v>
   <v>       0.00462963 </v>
   <v>       0.00925926 </v>
   <v>       0.00925926 </v>
   <v>       0.00925926 </v>
   <v>       0.00462963 </v>
   <v>       0.00462963 </v>
   <v>       0.00462963 </v>
   <v>       0.00925926 </v>
   <v>       0.00925926 </v>
   <v>       0.00925926 </v>
   <v>       0.00925926 </v>
   <v>       0.00925926 </v>
   <v>       0.00462963 </v>
   <v>       0.00925926 </v>
   <v>       0.00462963 </v>
   <v>       0.00462963 </v>
   <v>       0.00925926 </v>
   <v>       0.00925926 </v>
   <v>       0.00925926 </v>
   <v>       0.00462963 </v>
   <v>       0.00925926 </v>
   <v>       0.00925926 </v>
   <v>       0.00462963 </v>
   <v>       0.00462963 </v>
   <v>       0.00925926 </v>
   <v>       0.00462963 </v>
   <v>       0.00925926 </v>
   <v>       0.00925926 </v>
   <v>       0.00925926 </v>
   <v>       0.00462963 </v>
   <v>       0.00231481 </v>
   <v>       0.00925926 </v>
   <v>       0.00925926 </v>
   <v>       0.00925926 </v>
   <v>       0.00925926 </v>
   <v>       0.00231481 </v>
   <v>       0.00925926 </v>
   <v>       0.00925926 </v>
   <v>       0.00925926 </v>
   <v>       0.00462963 </v>
   <v>       0.00925926 </v>
   <v>       0.00925926 </v>
   <v>       0.00462963 </v>
   <v>       0.00925926 </v>
   <v>       0.00462963 </v>
   <v>       0.00462963 </v>
   <v>       0.00115741 </v>
   <v>       0.00462963 </v>
   <v>       0.00462963 </v>
   <v>       0.00462963 </v>
   <v>       0.00462963 </v>
   <v>       0.00462963 </v>
   <v>       0.00462963 </v>
   <v>       0.00462963 </v>
   <v>       0.00231481 </v>
   <v>       0.00462963 </v>
   <v>       0.00925926 </v>
   <v>       0.00462963 </v>
   <v>       0.00462963 </v>
   <v>       0.00462963 </v>
   <v>       0.00925926 </v>
   <v>       0.00462963 </v>
   <v>       0.00925926 </v>
   <v>       0.00462963 </v>
   <v>       0.00231481 </v>
   <v>       0.00925926 </v>
   <v>       0.00925926 </v>
   <v>       0.00462963 </v>
   <v>       0.00925926 </v>
   <v>       0.00925926 </v>
   <v>       0.00925926 </v>
   <v>       0.00231481 </v>
   <v>       0.00925926 </v>
   <v>       0.00925926 </v>
   <v>       0.00462963 </v>
   <v>       0.00925926 </v>
   <v>       0.00462963 </v>
   <v>       0.00462963 </v>
   <v>       0.00115741 </v>
   <v>       0.00462963 </v>
   <v>       0.00462963 </v>
   <v>       0.00462963 </v>
   <v>       0.00462963 </v>
   <v>       0.00462963 </v>
   <v>       0.00231481 </v>
   <v>       0.00115741 </v>
   <v>       0.00462963 </v>
   <v>       0.00925926 </v>
   <v>       0.00462963 </v>
   <v>       0.00925926 </v>
   <v>       0.00925926 </v>
   <v>       0.00231481 </v>
   <v>       0.00925926 </v>
   <v>       0.00462963 </v>
   <v>       0.00462963 </v>
   <v>       0.00115741 </v>
   <v>       0.00462963 </v>
   <v>       0.00462963 </v>
   <v>       0.00462963 </v>
   <v>       0.00231481 </v>
   <v>       0.00462963 </v>
   <v>       0.00925926 </v>
   <v>       0.00231481 </v>
   <v>       0.00462963 </v>
   <v>       0.00115741 </v>
   <v>       0.00462963 </v>
   <v>       0.00231481 </v>
   <v>       0.00231481 </v>
   <v>       0.00057870 </v>
  </varray>
 </kpoints>
 <parameters>
  <separator name="general" >
   <i type="string" name="SYSTEM">unknown system</i>
   <i type="logical" name="LCOMPAT"> F  </i>
  </separator>
  <separator name="electronic" >
   <i type="string" name="PREC">accura</i>
   <i name="ENMAX">    520.00000000</i>
   <i name="ENAUG">    423.86100000</i>
   <i name="EDIFF">      0.00000001</i>
   <i type="int" name="IALGO">    38</i>
   <i type="int" name="IWAVPR">    11</i>
   <i type="int" name="NBANDS">    16</i>
   <i name="NELECT">     16.00000000</i>
   <i type="int" name="TURBO">     0</i>
   <i type="int" name="IRESTART">     0</i>
   <i type="int" name="NREBOOT">     0</i>
   <i type="int" name="NMIN">     0</i>
   <i name="EREF">      0.00000000</i>
   <separator name="electronic smearing" >
    <i type="int" name="ISMEAR">     0</i>
    <i name="SIGMA">      0.01000000</i>
    <i name="KSPACING">      0.50000000</i>
    <i type="logical" name="KGAMMA"> T  </i>
   </separator>
   <separator name="electronic projectors" >
    <i type="logical" name="LREAL"> F  </i>
    <v name="ROPT">      0.00000000      0.00000000</v>
    <i type="int" name="LMAXPAW">  -100</i>
    <i type="int" name="LMAXMIX">     2</i>
    <i type="logical" name="NLSPLINE"> F  </i>
   </separator>
   <separator name="electronic startup" >
    <i type="int" name="ISTART">     0</i>
    <i type="int" name="ICHARG">     2</i>
    <i type="int" name="INIWAV">     1</i>
   </separator>
   <separator name="electronic spin" >
    <i type="int" name="ISPIN">     1</i>
    <i type="logical" name="LNONCOLLINEAR"> F  </i>
    <v name="MAGMOM">      1.00000000      1.00000000</v>
    <i name="NUPDOWN">     -1.00000000</i>
    <i type="logical" name="LSORBIT"> F  </i>
    <v name="SAXIS">      0.00000000      0.00000000      1.00000000</v>
    <i type="logical" name="LSPIRAL"> F  </i>
    <v name="QSPIRAL">      0.00000000      0.00000000      0.00000000</v>
    <i type="logical" name="LZEROZ"> F  </i>
   </separator>
   <separator name="electronic exchange-correlation" >
    <i type="logical" name="LASPH"> F  </i>
    <i type="logical" name="LMETAGGA"> F  </i>
   </separator>
   <separator name="electronic convergence" >
    <i type="int" name="NELM">   100</i>
    <i type="int" name="NELMDL">    -5</i>
    <i type="int" name="NELMIN">     2</i>
    <i name="ENINI">    520.00000000</i>
    <separator name="electronic convergence detail" >
     <i type="logical" name="LDIAG"> T  </i>
     <i type="logical" name="LSUBROT"> F  </i>
     <i name="WEIMIN">      0.00100000</i>
     <i name="EBREAK">      0.00000000</i>
     <i name="DEPER">      0.30000000</i>
     <i type="int" name="NRMM">     4</i>
     <i name="TIME">      0.40000000</i>
    </separator>
   </separator>
   <separator name="electronic mixer" >
    <i name="AMIX">      0.40000000</i>
    <i name="BMIX">      1.00000000</i>
    <i name="AMIN">      0.10000000</i>
    <i name="AMIX_MAG">      1.60000000</i>
    <i name="BMIX_MAG">      1.00000000</i>
    <separator name="electronic mixer details" >
     <i type="int" name="IMIX">     4</i>
     <i type="logical" name="MIXFIRST"> F  </i>
     <i type="int" name="MAXMIX">   -45</i>
     <i name="WC">    100.00000000</i>
     <i type="int" name="INIMIX">     1</i>
     <i type="int" name="MIXPRE">     1</i>
     <i type="int" name="MREMOVE">     5</i>
    </separator>
   </separator>
   <separator name="electronic dipolcorrection" >
    <i type="logical" name="LDIPOL"> F  </i>
    <i type="logical" name="LMONO"> F  </i>
    <i type="int" name="IDIPOL">     0</i>
    <i name="EPSILON">      1.00000000</i>
    <v name="DIPOL">   -100.00000000   -100.00000000   -100.00000000</v>
    <i name="EFIELD">      0.00000000</i>
   </separator>
  </separator>
  <separator name="grids" >
   <i type="int" name="NGX">    40</i>
   <i type="int" name="NGY">    40</i>
   <i type="int" name="NGZ">    40</i>
   <i type="int" name="NGXF">    80</i>
   <i type="int" name="NGYF">    80</i>
   <i type="int" name="NGZF">    80</i>
   <i type="logical" name="ADDGRID"> F  </i>
  </separator>
  <separator name="ionic" >
   <i type="int" name="NSW">     1</i>
   <i type="int" name="IBRION">     8</i>
   <i type="int" name="MDALGO">     0</i>
   <i type="int" name="ISIF">     2</i>
   <i name="PSTRESS">      0.00000000</i>
   <i name="EDIFFG">      0.00000010</i>
   <i type="int" name="NFREE">     0</i>
   <i name="POTIM">      0.50000000</i>
   <i name="SMASS">     -3.00000000</i>
   <i name="SCALEE">      1.00000000</i>
  </separator>
  <separator name="ionic md" >
   <i name="TEBEG">      0.00010000</i>
   <i name="TEEND">      0.00010000</i>
   <i type="int" name="NBLOCK">     1</i>
   <i type="int" name="KBLOCK">     1</i>
   <i type="int" name="NPACO">   256</i>
   <i name="APACO">     16.00000000</i>
  </separator>
  <separator name="symmetry" >
   <i type="int" name="ISYM">     2</i>
   <i name="SYMPREC">      0.00000001</i>
  </separator>
  <separator name="dos" >
   <i type="int" name="LORBIT">     0</i>
   <v name="RWIGS">     -1.00000000     -1.00000000</v>
   <i type="int" name="NEDOS">   301</i>
   <i name="EMIN">     10.00000000</i>
   <i name="EMAX">    -10.00000000</i>
   <i name="EFERMI">      0.00000000</i>
  </separator>
  <separator name="writing" >
   <i type="int" name="NWRITE">     2</i>
   <i type="logical" name="LWAVE"> F  </i>
   <i type="logical" name="LDOWNSAMPLE"> F  </i>
   <i type="logical" name="LCHARG"> T  </i>
   <i type="logical" name="LPARD"> F  </i>
   <i type="logical" name="LVTOT"> F  </i>
   <i type="logical" name="LVHAR"> F  </i>
   <i type="logical" name="LELF"> F  </i>
   <i type="logical" name="LOPTICS"> F  </i>
   <v name="STM">      0.00000000      0.00000000      0.00000000      0.00000000      0.00000000      0.00000000      0.00000000</v>
  </separator>
  <separator name="performance" >
   <i type="int" name="NPAR">     8</i>
   <i type="int" name="NSIM">     4</i>
   <i type="int" name="NBLK">    -1</i>
   <i type="logical" name="LPLANE"> T  </i>
   <i type="logical" name="LSCALAPACK"> T  </i>
   <i type="logical" name="LSCAAWARE"> F  </i>
   <i type="logical" name="LSCALU"> F  </i>
   <i type="logical" name="LASYNC"> F  </i>
   <i type="logical" name="LORBITALREAL"> F  </i>
  </separator>
  <separator name="miscellaneous" >
   <i type="int" name="IDIOT">     3</i>
   <i type="int" name="ISPECIAL">     0</i>
   <i type="logical" name="LMUSIC"> F  </i>
   <v name="POMASS">     85.46800000    126.90400000</v>
   <v name="DARWINR">      0.00000000      0.00000000</v>
   <v name="DARWINV">      1.00000000      1.00000000</v>
   <i type="logical" name="LCORR"> T  </i>
  </separator>
  <i type="logical" name="GGA_COMPAT"> T  </i>
  <i type="logical" name="LBERRY"> F  </i>
  <i type="int" name="ICORELEVEL">     0</i>
  <i type="logical" name="LDAU"> F  </i>
  <i type="int" name="I_CONSTRAINED_M">     0</i>
  <separator name="electronic exchange-correlation" >
   <i type="string" name="GGA">--</i>
   <i type="int" name="VOSKOWN">     0</i>
   <i type="logical" name="LHFCALC"> F  </i>
   <i type="string" name="PRECFOCK"></i>
   <i type="logical" name="LSYMGRAD"> F  </i>
   <i type="logical" name="LHFONE"> F  </i>
   <i type="logical" name="LRHFCALC"> F  </i>
   <i type="logical" name="LTHOMAS"> F  </i>
   <i type="logical" name="LMODELHF"> F  </i>
   <i name="ENCUT4O">     -1.00000000</i>
   <i type="int" name="EXXOEP">     0</i>
   <i type="int" name="FOURORBIT">     0</i>
   <i name="AEXX">      0.00000000</i>
   <i name="HFALPHA">      0.00000000</i>
   <i name="MCALPHA">      0.00000000</i>
   <i name="ALDAX">      1.00000000</i>
   <i name="AGGAX">      1.00000000</i>
   <i name="ALDAC">      1.00000000</i>
   <i name="AGGAC">      1.00000000</i>
   <i type="int" name="NKREDX">     1</i>
   <i type="int" name="NKREDY">     1</i>
   <i type="int" name="NKREDZ">     1</i>
   <i type="logical" name="SHIFTRED"> F  </i>
   <i type="logical" name="ODDONLY"> F  </i>
   <i type="logical" name="EVENONLY"> F  </i>
   <i type="int" name="LMAXFOCK">     0</i>
   <i type="int" name="NMAXFOCKAE">     0</i>
   <i type="logical" name="LFOCKAEDFT"> F  </i>
   <i name="HFSCREEN">      0.00000000</i>
   <i name="HFSCREENC">      0.00000000</i>
   <i type="int" name="NBANDSGWLOW">     0</i>
  </separator>
  <separator name="vdW DFT" >
   <i type="logical" name="LUSE_VDW"> F  </i>
   <i name="Zab_VDW">     -0.84910000</i>
   <i name="PARAM1">      0.12340000</i>
   <i name="PARAM2">      1.00000000</i>
   <i name="PARAM3">      0.00000000</i>
  </separator>
  <separator name="model GW" >
   <i type="int" name="MODEL_GW">     0</i>
   <i name="MODEL_EPS0">     30.17465843</i>
   <i name="MODEL_ALPHA">      1.00000000</i>
  </separator>
  <separator name="linear response parameters" >
   <i type="logical" name="LEPSILON"> T  </i>
   <i type="logical" name="LRPA"> F  </i>
   <i type="logical" name="LNABLA"> F  </i>
   <i type="logical" name="LVEL"> F  </i>
   <i type="int" name="KINTER">     0</i>
   <i name="CSHIFT">      0.10000000</i>
   <i name="OMEGAMAX">     -1.00000000</i>
   <i name="DEG_THRESHOLD">      0.00200000</i>
   <i name="RTIME">     -0.10000000</i>
   <i name="WPLASMAI">      0.00000000</i>
   <v name="DFIELD">      0.00000000      0.00000000      0.00000000</v>
   <v name="WPLASMA">      0.00000000      0.00000000      0.00000000      0.00000000      0.00000000      0.00000000      0.00000000      0.00000000      0.00000000</v>
  </separator>
  <separator name="orbital magnetization" >
   <i type="logical" name="NUCIND"> F  </i>
   <v name="MAGPOS">      0.00000000      0.00000000      0.00000000</v>
   <i type="logical" name="LNICSALL"> T  </i>
   <i type="logical" name="ORBITALMAG"> F  </i>
   <i type="logical" name="LMAGBLOCH"> F  </i>
   <i type="logical" name="LCHIMAG"> F  </i>
   <i type="logical" name="LGAUGE"> T  </i>
   <i type="int" name="MAGATOM">     0</i>
   <v name="MAGDIPOL">      0.00000000      0.00000000      0.00000000</v>
   <v name="AVECCONST">      0.00000000      0.00000000      0.00000000</v>
  </separator>
  <separator name="response functions" >
   <i type="logical" name="LADDER"> F  </i>
   <i type="logical" name="LRPAFORCE"> F  </i>
   <i type="logical" name="LFXC"> F  </i>
   <i type="logical" name="LHARTREE"> T  </i>
   <i type="int" name="IBSE">     0</i>
   <v type="int" name="KPOINT">    -1     0     0     0</v>
   <i type="logical" name="LTCTE"> F  </i>
   <i type="logical" name="LTETE"> F  </i>
   <i type="logical" name="LTRIPLET"> F  </i>
   <i type="logical" name="LFXCEPS"> F  </i>
   <i type="logical" name="LFXHEG"> F  </i>
   <i type="int" name="NATURALO">     2</i>
   <i type="logical" name="L2ORDER"> F  </i>
   <i type="logical" name="LMP2LT"> F  </i>
   <i type="logical" name="LUSEW"> F  </i>
   <i name="ENCUTGW">     -2.00000000</i>
   <i name="ENCUTGWSOFT">     -2.00000000</i>
   <i name="ENCUTLF">     -1.00000000</i>
   <i type="int" name="LMAXMP2">    -1</i>
   <i name="SCISSOR">      0.00000000</i>
   <i type="int" name="NOMEGA">     0</i>
   <i type="int" name="NOMEGAR">     0</i>
   <i type="int" name="NBANDSGW">    -1</i>
   <i type="int" name="NBANDSO">    -1</i>
   <i type="int" name="NBANDSV">    -1</i>
   <i type="int" name="NELM">   100</i>
   <i type="int" name="NELMHF">     1</i>
   <i type="int" name="DIM">     3</i>
   <i type="int" name="ANTIRES">     0</i>
   <i name="OMEGAMAX">    -30.00000000</i>
   <i name="OMEGAMIN">    -30.00000000</i>
   <i name="OMEGATL">   -200.00000000</i>
   <i type="int" name="OMEGAGRID">   140</i>
   <i name="CSHIFT">     -0.10000000</i>
   <i type="logical" name="SELFENERGY"> F  </i>
   <i type="logical" name="LSPECTRAL"> F  </i>
   <i type="logical" name="LSPECTRALGW"> F  </i>
   <i type="logical" name="LSINGLES"> F  </i>
   <i type="logical" name="LFERMIGW"> F  </i>
   <i type="logical" name="ODDONLYGW"> F  </i>
   <i type="logical" name="EVENONLYGW"> F  </i>
   <i type="int" name="NKREDLFX">     1</i>
   <i type="int" name="NKREDLFY">     1</i>
   <i type="int" name="NKREDLFZ">     1</i>
   <i type="int" name="MAXMEM">  2800</i>
   <i type="int" name="TELESCOPE">     0</i>
   <i type="int" name="TAUPAR">     1</i>
   <i type="int" name="OMEGAPAR">    -1</i>
   <i name="LAMBDA">      1.00000000</i>
  </separator>
  <separator name="External order field" >
   <i name="OFIELD_KAPPA">      0.00000000</i>
   <v name="OFIELD_K">      0.00000000      0.00000000      0.00000000</v>
   <i name="OFIELD_Q6_NEAR">      0.00000000</i>
   <i name="OFIELD_Q6_FAR">      0.00000000</i>
   <i name="OFIELD_A">      0.00000000</i>
  </separator>
 </parameters>
 <atominfo>
  <atoms>       2 </atoms>
  <types>       2 </types>
  <array name="atoms" >
   <dimension dim="1">ion</dimension>
   <field type="string">element</field>
   <field type="int">atomtype</field>
   <set>
    <rc><c>Rb</c><c>   1</c></rc>
    <rc><c>I </c><c>   2</c></rc>
   </set>
  </array>
  <array name="atomtypes" >
   <dimension dim="1">type</dimension>
   <field type="int">atomspertype</field>
   <field type="string">element</field>
   <field>mass</field>
   <field>valence</field>
   <field type="string">pseudopotential</field>
   <set>
    <rc><c>   1</c><c>Rb</c><c>     85.46800000</c><c>      9.00000000</c><c>  PAW_PBE Rb_sv 06Sep2000               </c></rc>
    <rc><c>   1</c><c>I </c><c>    126.90400000</c><c>      7.00000000</c><c>  PAW_PBE I 08Apr2002                   </c></rc>
   </set>
  </array>
 </atominfo>
 <structure name="initialpos" >
  <crystal>
   <varray name="basis" >
    <v>      -3.69116708       0.00000000       3.69116708 </v>
    <v>       0.00000000       3.69116708       3.69116708 </v>
    <v>      -3.69116708       3.69116708       0.00000000 </v>
   </varray>
   <i name="volume">    100.58219475 </i>
   <varray name="rec_basis" >
    <v>      -0.13545851      -0.13545851       0.13545851 </v>
    <v>       0.13545851       0.13545851       0.13545851 </v>
    <v>      -0.13545851       0.13545851      -0.13545851 </v>
   </varray>
  </crystal>
  <varray name="positions" >
   <v>       0.00000000       0.00000000       0.00000000 </v>
   <v>       0.49999996       0.50000004       0.49999996 </v>
  </varray>
 </structure>
 <calculation>
  <scstep>
   <time name="dav">    2.19    2.20</time>
   <time name="total">    2.24    2.25</time>
   <energy>
    <i name="alphaZ">     30.64702042 </i>
    <i name="ewald">   -715.21533181 </i>
    <i name="hartreedc">   -202.34676449 </i>
    <i name="XCdc">     15.42969209 </i>
    <i name="pawpsdc">    777.04971776 </i>
    <i name="pawaedc">   -746.24344988 </i>
    <i name="eentropy">     -0.00006855 </i>
    <i name="bandstr">    -59.32479933 </i>
    <i name="atom">    978.36977699 </i>
    <i name="e_fr_energy">     78.36579319 </i>
    <i name="e_wo_entrp">     78.36586174 </i>
    <i name="e_0_energy">     78.36582747 </i>
   </energy>
  </scstep>
  <scstep>
   <time name="dav">    2.63    2.64</time>
   <time name="total">    2.63    2.64</time>
   <energy>
    <i name="e_fr_energy">      0.39706364 </i>
    <i name="e_wo_entrp">      0.39706364 </i>
    <i name="e_0_energy">      0.39706364 </i>
   </energy>
  </scstep>
  <scstep>
   <time name="dav">    2.73    2.74</time>
   <time name="total">    2.73    2.74</time>
   <energy>
    <i name="e_fr_energy">     -5.38883661 </i>
    <i name="e_wo_entrp">     -5.38883661 </i>
    <i name="e_0_energy">     -5.38883661 </i>
   </energy>
  </scstep>
  <scstep>
   <time name="dav">    2.85    2.86</time>
   <time name="total">    2.85    2.86</time>
   <energy>
    <i name="e_fr_energy">     -5.59100202 </i>
    <i name="e_wo_entrp">     -5.59100202 </i>
    <i name="e_0_energy">     -5.59100202 </i>
   </energy>
  </scstep>
  <scstep>
   <time name="dav">    2.78    2.79</time>
   <time name="total">    2.92    2.93</time>
   <energy>
    <i name="e_fr_energy">     -5.59312177 </i>
    <i name="e_wo_entrp">     -5.59312177 </i>
    <i name="e_0_energy">     -5.59312177 </i>
   </energy>
  </scstep>
  <scstep>
   <time name="dav">    2.61    2.61</time>
   <time name="total">    2.78    2.79</time>
   <energy>
    <i name="e_fr_energy">     -5.48098753 </i>
    <i name="e_wo_entrp">     -5.48098753 </i>
    <i name="e_0_energy">     -5.48098753 </i>
   </energy>
  </scstep>
  <scstep>
   <time name="dav">    2.67    2.68</time>
   <time name="total">    2.84    2.85</time>
   <energy>
    <i name="e_fr_energy">     -5.47199943 </i>
    <i name="e_wo_entrp">     -5.47199943 </i>
    <i name="e_0_energy">     -5.47199943 </i>
   </energy>
  </scstep>
  <scstep>
   <time name="dav">    2.26    2.27</time>
   <time name="total">    2.43    2.44</time>
   <energy>
    <i name="e_fr_energy">     -5.48070202 </i>
    <i name="e_wo_entrp">     -5.48070202 </i>
    <i name="e_0_energy">     -5.48070202 </i>
   </energy>
  </scstep>
  <scstep>
   <time name="dav">    2.84    2.85</time>
   <time name="total">    3.01    3.02</time>
   <energy>
    <i name="e_fr_energy">     -5.48073981 </i>
    <i name="e_wo_entrp">     -5.48073981 </i>
    <i name="e_0_energy">     -5.48073981 </i>
   </energy>
  </scstep>
  <scstep>
   <time name="dav">    2.29    2.30</time>
   <time name="total">    2.46    2.47</time>
   <energy>
    <i name="e_fr_energy">     -5.48095521 </i>
    <i name="e_wo_entrp">     -5.48095521 </i>
    <i name="e_0_energy">     -5.48095521 </i>
   </energy>
  </scstep>
  <scstep>
   <time name="dav">    2.48    2.48</time>
   <time name="total">    2.64    2.65</time>
   <energy>
    <i name="e_fr_energy">     -5.48099152 </i>
    <i name="e_wo_entrp">     -5.48099152 </i>
    <i name="e_0_energy">     -5.48099152 </i>
   </energy>
  </scstep>
  <scstep>
   <time name="dav">    2.60    2.61</time>
   <time name="total">    2.77    2.78</time>
   <energy>
    <i name="e_fr_energy">     -5.48099471 </i>
    <i name="e_wo_entrp">     -5.48099471 </i>
    <i name="e_0_energy">     -5.48099471 </i>
   </energy>
  </scstep>
  <scstep>
   <time name="dav">    2.43    2.44</time>
   <time name="total">    2.60    2.61</time>
   <energy>
    <i name="e_fr_energy">     -5.48099611 </i>
    <i name="e_wo_entrp">     -5.48099611 </i>
    <i name="e_0_energy">     -5.48099611 </i>
   </energy>
  </scstep>
  <scstep>
   <time name="dav">    2.59    2.60</time>
   <time name="total">    2.76    2.77</time>
   <energy>
    <i name="e_fr_energy">     -5.48099623 </i>
    <i name="e_wo_entrp">     -5.48099623 </i>
    <i name="e_0_energy">     -5.48099623 </i>
   </energy>
  </scstep>
  <scstep>
   <time name="dav">    2.59    2.60</time>
   <time name="total">    2.63    2.64</time>
   <energy>
    <i name="alphaZ">     30.64702042 </i>
    <i name="ewald">   -715.21533181 </i>
    <i name="hartreedc">   -205.12667515 </i>
    <i name="XCdc">     15.95176193 </i>
    <i name="pawpsdc">    883.31096354 </i>
    <i name="pawaedc">   -853.18836732 </i>
    <i name="eentropy">     -0.00000000 </i>
    <i name="bandstr">   -140.23014482 </i>
    <i name="atom">    978.36977699 </i>
    <i name="e_fr_energy">     -5.48099623 </i>
    <i name="e_wo_entrp">     -5.48099623 </i>
    <i name="e_0_energy">     -5.48099623 </i>
   </energy>
  </scstep>
  <structure>
   <crystal>
    <varray name="basis" >
     <v>      -3.69116708       0.00000000       3.69116708 </v>
     <v>       0.00000000       3.69116708       3.69116708 </v>
     <v>      -3.69116708       3.69116708       0.00000000 </v>
    </varray>
    <i name="volume">    100.58219475 </i>
    <varray name="rec_basis" >
     <v>      -0.13545851      -0.13545851       0.13545851 </v>
     <v>       0.13545851       0.13545851       0.13545851 </v>
     <v>      -0.13545851       0.13545851      -0.13545851 </v>
    </varray>
   </crystal>
   <varray name="positions" >
    <v>       0.00000000       0.00000000       0.00000000 </v>
    <v>       0.49999996       0.50000004       0.49999996 </v>
   </varray>
  </structure>
  <varray name="forces" >
   <v>       0.00000026       0.00000000      -0.00000000 </v>
   <v>      -0.00000026      -0.00000000       0.00000000 </v>
  </varray>
  <varray name="stress" >
   <v>       4.64180948       0.00000000      -0.00000000 </v>
   <v>       0.00000000       4.64180235       0.00000000 </v>
   <v>      -0.00000000       0.00000000       4.64180235 </v>
  </varray>
  <energy>
   <i name="e_fr_energy">     -5.48099623 </i>
   <i name="e_wo_entrp">     -5.48099623 </i>
   <i name="e_0_energy">     -0.00000000 </i>
  </energy>
  <scstep>
   <time name="total">    2.34    2.34</time>
   <energy>
    <i name="e_fr_energy">     -0.56925470 </i>
    <i name="e_wo_entrp">     -0.56925470 </i>
    <i name="e_0_energy">     -0.56925470 </i>
   </energy>
  </scstep>
  <scstep>
   <time name="total">    2.40    2.40</time>
   <energy>
    <i name="e_fr_energy">     -0.57979609 </i>
    <i name="e_wo_entrp">     -0.57979609 </i>
    <i name="e_0_energy">     -0.57979609 </i>
   </energy>
  </scstep>
  <scstep>
   <time name="total">    2.63    2.63</time>
   <energy>
    <i name="e_fr_energy">     -0.58252748 </i>
    <i name="e_wo_entrp">     -0.58252748 </i>
    <i name="e_0_energy">     -0.58252748 </i>
   </energy>
  </scstep>
  <scstep>
   <time name="total">    2.58    2.58</time>
   <energy>
    <i name="e_fr_energy">     -0.58283425 </i>
    <i name="e_wo_entrp">     -0.58283425 </i>
    <i name="e_0_energy">     -0.58283425 </i>
   </energy>
  </scstep>
  <scstep>
   <time name="total">    2.53    2.53</time>
   <energy>
    <i name="e_fr_energy">     -0.58286658 </i>
    <i name="e_wo_entrp">     -0.58286658 </i>
    <i name="e_0_energy">     -0.58286658 </i>
   </energy>
  </scstep>
  <scstep>
   <time name="total">    2.51    2.51</time>
   <energy>
    <i name="e_fr_energy">     -0.58287085 </i>
    <i name="e_wo_entrp">     -0.58287085 </i>
    <i name="e_0_energy">     -0.58287085 </i>
   </energy>
  </scstep>
  <scstep>
   <time name="total">    2.49    2.49</time>
   <energy>
    <i name="e_fr_energy">     -0.58287145 </i>
    <i name="e_wo_entrp">     -0.58287145 </i>
    <i name="e_0_energy">     -0.58287145 </i>
   </energy>
  </scstep>
  <scstep>
   <time name="total">    2.48    2.48</time>
   <energy>
    <i name="e_fr_energy">     -0.58287154 </i>
    <i name="e_wo_entrp">     -0.58287154 </i>
    <i name="e_0_energy">     -0.58287154 </i>
   </energy>
  </scstep>
  <scstep>
   <time name="total">    2.44    2.44</time>
   <energy>
    <i name="e_fr_energy">     -0.58287155 </i>
    <i name="e_wo_entrp">     -0.58287155 </i>
    <i name="e_0_energy">     -0.58287155 </i>
   </energy>
  </scstep>
  <scstep>
   <time name="total">    2.42    2.42</time>
   <energy>
    <i name="e_fr_energy">     -0.58287155 </i>
    <i name="e_wo_entrp">     -0.58287155 </i>
    <i name="e_0_energy">     -0.58287155 </i>
   </energy>
  </scstep>
  <scstep>
   <time name="total">    2.43    2.43</time>
   <energy>
    <i name="e_fr_energy">     -0.59290828 </i>
    <i name="e_wo_entrp">     -0.59290828 </i>
    <i name="e_0_energy">     -0.59290828 </i>
   </energy>
  </scstep>
  <scstep>
   <time name="total">    2.50    2.50</time>
   <energy>
    <i name="e_fr_energy">     -0.60414233 </i>
    <i name="e_wo_entrp">     -0.60414233 </i>
    <i name="e_0_energy">     -0.60414233 </i>
   </energy>
  </scstep>
  <scstep>
   <time name="total">    2.72    2.72</time>
   <energy>
    <i name="e_fr_energy">     -0.60679373 </i>
    <i name="e_wo_entrp">     -0.60679373 </i>
    <i name="e_0_energy">     -0.60679373 </i>
   </energy>
  </scstep>
  <scstep>
   <time name="total">    2.62    2.62</time>
   <energy>
    <i name="e_fr_energy">     -0.60709756 </i>
    <i name="e_wo_entrp">     -0.60709756 </i>
    <i name="e_0_energy">     -0.60709756 </i>
   </energy>
  </scstep>
  <scstep>
   <time name="total">    2.55    2.55</time>
   <energy>
    <i name="e_fr_energy">     -0.60712765 </i>
    <i name="e_wo_entrp">     -0.60712765 </i>
    <i name="e_0_energy">     -0.60712765 </i>
   </energy>
  </scstep>
  <scstep>
   <time name="total">    2.55    2.55</time>
   <energy>
    <i name="e_fr_energy">     -0.60713142 </i>
    <i name="e_wo_entrp">     -0.60713142 </i>
    <i name="e_0_energy">     -0.60713142 </i>
   </energy>
  </scstep>
  <scstep>
   <time name="total">    2.54    2.54</time>
   <energy>
    <i name="e_fr_energy">     -0.60713193 </i>
    <i name="e_wo_entrp">     -0.60713193 </i>
    <i name="e_0_energy">     -0.60713193 </i>
   </energy>
  </scstep>
  <scstep>
   <time name="total">    2.54    2.54</time>
   <energy>
    <i name="e_fr_energy">     -0.60713200 </i>
    <i name="e_wo_entrp">     -0.60713200 </i>
    <i name="e_0_energy">     -0.60713200 </i>
   </energy>
  </scstep>
  <scstep>
   <time name="total">    2.48    2.48</time>
   <energy>
    <i name="e_fr_energy">     -0.60713201 </i>
    <i name="e_wo_entrp">     -0.60713201 </i>
    <i name="e_0_energy">     -0.60713201 </i>
   </energy>
  </scstep>
  <scstep>
   <time name="total">    2.43    2.43</time>
   <energy>
    <i name="e_fr_energy">     -0.54549170 </i>
    <i name="e_wo_entrp">     -0.54549170 </i>
    <i name="e_0_energy">     -0.54549170 </i>
   </energy>
  </scstep>
  <scstep>
   <time name="total">    2.50    2.50</time>
   <energy>
    <i name="e_fr_energy">     -0.55544512 </i>
    <i name="e_wo_entrp">     -0.55544512 </i>
    <i name="e_0_energy">     -0.55544512 </i>
   </energy>
  </scstep>
  <scstep>
   <time name="total">    2.65    2.65</time>
   <energy>
    <i name="e_fr_energy">     -0.55826231 </i>
    <i name="e_wo_entrp">     -0.55826231 </i>
    <i name="e_0_energy">     -0.55826231 </i>
   </energy>
  </scstep>
  <scstep>
   <time name="total">    2.55    2.55</time>
   <energy>
    <i name="e_fr_energy">     -0.55857268 </i>
    <i name="e_wo_entrp">     -0.55857268 </i>
    <i name="e_0_energy">     -0.55857268 </i>
   </energy>
  </scstep>
  <scstep>
   <time name="total">    2.54    2.54</time>
   <energy>
    <i name="e_fr_energy">     -0.55860733 </i>
    <i name="e_wo_entrp">     -0.55860733 </i>
    <i name="e_0_energy">     -0.55860733 </i>
   </energy>
  </scstep>
  <scstep>
   <time name="total">    2.51    2.51</time>
   <energy>
    <i name="e_fr_energy">     -0.55861210 </i>
    <i name="e_wo_entrp">     -0.55861210 </i>
    <i name="e_0_energy">     -0.55861210 </i>
   </energy>
  </scstep>
  <scstep>
   <time name="total">    2.46    2.46</time>
   <energy>
    <i name="e_fr_energy">     -0.55861280 </i>
    <i name="e_wo_entrp">     -0.55861280 </i>
    <i name="e_0_energy">     -0.55861280 </i>
   </energy>
  </scstep>
  <scstep>
   <time name="total">    2.45    2.45</time>
   <energy>
    <i name="e_fr_energy">     -0.55861290 </i>
    <i name="e_wo_entrp">     -0.55861290 </i>
    <i name="e_0_energy">     -0.55861290 </i>
   </energy>
  </scstep>
  <scstep>
   <time name="total">    2.45    2.45</time>
   <energy>
    <i name="e_fr_energy">     -0.55861292 </i>
    <i name="e_wo_entrp">     -0.55861292 </i>
    <i name="e_0_energy">     -0.55861292 </i>
   </energy>
  </scstep>
  <scstep>
   <time name="total">    2.43    2.43</time>
   <energy>
    <i name="e_fr_energy">     -0.55861292 </i>
    <i name="e_wo_entrp">     -0.55861292 </i>
    <i name="e_0_energy">     -0.55861292 </i>
   </energy>
  </scstep>
  <varray name="epsilon_rpa" >
   <v>       3.09723791       0.00000000      -0.00000000 </v>
   <v>       0.00000000       3.09724155       0.00000000 </v>
   <v>      -0.00000000       0.00000000       3.09724155 </v>
  </varray>
  <kpoints>
   <generation param="Gamma">
    <v type="int" name="divisions">      12       12       12 </v>
    <v name="usershift">      0.00000000       0.00000000       0.00000000 </v>
    <v name="genvec1">      0.08333333       0.00000000       0.00000000 </v>
    <v name="genvec2">      0.00000000       0.08333333      -0.00000000 </v>
    <v name="genvec3">     -0.00000000      -0.00000000       0.08333333 </v>
    <v name="shift">      0.00000000       0.00000000       0.00000000 </v>
   </generation>
   <varray name="kpointlist" >
    <v>       0.00000000       0.00000000       0.00000000 </v>
    <v>       0.08333333       0.00000000       0.00000000 </v>
    <v>       0.16666667      -0.00000000      -0.00000000 </v>
    <v>       0.25000000      -0.00000000      -0.00000000 </v>
    <v>       0.33333333      -0.00000000      -0.00000000 </v>
    <v>       0.41666667      -0.00000000      -0.00000000 </v>
    <v>       0.50000000      -0.00000000      -0.00000000 </v>
    <v>       0.08333333       0.08333333      -0.00000000 </v>
    <v>       0.16666667       0.08333333      -0.00000000 </v>
    <v>       0.25000000       0.08333333      -0.00000000 </v>
    <v>       0.33333333       0.08333333      -0.00000000 </v>
    <v>       0.41666667       0.08333333      -0.00000000 </v>
    <v>       0.50000000       0.08333333      -0.00000000 </v>
    <v>      -0.41666667       0.08333333       0.00000000 </v>
    <v>      -0.33333333       0.08333333       0.00000000 </v>
    <v>      -0.25000000       0.08333333       0.00000000 </v>
    <v>      -0.16666667       0.08333333       0.00000000 </v>
    <v>      -0.08333333       0.08333333      -0.00000000 </v>
    <v>       0.16666667       0.16666667      -0.00000000 </v>
    <v>       0.25000000       0.16666667      -0.00000000 </v>
    <v>       0.33333333       0.16666667      -0.00000000 </v>
    <v>       0.41666667       0.16666667      -0.00000000 </v>
    <v>       0.50000000       0.16666667      -0.00000000 </v>
    <v>      -0.41666667       0.16666667      -0.00000000 </v>
    <v>      -0.33333333       0.16666667       0.00000000 </v>
    <v>      -0.25000000       0.16666667       0.00000000 </v>
    <v>      -0.16666667       0.16666667       0.00000000 </v>
    <v>       0.25000000       0.25000000      -0.00000000 </v>
    <v>       0.33333333       0.25000000      -0.00000000 </v>
    <v>       0.41666667       0.25000000      -0.00000000 </v>
    <v>       0.50000000       0.25000000      -0.00000000 </v>
    <v>      -0.41666667       0.25000000      -0.00000000 </v>
    <v>      -0.33333333       0.25000000       0.00000000 </v>
    <v>      -0.25000000       0.25000000       0.00000000 </v>
    <v>       0.33333333       0.33333333      -0.00000000 </v>
    <v>       0.41666667       0.33333333       0.00000000 </v>
    <v>       0.50000000       0.33333333      -0.00000000 </v>
    <v>      -0.41666667       0.33333333      -0.00000000 </v>
    <v>      -0.33333333       0.33333333       0.00000000 </v>
    <v>       0.41666667       0.41666667      -0.00000000 </v>
    <v>       0.50000000       0.41666667       0.00000000 </v>
    <v>      -0.41666667       0.41666667       0.00000000 </v>
    <v>       0.50000000       0.50000000      -0.00000000 </v>
    <v>       0.08333333       0.00000000       0.08333333 </v>
    <v>       0.16666667       0.00000000       0.08333333 </v>
    <v>       0.25000000      -0.00000000       0.08333333 </v>
    <v>       0.33333333      -0.00000000       0.08333333 </v>
    <v>       0.41666667      -0.00000000       0.08333333 </v>
    <v>       0.50000000      -0.00000000       0.08333333 </v>
    <v>      -0.41666667       0.00000000       0.08333333 </v>
    <v>      -0.33333333       0.00000000       0.08333333 </v>
    <v>      -0.25000000       0.00000000       0.08333333 </v>
    <v>      -0.16666667       0.00000000       0.08333333 </v>
    <v>      -0.08333333      -0.00000000       0.08333333 </v>
    <v>       0.25000000       0.16666667       0.08333333 </v>
    <v>       0.33333333       0.16666667       0.08333333 </v>
    <v>       0.41666667       0.16666667       0.08333333 </v>
    <v>       0.50000000       0.16666667       0.08333333 </v>
    <v>      -0.41666667       0.16666667       0.08333333 </v>
    <v>       0.16666667       0.25000000       0.08333333 </v>
    <v>       0.33333333       0.25000000       0.08333333 </v>
    <v>       0.41666667       0.25000000       0.08333333 </v>
    <v>       0.50000000       0.25000000       0.08333333 </v>
    <v>      -0.41666667       0.25000000       0.08333333 </v>
    <v>      -0.33333333       0.25000000       0.08333333 </v>
    <v>      -0.25000000       0.25000000       0.08333333 </v>
    <v>      -0.16666667       0.25000000       0.08333333 </v>
    <v>       0.16666667       0.33333333       0.08333333 </v>
    <v>       0.25000000       0.33333333       0.08333333 </v>
    <v>       0.41666667       0.33333333       0.08333333 </v>
    <v>       0.50000000       0.33333333       0.08333333 </v>
    <v>      -0.41666667       0.33333333       0.08333333 </v>
    <v>      -0.33333333       0.33333333       0.08333333 </v>
    <v>      -0.25000000       0.33333333       0.08333333 </v>
    <v>       0.16666667       0.41666667       0.08333333 </v>
    <v>       0.25000000       0.41666667       0.08333333 </v>
    <v>       0.33333333       0.41666667       0.08333333 </v>
    <v>       0.50000000       0.41666667       0.08333333 </v>
    <v>      -0.41666667       0.41666667       0.08333333 </v>
    <v>      -0.33333333       0.41666667       0.08333333 </v>
    <v>       0.16666667       0.50000000       0.08333333 </v>
    <v>       0.25000000       0.50000000       0.08333333 </v>
    <v>       0.33333333       0.50000000       0.08333333 </v>
    <v>       0.41666667       0.50000000       0.08333333 </v>
    <v>      -0.41666667       0.50000000       0.08333333 </v>
    <v>       0.16666667      -0.41666667       0.08333333 </v>
    <v>       0.25000000      -0.41666667       0.08333333 </v>
    <v>       0.33333333      -0.41666667       0.08333333 </v>
    <v>       0.41666667      -0.41666667       0.08333333 </v>
    <v>       0.50000000      -0.41666667       0.08333333 </v>
    <v>       0.16666667      -0.33333333       0.08333333 </v>
    <v>       0.25000000      -0.33333333       0.08333333 </v>
    <v>       0.33333333      -0.33333333       0.08333333 </v>
    <v>       0.41666667      -0.33333333       0.08333333 </v>
    <v>       0.16666667      -0.25000000       0.08333333 </v>
    <v>       0.25000000      -0.25000000       0.08333333 </v>
    <v>       0.33333333      -0.25000000       0.08333333 </v>
    <v>       0.16666667      -0.16666667       0.08333333 </v>
    <v>       0.25000000      -0.16666667       0.08333333 </v>
    <v>       0.16666667      -0.08333333       0.08333333 </v>
    <v>       0.16666667      -0.00000000       0.16666667 </v>
    <v>       0.25000000       0.00000000       0.16666667 </v>
    <v>       0.33333333       0.00000000       0.16666667 </v>
    <v>       0.41666667      -0.00000000       0.16666667 </v>
    <v>       0.50000000      -0.00000000       0.16666667 </v>
    <v>      -0.41666667      -0.00000000       0.16666667 </v>
    <v>      -0.33333333      -0.00000000       0.16666667 </v>
    <v>      -0.25000000       0.00000000       0.16666667 </v>
    <v>      -0.16666667       0.00000000       0.16666667 </v>
    <v>       0.50000000       0.33333333       0.16666667 </v>
    <v>      -0.41666667       0.33333333       0.16666667 </v>
    <v>      -0.33333333       0.33333333       0.16666667 </v>
    <v>       0.25000000       0.41666667       0.16666667 </v>
    <v>      -0.41666667       0.41666667       0.16666667 </v>
    <v>      -0.33333333       0.41666667       0.16666667 </v>
    <v>      -0.25000000       0.41666667       0.16666667 </v>
    <v>       0.25000000       0.50000000       0.16666667 </v>
    <v>       0.33333333       0.50000000       0.16666667 </v>
    <v>      -0.33333333       0.50000000       0.16666667 </v>
    <v>       0.25000000      -0.41666667       0.16666667 </v>
    <v>       0.33333333      -0.41666667       0.16666667 </v>
    <v>       0.41666667      -0.41666667       0.16666667 </v>
    <v>       0.25000000      -0.33333333       0.16666667 </v>
    <v>       0.33333333      -0.33333333       0.16666667 </v>
    <v>       0.41666667      -0.33333333       0.16666667 </v>
    <v>       0.50000000      -0.33333333       0.16666667 </v>
    <v>       0.25000000      -0.25000000       0.16666667 </v>
    <v>       0.33333333      -0.25000000       0.16666667 </v>
    <v>       0.41666667      -0.25000000       0.16666667 </v>
    <v>       0.25000000      -0.16666667       0.16666667 </v>
    <v>       0.33333333      -0.16666667       0.16666667 </v>
    <v>       0.25000000      -0.08333333       0.16666667 </v>
    <v>       0.25000000      -0.00000000       0.25000000 </v>
    <v>       0.33333333      -0.00000000       0.25000000 </v>
    <v>       0.41666667      -0.00000000       0.25000000 </v>
    <v>       0.50000000      -0.00000000       0.25000000 </v>
    <v>      -0.41666667      -0.00000000       0.25000000 </v>
    <v>      -0.33333333       0.00000000       0.25000000 </v>
    <v>      -0.25000000       0.00000000       0.25000000 </v>
    <v>      -0.25000000       0.50000000       0.25000000 </v>
    <v>       0.33333333      -0.41666667       0.25000000 </v>
    <v>       0.33333333      -0.33333333       0.25000000 </v>
    <v>       0.41666667      -0.33333333       0.25000000 </v>
    <v>       0.33333333      -0.25000000       0.25000000 </v>
    <v>       0.41666667      -0.25000000       0.25000000 </v>
    <v>       0.50000000      -0.25000000       0.25000000 </v>
    <v>       0.33333333      -0.16666667       0.25000000 </v>
    <v>       0.41666667      -0.16666667       0.25000000 </v>
    <v>       0.33333333      -0.08333333       0.25000000 </v>
    <v>       0.33333333      -0.00000000       0.33333333 </v>
    <v>       0.41666667       0.00000000       0.33333333 </v>
    <v>       0.50000000      -0.00000000       0.33333333 </v>
    <v>      -0.41666667      -0.00000000       0.33333333 </v>
    <v>      -0.33333333       0.00000000       0.33333333 </v>
    <v>       0.41666667      -0.25000000       0.33333333 </v>
    <v>       0.41666667      -0.16666667       0.33333333 </v>
    <v>       0.50000000      -0.16666667       0.33333333 </v>
    <v>       0.41666667      -0.08333333       0.33333333 </v>
    <v>       0.41666667      -0.00000000       0.41666667 </v>
    <v>       0.50000000      -0.00000000       0.41666667 </v>
    <v>      -0.41666667       0.00000000       0.41666667 </v>
    <v>       0.50000000      -0.08333333       0.41666667 </v>
    <v>       0.50000000      -0.00000000       0.50000000 </v>
   </varray>
   <varray name="weights" >
    <v>       0.00057870 </v>
    <v>       0.00462963 </v>
    <v>       0.00462963 </v>
    <v>       0.00462963 </v>
    <v>       0.00462963 </v>
    <v>       0.00462963 </v>
    <v>       0.00231481 </v>
    <v>       0.00231481 </v>
    <v>       0.00925926 </v>
    <v>       0.00925926 </v>
    <v>       0.00925926 </v>
    <v>       0.00925926 </v>
    <v>       0.00925926 </v>
    <v>       0.00925926 </v>
    <v>       0.00925926 </v>
    <v>       0.00925926 </v>
    <v>       0.00925926 </v>
    <v>       0.00462963 </v>
    <v>       0.00231481 </v>
    <v>       0.00925926 </v>
    <v>       0.00925926 </v>
    <v>       0.00925926 </v>
    <v>       0.00925926 </v>
    <v>       0.00925926 </v>
    <v>       0.00925926 </v>
    <v>       0.00925926 </v>
    <v>       0.00462963 </v>
    <v>       0.00231481 </v>
    <v>       0.00925926 </v>
    <v>       0.00925926 </v>
    <v>       0.00925926 </v>
    <v>       0.00925926 </v>
    <v>       0.00925926 </v>
    <v>       0.00462963 </v>
    <v>       0.00231481 </v>
    <v>       0.00925926 </v>
    <v>       0.00925926 </v>
    <v>       0.00925926 </v>
    <v>       0.00462963 </v>
    <v>       0.00231481 </v>
    <v>       0.00925926 </v>
    <v>       0.00462963 </v>
    <v>       0.00115741 </v>
    <v>       0.00115741 </v>
    <v>       0.00462963 </v>
    <v>       0.00462963 </v>
    <v>       0.00462963 </v>
    <v>       0.00462963 </v>
    <v>       0.00462963 </v>
    <v>       0.00462963 </v>
    <v>       0.00462963 </v>
    <v>       0.00462963 </v>
    <v>       0.00462963 </v>
    <v>       0.00231481 </v>
    <v>       0.00462963 </v>
    <v>       0.00925926 </v>
    <v>       0.00925926 </v>
    <v>       0.00925926 </v>
    <v>       0.00462963 </v>
    <v>       0.00462963 </v>
    <v>       0.00462963 </v>
    <v>       0.00925926 </v>
    <v>       0.00925926 </v>
    <v>       0.00925926 </v>
    <v>       0.00925926 </v>
    <v>       0.00925926 </v>
    <v>       0.00462963 </v>
    <v>       0.00925926 </v>
    <v>       0.00462963 </v>
    <v>       0.00462963 </v>
    <v>       0.00925926 </v>
    <v>       0.00925926 </v>
    <v>       0.00925926 </v>
    <v>       0.00462963 </v>
    <v>       0.00925926 </v>
    <v>       0.00925926 </v>
    <v>       0.00462963 </v>
    <v>       0.00462963 </v>
    <v>       0.00925926 </v>
    <v>       0.00462963 </v>
    <v>       0.00925926 </v>
    <v>       0.00925926 </v>
    <v>       0.00925926 </v>
    <v>       0.00462963 </v>
    <v>       0.00231481 </v>
    <v>       0.00925926 </v>
    <v>       0.00925926 </v>
    <v>       0.00925926 </v>
    <v>       0.00925926 </v>
    <v>       0.00231481 </v>
    <v>       0.00925926 </v>
    <v>       0.00925926 </v>
    <v>       0.00925926 </v>
    <v>       0.00462963 </v>
    <v>       0.00925926 </v>
    <v>       0.00925926 </v>
    <v>       0.00462963 </v>
    <v>       0.00925926 </v>
    <v>       0.00462963 </v>
    <v>       0.00462963 </v>
    <v>       0.00115741 </v>
    <v>       0.00462963 </v>
    <v>       0.00462963 </v>
    <v>       0.00462963 </v>
    <v>       0.00462963 </v>
    <v>       0.00462963 </v>
    <v>       0.00462963 </v>
    <v>       0.00462963 </v>
    <v>       0.00231481 </v>
    <v>       0.00462963 </v>
    <v>       0.00925926 </v>
    <v>       0.00462963 </v>
    <v>       0.00462963 </v>
    <v>       0.00462963 </v>
    <v>       0.00925926 </v>
    <v>       0.00462963 </v>
    <v>       0.00925926 </v>
    <v>       0.00462963 </v>
    <v>       0.00231481 </v>
    <v>       0.00925926 </v>
    <v>       0.00925926 </v>
    <v>       0.00462963 </v>
    <v>       0.00925926 </v>
    <v>       0.00925926 </v>
    <v>       0.00925926 </v>
    <v>       0.00231481 </v>
    <v>       0.00925926 </v>
    <v>       0.00925926 </v>
    <v>       0.00462963 </v>
    <v>       0.00925926 </v>
    <v>       0.00462963 </v>
    <v>       0.00462963 </v>
    <v>       0.00115741 </v>
    <v>       0.00462963 </v>
    <v>       0.00462963 </v>
    <v>       0.00462963 </v>
    <v>       0.00462963 </v>
    <v>       0.00462963 </v>
    <v>       0.00231481 </v>
    <v>       0.00115741 </v>
    <v>       0.00462963 </v>
    <v>       0.00925926 </v>
    <v>       0.00462963 </v>
    <v>       0.00925926 </v>
    <v>       0.00925926 </v>
    <v>       0.00231481 </v>
    <v>       0.00925926 </v>
    <v>       0.00462963 </v>
    <v>       0.00462963 </v>
    <v>       0.00115741 </v>
    <v>       0.00462963 </v>
    <v>       0.00462963 </v>
    <v>       0.00462963 </v>
    <v>       0.00231481 </v>
    <v>       0.00462963 </v>
    <v>       0.00925926 </v>
    <v>       0.00231481 </v>
    <v>       0.00462963 </v>
    <v>       0.00115741 </v>
    <v>       0.00462963 </v>
    <v>       0.00231481 </v>
    <v>       0.00231481 </v>
    <v>       0.00057870 </v>
   </varray>
  </kpoints>
  <scstep>
   <time name="total">    2.42    2.42</time>
   <energy>
    <i name="e_fr_energy">     -0.56925470 </i>
    <i name="e_wo_entrp">     -0.56925470 </i>
    <i name="e_0_energy">     -0.56925470 </i>
   </energy>
  </scstep>
  <scstep>
   <time name="total">    2.74    2.74</time>
   <energy>
    <i name="e_fr_energy">     -0.57979609 </i>
    <i name="e_wo_entrp">     -0.57979609 </i>
    <i name="e_0_energy">     -0.57979609 </i>
   </energy>
  </scstep>
  <scstep>
   <time name="total">    3.22    3.22</time>
   <energy>
    <i name="e_fr_energy">     -0.51626166 </i>
    <i name="e_wo_entrp">     -0.51626166 </i>
    <i name="e_0_energy">     -0.51626166 </i>
   </energy>
  </scstep>
  <scstep>
   <time name="total">    3.90    3.90</time>
   <energy>
    <i name="e_fr_energy">     -0.54188454 </i>
    <i name="e_wo_entrp">     -0.54188454 </i>
    <i name="e_0_energy">     -0.54188454 </i>
   </energy>
  </scstep>
  <scstep>
   <time name="total">    3.51    3.51</time>
   <energy>
    <i name="e_fr_energy">     -0.57241425 </i>
    <i name="e_wo_entrp">     -0.57241425 </i>
    <i name="e_0_energy">     -0.57241425 </i>
   </energy>
  </scstep>
  <scstep>
   <time name="total">    4.29    4.29</time>
   <energy>
    <i name="e_fr_energy">     -0.57533124 </i>
    <i name="e_wo_entrp">     -0.57533124 </i>
    <i name="e_0_energy">     -0.57533124 </i>
   </energy>
  </scstep>
  <scstep>
   <time name="total">    4.32    4.32</time>
   <energy>
    <i name="e_fr_energy">     -0.57705816 </i>
    <i name="e_wo_entrp">     -0.57705816 </i>
    <i name="e_0_energy">     -0.57705816 </i>
   </energy>
  </scstep>
  <scstep>
   <time name="total">    4.35    4.35</time>
   <energy>
    <i name="e_fr_energy">     -0.57744126 </i>
    <i name="e_wo_entrp">     -0.57744126 </i>
    <i name="e_0_energy">     -0.57744126 </i>
   </energy>
  </scstep>
  <scstep>
   <time name="total">    4.30    4.30</time>
   <energy>
    <i name="e_fr_energy">     -0.57762911 </i>
    <i name="e_wo_entrp">     -0.57762911 </i>
    <i name="e_0_energy">     -0.57762911 </i>
   </energy>
  </scstep>
  <scstep>
   <time name="total">    4.47    4.48</time>
   <energy>
    <i name="e_fr_energy">     -0.57761515 </i>
    <i name="e_wo_entrp">     -0.57761515 </i>
    <i name="e_0_energy">     -0.57761515 </i>
   </energy>
  </scstep>
  <scstep>
   <time name="total">    4.42    4.42</time>
   <energy>
    <i name="e_fr_energy">     -0.57762071 </i>
    <i name="e_wo_entrp">     -0.57762071 </i>
    <i name="e_0_energy">     -0.57762071 </i>
   </energy>
  </scstep>
  <scstep>
   <time name="total">    4.50    4.50</time>
   <energy>
    <i name="e_fr_energy">     -0.57761644 </i>
    <i name="e_wo_entrp">     -0.57761644 </i>
    <i name="e_0_energy">     -0.57761644 </i>
   </energy>
  </scstep>
  <scstep>
   <time name="total">    4.45    4.45</time>
   <energy>
    <i name="e_fr_energy">     -0.57761547 </i>
    <i name="e_wo_entrp">     -0.57761547 </i>
    <i name="e_0_energy">     -0.57761547 </i>
   </energy>
  </scstep>
  <scstep>
   <time name="total">    4.31    4.31</time>
   <energy>
    <i name="e_fr_energy">     -0.57761600 </i>
    <i name="e_wo_entrp">     -0.57761600 </i>
    <i name="e_0_energy">     -0.57761600 </i>
   </energy>
  </scstep>
  <scstep>
   <time name="total">    3.71    3.71</time>
   <energy>
    <i name="e_fr_energy">     -0.57761595 </i>
    <i name="e_wo_entrp">     -0.57761595 </i>
    <i name="e_0_energy">     -0.57761595 </i>
   </energy>
  </scstep>
  <scstep>
   <time name="total">    3.44    3.44</time>
   <energy>
    <i name="e_fr_energy">     -0.57761597 </i>
    <i name="e_wo_entrp">     -0.57761597 </i>
    <i name="e_0_energy">     -0.57761597 </i>
   </energy>
  </scstep>
  <kpoints>
   <generation param="Gamma">
    <v type="int" name="divisions">      12       12       12 </v>
    <v name="usershift">      0.00000000       0.00000000       0.00000000 </v>
    <v name="genvec1">      0.08333333       0.00000000       0.00000000 </v>
    <v name="genvec2">      0.00000000       0.08333333      -0.00000000 </v>
    <v name="genvec3">     -0.00000000      -0.00000000       0.08333333 </v>
    <v name="shift">      0.00000000       0.00000000       0.00000000 </v>
   </generation>
   <varray name="kpointlist" >
    <v>       0.00000000       0.00000000       0.00000000 </v>
    <v>       0.08333333       0.00000000       0.00000000 </v>
    <v>       0.16666667      -0.00000000      -0.00000000 </v>
    <v>       0.25000000      -0.00000000      -0.00000000 </v>
    <v>       0.33333333      -0.00000000      -0.00000000 </v>
    <v>       0.41666667      -0.00000000      -0.00000000 </v>
    <v>       0.50000000      -0.00000000      -0.00000000 </v>
    <v>       0.08333333       0.08333333      -0.00000000 </v>
    <v>       0.16666667       0.08333333      -0.00000000 </v>
    <v>       0.25000000       0.08333333      -0.00000000 </v>
    <v>       0.33333333       0.08333333      -0.00000000 </v>
    <v>       0.41666667       0.08333333      -0.00000000 </v>
    <v>       0.50000000       0.08333333      -0.00000000 </v>
    <v>      -0.41666667       0.08333333       0.00000000 </v>
    <v>      -0.33333333       0.08333333       0.00000000 </v>
    <v>      -0.25000000       0.08333333       0.00000000 </v>
    <v>      -0.16666667       0.08333333       0.00000000 </v>
    <v>      -0.08333333       0.08333333      -0.00000000 </v>
    <v>       0.16666667       0.16666667      -0.00000000 </v>
    <v>       0.25000000       0.16666667      -0.00000000 </v>
    <v>       0.33333333       0.16666667      -0.00000000 </v>
    <v>       0.41666667       0.16666667      -0.00000000 </v>
    <v>       0.50000000       0.16666667      -0.00000000 </v>
    <v>      -0.41666667       0.16666667      -0.00000000 </v>
    <v>      -0.33333333       0.16666667       0.00000000 </v>
    <v>      -0.25000000       0.16666667       0.00000000 </v>
    <v>      -0.16666667       0.16666667       0.00000000 </v>
    <v>       0.25000000       0.25000000      -0.00000000 </v>
    <v>       0.33333333       0.25000000      -0.00000000 </v>
    <v>       0.41666667       0.25000000      -0.00000000 </v>
    <v>       0.50000000       0.25000000      -0.00000000 </v>
    <v>      -0.41666667       0.25000000      -0.00000000 </v>
    <v>      -0.33333333       0.25000000       0.00000000 </v>
    <v>      -0.25000000       0.25000000       0.00000000 </v>
    <v>       0.33333333       0.33333333      -0.00000000 </v>
    <v>       0.41666667       0.33333333       0.00000000 </v>
    <v>       0.50000000       0.33333333      -0.00000000 </v>
    <v>      -0.41666667       0.33333333      -0.00000000 </v>
    <v>      -0.33333333       0.33333333       0.00000000 </v>
    <v>       0.41666667       0.41666667      -0.00000000 </v>
    <v>       0.50000000       0.41666667       0.00000000 </v>
    <v>      -0.41666667       0.41666667       0.00000000 </v>
    <v>       0.50000000       0.50000000      -0.00000000 </v>
    <v>       0.00000000      -0.00000000       0.08333333 </v>
    <v>       0.08333333       0.00000000       0.08333333 </v>
    <v>       0.16666667       0.00000000       0.08333333 </v>
    <v>       0.25000000      -0.00000000       0.08333333 </v>
    <v>       0.33333333      -0.00000000       0.08333333 </v>
    <v>       0.41666667      -0.00000000       0.08333333 </v>
    <v>       0.50000000      -0.00000000       0.08333333 </v>
    <v>      -0.41666667       0.00000000       0.08333333 </v>
    <v>      -0.33333333       0.00000000       0.08333333 </v>
    <v>      -0.25000000       0.00000000       0.08333333 </v>
    <v>      -0.16666667       0.00000000       0.08333333 </v>
    <v>      -0.08333333      -0.00000000       0.08333333 </v>
    <v>      -0.00000000       0.08333333       0.08333333 </v>
    <v>       0.16666667       0.08333333       0.08333333 </v>
    <v>       0.25000000       0.08333333       0.08333333 </v>
    <v>       0.33333333       0.08333333       0.08333333 </v>
    <v>       0.41666667       0.08333333       0.08333333 </v>
    <v>       0.50000000       0.08333333       0.08333333 </v>
    <v>      -0.41666667       0.08333333       0.08333333 </v>
    <v>      -0.33333333       0.08333333       0.08333333 </v>
    <v>      -0.25000000       0.08333333       0.08333333 </v>
    <v>      -0.16666667       0.08333333       0.08333333 </v>
    <v>      -0.08333333       0.08333333       0.08333333 </v>
    <v>       0.16666667       0.16666667       0.08333333 </v>
    <v>       0.25000000       0.16666667       0.08333333 </v>
    <v>       0.33333333       0.16666667       0.08333333 </v>
    <v>       0.41666667       0.16666667       0.08333333 </v>
    <v>       0.50000000       0.16666667       0.08333333 </v>
    <v>      -0.41666667       0.16666667       0.08333333 </v>
    <v>      -0.33333333       0.16666667       0.08333333 </v>
    <v>      -0.25000000       0.16666667       0.08333333 </v>
    <v>      -0.16666667       0.16666667       0.08333333 </v>
    <v>      -0.08333333       0.16666667       0.08333333 </v>
    <v>       0.16666667       0.25000000       0.08333333 </v>
    <v>       0.25000000       0.25000000       0.08333333 </v>
    <v>       0.33333333       0.25000000       0.08333333 </v>
    <v>       0.41666667       0.25000000       0.08333333 </v>
    <v>       0.50000000       0.25000000       0.08333333 </v>
    <v>      -0.41666667       0.25000000       0.08333333 </v>
    <v>      -0.33333333       0.25000000       0.08333333 </v>
    <v>      -0.25000000       0.25000000       0.08333333 </v>
    <v>      -0.16666667       0.25000000       0.08333333 </v>
    <v>       0.16666667       0.33333333       0.08333333 </v>
    <v>       0.25000000       0.33333333       0.08333333 </v>
    <v>       0.33333333       0.33333333       0.08333333 </v>
    <v>       0.41666667       0.33333333       0.08333333 </v>
    <v>       0.50000000       0.33333333       0.08333333 </v>
    <v>      -0.41666667       0.33333333       0.08333333 </v>
    <v>      -0.33333333       0.33333333       0.08333333 </v>
    <v>      -0.25000000       0.33333333       0.08333333 </v>
    <v>       0.16666667       0.41666667       0.08333333 </v>
    <v>       0.25000000       0.41666667       0.08333333 </v>
    <v>       0.33333333       0.41666667       0.08333333 </v>
    <v>       0.41666667       0.41666667       0.08333333 </v>
    <v>       0.50000000       0.41666667       0.08333333 </v>
    <v>      -0.41666667       0.41666667       0.08333333 </v>
    <v>      -0.33333333       0.41666667       0.08333333 </v>
    <v>       0.16666667       0.50000000       0.08333333 </v>
    <v>       0.25000000       0.50000000       0.08333333 </v>
    <v>       0.33333333       0.50000000       0.08333333 </v>
    <v>       0.41666667       0.50000000       0.08333333 </v>
    <v>       0.50000000       0.50000000       0.08333333 </v>
    <v>      -0.41666667       0.50000000       0.08333333 </v>
    <v>       0.16666667      -0.41666667       0.08333333 </v>
    <v>       0.25000000      -0.41666667       0.08333333 </v>
    <v>       0.33333333      -0.41666667       0.08333333 </v>
    <v>       0.41666667      -0.41666667       0.08333333 </v>
    <v>       0.50000000      -0.41666667       0.08333333 </v>
    <v>       0.16666667      -0.33333333       0.08333333 </v>
    <v>       0.25000000      -0.33333333       0.08333333 </v>
    <v>       0.33333333      -0.33333333       0.08333333 </v>
    <v>       0.41666667      -0.33333333       0.08333333 </v>
    <v>       0.16666667      -0.25000000       0.08333333 </v>
    <v>       0.25000000      -0.25000000       0.08333333 </v>
    <v>       0.33333333      -0.25000000       0.08333333 </v>
    <v>       0.16666667      -0.16666667       0.08333333 </v>
    <v>       0.25000000      -0.16666667       0.08333333 </v>
    <v>       0.16666667      -0.08333333       0.08333333 </v>
    <v>       0.00000000       0.00000000       0.16666667 </v>
    <v>       0.08333333      -0.00000000       0.16666667 </v>
    <v>       0.16666667      -0.00000000       0.16666667 </v>
    <v>       0.25000000       0.00000000       0.16666667 </v>
    <v>       0.33333333       0.00000000       0.16666667 </v>
    <v>       0.41666667      -0.00000000       0.16666667 </v>
    <v>       0.50000000      -0.00000000       0.16666667 </v>
    <v>      -0.41666667      -0.00000000       0.16666667 </v>
    <v>      -0.33333333      -0.00000000       0.16666667 </v>
    <v>      -0.25000000       0.00000000       0.16666667 </v>
    <v>      -0.16666667       0.00000000       0.16666667 </v>
    <v>      -0.08333333      -0.00000000       0.16666667 </v>
    <v>       0.00000000       0.08333333       0.16666667 </v>
    <v>       0.08333333       0.08333333       0.16666667 </v>
    <v>       0.25000000       0.08333333       0.16666667 </v>
    <v>       0.33333333       0.08333333       0.16666667 </v>
    <v>       0.41666667       0.08333333       0.16666667 </v>
    <v>       0.50000000       0.08333333       0.16666667 </v>
    <v>      -0.41666667       0.08333333       0.16666667 </v>
    <v>      -0.33333333       0.08333333       0.16666667 </v>
    <v>      -0.25000000       0.08333333       0.16666667 </v>
    <v>      -0.16666667       0.08333333       0.16666667 </v>
    <v>      -0.08333333       0.08333333       0.16666667 </v>
    <v>      -0.00000000       0.16666667       0.16666667 </v>
    <v>       0.25000000       0.16666667       0.16666667 </v>
    <v>       0.33333333       0.16666667       0.16666667 </v>
    <v>       0.41666667       0.16666667       0.16666667 </v>
    <v>       0.50000000       0.16666667       0.16666667 </v>
    <v>      -0.41666667       0.16666667       0.16666667 </v>
    <v>      -0.33333333       0.16666667       0.16666667 </v>
    <v>      -0.25000000       0.16666667       0.16666667 </v>
    <v>      -0.16666667       0.16666667       0.16666667 </v>
    <v>      -0.08333333       0.16666667       0.16666667 </v>
    <v>       0.25000000       0.25000000       0.16666667 </v>
    <v>       0.33333333       0.25000000       0.16666667 </v>
    <v>       0.41666667       0.25000000       0.16666667 </v>
    <v>       0.50000000       0.25000000       0.16666667 </v>
    <v>      -0.41666667       0.25000000       0.16666667 </v>
    <v>      -0.33333333       0.25000000       0.16666667 </v>
    <v>      -0.25000000       0.25000000       0.16666667 </v>
    <v>      -0.16666667       0.25000000       0.16666667 </v>
    <v>      -0.08333333       0.25000000       0.16666667 </v>
    <v>       0.25000000       0.33333333       0.16666667 </v>
    <v>       0.33333333       0.33333333       0.16666667 </v>
    <v>       0.41666667       0.33333333       0.16666667 </v>
    <v>       0.50000000       0.33333333       0.16666667 </v>
    <v>      -0.41666667       0.33333333       0.16666667 </v>
    <v>      -0.33333333       0.33333333       0.16666667 </v>
    <v>      -0.25000000       0.33333333       0.16666667 </v>
    <v>      -0.16666667       0.33333333       0.16666667 </v>
    <v>       0.25000000       0.41666667       0.16666667 </v>
    <v>       0.33333333       0.41666667       0.16666667 </v>
    <v>       0.41666667       0.41666667       0.16666667 </v>
    <v>       0.50000000       0.41666667       0.16666667 </v>
    <v>      -0.41666667       0.41666667       0.16666667 </v>
    <v>      -0.33333333       0.41666667       0.16666667 </v>
    <v>      -0.25000000       0.41666667       0.16666667 </v>
    <v>       0.25000000       0.50000000       0.16666667 </v>
    <v>       0.33333333       0.50000000       0.16666667 </v>
    <v>       0.41666667       0.50000000       0.16666667 </v>
    <v>       0.50000000       0.50000000       0.16666667 </v>
    <v>      -0.41666667       0.50000000       0.16666667 </v>
    <v>      -0.33333333       0.50000000       0.16666667 </v>
    <v>       0.25000000      -0.41666667       0.16666667 </v>
    <v>       0.33333333      -0.41666667       0.16666667 </v>
    <v>       0.41666667      -0.41666667       0.16666667 </v>
    <v>       0.50000000      -0.41666667       0.16666667 </v>
    <v>      -0.41666667      -0.41666667       0.16666667 </v>
    <v>       0.25000000      -0.33333333       0.16666667 </v>
    <v>       0.33333333      -0.33333333       0.16666667 </v>
    <v>       0.41666667      -0.33333333       0.16666667 </v>
    <v>       0.50000000      -0.33333333       0.16666667 </v>
    <v>       0.25000000      -0.25000000       0.16666667 </v>
    <v>       0.33333333      -0.25000000       0.16666667 </v>
    <v>       0.41666667      -0.25000000       0.16666667 </v>
    <v>       0.25000000      -0.16666667       0.16666667 </v>
    <v>       0.33333333      -0.16666667       0.16666667 </v>
    <v>       0.25000000      -0.08333333       0.16666667 </v>
    <v>       0.00000000       0.00000000       0.25000000 </v>
    <v>       0.08333333       0.00000000       0.25000000 </v>
    <v>       0.16666667      -0.00000000       0.25000000 </v>
    <v>       0.25000000      -0.00000000       0.25000000 </v>
    <v>       0.33333333      -0.00000000       0.25000000 </v>
    <v>       0.41666667      -0.00000000       0.25000000 </v>
    <v>       0.50000000      -0.00000000       0.25000000 </v>
    <v>      -0.41666667      -0.00000000       0.25000000 </v>
    <v>      -0.33333333       0.00000000       0.25000000 </v>
    <v>      -0.25000000       0.00000000       0.25000000 </v>
    <v>      -0.16666667       0.00000000       0.25000000 </v>
    <v>      -0.08333333      -0.00000000       0.25000000 </v>
    <v>      -0.00000000       0.08333333       0.25000000 </v>
    <v>       0.08333333       0.08333333       0.25000000 </v>
    <v>       0.16666667       0.08333333       0.25000000 </v>
    <v>       0.33333333       0.08333333       0.25000000 </v>
    <v>       0.41666667       0.08333333       0.25000000 </v>
    <v>       0.50000000       0.08333333       0.25000000 </v>
    <v>      -0.41666667       0.08333333       0.25000000 </v>
    <v>      -0.33333333       0.08333333       0.25000000 </v>
    <v>      -0.25000000       0.08333333       0.25000000 </v>
    <v>      -0.16666667       0.08333333       0.25000000 </v>
    <v>      -0.08333333       0.08333333       0.25000000 </v>
    <v>      -0.00000000       0.16666667       0.25000000 </v>
    <v>       0.08333333       0.16666667       0.25000000 </v>
    <v>       0.33333333       0.16666667       0.25000000 </v>
    <v>       0.41666667       0.16666667       0.25000000 </v>
    <v>       0.50000000       0.16666667       0.25000000 </v>
    <v>      -0.41666667       0.16666667       0.25000000 </v>
[...]
       <r>    7.2443    0.0000 </r>
       <r>    7.7470    0.0000 </r>
       <r>    8.8557    0.0000 </r>
       <r>    9.2279    0.0000 </r>
       <r>    9.6839    0.0000 </r>
      </set>
      <set comment="kpoint 158">
       <r>  -25.8286    1.0000 </r>
       <r>  -11.0192    1.0000 </r>
       <r>   -9.9810    1.0000 </r>
       <r>   -9.9612    1.0000 </r>
       <r>   -9.9187    1.0000 </r>
       <r>   -1.3820    1.0000 </r>
       <r>   -0.9972    1.0000 </r>
       <r>   -0.9696    1.0000 </r>
       <r>    4.3494    0.0000 </r>
       <r>    5.2477    0.0000 </r>
       <r>    6.9882    0.0000 </r>
       <r>    7.2291    0.0000 </r>
       <r>    7.9488    0.0000 </r>
       <r>    8.5845    0.0000 </r>
       <r>    8.8569    0.0000 </r>
       <r>    9.6104    0.0000 </r>
      </set>
      <set comment="kpoint 159">
       <r>  -25.8286    1.0000 </r>
       <r>  -11.0001    1.0000 </r>
       <r>   -9.9741    1.0000 </r>
       <r>   -9.9579    1.0000 </r>
       <r>   -9.9579    1.0000 </r>
       <r>   -1.3898    1.0000 </r>
       <r>   -0.9327    1.0000 </r>
       <r>   -0.9327    1.0000 </r>
       <r>    4.1796    0.0000 </r>
       <r>    5.0550    0.0000 </r>
       <r>    7.0703    0.0000 </r>
       <r>    7.2594    0.0000 </r>
       <r>    8.2868    0.0000 </r>
       <r>    8.6224    0.0000 </r>
       <r>    8.6224    0.0000 </r>
       <r>    9.6404    0.0000 </r>
      </set>
      <set comment="kpoint 160">
       <r>  -25.8284    1.0000 </r>
       <r>  -10.9907    1.0000 </r>
       <r>  -10.0020    1.0000 </r>
       <r>   -9.9581    1.0000 </r>
       <r>   -9.9450    1.0000 </r>
       <r>   -1.3606    1.0000 </r>
       <r>   -0.9887    1.0000 </r>
       <r>   -0.9506    1.0000 </r>
       <r>    4.2174    0.0000 </r>
       <r>    5.1936    0.0000 </r>
       <r>    7.1975    0.0000 </r>
       <r>    7.2541    0.0000 </r>
       <r>    7.7937    0.0000 </r>
       <r>    8.6990    0.0000 </r>
       <r>    8.9438    0.0000 </r>
       <r>    9.8878    0.0000 </r>
      </set>
      <set comment="kpoint 161">
       <r>  -25.8284    1.0000 </r>
       <r>  -11.0132    1.0000 </r>
       <r>  -10.0056    1.0000 </r>
       <r>   -9.9544    1.0000 </r>
       <r>   -9.9114    1.0000 </r>
       <r>   -1.3202    1.0000 </r>
       <r>   -1.1209    1.0000 </r>
       <r>   -0.9779    1.0000 </r>
       <r>    4.4378    0.0000 </r>
       <r>    5.4954    0.0000 </r>
       <r>    7.0171    0.0000 </r>
       <r>    7.3791    0.0000 </r>
       <r>    7.4202    0.0000 </r>
       <r>    8.4275    0.0000 </r>
       <r>    9.2814    0.0000 </r>
       <r>    9.9708    0.0000 </r>
      </set>
      <set comment="kpoint 162">
       <r>  -25.8283    1.0000 </r>
       <r>  -10.9928    1.0000 </r>
       <r>  -10.0091    1.0000 </r>
       <r>   -9.9637    1.0000 </r>
       <r>   -9.9295    1.0000 </r>
       <r>   -1.3403    1.0000 </r>
       <r>   -1.0173    1.0000 </r>
       <r>   -0.9817    1.0000 </r>
       <r>    4.2886    0.0000 </r>
       <r>    5.2884    0.0000 </r>
       <r>    7.2271    0.0000 </r>
       <r>    7.2924    0.0000 </r>
       <r>    7.4898    0.0000 </r>
       <r>    8.8308    0.0000 </r>
       <r>    8.9719    0.0000 </r>
       <r>   10.0920    0.0000 </r>
      </set>
      <set comment="kpoint 163">
       <r>  -25.8284    1.0000 </r>
       <r>  -10.9721    1.0000 </r>
       <r>  -10.0127    1.0000 </r>
       <r>   -9.9603    1.0000 </r>
       <r>   -9.9603    1.0000 </r>
       <r>   -1.3608    1.0000 </r>
       <r>   -0.9438    1.0000 </r>
       <r>   -0.9438    1.0000 </r>
       <r>    4.1166    0.0000 </r>
       <r>    5.0957    0.0000 </r>
       <r>    7.1504    0.0000 </r>
       <r>    7.6035    0.0000 </r>
       <r>    7.6529    0.0000 </r>
       <r>    8.8188    0.0000 </r>
       <r>    8.8188    0.0000 </r>
       <r>   10.2034    0.0000 </r>
      </set>
     </set>
    </set>
   </array>
  </eigenvalues>
  <separator name="orbital magnetization" >
   <v name="MAGDIPOLOUT">      0.00000000      0.00000000      0.00000000</v>
  </separator>
  <dos>
   <i name="efermi">     -0.57721830 </i>
   <total>
    <array>
     <dimension dim="1">gridpoints</dimension>
     <dimension dim="2">spin</dimension>
     <field>energy</field>
     <field>total</field>
     <field>integrated</field>
     <set>
      <set comment="spin 1">
       <r>   -27.7392     0.0000     0.0000 </r>
       <r>   -27.5994     0.0000     0.0000 </r>
       <r>   -27.4595     0.0000     0.0000 </r>
       <r>   -27.3197     0.0000     0.0000 </r>
       <r>   -27.1799     0.0000     0.0000 </r>
       <r>   -27.0400     0.0000     0.0000 </r>
       <r>   -26.9002     0.0000     0.0000 </r>
       <r>   -26.7604     0.0000     0.0000 </r>
       <r>   -26.6206     0.0000     0.0000 </r>
       <r>   -26.4807     0.0000     0.0000 </r>
       <r>   -26.3409     0.0000     0.0000 </r>
       <r>   -26.2011     0.0000     0.0000 </r>
       <r>   -26.0612     0.0000     0.0000 </r>
       <r>   -25.9214     0.0000     0.0000 </r>
       <r>   -25.7816    14.3031     2.0000 </r>
       <r>   -25.6417     0.0000     2.0000 </r>
       <r>   -25.5019     0.0000     2.0000 </r>
       <r>   -25.3621     0.0000     2.0000 </r>
       <r>   -25.2223     0.0000     2.0000 </r>
       <r>   -25.0824     0.0000     2.0000 </r>
       <r>   -24.9426     0.0000     2.0000 </r>
       <r>   -24.8028     0.0000     2.0000 </r>
       <r>   -24.6629     0.0000     2.0000 </r>
       <r>   -24.5231     0.0000     2.0000 </r>
       <r>   -24.3833     0.0000     2.0000 </r>
       <r>   -24.2434     0.0000     2.0000 </r>
       <r>   -24.1036     0.0000     2.0000 </r>
       <r>   -23.9638     0.0000     2.0000 </r>
       <r>   -23.8240     0.0000     2.0000 </r>
       <r>   -23.6841     0.0000     2.0000 </r>
       <r>   -23.5443     0.0000     2.0000 </r>
       <r>   -23.4045     0.0000     2.0000 </r>
       <r>   -23.2646     0.0000     2.0000 </r>
       <r>   -23.1248     0.0000     2.0000 </r>
       <r>   -22.9850     0.0000     2.0000 </r>
       <r>   -22.8451     0.0000     2.0000 </r>
       <r>   -22.7053     0.0000     2.0000 </r>
       <r>   -22.5655     0.0000     2.0000 </r>
       <r>   -22.4257     0.0000     2.0000 </r>
       <r>   -22.2858     0.0000     2.0000 </r>
       <r>   -22.1460     0.0000     2.0000 </r>
       <r>   -22.0062     0.0000     2.0000 </r>
       <r>   -21.8663     0.0000     2.0000 </r>
       <r>   -21.7265     0.0000     2.0000 </r>
       <r>   -21.5867     0.0000     2.0000 </r>
       <r>   -21.4468     0.0000     2.0000 </r>
       <r>   -21.3070     0.0000     2.0000 </r>
       <r>   -21.1672     0.0000     2.0000 </r>
       <r>   -21.0274     0.0000     2.0000 </r>
       <r>   -20.8875     0.0000     2.0000 </r>
       <r>   -20.7477     0.0000     2.0000 </r>
       <r>   -20.6079     0.0000     2.0000 </r>
       <r>   -20.4680     0.0000     2.0000 </r>
       <r>   -20.3282     0.0000     2.0000 </r>
       <r>   -20.1884     0.0000     2.0000 </r>
       <r>   -20.0485     0.0000     2.0000 </r>
       <r>   -19.9087     0.0000     2.0000 </r>
       <r>   -19.7689     0.0000     2.0000 </r>
       <r>   -19.6291     0.0000     2.0000 </r>
       <r>   -19.4892     0.0000     2.0000 </r>
       <r>   -19.3494     0.0000     2.0000 </r>
       <r>   -19.2096     0.0000     2.0000 </r>
       <r>   -19.0697     0.0000     2.0000 </r>
       <r>   -18.9299     0.0000     2.0000 </r>
       <r>   -18.7901     0.0000     2.0000 </r>
       <r>   -18.6502     0.0000     2.0000 </r>
       <r>   -18.5104     0.0000     2.0000 </r>
       <r>   -18.3706     0.0000     2.0000 </r>
       <r>   -18.2308     0.0000     2.0000 </r>
       <r>   -18.0909     0.0000     2.0000 </r>
       <r>   -17.9511     0.0000     2.0000 </r>
       <r>   -17.8113     0.0000     2.0000 </r>
       <r>   -17.6714     0.0000     2.0000 </r>
       <r>   -17.5316     0.0000     2.0000 </r>
       <r>   -17.3918     0.0000     2.0000 </r>
       <r>   -17.2519     0.0000     2.0000 </r>
       <r>   -17.1121     0.0000     2.0000 </r>
       <r>   -16.9723     0.0000     2.0000 </r>
       <r>   -16.8325     0.0000     2.0000 </r>
       <r>   -16.6926     0.0000     2.0000 </r>
       <r>   -16.5528     0.0000     2.0000 </r>
       <r>   -16.4130     0.0000     2.0000 </r>
       <r>   -16.2731     0.0000     2.0000 </r>
       <r>   -16.1333     0.0000     2.0000 </r>
       <r>   -15.9935     0.0000     2.0000 </r>
       <r>   -15.8536     0.0000     2.0000 </r>
       <r>   -15.7138     0.0000     2.0000 </r>
       <r>   -15.5740     0.0000     2.0000 </r>
       <r>   -15.4342     0.0000     2.0000 </r>
       <r>   -15.2943     0.0000     2.0000 </r>
       <r>   -15.1545     0.0000     2.0000 </r>
       <r>   -15.0147     0.0000     2.0000 </r>
       <r>   -14.8748     0.0000     2.0000 </r>
       <r>   -14.7350     0.0000     2.0000 </r>
       <r>   -14.5952     0.0000     2.0000 </r>
       <r>   -14.4553     0.0000     2.0000 </r>
       <r>   -14.3155     0.0000     2.0000 </r>
       <r>   -14.1757     0.0000     2.0000 </r>
       <r>   -14.0359     0.0000     2.0000 </r>
       <r>   -13.8960     0.0000     2.0000 </r>
       <r>   -13.7562     0.0000     2.0000 </r>
       <r>   -13.6164     0.0000     2.0000 </r>
       <r>   -13.4765     0.0000     2.0000 </r>
       <r>   -13.3367     0.0000     2.0000 </r>
       <r>   -13.1969     0.0000     2.0000 </r>
       <r>   -13.0570     0.0000     2.0000 </r>
       <r>   -12.9172     0.0000     2.0000 </r>
       <r>   -12.7774     0.0000     2.0000 </r>
       <r>   -12.6376     0.0000     2.0000 </r>
       <r>   -12.4977     0.0000     2.0000 </r>
       <r>   -12.3579     0.0000     2.0000 </r>
       <r>   -12.2181     0.0000     2.0000 </r>
       <r>   -12.0782     0.0000     2.0000 </r>
       <r>   -11.9384     0.0000     2.0000 </r>
       <r>   -11.7986     0.0000     2.0000 </r>
       <r>   -11.6587     0.0000     2.0000 </r>
       <r>   -11.5189     0.0000     2.0000 </r>
       <r>   -11.3791     0.0000     2.0000 </r>
       <r>   -11.2393     0.0000     2.0000 </r>
       <r>   -11.0994     7.6350     3.1371 </r>
       <r>   -10.9596     1.5634     3.9999 </r>
       <r>   -10.8198     0.0000     4.0000 </r>
       <r>   -10.6799     0.0000     4.0000 </r>
       <r>   -10.5401     0.0000     4.0000 </r>
       <r>   -10.4003     0.0000     4.0000 </r>
       <r>   -10.2604     0.0000     4.0000 </r>
       <r>   -10.1206     0.0000     4.0000 </r>
       <r>    -9.9808     2.7786     4.3885 </r>
       <r>    -9.8410     4.3371     8.6597 </r>
       <r>    -9.7011     2.8413     9.9992 </r>
       <r>    -9.5613     0.0000    10.0000 </r>
       <r>    -9.4215     0.0000    10.0000 </r>
       <r>    -9.2816     0.0000    10.0000 </r>
       <r>    -9.1418     0.0000    10.0000 </r>
       <r>    -9.0020     0.0000    10.0000 </r>
       <r>    -8.8621     0.0000    10.0000 </r>
       <r>    -8.7223     0.0000    10.0000 </r>
       <r>    -8.5825     0.0000    10.0000 </r>
       <r>    -8.4427     0.0000    10.0000 </r>
       <r>    -8.3028     0.0000    10.0000 </r>
       <r>    -8.1630     0.0000    10.0000 </r>
       <r>    -8.0232     0.0000    10.0000 </r>
       <r>    -7.8833     0.0000    10.0000 </r>
       <r>    -7.7435     0.0000    10.0000 </r>
       <r>    -7.6037     0.0000    10.0000 </r>
       <r>    -7.4638     0.0000    10.0000 </r>
       <r>    -7.3240     0.0000    10.0000 </r>
       <r>    -7.1842     0.0000    10.0000 </r>
       <r>    -7.0444     0.0000    10.0000 </r>
       <r>    -6.9045     0.0000    10.0000 </r>
       <r>    -6.7647     0.0000    10.0000 </r>
       <r>    -6.6249     0.0000    10.0000 </r>
       <r>    -6.4850     0.0000    10.0000 </r>
       <r>    -6.3452     0.0000    10.0000 </r>
       <r>    -6.2054     0.0000    10.0000 </r>
       <r>    -6.0655     0.0000    10.0000 </r>
       <r>    -5.9257     0.0000    10.0000 </r>
       <r>    -5.7859     0.0000    10.0000 </r>
       <r>    -5.6461     0.0000    10.0000 </r>
       <r>    -5.5062     0.0000    10.0000 </r>
       <r>    -5.3664     0.0000    10.0000 </r>
       <r>    -5.2266     0.0000    10.0000 </r>
       <r>    -5.0867     0.0000    10.0000 </r>
       <r>    -4.9469     0.0000    10.0000 </r>
       <r>    -4.8071     0.0000    10.0000 </r>
       <r>    -4.6672     0.0000    10.0000 </r>
       <r>    -4.5274     0.0000    10.0000 </r>
       <r>    -4.3876     0.0000    10.0000 </r>
       <r>    -4.2478     0.0000    10.0000 </r>
       <r>    -4.1079     0.0000    10.0000 </r>
       <r>    -3.9681     0.0000    10.0000 </r>
       <r>    -3.8283     0.0000    10.0000 </r>
       <r>    -3.6884     0.0000    10.0000 </r>
       <r>    -3.5486     0.0000    10.0000 </r>
       <r>    -3.4088     0.0000    10.0000 </r>
       <r>    -3.2689     0.0000    10.0000 </r>
       <r>    -3.1291     0.0000    10.0000 </r>
       <r>    -2.9893     0.0000    10.0000 </r>
       <r>    -2.8495     0.0000    10.0000 </r>
       <r>    -2.7096     0.0000    10.0000 </r>
       <r>    -2.5698     0.0000    10.0000 </r>
       <r>    -2.4300     0.0000    10.0000 </r>
       <r>    -2.2901     0.0000    10.0000 </r>
       <r>    -2.1503     0.0000    10.0000 </r>
       <r>    -2.0105     0.0000    10.0000 </r>
       <r>    -1.8706     0.0000    10.0000 </r>
       <r>    -1.7308     0.1603    10.0224 </r>
       <r>    -1.5910     1.3797    10.2901 </r>
       <r>    -1.4512     2.6843    10.9679 </r>
       <r>    -1.3113     2.8545    11.7348 </r>
       <r>    -1.1715     1.6703    12.1236 </r>
       <r>    -1.0317     8.9735    13.7420 </r>
       <r>    -0.8918     5.6044    15.4607 </r>
       <r>    -0.7520     1.4628    15.9603 </r>
       <r>    -0.6122     0.0000    16.0000 </r>
       <r>    -0.4723     0.0000    16.0000 </r>
       <r>    -0.3325     0.0000    16.0000 </r>
       <r>    -0.1927     0.0000    16.0000 </r>
       <r>    -0.0529     0.0000    16.0000 </r>
       <r>     0.0870     0.0000    16.0000 </r>
       <r>     0.2268     0.0000    16.0000 </r>
       <r>     0.3666     0.0000    16.0000 </r>
       <r>     0.5065     0.0000    16.0000 </r>
       <r>     0.6463     0.0000    16.0000 </r>
       <r>     0.7861     0.0000    16.0000 </r>
       <r>     0.9260     0.0000    16.0000 </r>
       <r>     1.0658     0.0000    16.0000 </r>
       <r>     1.2056     0.0000    16.0000 </r>
       <r>     1.3454     0.0000    16.0000 </r>
       <r>     1.4853     0.0000    16.0000 </r>
       <r>     1.6251     0.0000    16.0000 </r>
       <r>     1.7649     0.0000    16.0000 </r>
       <r>     1.9048     0.0000    16.0000 </r>
       <r>     2.0446     0.0000    16.0000 </r>
       <r>     2.1844     0.0000    16.0000 </r>
       <r>     2.3243     0.0000    16.0000 </r>
       <r>     2.4641     0.0000    16.0000 </r>
       <r>     2.6039     0.0000    16.0000 </r>
       <r>     2.7437     0.0000    16.0000 </r>
       <r>     2.8836     0.0000    16.0000 </r>
       <r>     3.0234     0.0000    16.0000 </r>
       <r>     3.1632     0.0082    16.0011 </r>
       <r>     3.3031     0.0075    16.0022 </r>
       <r>     3.4429     0.0000    16.0174 </r>
       <r>     3.5827     0.0993    16.0312 </r>
       <r>     3.7226     0.2008    16.0593 </r>
       <r>     3.8624     0.0497    16.0752 </r>
       <r>     4.0022     0.1770    16.1000 </r>
       <r>     4.1420     0.0362    16.1358 </r>
       <r>     4.2819     0.2818    16.2362 </r>
       <r>     4.4217     0.3758    16.3280 </r>
       <r>     4.5615     1.2497    16.5752 </r>
       <r>     4.7014     0.8627    16.7711 </r>
       <r>     4.8412     1.6228    17.0047 </r>
       <r>     4.9810     1.2694    17.3650 </r>
       <r>     5.1209     1.4481    17.6886 </r>
       <r>     5.2607     2.9070    18.2502 </r>
       <r>     5.4005     1.0465    18.5456 </r>
       <r>     5.5403     2.5047    18.9787 </r>
       <r>     5.6802     0.9483    19.1951 </r>
       <r>     5.8200     0.1990    19.3450 </r>
       <r>     5.9598     3.2848    19.8922 </r>
       <r>     6.0997     0.6450    20.1504 </r>
       <r>     6.2395     2.3895    20.5193 </r>
       <r>     6.3793     1.9721    20.8637 </r>
       <r>     6.5192     1.3879    21.1779 </r>
       <r>     6.6590     1.6894    21.5788 </r>
       <r>     6.7988     2.2654    22.1200 </r>
       <r>     6.9386     1.8636    22.5777 </r>
       <r>     7.0785     1.9661    22.9532 </r>
       <r>     7.2183     4.0030    23.6500 </r>
       <r>     7.3581     1.6295    24.0647 </r>
       <r>     7.4980     4.8315    25.0332 </r>
       <r>     7.6378     1.9811    25.4472 </r>
       <r>     7.7776     2.1029    26.1378 </r>
       <r>     7.9175     2.3285    26.5953 </r>
       <r>     8.0573     1.2920    26.9966 </r>
       <r>     8.1971     1.3060    27.3042 </r>
       <r>     8.3369     1.4200    27.6742 </r>
       <r>     8.4768     0.6745    27.7853 </r>
       <r>     8.6166     0.4410    27.8637 </r>
       <r>     8.7564     0.4044    28.0392 </r>
       <r>     8.8963     2.0054    28.3753 </r>
       <r>     9.0361     3.2450    29.0186 </r>
       <r>     9.1759     3.5806    29.6697 </r>
       <r>     9.3158     2.5353    30.3406 </r>
       <r>     9.4556     1.0970    30.7645 </r>
       <r>     9.5954     1.3913    31.0857 </r>
       <r>     9.7352     0.3676    31.2945 </r>
       <r>     9.8751     0.8681    31.5311 </r>
       <r>    10.0149     0.6427    31.6477 </r>
       <r>    10.1547     0.0993    31.7523 </r>
       <r>    10.2946     0.8403    31.8733 </r>
       <r>    10.4344     0.2310    31.9061 </r>
       <r>    10.5742     0.0234    31.9350 </r>
       <r>    10.7141     0.1931    31.9680 </r>
       <r>    10.8539     0.0000    31.9688 </r>
       <r>    10.9937     0.0000    31.9826 </r>
       <r>    11.1335     0.0000    31.9826 </r>
       <r>    11.2734     0.0000    31.9826 </r>
       <r>    11.4132     0.0000    31.9826 </r>
       <r>    11.5530     0.0026    31.9830 </r>
       <r>    11.6929     0.0497    31.9988 </r>
       <r>    11.8327     0.0000    31.9988 </r>
       <r>    11.9725     0.0000    31.9988 </r>
       <r>    12.1124     0.0000    31.9988 </r>
       <r>    12.2522     0.0000    31.9988 </r>
       <r>    12.3920     0.0000    32.0000 </r>
       <r>    12.5318     0.0000    32.0000 </r>
       <r>    12.6717     0.0000    32.0000 </r>
       <r>    12.8115     0.0000    32.0000 </r>
       <r>    12.9513     0.0000    32.0000 </r>
       <r>    13.0912     0.0000    32.0000 </r>
       <r>    13.2310     0.0000    32.0000 </r>
       <r>    13.3708     0.0000    32.0000 </r>
       <r>    13.5107     0.0000    32.0000 </r>
       <r>    13.6505     0.0000    32.0000 </r>
       <r>    13.7903     0.0000    32.0000 </r>
       <r>    13.9301     0.0000    32.0000 </r>
       <r>    14.0700     0.0000    32.0000 </r>
       <r>    14.2098     0.0000    32.0000 </r>
      </set>
     </set>
    </array>
   </total>
  </dos>
 </calculation>
 <structure name="finalpos" >
  <crystal>
   <varray name="basis" >
    <v>      -3.69116708       0.00000000       3.69116708 </v>
    <v>       0.00000000       3.69116708       3.69116708 </v>
    <v>      -3.69116708       3.69116708       0.00000000 </v>
   </varray>
   <i name="volume">    100.58219475 </i>
   <varray name="rec_basis" >
    <v>      -0.13545851      -0.13545851       0.13545851 </v>
    <v>       0.13545851       0.13545851       0.13545851 </v>
    <v>      -0.13545851       0.13545851      -0.13545851 </v>
   </varray>
  </crystal>
  <varray name="positions" >
   <v>       0.00000000       0.00000000       0.00000000 </v>
   <v>       0.49999996       0.50000004       0.49999996 </v>
  </varray>
 </structure>
</modeling>
