
     Program PWSCF v.7.1 starts on 11Apr2024 at  9:51:50 

     This program is part of the open-source Quantum ESPRESSO suite
     for quantum simulation of materials; please cite
         "P. Giannozzi et al., J. Phys.:Condens. Matter 21 395502 (2009);
         "P. Giannozzi et al., J. Phys.:Condens. Matter 29 465901 (2017);
         "P. Giannozzi et al., J. Chem. Phys. 152 154105 (2020);
          URL http://www.quantum-espresso.org", 
     in publications or presentations arising from this work. More details at
     http://www.quantum-espresso.org/quote

     Parallel version (MPI), running on    16 processors

     MPI processes distributed on     1 nodes
     246904 MiB available memory on the printing compute node when the environment starts
 
     Reading input from pw_mp-1672_nscf_k3000_E130.in
Warning: card &IONS ignored
Warning: card / ignored
Warning: card &CELL ignored
Warning: card / ignored

     Current dimensions of program PWSCF are:
     Max number of different atomic species (ntypx) = 10
     Max number of k-points (npk) =  40000
     Max angular momentum in pseudopotentials (lmaxx) =  4

     Atomic positions and unit cell read from directory:
     out/mp-1672.save/
     Atomic positions from file used, from input discarded
 
 
     R & G space division:  proc/nbgrp/npool/nimage =      16
     Subspace diagonalization in iterative solution of the eigenvalue problem:
     a serial algorithm will be used

 
     Parallelization info
     --------------------
     sticks:   dense  smooth     PW     G-vecs:    dense   smooth      PW
     Min         129     129     37                 3910     3910     592
     Max         130     130     38                 3913     3913     596
     Sum        2077    2077    595                62583    62583    9505
 
     Using Slab Decomposition
 


     bravais-lattice index     =            2
     lattice parameter (alat)  =      10.7804  a.u.
     unit-cell volume          =     313.2175 (a.u.)^3
     number of atoms/cell      =            2
     number of atomic types    =            2
     number of electrons       =        16.00
     number of Kohn-Sham states=           16
     kinetic-energy cutoff     =     130.0000  Ry
     charge density cutoff     =     520.0000  Ry
     Exchange-correlation= PBE
                           (   1   4   3   4   0   0   0)

     celldm(1)=  10.780412  celldm(2)=   0.000000  celldm(3)=   0.000000
     celldm(4)=   0.000000  celldm(5)=   0.000000  celldm(6)=   0.000000

     crystal axes: (cart. coord. in units of alat)
               a(1) = (  -0.500000   0.000000   0.500000 )  
               a(2) = (   0.000000   0.500000   0.500000 )  
               a(3) = (  -0.500000   0.500000   0.000000 )  

     reciprocal axes: (cart. coord. in units 2 pi/alat)
               b(1) = ( -1.000000 -1.000000  1.000000 )  
               b(2) = (  1.000000  1.000000  1.000000 )  
               b(3) = ( -1.000000  1.000000 -1.000000 )  


     PseudoPot. # 1 for Ca read from file:
     /usr/scratch4/magr4826/Promotion/Python/Code/devEb/pseudo/SG15/Ca.upf
     MD5 check sum: b43c970dc090f2312d256360aabdb6f1
     Pseudo is Norm-conserving, Zval = 10.0
     Generated using ONCVPSP code by D. R. Hamann
     Using radial grid of  602 points,  6 beta functions with: 
                l(1) =   0
                l(2) =   0
                l(3) =   1
                l(4) =   1
                l(5) =   2
                l(6) =   2

     PseudoPot. # 2 for S  read from file:
     /usr/scratch4/magr4826/Promotion/Python/Code/devEb/pseudo/SG15/S.upf
     MD5 check sum: f9d020296ee6110346977bfd66d424f6
     Pseudo is Norm-conserving, Zval =  6.0
     Generated using ONCVPSP code by D. R. Hamann
     Using radial grid of  602 points,  4 beta functions with: 
                l(1) =   0
                l(2) =   0
                l(3) =   1
                l(4) =   1

     atomic species   valence    mass     pseudopotential
        Ca            10.00    40.07800     Ca( 1.00)
        S              6.00    32.06500     S ( 1.00)

     48 Sym. Ops., with inversion, found



   Cartesian axes

     site n.     atom                  positions (alat units)
         1           Ca  tau(   1) = (   0.0000000   0.0000000   0.0000000  )
         2           S   tau(   2) = (  -0.5000000   0.5000000   0.5000000  )

     number of k points=    72  Gaussian smearing, width (Ry)=  0.0005
                       cart. coord. in units 2pi/alat
        k(    1) = (   0.0000000   0.0000000   0.0000000), wk =   0.0011574
        k(    2) = (  -0.0833333   0.0833333  -0.0833333), wk =   0.0092593
        k(    3) = (  -0.1666667   0.1666667  -0.1666667), wk =   0.0092593
        k(    4) = (  -0.2500000   0.2500000  -0.2500000), wk =   0.0092593
        k(    5) = (  -0.3333333   0.3333333  -0.3333333), wk =   0.0092593
        k(    6) = (  -0.4166667   0.4166667  -0.4166667), wk =   0.0092593
        k(    7) = (   0.5000000  -0.5000000   0.5000000), wk =   0.0046296
        k(    8) = (   0.0000000   0.1666667   0.0000000), wk =   0.0069444
        k(    9) = (  -0.0833333   0.2500000  -0.0833333), wk =   0.0277778
        k(   10) = (  -0.1666667   0.3333333  -0.1666667), wk =   0.0277778
        k(   11) = (  -0.2500000   0.4166667  -0.2500000), wk =   0.0277778
        k(   12) = (  -0.3333333   0.5000000  -0.3333333), wk =   0.0277778
        k(   13) = (   0.5833333  -0.4166667   0.5833333), wk =   0.0277778
        k(   14) = (   0.5000000  -0.3333333   0.5000000), wk =   0.0277778
        k(   15) = (   0.4166667  -0.2500000   0.4166667), wk =   0.0277778
        k(   16) = (   0.3333333  -0.1666667   0.3333333), wk =   0.0277778
        k(   17) = (   0.2500000  -0.0833333   0.2500000), wk =   0.0277778
        k(   18) = (   0.1666667  -0.0000000   0.1666667), wk =   0.0138889
        k(   19) = (   0.0000000   0.3333333   0.0000000), wk =   0.0069444
        k(   20) = (  -0.0833333   0.4166667  -0.0833333), wk =   0.0277778
        k(   21) = (  -0.1666667   0.5000000  -0.1666667), wk =   0.0277778
        k(   22) = (  -0.2500000   0.5833333  -0.2500000), wk =   0.0277778
        k(   23) = (   0.6666667  -0.3333333   0.6666667), wk =   0.0277778
        k(   24) = (   0.5833333  -0.2500000   0.5833333), wk =   0.0277778
        k(   25) = (   0.5000000  -0.1666667   0.5000000), wk =   0.0277778
        k(   26) = (   0.4166667  -0.0833333   0.4166667), wk =   0.0277778
        k(   27) = (   0.3333333   0.0000000   0.3333333), wk =   0.0138889
        k(   28) = (   0.0000000   0.5000000   0.0000000), wk =   0.0069444
        k(   29) = (  -0.0833333   0.5833333  -0.0833333), wk =   0.0277778
        k(   30) = (  -0.1666667   0.6666667  -0.1666667), wk =   0.0277778
        k(   31) = (   0.7500000  -0.2500000   0.7500000), wk =   0.0277778
        k(   32) = (   0.6666667  -0.1666667   0.6666667), wk =   0.0277778
        k(   33) = (   0.5833333  -0.0833333   0.5833333), wk =   0.0277778
        k(   34) = (   0.5000000   0.0000000   0.5000000), wk =   0.0138889
        k(   35) = (   0.0000000   0.6666667   0.0000000), wk =   0.0069444
        k(   36) = (  -0.0833333   0.7500000  -0.0833333), wk =   0.0277778
        k(   37) = (   0.8333333  -0.1666667   0.8333333), wk =   0.0277778
        k(   38) = (   0.7500000  -0.0833333   0.7500000), wk =   0.0277778
        k(   39) = (   0.6666667  -0.0000000   0.6666667), wk =   0.0138889
        k(   40) = (   0.0000000   0.8333333   0.0000000), wk =   0.0069444
        k(   41) = (   0.9166667  -0.0833333   0.9166667), wk =   0.0277778
        k(   42) = (   0.8333333   0.0000000   0.8333333), wk =   0.0138889
        k(   43) = (   0.0000000  -1.0000000   0.0000000), wk =   0.0034722
        k(   44) = (  -0.1666667   0.3333333   0.0000000), wk =   0.0277778
        k(   45) = (  -0.2500000   0.4166667  -0.0833333), wk =   0.0555556
        k(   46) = (  -0.3333333   0.5000000  -0.1666667), wk =   0.0555556
        k(   47) = (   0.5833333  -0.4166667   0.7500000), wk =   0.0555556
        k(   48) = (   0.5000000  -0.3333333   0.6666667), wk =   0.0277778
        k(   49) = (  -0.1666667   0.5000000   0.0000000), wk =   0.0277778
        k(   50) = (  -0.2500000   0.5833333  -0.0833333), wk =   0.0555556
        k(   51) = (   0.6666667  -0.3333333   0.8333333), wk =   0.0555556
        k(   52) = (   0.5833333  -0.2500000   0.7500000), wk =   0.0555556
        k(   53) = (   0.5000000  -0.1666667   0.6666667), wk =   0.0555556
        k(   54) = (   0.4166667  -0.0833333   0.5833333), wk =   0.0555556
        k(   55) = (   0.3333333   0.0000000   0.5000000), wk =   0.0277778
        k(   56) = (  -0.1666667   0.6666667  -0.0000000), wk =   0.0277778
        k(   57) = (   0.7500000  -0.2500000   0.9166667), wk =   0.0555556
        k(   58) = (   0.6666667  -0.1666667   0.8333333), wk =   0.0555556
        k(   59) = (   0.5833333  -0.0833333   0.7500000), wk =   0.0555556
        k(   60) = (   0.5000000   0.0000000   0.6666667), wk =   0.0277778
        k(   61) = (   0.8333333  -0.1666667   1.0000000), wk =   0.0277778
        k(   62) = (   0.7500000  -0.0833333   0.9166667), wk =   0.0555556
        k(   63) = (   0.6666667   0.0000000   0.8333333), wk =   0.0277778
        k(   64) = (  -0.1666667  -1.0000000  -0.0000000), wk =   0.0138889
        k(   65) = (   0.6666667  -0.3333333   1.0000000), wk =   0.0277778
        k(   66) = (   0.5833333  -0.2500000   0.9166667), wk =   0.0555556
        k(   67) = (   0.5000000  -0.1666667   0.8333333), wk =   0.0277778
        k(   68) = (   0.6666667  -0.1666667   1.0000000), wk =   0.0277778
        k(   69) = (   0.5833333  -0.0833333   0.9166667), wk =   0.0555556
        k(   70) = (   0.5000000   0.0000000   0.8333333), wk =   0.0277778
        k(   71) = (  -0.3333333  -1.0000000   0.0000000), wk =   0.0138889
        k(   72) = (  -0.5000000  -1.0000000   0.0000000), wk =   0.0069444

     Dense  grid:    62583 G-vectors     FFT dimensions: (  60,  60,  60)

     Estimated max dynamical RAM per process >      14.73 MB

     Estimated total dynamical RAM >     235.66 MB

     The potential is recalculated from file :
     out/mp-1672.save/charge-density

     Starting wfcs are random

     Band Structure Calculation
     Davidson diagonalization with overlap

     ethr =  5.00E-06,  avg # of iterations = 24.6

     total cpu time spent up to now is        9.1 secs

     End of band structure calculation

          k = 0.0000 0.0000 0.0000 (  7799 PWs)   bands (ev):

   -33.2895 -14.2634 -14.2634 -14.2634  -5.3281   5.9787   5.9787   5.9787
    10.0928  10.1428  10.1428  10.1428  10.7305  10.7305  16.8426  19.0103

          k =-0.0833 0.0833-0.0833 (  7805 PWs)   bands (ev):

   -33.2887 -14.2745 -14.2643 -14.2643  -5.2802   5.6557   5.8732   5.8732
    10.1294  10.2473  10.2473  10.4745  10.9131  10.9131  16.9385  18.8592

          k =-0.1667 0.1667-0.1667 (  7811 PWs)   bands (ev):

   -33.2867 -14.3046 -14.2666 -14.2666  -5.1463   4.9421   5.6165   5.6165
    10.1490  10.5262  10.5262  11.3193  11.4205  11.4205  16.8147  18.3029

          k =-0.2500 0.2500-0.2500 (  7838 PWs)   bands (ev):

   -33.2840 -14.3451 -14.2698 -14.2698  -4.9549   4.1672   5.3187   5.3187
    10.2600  10.9385  10.9385  12.1328  12.1328  12.1974  16.3040  17.3677

          k =-0.3333 0.3333-0.3333 (  7873 PWs)   bands (ev):

   -33.2813 -14.3849 -14.2729 -14.2729  -4.7519   3.5066   5.0621   5.0621
    10.5117  11.4390  11.4390  12.6058  12.9088  12.9088  16.1807  16.3255

          k =-0.4167 0.4167-0.4167 (  7855 PWs)   bands (ev):

   -33.2793 -14.4136 -14.2753 -14.2753  -4.5944   3.0640   4.8934   4.8934
    10.8981  11.9166  11.9166  12.3336  13.6232  13.6232  15.3762  15.3763

          k = 0.5000-0.5000 0.5000 (  7786 PWs)   bands (ev):

   -33.2785 -14.4240 -14.2761 -14.2761  -4.5344   2.9078   4.8349   4.8349
    11.1963  12.0041  12.1353  12.1353  14.0615  14.0615  14.8277  14.8277

          k = 0.0000 0.1667 0.0000 (  7827 PWs)   bands (ev):

   -33.2885 -14.2741 -14.2666 -14.2666  -5.2657   5.5097   5.8816   5.8816
     9.9735  10.3737  10.4019  10.4019  10.7801  11.2587  16.9997  18.6246

          k =-0.0833 0.2500-0.0833 (  7823 PWs)   bands (ev):

   -33.2869 -14.2961 -14.2701 -14.2679  -5.1646   4.9864   5.6701   5.7123
     9.9129  10.5341  10.6894  10.9047  11.0380  11.9544  17.0142  18.1728

          k =-0.1667 0.3333-0.1667 (  7832 PWs)   bands (ev):

   -33.2844 -14.3321 -14.2740 -14.2702  -4.9985   4.3322   5.3452   5.4475
    10.0026  10.8670  11.0553  11.6128  11.6183  12.7575  16.4947  17.4757

          k =-0.2500 0.4167-0.2500 (  7848 PWs)   bands (ev):

   -33.2817 -14.3709 -14.2772 -14.2740  -4.8059   3.7068   5.0521   5.1794
    10.2302  11.3230  11.5264  12.2917  12.3141  13.3477  15.9896  16.6497

          k =-0.3333 0.5000-0.3333 (  7859 PWs)   bands (ev):

   -33.2795 -14.4022 -14.2788 -14.2782  -4.6379   3.2333   4.8526   4.9707
    10.6041  11.8300  11.9892  12.4084  12.9598  13.8068  15.3468  15.8825

          k = 0.5833-0.4167 0.5833 (  7827 PWs)   bands (ev):

   -33.2783 -14.4181 -14.2816 -14.2784  -4.5468   2.9974   4.7692   4.8556
    11.0475  11.9736  12.1679  12.2574  13.6292  13.9982  14.8842  15.3042

          k = 0.5000-0.3333 0.5000 (  7842 PWs)   bands (ev):

   -33.2786 -14.4148 -14.2833 -14.2761  -4.5646   3.0434   4.8071   4.8498
    11.0239  11.9203  12.0085  12.3846  13.3465  14.0560  15.1880  15.3103

          k = 0.4167-0.2500 0.4167 (  7845 PWs)   bands (ev):

   -33.2801 -14.3931 -14.2828 -14.2726  -4.6849   3.3638   4.9542   4.9605
    10.6353  11.4473  11.9546  12.3730  12.8184  13.6126  15.9495  15.9800

          k = 0.3333-0.1667 0.3333 (  7840 PWs)   bands (ev):

   -33.2826 -14.3586 -14.2801 -14.2687  -4.8667   3.9026   5.1555   5.2101
    10.3549  10.9569  11.4502  11.7424  12.7115  12.8421  16.1905  16.6894

          k = 0.2500-0.0833 0.2500 (  7826 PWs)   bands (ev):

   -33.2854 -14.3203 -14.2756 -14.2655  -5.0561   4.5664   5.4212   5.5119
    10.2271  10.5576  10.9218  11.0851  12.0436  12.0947  16.6874  17.3713

          k = 0.1667-0.0000 0.1667 (  7815 PWs)   bands (ev):

   -33.2876 -14.2894 -14.2698 -14.2639  -5.2051   5.2214   5.6909   5.7744
    10.1835  10.3070  10.4574  10.7062  11.2991  11.3624  16.9904  18.1284

          k = 0.0000 0.3333 0.0000 (  7835 PWs)   bands (ev):

   -33.2859 -14.3011 -14.2751 -14.2751  -5.1074   4.6758   5.6659   5.6659
     9.5661  10.7184  10.9196  11.0600  11.0600  12.7189  17.2884  17.8847

          k =-0.0833 0.4167-0.0833 (  7835 PWs)   bands (ev):

   -33.2838 -14.3255 -14.2803 -14.2788  -4.9874   4.2538   5.4343   5.4981
     9.4819  11.0200  11.1121  11.5174  11.5274  13.5284  16.5746  17.1497

          k =-0.1667 0.5000-0.1667 (  7834 PWs)   bands (ev):

   -33.2813 -14.3572 -14.2842 -14.2831  -4.8327   3.8323   5.0856   5.2751
     9.6489  11.5132  11.5222  12.0286  12.0390  14.0550  15.5192  16.8254

          k =-0.2500 0.5833-0.2500 (  7849 PWs)   bands (ev):

   -33.2791 -14.3854 -14.2894 -14.2858  -4.6827   3.4738   4.7879   5.0644
    10.0054  12.0466  12.0563  12.3609  12.4512  14.1618  14.7747  16.4657

          k = 0.6667-0.3333 0.6667 (  7841 PWs)   bands (ev):

   -33.2777 -14.4025 -14.2961 -14.2847  -4.5801   3.2433   4.6210   4.9135
    10.5190  12.0454  12.2590  12.5474  13.0051  13.9917  14.6742  16.0897

          k = 0.5833-0.2500 0.5833 (  7836 PWs)   bands (ev):

   -33.2775 -14.4047 -14.3010 -14.2812  -4.5579   3.1960   4.6003   4.8488
    11.0635  11.6232  12.0120  12.6838  13.3541  13.7140  15.2624  15.8367

          k = 0.5000-0.1667 0.5000 (  7849 PWs)   bands (ev):

   -33.2786 -14.3921 -14.3021 -14.2762  -4.6236   3.3492   4.7176   4.8802
    10.9385  11.5769  11.9292  12.2515  12.9371  14.0485  15.7324  15.8923

          k = 0.4167-0.0833 0.4167 (  7834 PWs)   bands (ev):

   -33.2806 -14.3689 -14.2980 -14.2711  -4.7559   3.6732   4.9523   5.0028
    10.6737  11.1292  11.5311  12.0517  12.8250  13.5898  16.1399  16.1465

          k = 0.3333 0.0000 0.3333 (  7812 PWs)   bands (ev):

   -33.2831 -14.3426 -14.2884 -14.2671  -4.9144   4.1050   5.1964   5.2535
    10.4709  10.7701  11.0711  11.4917  12.7087  12.8139  16.4815  16.4892

          k = 0.0000 0.5000 0.0000 (  7884 PWs)   bands (ev):

   -33.2823 -14.3332 -14.2869 -14.2869  -4.9250   4.0301   5.4492   5.4492
     9.1001  11.1199  11.1418  11.8468  11.8468  14.3372  15.8432  17.4543

          k =-0.0833 0.5833-0.0833 (  7838 PWs)   bands (ev):

   -33.2802 -14.3525 -14.2929 -14.2920  -4.8267   3.8068   5.2301   5.3180
     9.0581  11.3468  11.5143  12.1937  12.2033  14.7582  14.9910  17.1250

          k =-0.1667 0.6667-0.1667 (  7850 PWs)   bands (ev):

   -33.2782 -14.3718 -14.3016 -14.2944  -4.7170   3.6448   4.8620   5.1505
     9.3221  11.7885  12.1190  12.3935  12.4354  14.0293  14.9147  17.0351

          k = 0.7500-0.2500 0.7500 (  7844 PWs)   bands (ev):

   -33.2768 -14.3838 -14.3130 -14.2933  -4.6247   3.5520   4.5243   4.9959
     9.7987  12.2347  12.3419  12.4858  12.7059  13.6006  14.8432  16.7964

          k = 0.6667-0.1667 0.6667 (  7828 PWs)   bands (ev):

   -33.2764 -14.3860 -14.3232 -14.2891  -4.5760   3.5039   4.3544   4.8908
    10.4371  11.8263  12.1769  12.6017  13.1151  13.7373  15.1277  16.3150

          k = 0.5833-0.0833 0.5833 (  7837 PWs)   bands (ev):

   -33.2771 -14.3815 -14.3261 -14.2829  -4.5861   3.4857   4.4099   4.8555
    11.1662  11.4698  11.8103  12.0872  13.6717  13.7792  15.5884  16.0052

          k = 0.5000 0.0000 0.5000 (  7850 PWs)   bands (ev):

   -33.2786 -14.3757 -14.3164 -14.2763  -4.6525   3.5319   4.6433   4.8956
    11.0997  11.4314  11.5841  11.9930  13.1161  14.0452  15.8499  16.0986

          k = 0.0000 0.6667 0.0000 (  7824 PWs)   bands (ev):

   -33.2787 -14.3600 -14.2987 -14.2987  -4.7902   3.7244   5.2911   5.2911
     8.7039  11.3333  11.6159  12.4372  12.4372  14.0734  15.6490  17.6208

          k =-0.0833 0.7500-0.0833 (  7845 PWs)   bands (ev):

   -33.2771 -14.3704 -14.3062 -14.3023  -4.7327   3.6828   5.0850   5.2026
     8.7388  11.5454  11.9835  12.5657  12.5788  13.4162  15.7641  17.3908

          k = 0.8333-0.1667 0.8333 (  7845 PWs)   bands (ev):

   -33.2760 -14.3744 -14.3203 -14.3019  -4.6684   3.7217   4.6741   5.0827
     9.1036  11.9580  12.4566  12.5595  12.6078  12.9399  15.5933  17.0885

          k = 0.7500-0.0833 0.7500 (  7846 PWs)   bands (ev):

   -33.2755 -14.3683 -14.3395 -14.2977  -4.6133   3.8384   4.2303   4.9676
     9.6799  12.1950  12.3775  12.5159  12.5226  13.4043  15.5414  16.4626

          k = 0.6667-0.0000 0.6667 (  7860 PWs)   bands (ev):

   -33.2759 -14.3650 -14.3476 -14.2907  -4.5827   3.7535   4.1359   4.8863
    10.4025  11.8932  12.1013  12.1627  13.1665  13.9733  15.6251  15.8066

          k = 0.0000 0.8333 0.0000 (  7848 PWs)   bands (ev):

   -33.2761 -14.3764 -14.3073 -14.3073  -4.7265   3.6842   5.2023   5.2023
     8.4455  11.4989  11.9649  12.6751  12.6751  12.9800  16.1980  17.7185

          k = 0.9167-0.0833 0.9167 (  7861 PWs)   bands (ev):

   -33.2754 -14.3784 -14.3145 -14.3082  -4.6998   3.7241   5.0050   5.1493
     8.5701  11.6643  12.1856  12.6425  12.6720  12.7419  16.1434  17.5255

          k = 0.8333 0.0000 0.8333 (  7856 PWs)   bands (ev):

   -33.2752 -14.3723 -14.3295 -14.3047  -4.6586   3.8169   4.5784   5.0621
     9.0270  12.0194  12.4839  12.5083  12.5620  12.7852  15.9394  17.0084

          k = 0.0000-1.0000 0.0000 (  7880 PWs)   bands (ev):

   -33.2751 -14.3818 -14.3105 -14.3105  -4.7112   3.7096   5.1745   5.1745
     8.3564  11.5617  11.9892  12.7063  12.7157  12.7157  16.2976  17.7438

          k =-0.1667 0.3333 0.0000 (  7807 PWs)   bands (ev):

   -33.2851 -14.3166 -14.2787 -14.2691  -5.0520   4.5215   5.4701   5.5366
     9.8575  10.8427  10.9420  11.0406  11.5978  12.7396  16.9042  17.1589

          k =-0.2500 0.4167-0.0833 (  7838 PWs)   bands (ev):

   -33.2826 -14.3473 -14.2864 -14.2716  -4.8926   4.0126   5.1812   5.2751
     9.9994  11.1113  11.4147  11.5182  12.2568  13.4249  16.1712  16.6215

          k =-0.3333 0.5000-0.1667 (  7842 PWs)   bands (ev):

   -33.2802 -14.3787 -14.2912 -14.2757  -4.7259   3.5556   4.9030   5.0476
    10.2790  11.5129  11.9687  12.0918  12.6213  13.8324  15.5307  16.2471

          k = 0.5833-0.4167 0.7500 (  7831 PWs)   bands (ev):

   -33.2783 -14.4017 -14.2933 -14.2797  -4.5984   3.2363   4.7191   4.8960
    10.6921  11.9139  12.0579  12.5186  12.8680  14.1053  15.0469  15.8656

          k = 0.5000-0.3333 0.6667 (  7812 PWs)   bands (ev):

   -33.2777 -14.4101 -14.2937 -14.2816  -4.5504   3.1214   4.6563   4.8428
    11.0522  11.6113  12.2374  12.5916  13.4637  13.6994  15.1452  15.6180

          k =-0.1667 0.5000 0.0000 (  7845 PWs)   bands (ev):

   -33.2818 -14.3445 -14.2908 -14.2810  -4.8778   3.9480   5.2779   5.2956
     9.4261  11.1885  11.5074  11.7656  12.0623  14.1982  15.6406  16.7743

          k =-0.2500 0.5833-0.0833 (  7843 PWs)   bands (ev):

   -33.2795 -14.3666 -14.2996 -14.2847  -4.7502   3.6854   4.9506   5.1080
     9.6461  11.5166  12.0727  12.1450  12.3787  14.4544  14.7966  16.5014

          k = 0.6667-0.3333 0.8333 (  7846 PWs)   bands (ev):

   -33.2777 -14.3845 -14.3061 -14.2887  -4.6384   3.4950   4.6482   4.9527
    10.0521  11.9851  12.1821  12.3904  12.7525  14.2280  14.5782  16.3478

          k = 0.5833-0.2500 0.7500 (  7830 PWs)   bands (ev):

   -33.2768 -14.3931 -14.3115 -14.2892  -4.5744   3.3937   4.4860   4.8550
    10.6023  11.6006  12.3725  12.6756  12.9461  13.9167  15.0232  16.3265

          k = 0.5000-0.1667 0.6667 (  7827 PWs)   bands (ev):

   -33.2770 -14.3907 -14.3146 -14.2856  -4.5781   3.3972   4.5001   4.8333
    10.9706  11.3652  12.1323  12.4378  13.2259  13.9935  15.3292  15.9888

          k = 0.4167-0.0833 0.5833 (  7833 PWs)   bands (ev):

   -33.2784 -14.3794 -14.3119 -14.2800  -4.6487   3.5109   4.6793   4.8913
    10.5777  11.6694  11.9420  12.0581  12.9815  14.2068  15.2294  15.9679

          k = 0.3333 0.0000 0.5000 (  7832 PWs)   bands (ev):

   -33.2804 -14.3636 -14.3017 -14.2747  -4.7647   3.7238   4.9679   5.0216
    10.2333  11.3571  11.5594  12.0950  12.6253  13.9009  15.6014  16.2136

          k =-0.1667 0.6667-0.0000 (  7860 PWs)   bands (ev):

   -33.2784 -14.3646 -14.3030 -14.2955  -4.7524   3.6994   5.1159   5.1258
     9.0580  11.4698  11.9799  12.4000  12.4335  14.0516  15.2352  16.9026

          k = 0.7500-0.2500 0.9167 (  7853 PWs)   bands (ev):

   -33.2769 -14.3734 -14.3136 -14.2994  -4.6739   3.6696   4.7556   4.9964
     9.3707  11.7789  12.3094  12.5434  12.6390  13.4932  15.2307  16.7671

          k = 0.6667-0.1667 0.8333 (  7840 PWs)   bands (ev):

   -33.2760 -14.3749 -14.3270 -14.2991  -4.6116   3.7091   4.3918   4.8895
     9.8845  11.9061  12.2755  12.5367  12.7278  13.7301  15.2541  16.5580

          k = 0.5833-0.0833 0.7500 (  7840 PWs)   bands (ev):

   -33.2759 -14.3716 -14.3375 -14.2942  -4.5827   3.7064   4.2361   4.8268
    10.5418  11.4508  12.2395  12.4269  12.8875  14.2996  15.4272  16.0208

          k = 0.5000 0.0000 0.6667 (  7839 PWs)   bands (ev):

   -33.2768 -14.3742 -14.3313 -14.2870  -4.5960   3.5830   4.3991   4.8238
    11.0024  11.2861  11.9159  12.1583  13.3480  14.2407  15.4498  15.7865

          k = 0.8333-0.1667 1.0000 (  7853 PWs)   bands (ev):

   -33.2760 -14.3745 -14.3120 -14.3078  -4.6962   3.7115   5.0117   5.0170
     8.8187  11.6497  12.3784  12.5104  12.6681  12.9528  15.8790  17.2551

          k = 0.7500-0.0833 0.9167 (  7856 PWs)   bands (ev):

   -33.2753 -14.3711 -14.3259 -14.3081  -4.6516   3.8124   4.6088   4.9332
     9.2237  11.8913  12.2479  12.6144  12.6778  13.0566  15.8323  16.9449

          k = 0.6667 0.0000 0.8333 (  7859 PWs)   bands (ev):

   -33.2753 -14.3595 -14.3463 -14.3026  -4.6100   3.9795   4.1477   4.8647
     9.8232  11.8895  12.2440  12.4483  12.5724  13.8325  15.7905  16.2880

          k =-0.1667-1.0000-0.0000 (  7850 PWs)   bands (ev):

   -33.2751 -14.3770 -14.3152 -14.3128  -4.6836   3.7636   4.9713   4.9783
     8.7364  11.7024  12.4046  12.5226  12.6776  12.7177  16.1037  17.3904

          k = 0.6667-0.3333 1.0000 (  7820 PWs)   bands (ev):

   -33.2777 -14.3725 -14.3150 -14.2897  -4.6669   3.6220   4.7520   4.8815
     9.9278  11.6501  12.1383  12.2972  12.8320  14.2727  14.7480  16.2514

          k = 0.5833-0.2500 0.9167 (  7832 PWs)   bands (ev):

   -33.2764 -14.3751 -14.3253 -14.2959  -4.6053   3.6396   4.4746   4.7799
    10.3728  11.5498  12.0066  12.4857  12.9876  14.3273  15.0520  16.1638

          k = 0.5000-0.1667 0.8333 (  7834 PWs)   bands (ev):

   -33.2759 -14.3757 -14.3287 -14.2989  -4.5827   3.6705   4.3443   4.7481
    10.8656  10.9883  12.4358  12.5504  12.5952  14.6118  15.2485  16.2726

          k = 0.6667-0.1667 1.0000 (  7830 PWs)   bands (ev):

   -33.2758 -14.3691 -14.3247 -14.3076  -4.6322   3.7795   4.6239   4.7212
     9.7256  11.8456  11.8909  12.6466  12.7763  13.7177  15.5005  16.5662

          k = 0.5833-0.0833 0.9167 (  7852 PWs)   bands (ev):

   -33.2753 -14.3599 -14.3384 -14.3108  -4.6023   3.9541   4.2927   4.6485
    10.2569  11.3744  12.0669  12.4538  12.6770  14.5688  15.6817  16.3182

          k = 0.5000 0.0000 0.8333 (  7848 PWs)   bands (ev):

   -33.2755 -14.3601 -14.3421 -14.3051  -4.5923   3.8886   4.2537   4.6706
    10.8493  10.8839  12.0700  12.6065  12.6121  15.1063  15.2864  16.0204

          k =-0.3333-1.0000 0.0000 (  7854 PWs)   bands (ev):

   -33.2751 -14.3639 -14.3283 -14.3176  -4.6276   3.9281   4.5820   4.6079
     9.6559  11.8569  11.8633  12.4669  12.7217  13.7921  15.9350  16.7346

          k =-0.5000-1.0000 0.0000 (  7848 PWs)   bands (ev):

   -33.2751 -14.3461 -14.3461 -14.3199  -4.5990   4.2059   4.2059   4.4425
    10.7947  10.7947  11.9626  12.3624  12.7237  15.2401  16.0418  16.1758

     the Fermi energy is     7.6049 ev
     (compare with:     7.6109 eV, computed in scf)

     Writing all to output data dir out/mp-1672.save/
 
     init_run     :      0.06s CPU      0.16s WALL (       1 calls)
     electrons    :      5.59s CPU      8.23s WALL (       1 calls)

     Called by init_run:
     wfcinit      :      0.00s CPU      0.00s WALL (       1 calls)
     potinit      :      0.00s CPU      0.04s WALL (       1 calls)
     hinit0       :      0.01s CPU      0.08s WALL (       1 calls)

     Called by electrons:
     c_bands      :      5.59s CPU      8.23s WALL (       1 calls)
     v_of_rho     :      0.00s CPU      0.02s WALL (       1 calls)

     Called by c_bands:
     init_us_2    :      0.01s CPU      0.01s WALL (      72 calls)
     init_us_2:cp :      0.01s CPU      0.01s WALL (      72 calls)
     cegterg      :      5.23s CPU      5.36s WALL (     143 calls)

     Called by *egterg:
     cdiaghg      :      0.49s CPU      0.50s WALL (    1842 calls)
     h_psi        :      4.58s CPU      4.71s WALL (    1985 calls)
     g_psi        :      0.02s CPU      0.03s WALL (    1770 calls)

     Called by h_psi:
     h_psi:calbec :      0.10s CPU      0.10s WALL (    1985 calls)
     vloc_psi     :      4.42s CPU      4.54s WALL (    1985 calls)
     add_vuspsi   :      0.05s CPU      0.05s WALL (    1985 calls)

     General routines
     calbec       :      0.09s CPU      0.10s WALL (    1985 calls)
     fft          :      0.00s CPU      0.07s WALL (      10 calls)
     fftw         :      4.07s CPU      4.18s WALL (   42520 calls)
 
     Parallel routines
 
     PWSCF        :      6.12s CPU     11.36s WALL

 
   This run was terminated on:   9:52: 1  11Apr2024            

=------------------------------------------------------------------------------=
   JOB DONE.
=------------------------------------------------------------------------------=
