
     Program PWSCF v.7.1 starts on  8Apr2024 at 15:11:56 

     This program is part of the open-source Quantum ESPRESSO suite
     for quantum simulation of materials; please cite
         "P. Giannozzi et al., J. Phys.:Condens. Matter 21 395502 (2009);
         "P. Giannozzi et al., J. Phys.:Condens. Matter 29 465901 (2017);
         "P. Giannozzi et al., J. Chem. Phys. 152 154105 (2020);
          URL http://www.quantum-espresso.org", 
     in publications or presentations arising from this work. More details at
     http://www.quantum-espresso.org/quote

     Parallel version (MPI), running on    16 processors

     MPI processes distributed on     1 nodes
     244288 MiB available memory on the printing compute node when the environment starts
 
     Reading input from pw_mp-1342_scf_k3000_E70.in
Warning: card &CELL ignored
Warning: card / ignored

     Current dimensions of program PWSCF are:
     Max number of different atomic species (ntypx) = 10
     Max number of k-points (npk) =  40000
     Max angular momentum in pseudopotentials (lmaxx) =  4
 
     R & G space division:  proc/nbgrp/npool/nimage =      16
     Subspace diagonalization in iterative solution of the eigenvalue problem:
     a serial algorithm will be used

 
     Parallelization info
     --------------------
     sticks:   dense  smooth     PW     G-vecs:    dense   smooth      PW
     Min          66      66     19                 1453     1453     234
     Max          67      67     20                 1457     1457     237
     Sum        1069    1069    313                23289    23289    3767
 
     Using Slab Decomposition
 


     bravais-lattice index     =            2
     lattice parameter (alat)  =      10.5462  a.u.
     unit-cell volume          =     293.2392 (a.u.)^3
     number of atoms/cell      =            2
     number of atomic types    =            2
     number of electrons       =        16.00
     number of Kohn-Sham states=           16
     kinetic-energy cutoff     =      70.0000  Ry
     charge density cutoff     =     280.0000  Ry
     scf convergence threshold =      1.0E-10
     mixing beta               =       0.7000
     number of iterations used =            8  plain     mixing
     Exchange-correlation= PBE
                           (   1   4   3   4   0   0   0)

     celldm(1)=  10.546151  celldm(2)=   0.000000  celldm(3)=   0.000000
     celldm(4)=   0.000000  celldm(5)=   0.000000  celldm(6)=   0.000000

     crystal axes: (cart. coord. in units of alat)
               a(1) = (  -0.500000   0.000000   0.500000 )  
               a(2) = (   0.000000   0.500000   0.500000 )  
               a(3) = (  -0.500000   0.500000   0.000000 )  

     reciprocal axes: (cart. coord. in units 2 pi/alat)
               b(1) = ( -1.000000 -1.000000  1.000000 )  
               b(2) = (  1.000000  1.000000  1.000000 )  
               b(3) = ( -1.000000  1.000000 -1.000000 )  


     PseudoPot. # 1 for Ba read from file:
     /usr/scratch4/magr4826/Promotion/Python/Code/devEb/pseudo/SG15/Ba.upf
     MD5 check sum: ac4691792522964bb0504809e83fae44
     Pseudo is Norm-conserving, Zval = 10.0
     Generated using ONCVPSP code by D. R. Hamann
     Using radial grid of  602 points,  8 beta functions with: 
                l(1) =   0
                l(2) =   0
                l(3) =   1
                l(4) =   1
                l(5) =   2
                l(6) =   2
                l(7) =   3
                l(8) =   3

     PseudoPot. # 2 for O  read from file:
     /usr/scratch4/magr4826/Promotion/Python/Code/devEb/pseudo/SG15/O.upf
     MD5 check sum: e36c48deb68f4e355fffe4602be2c42c
     Pseudo is Norm-conserving, Zval =  6.0
     Generated using ONCVPSP code by D. R. Hamann
     Using radial grid of  602 points,  4 beta functions with: 
                l(1) =   0
                l(2) =   0
                l(3) =   1
                l(4) =   1

     atomic species   valence    mass     pseudopotential
        Ba            10.00   137.32700     Ba( 1.00)
        O              6.00    15.99940     O ( 1.00)

     48 Sym. Ops., with inversion, found



   Cartesian axes

     site n.     atom                  positions (alat units)
         1           Ba  tau(   1) = (   0.0000000   0.0000000   0.0000000  )
         2           O   tau(   2) = (  -0.5000000   0.5000000   0.5000000  )

     number of k points=    72  Gaussian smearing, width (Ry)=  0.0005
                       cart. coord. in units 2pi/alat
        k(    1) = (   0.0000000   0.0000000   0.0000000), wk =   0.0011574
        k(    2) = (  -0.0833333   0.0833333  -0.0833333), wk =   0.0092593
        k(    3) = (  -0.1666667   0.1666667  -0.1666667), wk =   0.0092593
        k(    4) = (  -0.2500000   0.2500000  -0.2500000), wk =   0.0092593
        k(    5) = (  -0.3333333   0.3333333  -0.3333333), wk =   0.0092593
        k(    6) = (  -0.4166667   0.4166667  -0.4166667), wk =   0.0092593
        k(    7) = (   0.5000000  -0.5000000   0.5000000), wk =   0.0046296
        k(    8) = (   0.0000000   0.1666667   0.0000000), wk =   0.0069444
        k(    9) = (  -0.0833333   0.2500000  -0.0833333), wk =   0.0277778
        k(   10) = (  -0.1666667   0.3333333  -0.1666667), wk =   0.0277778
        k(   11) = (  -0.2500000   0.4166667  -0.2500000), wk =   0.0277778
        k(   12) = (  -0.3333333   0.5000000  -0.3333333), wk =   0.0277778
        k(   13) = (   0.5833333  -0.4166667   0.5833333), wk =   0.0277778
        k(   14) = (   0.5000000  -0.3333333   0.5000000), wk =   0.0277778
        k(   15) = (   0.4166667  -0.2500000   0.4166667), wk =   0.0277778
        k(   16) = (   0.3333333  -0.1666667   0.3333333), wk =   0.0277778
        k(   17) = (   0.2500000  -0.0833333   0.2500000), wk =   0.0277778
        k(   18) = (   0.1666667  -0.0000000   0.1666667), wk =   0.0138889
        k(   19) = (   0.0000000   0.3333333   0.0000000), wk =   0.0069444
        k(   20) = (  -0.0833333   0.4166667  -0.0833333), wk =   0.0277778
        k(   21) = (  -0.1666667   0.5000000  -0.1666667), wk =   0.0277778
        k(   22) = (  -0.2500000   0.5833333  -0.2500000), wk =   0.0277778
        k(   23) = (   0.6666667  -0.3333333   0.6666667), wk =   0.0277778
        k(   24) = (   0.5833333  -0.2500000   0.5833333), wk =   0.0277778
        k(   25) = (   0.5000000  -0.1666667   0.5000000), wk =   0.0277778
        k(   26) = (   0.4166667  -0.0833333   0.4166667), wk =   0.0277778
        k(   27) = (   0.3333333   0.0000000   0.3333333), wk =   0.0138889
        k(   28) = (   0.0000000   0.5000000   0.0000000), wk =   0.0069444
        k(   29) = (  -0.0833333   0.5833333  -0.0833333), wk =   0.0277778
        k(   30) = (  -0.1666667   0.6666667  -0.1666667), wk =   0.0277778
        k(   31) = (   0.7500000  -0.2500000   0.7500000), wk =   0.0277778
        k(   32) = (   0.6666667  -0.1666667   0.6666667), wk =   0.0277778
        k(   33) = (   0.5833333  -0.0833333   0.5833333), wk =   0.0277778
        k(   34) = (   0.5000000   0.0000000   0.5000000), wk =   0.0138889
        k(   35) = (   0.0000000   0.6666667   0.0000000), wk =   0.0069444
        k(   36) = (  -0.0833333   0.7500000  -0.0833333), wk =   0.0277778
        k(   37) = (   0.8333333  -0.1666667   0.8333333), wk =   0.0277778
        k(   38) = (   0.7500000  -0.0833333   0.7500000), wk =   0.0277778
        k(   39) = (   0.6666667  -0.0000000   0.6666667), wk =   0.0138889
        k(   40) = (   0.0000000   0.8333333   0.0000000), wk =   0.0069444
        k(   41) = (   0.9166667  -0.0833333   0.9166667), wk =   0.0277778
        k(   42) = (   0.8333333   0.0000000   0.8333333), wk =   0.0138889
        k(   43) = (   0.0000000  -1.0000000   0.0000000), wk =   0.0034722
        k(   44) = (  -0.1666667   0.3333333   0.0000000), wk =   0.0277778
        k(   45) = (  -0.2500000   0.4166667  -0.0833333), wk =   0.0555556
        k(   46) = (  -0.3333333   0.5000000  -0.1666667), wk =   0.0555556
        k(   47) = (   0.5833333  -0.4166667   0.7500000), wk =   0.0555556
        k(   48) = (   0.5000000  -0.3333333   0.6666667), wk =   0.0277778
        k(   49) = (  -0.1666667   0.5000000   0.0000000), wk =   0.0277778
        k(   50) = (  -0.2500000   0.5833333  -0.0833333), wk =   0.0555556
        k(   51) = (   0.6666667  -0.3333333   0.8333333), wk =   0.0555556
        k(   52) = (   0.5833333  -0.2500000   0.7500000), wk =   0.0555556
        k(   53) = (   0.5000000  -0.1666667   0.6666667), wk =   0.0555556
        k(   54) = (   0.4166667  -0.0833333   0.5833333), wk =   0.0555556
        k(   55) = (   0.3333333   0.0000000   0.5000000), wk =   0.0277778
        k(   56) = (  -0.1666667   0.6666667  -0.0000000), wk =   0.0277778
        k(   57) = (   0.7500000  -0.2500000   0.9166667), wk =   0.0555556
        k(   58) = (   0.6666667  -0.1666667   0.8333333), wk =   0.0555556
        k(   59) = (   0.5833333  -0.0833333   0.7500000), wk =   0.0555556
        k(   60) = (   0.5000000   0.0000000   0.6666667), wk =   0.0277778
        k(   61) = (   0.8333333  -0.1666667   1.0000000), wk =   0.0277778
        k(   62) = (   0.7500000  -0.0833333   0.9166667), wk =   0.0555556
        k(   63) = (   0.6666667   0.0000000   0.8333333), wk =   0.0277778
        k(   64) = (  -0.1666667  -1.0000000  -0.0000000), wk =   0.0138889
        k(   65) = (   0.6666667  -0.3333333   1.0000000), wk =   0.0277778
        k(   66) = (   0.5833333  -0.2500000   0.9166667), wk =   0.0555556
        k(   67) = (   0.5000000  -0.1666667   0.8333333), wk =   0.0277778
        k(   68) = (   0.6666667  -0.1666667   1.0000000), wk =   0.0277778
        k(   69) = (   0.5833333  -0.0833333   0.9166667), wk =   0.0555556
        k(   70) = (   0.5000000   0.0000000   0.8333333), wk =   0.0277778
        k(   71) = (  -0.3333333  -1.0000000   0.0000000), wk =   0.0138889
        k(   72) = (  -0.5000000  -1.0000000   0.0000000), wk =   0.0069444

     Dense  grid:    23289 G-vectors     FFT dimensions: (  40,  40,  40)

     Estimated max dynamical RAM per process >      10.86 MB

     Estimated total dynamical RAM >     173.74 MB

     Initial potential from superposition of free atoms

     starting charge      15.6072, renormalised to      16.0000
     Starting wfcs are random

     total cpu time spent up to now is        0.4 secs

     Self-consistent Calculation

     iteration #  1     ecut=    70.00 Ry     beta= 0.70
     ParO style diagonalization
     c_bands:  1 eigenvalues not converged
     c_bands:  1 eigenvalues not converged
     c_bands:  1 eigenvalues not converged
     c_bands:  1 eigenvalues not converged
     c_bands:  1 eigenvalues not converged
     c_bands:  1 eigenvalues not converged
     c_bands:  1 eigenvalues not converged
     c_bands:  1 eigenvalues not converged
     c_bands:  1 eigenvalues not converged
     c_bands:  1 eigenvalues not converged
     c_bands:  1 eigenvalues not converged
     c_bands:  1 eigenvalues not converged
     c_bands:  1 eigenvalues not converged
     c_bands:  1 eigenvalues not converged
     c_bands:  1 eigenvalues not converged
     c_bands:  1 eigenvalues not converged
     c_bands:  1 eigenvalues not converged
     c_bands:  1 eigenvalues not converged
     c_bands:  1 eigenvalues not converged
     c_bands:  1 eigenvalues not converged
     c_bands:  1 eigenvalues not converged
     c_bands:  1 eigenvalues not converged
     c_bands:  1 eigenvalues not converged
     ethr =  5.00E-06,  avg # of iterations = 35.4

     total cpu time spent up to now is        6.2 secs

     total energy              =     -83.35548956 Ry
     estimated scf accuracy    <       0.54048865 Ry

     iteration #  2     ecut=    70.00 Ry     beta= 0.70
     ParO style diagonalization
     ethr =  3.38E-03,  avg # of iterations =  8.1

     total cpu time spent up to now is        9.2 secs

     total energy              =     -83.12321167 Ry
     estimated scf accuracy    <       2.80333589 Ry

     iteration #  3     ecut=    70.00 Ry     beta= 0.70
     ParO style diagonalization
     ethr =  3.38E-03,  avg # of iterations =  5.6

     total cpu time spent up to now is       11.8 secs

     total energy              =     -83.62943250 Ry
     estimated scf accuracy    <       0.04691076 Ry

     iteration #  4     ecut=    70.00 Ry     beta= 0.70
     ParO style diagonalization
     ethr =  2.93E-04,  avg # of iterations =  5.5

     total cpu time spent up to now is       13.6 secs

     total energy              =     -83.63716635 Ry
     estimated scf accuracy    <       0.00027071 Ry

     iteration #  5     ecut=    70.00 Ry     beta= 0.70
     ParO style diagonalization
     ethr =  1.69E-06,  avg # of iterations = 10.1

     total cpu time spent up to now is       16.3 secs

     total energy              =     -83.63711559 Ry
     estimated scf accuracy    <       0.00015554 Ry

     iteration #  6     ecut=    70.00 Ry     beta= 0.70
     ParO style diagonalization
     ethr =  9.72E-07,  avg # of iterations =  6.3

     total cpu time spent up to now is       17.7 secs

     total energy              =     -83.63714991 Ry
     estimated scf accuracy    <       0.00008809 Ry

     iteration #  7     ecut=    70.00 Ry     beta= 0.70
     ParO style diagonalization
     ethr =  5.51E-07,  avg # of iterations =  5.6

     total cpu time spent up to now is       18.5 secs

     total energy              =     -83.63716785 Ry
     estimated scf accuracy    <       0.00000320 Ry

     iteration #  8     ecut=    70.00 Ry     beta= 0.70
     ParO style diagonalization
     ethr =  2.00E-08,  avg # of iterations =  6.0

     total cpu time spent up to now is       20.9 secs

     total energy              =     -83.63716794 Ry
     estimated scf accuracy    <       0.00000043 Ry

     iteration #  9     ecut=    70.00 Ry     beta= 0.70
     ParO style diagonalization
     ethr =  2.69E-09,  avg # of iterations =  6.1

     total cpu time spent up to now is       22.7 secs

     total energy              =     -83.63716797 Ry
     estimated scf accuracy    <       0.00000003 Ry

     iteration # 10     ecut=    70.00 Ry     beta= 0.70
     ParO style diagonalization
     c_bands:  2 eigenvalues not converged
     ethr =  1.82E-10,  avg # of iterations =  8.6

     total cpu time spent up to now is       23.9 secs

     total energy              =     -83.63716798 Ry
     estimated scf accuracy    <          1.3E-10 Ry

     iteration # 11     ecut=    70.00 Ry     beta= 0.70
     ParO style diagonalization
     c_bands:  1 eigenvalues not converged
     ethr =  8.30E-13,  avg # of iterations = 12.6

     total cpu time spent up to now is       26.5 secs

     End of self-consistent calculation

          k = 0.0000 0.0000 0.0000 (  2891 PWs)   bands (ev):

   -17.5997  -6.7153  -2.1664  -2.1664  -2.1664   7.8276   7.8276   7.8276
    11.7226  12.9740  12.9740  12.9740  15.1830  15.1830  15.7432  18.6311

          k =-0.0833 0.0833-0.0833 (  2861 PWs)   bands (ev):

   -17.5847  -6.7597  -2.1834  -2.1744  -2.1744   7.6820   7.7490   7.7490
    12.0181  12.8537  13.0888  13.0888  15.3440  15.3440  16.0672  18.5913

          k =-0.1667 0.1667-0.1667 (  2875 PWs)   bands (ev):

   -17.5433  -6.8821  -2.2285  -2.1959  -2.1959   7.3399   7.5449   7.5449
    12.5761  12.8995  13.4208  13.4208  15.7804  15.7804  16.7720  18.4801

          k =-0.2500 0.2500-0.2500 (  2896 PWs)   bands (ev):

   -17.4855  -7.0497  -2.2867  -2.2249  -2.2249   6.9555   7.2901   7.2901
    12.6163  13.8759  13.9301  13.9301  16.3746  16.3746  17.4703  18.3486

          k =-0.3333 0.3333-0.3333 (  2899 PWs)   bands (ev):

   -17.4264  -7.2175  -2.3414  -2.2533  -2.2533   6.6250   7.0583   7.0583
    12.7895  14.5390  14.5390  14.8650  16.9529  16.9529  17.9752  18.3406

          k =-0.4167 0.4167-0.4167 (  2896 PWs)   bands (ev):

   -17.3822  -7.3406  -2.3793  -2.2738  -2.2738   6.4059   6.9002   6.9002
    13.0331  15.1013  15.1013  15.4315  17.2515  17.2515  18.3802  18.3802

          k = 0.5000-0.5000 0.5000 (  2914 PWs)   bands (ev):

   -17.3659  -7.3858  -2.3928  -2.2812  -2.2812   6.3288   6.8441   6.8441
    13.1536  15.3551  15.3551  15.5484  17.2638  17.2638  18.5252  18.5887

          k = 0.0000 0.1667 0.0000 (  2858 PWs)   bands (ev):

   -17.5798  -6.7710  -2.2050  -2.2050  -2.1428   7.4942   7.8197   7.8197
    12.0722  12.6151  13.2338  13.2338  15.2598  15.5323  16.1514  18.5581

          k =-0.0833 0.2500-0.0833 (  2881 PWs)   bands (ev):

   -17.5473  -6.8582  -2.2529  -2.2459  -2.1495   7.2057   7.7034   7.7377
    12.3661  12.5884  13.5310  13.5864  15.4932  15.9718  16.6851  18.4608

          k =-0.1667 0.3333-0.1667 (  2892 PWs)   bands (ev):

   -17.4951  -6.9987  -2.3118  -2.2859  -2.1923   6.9358   7.4380   7.5393
    12.3180  13.3578  14.0185  14.1002  15.9911  16.5106  17.3494  18.3488

          k =-0.2500 0.4167-0.2500 (  2899 PWs)   bands (ev):

   -17.4366  -7.1554  -2.3667  -2.3144  -2.2562   6.7195   7.1540   7.2956
    12.4951  14.0143  14.6907  14.8354  16.6284  16.9153  17.9154  18.3007

          k =-0.3333 0.5000-0.3333 (  2909 PWs)   bands (ev):

   -17.3875  -7.2860  -2.4094  -2.3240  -2.3183   6.5589   6.9641   7.0743
    12.8248  14.4450  15.2145  15.6519  17.0931  17.1653  18.1711  18.2219

          k = 0.5833-0.4167 0.5833 (  2900 PWs)   bands (ev):

   -17.3618  -7.3544  -2.4427  -2.3505  -2.3125   6.4591   6.9238   6.9273
    13.1093  14.6334  15.4302  16.0677  17.2413  17.3035  18.1446  18.3856

          k = 0.5000-0.3333 0.5000 (  2899 PWs)   bands (ev):

   -17.3672  -7.3419  -2.4619  -2.3425  -2.2829   6.4532   6.8715   7.0303
    13.0902  14.6896  15.1506  16.0183  17.2335  17.3443  17.9985  18.5114

          k = 0.4167-0.2500 0.4167 (  2904 PWs)   bands (ev):

   -17.4020  -7.2522  -2.4504  -2.3074  -2.2427   6.5634   6.9268   7.2330
    12.8215  14.5270  14.5726  15.4955  16.9561  17.2502  18.0675  18.4053

          k = 0.3333-0.1667 0.3333 (  2897 PWs)   bands (ev):

   -17.4561  -7.1103  -2.4030  -2.2603  -2.2025   6.7835   7.0817   7.4828
    12.5702  13.9522  13.9649  14.7441  16.5019  16.8337  17.7307  18.2662

          k = 0.2500-0.0833 0.2500 (  2883 PWs)   bands (ev):

   -17.5142  -6.9547  -2.3283  -2.2151  -2.1730   7.0848   7.3085   7.7050
    12.4962  13.1381  13.4732  14.0583  15.9187  16.2559  17.1380  18.3612

          k = 0.1667-0.0000 0.1667 (  2872 PWs)   bands (ev):

   -17.5609  -6.8268  -2.2455  -2.1849  -2.1626   7.4183   7.5549   7.8079
    12.4147  12.6384  13.1704  13.4915  15.4826  15.7110  16.4884  18.5069

          k = 0.0000 0.3333 0.0000 (  2882 PWs)   bands (ev):

   -17.5253  -6.8904  -2.3088  -2.3088  -2.1742   7.0049   7.8169   7.8169
    11.9253  12.7254  13.9501  13.9501  15.4845  16.3601  16.9422  18.4011

          k =-0.0833 0.4167-0.0833 (  2885 PWs)   bands (ev):

   -17.4826  -6.9723  -2.3744  -2.3675  -2.2659   6.8843   7.7149   7.7524
    11.7097  13.2215  14.4275  14.4602  15.7866  16.7457  17.4133  18.3886

          k =-0.1667 0.5000-0.1667 (  2900 PWs)   bands (ev):

   -17.4300  -7.0830  -2.4384  -2.4069  -2.3901   6.8534   7.4611   7.5754
    11.7944  13.8609  15.0019  15.0156  16.3627  16.9037  17.9003  18.3049

          k =-0.2500 0.5833-0.2500 (  2907 PWs)   bands (ev):

   -17.3815  -7.1915  -2.5484  -2.4496  -2.4173   6.8778   7.1985   7.3507
    12.1562  14.2663  15.4778  15.6619  16.9053  17.0642  18.0263  18.2417

          k = 0.6667-0.3333 0.6667 (  2909 PWs)   bands (ev):

   -17.3506  -7.2669  -2.6567  -2.4504  -2.3961   6.7959   7.1406   7.1616
    12.6932  14.2153  15.6551  16.1563  17.0451  17.4115  18.1134  18.1699

          k = 0.5833-0.2500 0.5833 (  2901 PWs)   bands (ev):

   -17.3462  -7.2877  -2.7116  -2.4182  -2.3484   6.6583   6.9900   7.3275
    13.1200  13.9923  15.3718  16.1614  17.2680  17.4346  17.9205  18.5056

          k = 0.5000-0.1667 0.5000 (  2912 PWs)   bands (ev):

   -17.3698  -7.2497  -2.6965  -2.3638  -2.2862   6.6104   6.9267   7.5345
    12.9443  14.1225  14.7992  15.7009  17.2088  17.4516  18.0196  18.4403

          k = 0.4167-0.0833 0.4167 (  2904 PWs)   bands (ev):

   -17.4143  -7.1650  -2.6115  -2.3014  -2.2258   6.6721   6.9642   7.7106
    12.6109  14.0102  14.2083  15.2222  16.9474  17.2465  17.9864  18.4099

          k = 0.3333 0.0000 0.3333 (  2882 PWs)   bands (ev):

   -17.4672  -7.0573  -2.4764  -2.2472  -2.1841   6.8366   7.0992   7.7831
    12.4469  13.5521  13.7441  14.7437  16.4041  16.7951  17.5985  18.2420

          k = 0.0000 0.5000 0.0000 (  2890 PWs)   bands (ev):

   -17.4510  -6.9797  -2.4470  -2.4470  -2.4285   6.9344   7.8529   7.8529
    11.2658  13.3768  14.9720  14.9720  15.8391  16.8595  17.6592  18.5519

          k =-0.0833 0.5833-0.0833 (  2893 PWs)   bands (ev):

   -17.4083  -7.0195  -2.6332  -2.5093  -2.5042   7.0725   7.7729   7.8107
    11.1371  13.8188  15.4631  15.5018  16.2308  16.8420  17.9722  18.3393

          k =-0.1667 0.6667-0.1667 (  2907 PWs)   bands (ev):

   -17.3658  -7.0798  -2.8279  -2.5450  -2.5255   7.2588   7.5401   7.6522
    11.3480  14.3464  15.5858  15.8768  16.9521  17.0044  17.9911  18.2465

          k = 0.7500-0.2500 0.7500 (  2912 PWs)   bands (ev):

   -17.3351  -7.1421  -2.9674  -2.5445  -2.5058   7.2176   7.4359   7.5034
    11.8532  14.4580  15.6026  16.0233  17.2431  17.5556  17.8168  18.3417

          k = 0.6667-0.1667 0.6667 (  2917 PWs)   bands (ev):

   -17.3249  -7.1893  -3.0186  -2.5074  -2.4495   6.9614   7.2192   7.6914
    12.5553  13.9738  15.7628  15.7824  17.2658  17.4729  18.2317  18.3616

          k = 0.5833-0.0833 0.5833 (  2912 PWs)   bands (ev):

   -17.3382  -7.2100  -2.9662  -2.4429  -2.3700   6.7697   7.0478   7.8215
    13.2018  13.4864  15.2090  15.6236  17.2908  17.5211  18.2126  18.4372

          k = 0.5000 0.0000 0.5000 (  2894 PWs)   bands (ev):

   -17.3711  -7.2008  -2.8188  -2.3676  -2.2879   6.6695   6.9554   7.8370
    12.8673  13.8883  14.6427  15.3581  17.2585  17.4890  18.1894  18.3767

          k = 0.0000 0.6667 0.0000 (  2902 PWs)   bands (ev):

   -17.3770  -6.9815  -2.8948  -2.5813  -2.5813   7.3466   7.9251   7.9251
    10.7564  13.9338  16.1072  16.1072  16.2890  16.6374  18.1430  18.3061

          k =-0.0833 0.7500-0.0833 (  2896 PWs)   bands (ev):

   -17.3444  -6.9780  -3.1228  -2.6250  -2.6197   7.6253   7.8546   7.8908
    10.7321  14.2493  15.9967  16.3752  16.9077  17.0645  18.0184  18.3053

          k = 0.8333-0.1667 0.8333 (  2907 PWs)   bands (ev):

   -17.3194  -7.0103  -3.2652  -2.6305  -2.6108   7.6156   7.7313   7.8595
    11.0622  14.6678  15.3853  16.5035  17.5252  17.5414  17.7161  18.4157

          k = 0.7500-0.0833 0.7500 (  2900 PWs)   bands (ev):

   -17.3089  -7.0708  -3.2876  -2.5954  -2.5566   7.3126   7.5003   7.9946
    11.6857  14.5450  15.2141  16.2962  17.3947  17.4484  18.2677  18.4104

          k = 0.6667-0.0000 0.6667 (  2904 PWs)   bands (ev):

   -17.3158  -7.1441  -3.1807  -2.5274  -2.4691   7.0149   7.2547   7.9885
    12.5012  13.8699  15.4946  15.7547  17.2893  17.4676  18.3894  18.4940

          k = 0.0000 0.8333 0.0000 (  2898 PWs)   bands (ev):

   -17.3231  -6.9139  -3.3566  -2.6771  -2.6771   7.9296   7.9974   7.9974
    10.4397  14.1735  16.4984  16.7699  17.1420  17.1420  17.9691  18.3579

          k = 0.9167-0.0833 0.9167 (  2906 PWs)   bands (ev):

   -17.3078  -6.9085  -3.4762  -2.6904  -2.6851   7.9131   7.9479   8.1184
    10.5243  14.3126  16.0844  16.9564  17.4659  17.7276  17.8163  18.2684

          k = 0.8333 0.0000 0.8333 (  2902 PWs)   bands (ev):

   -17.3026  -6.9663  -3.4523  -2.6613  -2.6418   7.6542   7.7649   8.1467
    10.9646  14.6774  15.3277  16.8848  17.2298  17.6931  18.1751  18.3629

          k = 0.0000-1.0000 0.0000 (  2914 PWs)   bands (ev):

   -17.3035  -6.8699  -3.5523  -2.7118  -2.7118   8.0272   8.0272   8.2114
    10.3325  14.1531  16.5707  17.0668  17.7256  17.8713  17.8713  17.9403

          k =-0.1667 0.3333 0.0000 (  2891 PWs)   bands (ev):

   -17.5096  -6.9447  -2.3544  -2.2622  -2.1809   6.9735   7.5016   7.8000
    12.1388  13.0360  13.7843  14.1867  15.7623  16.4462  17.1595  18.3575

          k =-0.2500 0.4167-0.0833 (  2893 PWs)   bands (ev):

   -17.4573  -7.0645  -2.4608  -2.2940  -2.2416   6.8123   7.2419   7.7106
    12.1519  13.6471  14.2100  14.8158  16.3176  16.8720  17.6846  18.3222

          k =-0.3333 0.5000-0.1667 (  2907 PWs)   bands (ev):

   -17.4039  -7.1865  -2.5391  -2.3768  -2.2743   6.7165   7.0353   7.5094
    12.4168  14.1255  14.8141  15.3934  16.9223  17.0947  18.0609  18.3076

          k = 0.5833-0.4167 0.7500 (  2901 PWs)   bands (ev):

   -17.3640  -7.2769  -2.5707  -2.4698  -2.2883   6.6451   6.9767   7.2807
    12.8393  14.2241  15.3045  15.9820  17.1456  17.3351  18.0073  18.4064

          k = 0.5000-0.3333 0.6667 (  2900 PWs)   bands (ev):

   -17.3493  -7.3104  -2.5628  -2.5231  -2.2929   6.6096   7.0401   7.1236
    13.1126  14.1050  15.5144  16.2623  17.2804  17.3164  17.9723  18.4027

          k =-0.1667 0.5000 0.0000 (  2887 PWs)   bands (ev):

   -17.4399  -7.0313  -2.4990  -2.4192  -2.3673   6.8963   7.5370   7.8314
    11.5388  13.6369  14.8234  15.0619  16.1565  16.9185  17.7689  18.4164

          k =-0.2500 0.5833-0.0833 (  2907 PWs)   bands (ev):

   -17.3924  -7.1060  -2.6100  -2.5855  -2.3595   6.9850   7.2959   7.7633
    11.6806  14.1205  15.3110  15.3804  16.7790  17.0345  18.0816  18.2258

          k = 0.6667-0.3333 0.8333 (  2887 PWs)   bands (ev):

   -17.3531  -7.1749  -2.7374  -2.6711  -2.3386   6.9812   7.2266   7.5844
    12.1064  14.2470  15.5722  15.7916  17.0953  17.3930  18.0130  18.3560

          k = 0.5833-0.2500 0.7500 (  2910 PWs)   bands (ev):

   -17.3330  -7.2189  -2.8327  -2.6716  -2.3114   6.8309   7.3437   7.4242
    12.7165  13.8297  15.8249  15.9539  17.2653  17.4348  18.1967  18.2419

          k = 0.5000-0.1667 0.6667 (  2907 PWs)   bands (ev):

   -17.3378  -7.2256  -2.8490  -2.6112  -2.2836   6.7533   7.1534   7.6113
    13.0139  13.6031  15.5694  15.8289  17.3221  17.4113  18.1313  18.4677

          k = 0.4167-0.0833 0.5833 (  2902 PWs)   bands (ev):

   -17.3663  -7.1946  -2.7791  -2.5064  -2.2623   6.7546   7.0276   7.7636
    12.5544  14.0033  15.0682  15.4354  17.2633  17.3560  18.1610  18.4486

          k = 0.3333 0.0000 0.5000 (  2900 PWs)   bands (ev):

   -17.4101  -7.1357  -2.6375  -2.3849  -2.2525   6.7721   7.0605   7.8088
    12.2256  13.9660  14.5518  15.2066  16.9489  17.1246  17.9910  18.3968

          k =-0.1667 0.6667-0.0000 (  2904 PWs)   bands (ev):

   -17.3707  -7.0306  -2.8608  -2.6391  -2.4845   7.3048   7.6180   7.8998
    11.0599  14.1654  15.6320  16.0004  16.5728  17.0630  18.1500  18.1765

          k = 0.7500-0.2500 0.9167 (  2899 PWs)   bands (ev):

   -17.3372  -7.0604  -3.0433  -2.7340  -2.4392   7.3600   7.5654   7.8408
    11.3212  14.5060  15.3007  16.3617  17.0344  17.5310  17.9500  18.3526

          k = 0.6667-0.1667 0.8333 (  2904 PWs)   bands (ev):

   -17.3170  -7.1015  -3.1383  -2.7673  -2.3813   7.1181   7.6610   7.7756
    11.8746  14.2214  15.3147  16.4129  17.3549  17.5715  18.0477  18.3930

          k = 0.5833-0.0833 0.7500 (  2906 PWs)   bands (ev):

   -17.3158  -7.1444  -3.1211  -2.7314  -2.3237   6.9227   7.4255   7.9064
    12.6271  13.5459  15.4953  16.0869  17.3235  17.4908  18.3323  18.4709

          k = 0.5000 0.0000 0.6667 (  2902 PWs)   bands (ev):

   -17.3340  -7.1787  -2.9918  -2.6363  -2.2800   6.8047   7.1906   7.9094
    12.9422  13.4292  15.4621  15.5578  17.3185  17.4668  18.3249  18.4286

          k = 0.8333-0.1667 1.0000 (  2905 PWs)   bands (ev):

   -17.3206  -6.9621  -3.3105  -2.7390  -2.5657   7.6995   7.8945   7.9691
    10.7591  14.4292  15.6569  16.8846  17.0875  17.6761  17.8232  18.3369

          k = 0.7500-0.0833 0.9167 (  2898 PWs)   bands (ev):

   -17.3058  -6.9899  -3.3803  -2.8045  -2.4844   7.4416   7.8967   8.0564
    11.1324  14.7018  14.9789  17.0187  17.3669  17.7147  17.9611  18.3327

          k = 0.6667 0.0000 0.8333 (  2909 PWs)   bands (ev):

   -17.3040  -7.0570  -3.3131  -2.8018  -2.3970   7.1635   7.6961   8.0664
    11.7917  14.1808  15.1083  16.6762  17.3698  17.5345  18.3716  18.3802

          k =-0.1667-1.0000-0.0000 (  2906 PWs)   bands (ev):

   -17.3023  -6.9181  -3.5019  -2.7750  -2.5952   7.7364   7.9979   8.1791
    10.6571  14.4095  15.6875  17.1634  17.5625  17.8762  17.9074  17.9686

          k = 0.6667-0.3333 1.0000 (  2902 PWs)   bands (ev):

   -17.3544  -7.1265  -2.7925  -2.7668  -2.3085   7.0320   7.2594   7.8761
    11.8653  14.2052  15.2787  15.7567  17.0774  17.4004  18.2490  18.3077

          k = 0.5833-0.2500 0.9167 (  2902 PWs)   bands (ev):

   -17.3262  -7.1401  -2.9189  -2.9014  -2.2731   6.9148   7.4751   7.8430
    12.3284  13.7488  15.3733  16.2145  17.3457  17.4086  18.2817  18.4447

          k = 0.5000-0.1667 0.8333 (  2908 PWs)   bands (ev):

   -17.3158  -7.1448  -2.9587  -2.9561  -2.2605   6.8676   7.6789   7.7045
    12.9058  13.1143  15.4960  16.3836  17.3979  17.5187  18.2250  18.3654

          k = 0.6667-0.1667 1.0000 (  2905 PWs)   bands (ev):

   -17.3144  -7.0538  -3.1811  -2.9024  -2.3465   7.1595   7.8101   7.9455
    11.6124  14.2389  15.0183  16.9458  17.2383  17.5065  18.2750  18.3296

          k = 0.5833-0.0833 0.9167 (  2910 PWs)   bands (ev):

   -17.3037  -7.0665  -3.2078  -2.9975  -2.2788   6.9981   7.9003   7.9666
    12.1855  13.5117  15.0959  17.0928  17.4036  17.6659  18.1136  18.4257

          k = 0.5000 0.0000 0.8333 (  2903 PWs)   bands (ev):

   -17.3081  -7.0987  -3.1138  -2.9964  -2.2519   6.9119   7.7269   7.9835
    12.8176  12.9544  15.2300  16.7765  17.3883  17.5199  18.3487  18.4765

          k =-0.3333-1.0000 0.0000 (  2904 PWs)   bands (ev):

   -17.3000  -7.0093  -3.3604  -2.9420  -2.3604   7.2037   7.9744   8.0990
    11.5240  14.2119  14.8355  17.3525  17.6083  17.8203  17.8863  18.1060

          k =-0.5000-1.0000 0.0000 (  2872 PWs)   bands (ev):

   -17.2989  -7.0522  -3.1575  -3.1575  -2.2415   6.9557   8.0150   8.0150
    12.7600  12.7600  15.0116  17.4289  17.7085  17.7085  17.8914  18.2817

     the Fermi energy is     9.6046 ev

!    total energy              =     -83.63716798 Ry
     estimated scf accuracy    <          2.8E-11 Ry
     smearing contrib. (-TS)   =      -0.00000000 Ry
     internal energy E=F+TS    =     -83.63716798 Ry

     The total energy is F=E-TS. E is the sum of the following terms:
     one-electron contribution =     -12.53690596 Ry
     hartree contribution      =      14.97230634 Ry
     xc contribution           =     -14.54797563 Ry
     ewald contribution        =     -71.52459273 Ry

     convergence has been achieved in  11 iterations

     Writing all to output data dir out/mp-1342.save/
 
     init_run     :      0.20s CPU      0.27s WALL (       1 calls)
     electrons    :     14.90s CPU     26.05s WALL (       1 calls)

     Called by init_run:
     wfcinit      :      0.16s CPU      0.20s WALL (       1 calls)
     potinit      :      0.00s CPU      0.01s WALL (       1 calls)
     hinit0       :      0.01s CPU      0.04s WALL (       1 calls)

     Called by electrons:
     c_bands      :     14.23s CPU     25.10s WALL (      11 calls)
     sum_band     :      0.64s CPU      0.67s WALL (      11 calls)
     v_of_rho     :      0.02s CPU      0.02s WALL (      12 calls)
     mix_rho      :      0.00s CPU      0.00s WALL (      11 calls)

     Called by c_bands:
     init_us_2    :      0.08s CPU      0.09s WALL (    1656 calls)
     init_us_2:cp :      0.08s CPU      0.09s WALL (    1656 calls)
     paro_k       :     13.74s CPU     14.71s WALL (     792 calls)

     Called by paro_*:
     h_psi        :     11.07s CPU     11.84s WALL (   24002 calls)
     g_psi        :      0.14s CPU      0.16s WALL (  134297 calls)

     Called by h_psi:
     h_psi:calbec :      0.46s CPU      0.50s WALL (   24002 calls)
     vloc_psi     :     10.27s CPU     10.96s WALL (   24002 calls)
     add_vuspsi   :      0.24s CPU      0.26s WALL (   24002 calls)

     General routines
     calbec       :      0.44s CPU      0.47s WALL (   24002 calls)
     fft          :      0.01s CPU      0.03s WALL (     119 calls)
     ffts         :      0.00s CPU      0.00s WALL (      11 calls)
     fftw         :     10.09s CPU     10.75s WALL (  247144 calls)
 
     Parallel routines
 
     PWSCF        :     15.20s CPU     26.74s WALL

 
   This run was terminated on:  15:12:22   8Apr2024            

=------------------------------------------------------------------------------=
   JOB DONE.
=------------------------------------------------------------------------------=
