 vasp.5.4.4.18Apr17-6-g9f103f2a35 (build Aug 24 2017 11:22:49) complex          
  
 executed on             LinuxIFC date 2023.12.25  13:07:07
 running on    8 total cores
 distrk:  each k-point on    8 cores,    1 groups
 distr:  one band on NCORES_PER_BAND=   1 cores,    8 groups


--------------------------------------------------------------------------------------------------------


 INCAR:
 POTCAR:    PAW_PBE C 08Apr2002                   

 ----------------------------------------------------------------------------- 
|                                                                             |
|           W    W    AA    RRRRR   N    N  II  N    N   GGGG   !!!           |
|           W    W   A  A   R    R  NN   N  II  NN   N  G    G  !!!           |
|           W    W  A    A  R    R  N N  N  II  N N  N  G       !!!           |
|           W WW W  AAAAAA  RRRRR   N  N N  II  N  N N  G  GGG   !            |
|           WW  WW  A    A  R   R   N   NN  II  N   NN  G    G                |
|           W    W  A    A  R    R  N    N  II  N    N   GGGG   !!!           |
|                                                                             |
|      For optimal performance we recommend to set                            |
|        NCORE= 4 - approx SQRT( number of cores)                             |
|      NCORE specifies how many cores store one orbital (NPAR=cpu/NCORE).     |
|      This setting can  greatly improve the performance of VASP for DFT.     |
|      The default,   NCORE=1            might be grossly inefficient         |
|      on modern multi-core architectures or massively parallel machines.     |
|      Do your own testing !!!!                                               |
|      Unfortunately you need to use the default for GW and RPA calculations. |
|      (for HF NCORE is supported but not extensively tested yet)             |
|                                                                             |
 ----------------------------------------------------------------------------- 

 POTCAR:    PAW_PBE C 08Apr2002                   
   VRHFIN =C: s2p2                                                              
   LEXCH  = PE                                                                  
   EATOM  =   147.1560 eV,   10.8157 Ry                                         
                                                                                
   TITEL  = PAW_PBE C 08Apr2002                                                 
   LULTRA =        F    use ultrasoft PP ?                                      
   IUNSCR =        1    unscreen: 0-lin 1-nonlin 2-no                           
   RPACOR =    1.200    partial core radius                                     
   POMASS =   12.011; ZVAL   =    4.000    mass and valenz                      
   RCORE  =    1.500    outmost cutoff radius                                   
   RWIGS  =    1.630; RWIGS  =    0.863    wigner-seitz radius (au A)           
   ENMAX  =  400.000; ENMIN  =  300.000 eV                                      
   ICORE  =        2    local potential                                         
   LCOR   =        T    correct aug charges                                     
   LPAW   =        T    paw PP                                                  
   EAUG   =  644.873                                                            
   DEXC   =    0.000                                                            
   RMAX   =    1.529    core radius for proj-oper                               
   RAUG   =    1.300    factor for augmentation sphere                          
   RDEP   =    1.501    radius for radial grids                                 
   RDEPT  =    1.300    core radius for aug-charge                              
                                                                                
   Atomic configuration                                                         
    4 entries                                                                   
     n  l   j            E        occ.                                          
     1  0  0.50      -273.3789   2.0000                                         
     2  0  0.50       -13.7508   2.0000                                         
     2  1  0.50        -5.2854   2.0000                                         
     3  2  1.50        -5.4423   0.0000                                         
   Description                                                                  
     l       E           TYP  RCUT    TYP  RCUT                                 
     0    -13.7508458     23  1.200                                             
     0     -8.2022199     23  1.200                                             
     1     -5.2854383     23  1.500                                             
     1     34.0145650     23  1.500                                             
     2     -5.4423304      7  1.500                                             
  local pseudopotential read in
  partial core-charges read in
  partial kinetic energy density read in
  atomic valenz-charges read in
  non local Contribution for L=           0  read in
    real space projection operators read in
  non local Contribution for L=           0  read in
    real space projection operators read in
  non local Contribution for L=           1  read in
    real space projection operators read in
  non local Contribution for L=           1  read in
    real space projection operators read in
    PAW grid and wavefunctions read in
 
   number of l-projection  operators is LMAX  =           4
   number of lm-projection operators is LMMAX =           8
 
  PAW_PBE C 08Apr2002                   :
 energy of atom  1       EATOM= -147.1560
 kinetic energy error for atom=    0.0071 (will be added to EATOM!!)
 
 
 POSCAR: C2                                      
  positions in direct lattice
  No initial velocities read in
 exchange correlation table for  LEXCH =        8
   RHO(1)=    0.500       N(1)  =     2000
   RHO(2)=  100.500       N(2)  =     4000
 


--------------------------------------------------------------------------------------------------------


 ion  position               nearest neighbor table
   1  0.000  0.000  1.000-   2 1.54   2 1.54   2 1.54   2 1.54
   2  0.750  0.750  0.750-   1 1.54   1 1.54   1 1.54   1 1.54
 
  LATTYP: Found a face centered cubic cell.
 ALAT       =     3.5607448356
  
  Lattice vectors:
  
 A1 = (  -1.7803724178,   0.0000000000,   1.7803724178)
 A2 = (   0.0000000000,   1.7803724178,   1.7803724178)
 A3 = (  -1.7803724178,   1.7803724178,   0.0000000000)


Analysis of symmetry for initial positions (statically):
=====================================================================
 Subroutine PRICEL returns:
 Original cell was already a primitive cell.
 

 Routine SETGRP: Setting up the symmetry group for a 
 face centered cubic supercell.


 Subroutine GETGRP returns: Found 12 space group operations
 (whereof  2 operations were pure point group operations)
 out of a pool of 48 trial point group operations.


The static configuration has the point symmetry C_1h.
 The point group associated with its full space group is D_3d.


Analysis of symmetry for dynamics (positions and initial velocities):
=====================================================================
 Subroutine PRICEL returns:
 Original cell was already a primitive cell.
 

 Routine SETGRP: Setting up the symmetry group for a 
 face centered cubic supercell.


 Subroutine GETGRP returns: Found 12 space group operations
 (whereof  2 operations were pure point group operations)
 out of a pool of 48 trial point group operations.


The dynamic configuration has the point symmetry C_1h.
 The point group associated with its full space group is D_3d.


 Subroutine INISYM returns: Found 12 space group operations
 (whereof  2 operations are pure point group operations),
 and found     1 'primitive' translations

 
 
 KPOINTS: pymatgen with grid density = 3000 / numb

Automatic generation of k-mesh.
Space group operators:
 irot       det(A)        alpha          n_x          n_y          n_z        tau_x        tau_y        tau_z
    1     1.000000     0.000000     1.000000     0.000000     0.000000     0.000000     0.000000     0.000000
    2    -1.000000   180.000000     0.707107     0.000000    -0.707107     0.000000     0.000000     0.000000
    3    -1.000000     0.000000     1.000000     0.000000     0.000000     0.750000     0.750000     0.750000
    4     1.000000   180.000000     0.707107     0.000000    -0.707107     0.750000     0.750000     0.750000
    5     1.000000   180.000000     0.000000     0.707107     0.707107     0.750000     0.750000     0.750000
    6    -1.000000   180.000000     0.000000     0.707107     0.707107    -0.000000     0.000000     0.000000
    7     1.000000   120.000000     0.577350    -0.577350     0.577350     0.000000     0.000000     0.000000
    8    -1.000000   120.000000     0.577350    -0.577350     0.577350     0.750000     0.750000     0.750000
    9     1.000000   120.000000    -0.577350     0.577350    -0.577350     1.000000     0.000000    -0.000000
   10    -1.000000   120.000000    -0.577350     0.577350    -0.577350     0.750000     0.750000     0.750000
   11     1.000000   180.000000     0.707107     0.707107     0.000000     0.750000     0.750000     0.750000
   12    -1.000000   180.000000     0.707107     0.707107     0.000000     1.000000     0.000000    -0.000000
 
 Subroutine IBZKPT returns following result:
 ===========================================
 
 Found    189 irreducible k-points:
 
 Following reciprocal coordinates:
            Coordinates               Weight
  0.000000  0.000000  0.000000      1.000000
  0.083333 -0.000000 -0.000000      6.000000
  0.166667 -0.000000 -0.000000      6.000000
  0.250000 -0.000000 -0.000000      6.000000
  0.333333 -0.000000 -0.000000      6.000000
  0.416667 -0.000000 -0.000000      6.000000
  0.500000 -0.000000 -0.000000      3.000000
  0.083333  0.083333 -0.000000      6.000000
  0.166667  0.083333 -0.000000     12.000000
  0.250000  0.083333 -0.000000     12.000000
  0.333333  0.083333 -0.000000     12.000000
  0.416667  0.083333 -0.000000     12.000000
  0.500000  0.083333 -0.000000     12.000000
 -0.416667  0.083333  0.000000     12.000000
 -0.333333  0.083333  0.000000     12.000000
 -0.250000  0.083333  0.000000     12.000000
 -0.166667  0.083333  0.000000     12.000000
 -0.083333  0.083333  0.000000      6.000000
  0.166667  0.166667 -0.000000      6.000000
  0.250000  0.166667  0.000000     12.000000
  0.333333  0.166667  0.000000     12.000000
  0.416667  0.166667  0.000000     12.000000
  0.500000  0.166667  0.000000     12.000000
 -0.416667  0.166667  0.000000     12.000000
 -0.333333  0.166667  0.000000     12.000000
 -0.250000  0.166667  0.000000     12.000000
 -0.166667  0.166667  0.000000      6.000000
  0.250000  0.250000 -0.000000      6.000000
  0.333333  0.250000 -0.000000     12.000000
  0.416667  0.250000 -0.000000     12.000000
  0.500000  0.250000  0.000000     12.000000
 -0.416667  0.250000  0.000000     12.000000
 -0.333333  0.250000  0.000000     12.000000
 -0.250000  0.250000  0.000000      6.000000
  0.333333  0.333333 -0.000000      6.000000
  0.416667  0.333333 -0.000000     12.000000
  0.500000  0.333333 -0.000000     12.000000
 -0.416667  0.333333  0.000000     12.000000
 -0.333333  0.333333  0.000000      6.000000
  0.416667  0.416667 -0.000000      6.000000
  0.500000  0.416667 -0.000000     12.000000
 -0.416667  0.416667  0.000000      6.000000
  0.500000  0.500000 -0.000000      3.000000
  0.000000  0.000000  0.083333      2.000000
  0.166667 -0.000000  0.083333      6.000000
  0.250000 -0.000000  0.083333      6.000000
  0.333333 -0.000000  0.083333      6.000000
  0.416667 -0.000000  0.083333      6.000000
  0.500000 -0.000000  0.083333      6.000000
 -0.416667  0.000000  0.083333      6.000000
 -0.333333  0.000000  0.083333      6.000000
 -0.250000  0.000000  0.083333      6.000000
 -0.166667  0.000000  0.083333      6.000000
 -0.083333  0.000000  0.083333      6.000000
  0.250000  0.166667  0.083333     12.000000
  0.333333  0.166667  0.083333     12.000000
  0.416667  0.166667  0.083333     12.000000
  0.500000  0.166667  0.083333     12.000000
 -0.416667  0.166667  0.083333      6.000000
  0.250000  0.250000  0.083333      6.000000
  0.333333  0.250000  0.083333     12.000000
  0.416667  0.250000  0.083333     12.000000
  0.500000  0.250000  0.083333     12.000000
 -0.416667  0.250000  0.083333     12.000000
 -0.333333  0.250000  0.083333     12.000000
 -0.250000  0.250000  0.083333     12.000000
 -0.166667  0.250000  0.083333     12.000000
 -0.083333  0.250000  0.083333     12.000000
  0.333333  0.333333  0.083333      6.000000
  0.416667  0.333333  0.083333     12.000000
  0.500000  0.333333  0.083333     12.000000
 -0.416667  0.333333  0.083333     12.000000
 -0.333333  0.333333  0.083333     12.000000
 -0.250000  0.333333  0.083333     12.000000
 -0.166667  0.333333  0.083333     12.000000
 -0.083333  0.333333  0.083333     12.000000
  0.416667  0.416667  0.083333      6.000000
  0.500000  0.416667  0.083333     12.000000
 -0.416667  0.416667  0.083333     12.000000
 -0.333333  0.416667  0.083333     12.000000
 -0.250000  0.416667  0.083333     12.000000
 -0.166667  0.416667  0.083333     12.000000
 -0.083333  0.416667  0.083333     12.000000
  0.500000  0.500000  0.083333      6.000000
 -0.416667  0.500000  0.083333     12.000000
 -0.333333  0.500000  0.083333     12.000000
 -0.250000  0.500000  0.083333     12.000000
 -0.166667  0.500000  0.083333     12.000000
 -0.083333  0.500000  0.083333     12.000000
 -0.416667 -0.416667  0.083333      6.000000
 -0.333333 -0.416667  0.083333     12.000000
 -0.250000 -0.416667  0.083333     12.000000
 -0.166667 -0.416667  0.083333     12.000000
 -0.083333 -0.416667  0.083333     12.000000
 -0.333333 -0.333333  0.083333      6.000000
 -0.250000 -0.333333  0.083333     12.000000
 -0.166667 -0.333333  0.083333     12.000000
 -0.083333 -0.333333  0.083333     12.000000
 -0.250000 -0.250000  0.083333      6.000000
 -0.166667 -0.250000  0.083333     12.000000
 -0.083333 -0.250000  0.083333     12.000000
 -0.166667 -0.166667  0.083333      6.000000
 -0.083333 -0.166667  0.083333     12.000000
 -0.083333 -0.083333  0.083333      6.000000
  0.000000  0.000000  0.166667      2.000000
  0.333333 -0.000000  0.166667      6.000000
  0.416667  0.000000  0.166667      6.000000
  0.500000 -0.000000  0.166667      6.000000
 -0.416667  0.000000  0.166667      6.000000
 -0.333333 -0.000000  0.166667      6.000000
 -0.250000  0.000000  0.166667      6.000000
 -0.166667  0.000000  0.166667      6.000000
 -0.083333  0.000000  0.166667      6.000000
  0.416667  0.333333  0.166667     12.000000
  0.500000  0.333333  0.166667     12.000000
 -0.416667  0.333333  0.166667     12.000000
 -0.333333  0.333333  0.166667      6.000000
  0.416667  0.416667  0.166667      6.000000
  0.500000  0.416667  0.166667     12.000000
 -0.416667  0.416667  0.166667     12.000000
 -0.333333  0.416667  0.166667     12.000000
 -0.250000  0.416667  0.166667     12.000000
 -0.166667  0.416667  0.166667     12.000000
 -0.083333  0.416667  0.166667     12.000000
  0.500000  0.500000  0.166667      6.000000
 -0.416667  0.500000  0.166667     12.000000
 -0.333333  0.500000  0.166667     12.000000
 -0.250000  0.500000  0.166667     12.000000
 -0.166667  0.500000  0.166667     12.000000
 -0.083333  0.500000  0.166667     12.000000
 -0.416667 -0.416667  0.166667      6.000000
 -0.333333 -0.416667  0.166667     12.000000
 -0.250000 -0.416667  0.166667     12.000000
 -0.166667 -0.416667  0.166667     12.000000
 -0.083333 -0.416667  0.166667     12.000000
 -0.333333 -0.333333  0.166667      6.000000
 -0.250000 -0.333333  0.166667     12.000000
 -0.166667 -0.333333  0.166667     12.000000
 -0.083333 -0.333333  0.166667     12.000000
 -0.250000 -0.250000  0.166667      6.000000
 -0.166667 -0.250000  0.166667     12.000000
 -0.083333 -0.250000  0.166667     12.000000
 -0.166667 -0.166667  0.166667      6.000000
 -0.083333 -0.166667  0.166667     12.000000
 -0.083333 -0.083333  0.166667      6.000000
 -0.000000 -0.000000  0.250000      2.000000
  0.500000 -0.000000  0.250000      6.000000
 -0.416667  0.000000  0.250000      6.000000
 -0.333333 -0.000000  0.250000      6.000000
 -0.250000  0.000000  0.250000      6.000000
 -0.166667  0.000000  0.250000      6.000000
 -0.083333 -0.000000  0.250000      6.000000
 -0.416667  0.500000  0.250000     12.000000
 -0.333333  0.500000  0.250000     12.000000
 -0.250000  0.500000  0.250000      6.000000
 -0.416667 -0.416667  0.250000      6.000000
 -0.333333 -0.416667  0.250000     12.000000
 -0.250000 -0.416667  0.250000     12.000000
 -0.166667 -0.416667  0.250000     12.000000
 -0.083333 -0.416667  0.250000     12.000000
 -0.333333 -0.333333  0.250000      6.000000
 -0.250000 -0.333333  0.250000     12.000000
 -0.166667 -0.333333  0.250000     12.000000
 -0.083333 -0.333333  0.250000     12.000000
 -0.250000 -0.250000  0.250000      6.000000
 -0.166667 -0.250000  0.250000     12.000000
 -0.083333 -0.250000  0.250000     12.000000
 -0.166667 -0.166667  0.250000      6.000000
 -0.083333 -0.166667  0.250000     12.000000
 -0.083333 -0.083333  0.250000      6.000000
  0.000000  0.000000  0.333333      2.000000
 -0.333333  0.000000  0.333333      6.000000
 -0.250000  0.000000  0.333333      6.000000
 -0.166667 -0.000000  0.333333      6.000000
 -0.083333  0.000000  0.333333      6.000000
 -0.250000 -0.333333  0.333333     12.000000
 -0.166667 -0.333333  0.333333      6.000000
 -0.250000 -0.250000  0.333333      6.000000
 -0.166667 -0.250000  0.333333     12.000000
 -0.083333 -0.250000  0.333333     12.000000
 -0.166667 -0.166667  0.333333      6.000000
 -0.083333 -0.166667  0.333333     12.000000
 -0.083333 -0.083333  0.333333      6.000000
 -0.000000  0.000000  0.416667      2.000000
 -0.166667  0.000000  0.416667      6.000000
 -0.083333 -0.000000  0.416667      6.000000
 -0.083333 -0.166667  0.416667      6.000000
 -0.083333 -0.083333  0.416667      6.000000
 -0.000000 -0.000000  0.500000      1.000000
 
 Following cartesian coordinates:
            Coordinates               Weight
  0.000000  0.000000  0.000000      1.000000
 -0.023403 -0.023403  0.023403      6.000000
 -0.046807 -0.046807  0.046807      6.000000
 -0.070210 -0.070210  0.070210      6.000000
 -0.093613 -0.093613  0.093613      6.000000
 -0.117017 -0.117017  0.117017      6.000000
 -0.140420 -0.140420  0.140420      3.000000
  0.000000  0.000000  0.046807      6.000000
 -0.023403 -0.023403  0.070210     12.000000
 -0.046807 -0.046807  0.093613     12.000000
 -0.070210 -0.070210  0.117017     12.000000
 -0.093613 -0.093613  0.140420     12.000000
 -0.117017 -0.117017  0.163823     12.000000
  0.140420  0.140420 -0.093613     12.000000
  0.117017  0.117017 -0.070210     12.000000
  0.093613  0.093613 -0.046807     12.000000
  0.070210  0.070210 -0.023403     12.000000
  0.046807  0.046807  0.000000      6.000000
  0.000000  0.000000  0.093613      6.000000
 -0.023403 -0.023403  0.117017     12.000000
 -0.046807 -0.046807  0.140420     12.000000
 -0.070210 -0.070210  0.163823     12.000000
 -0.093613 -0.093613  0.187227     12.000000
  0.163823  0.163823 -0.070210     12.000000
  0.140420  0.140420 -0.046807     12.000000
  0.117017  0.117017 -0.023403     12.000000
  0.093613  0.093613  0.000000      6.000000
  0.000000  0.000000  0.140420      6.000000
 -0.023403 -0.023403  0.163823     12.000000
 -0.046807 -0.046807  0.187227     12.000000
 -0.070210 -0.070210  0.210630     12.000000
  0.187227  0.187227 -0.046807     12.000000
  0.163823  0.163823 -0.023403     12.000000
  0.140420  0.140420 -0.000000      6.000000
  0.000000  0.000000  0.187227      6.000000
 -0.023403 -0.023403  0.210630     12.000000
 -0.046807 -0.046807  0.234033     12.000000
  0.210630  0.210630 -0.023403     12.000000
  0.187227  0.187227  0.000000      6.000000
  0.000000  0.000000  0.234033      6.000000
 -0.023403 -0.023403  0.257437     12.000000
  0.234033  0.234033  0.000000      6.000000
  0.000000  0.000000  0.280840      3.000000
 -0.023403  0.023403 -0.023403      2.000000
 -0.070210 -0.023403  0.023403      6.000000
 -0.093613 -0.046807  0.046807      6.000000
 -0.117017 -0.070210  0.070210      6.000000
 -0.140420 -0.093613  0.093613      6.000000
 -0.163823 -0.117017  0.117017      6.000000
  0.093613  0.140420 -0.140420      6.000000
  0.070210  0.117017 -0.117017      6.000000
  0.046807  0.093613 -0.093613      6.000000
  0.023403  0.070210 -0.070210      6.000000
  0.000000  0.046807 -0.046807      6.000000
 -0.046807  0.000000  0.093613     12.000000
 -0.070210 -0.023403  0.117017     12.000000
 -0.093613 -0.046807  0.140420     12.000000
 -0.117017 -0.070210  0.163823     12.000000
  0.140420  0.187227 -0.093613      6.000000
 -0.023403  0.023403  0.117017      6.000000
 -0.046807 -0.000000  0.140420     12.000000
 -0.070210 -0.023403  0.163823     12.000000
 -0.093613 -0.046807  0.187227     12.000000
  0.163823  0.210630 -0.070210     12.000000
  0.140420  0.187227 -0.046807     12.000000
  0.117017  0.163823 -0.023403     12.000000
  0.093613  0.140420  0.000000     12.000000
  0.070210  0.117017  0.023403     12.000000
 -0.023403  0.023403  0.163823      6.000000
 -0.046807 -0.000000  0.187227     12.000000
 -0.070210 -0.023403  0.210630     12.000000
  0.187227  0.234033 -0.046807     12.000000
  0.163823  0.210630 -0.023403     12.000000
  0.140420  0.187227  0.000000     12.000000
  0.117017  0.163823  0.023403     12.000000
  0.093613  0.140420  0.046807     12.000000
 -0.023403  0.023403  0.210630      6.000000
 -0.046807  0.000000  0.234033     12.000000
  0.210630  0.257437 -0.023403     12.000000
  0.187227  0.234033  0.000000     12.000000
  0.163823  0.210630  0.023403     12.000000
  0.140420  0.187227  0.046807     12.000000
  0.117017  0.163823  0.070210     12.000000
 -0.023403  0.023403  0.257437      6.000000
  0.234033  0.280840 -0.000000     12.000000
  0.210630  0.257437  0.023403     12.000000
  0.187227  0.234033  0.046807     12.000000
  0.163823  0.210630  0.070210     12.000000
  0.140420  0.187227  0.093613     12.000000
 -0.023403  0.023403 -0.257437      6.000000
 -0.046807 -0.000000 -0.234033     12.000000
 -0.070210 -0.023403 -0.210630     12.000000
 -0.093613 -0.046807 -0.187227     12.000000
 -0.117017 -0.070210 -0.163823     12.000000
 -0.023403  0.023403 -0.210630      6.000000
 -0.046807  0.000000 -0.187227     12.000000
 -0.070210 -0.023403 -0.163823     12.000000
 -0.093613 -0.046807 -0.140420     12.000000
 -0.023403  0.023403 -0.163823      6.000000
 -0.046807  0.000000 -0.140420     12.000000
 -0.070210 -0.023403 -0.117017     12.000000
 -0.023403  0.023403 -0.117017      6.000000
 -0.046807 -0.000000 -0.093613     12.000000
 -0.023403  0.023403 -0.070210      6.000000
 -0.046807  0.046807 -0.046807      2.000000
 -0.140420 -0.046807  0.046807      6.000000
 -0.163823 -0.070210  0.070210      6.000000
 -0.187227 -0.093613  0.093613      6.000000
  0.070210  0.163823 -0.163823      6.000000
  0.046807  0.140420 -0.140420      6.000000
  0.023403  0.117017 -0.117017      6.000000
  0.000000  0.093613 -0.093613      6.000000
 -0.023403  0.070210 -0.070210      6.000000
 -0.070210  0.023403  0.163823     12.000000
 -0.093613  0.000000  0.187227     12.000000
  0.163823  0.257437 -0.070210     12.000000
  0.140420  0.234033 -0.046807      6.000000
 -0.046807  0.046807  0.187227      6.000000
 -0.070210  0.023403  0.210630     12.000000
  0.187227  0.280840 -0.046807     12.000000
  0.163823  0.257437 -0.023403     12.000000
  0.140420  0.234033  0.000000     12.000000
  0.117017  0.210630  0.023403     12.000000
  0.093613  0.187227  0.046807     12.000000
 -0.046807  0.046807  0.234033      6.000000
  0.210630  0.304243 -0.023403     12.000000
  0.187227  0.280840 -0.000000     12.000000
  0.163823  0.257437  0.023403     12.000000
  0.140420  0.234033  0.046807     12.000000
  0.117017  0.210630  0.070210     12.000000
 -0.046807  0.046807 -0.280840      6.000000
 -0.070210  0.023403 -0.257437     12.000000
 -0.093613 -0.000000 -0.234033     12.000000
 -0.117017 -0.023403 -0.210630     12.000000
 -0.140420 -0.046807 -0.187227     12.000000
 -0.046807  0.046807 -0.234033      6.000000
 -0.070210  0.023403 -0.210630     12.000000
 -0.093613  0.000000 -0.187227     12.000000
 -0.117017 -0.023403 -0.163823     12.000000
 -0.046807  0.046807 -0.187227      6.000000
 -0.070210  0.023403 -0.163823     12.000000
 -0.093613 -0.000000 -0.140420     12.000000
 -0.046807  0.046807 -0.140420      6.000000
 -0.070210  0.023403 -0.117017     12.000000
 -0.046807  0.046807 -0.093613      6.000000
 -0.070210  0.070210 -0.070210      2.000000
 -0.210630 -0.070210  0.070210      6.000000
  0.046807  0.187227 -0.187227      6.000000
  0.023403  0.163823 -0.163823      6.000000
  0.000000  0.140420 -0.140420      6.000000
 -0.023403  0.117017 -0.117017      6.000000
 -0.046807  0.093613 -0.093613      6.000000
  0.187227  0.327647 -0.046807     12.000000
  0.163823  0.304243 -0.023403     12.000000
  0.140420  0.280840 -0.000000      6.000000
 -0.070210  0.070210 -0.304243      6.000000
 -0.093613  0.046807 -0.280840     12.000000
 -0.117017  0.023403 -0.257437     12.000000
 -0.140420 -0.000000 -0.234033     12.000000
 -0.163823 -0.023403 -0.210630     12.000000
 -0.070210  0.070210 -0.257437      6.000000
 -0.093613  0.046807 -0.234033     12.000000
 -0.117017  0.023403 -0.210630     12.000000
 -0.140420 -0.000000 -0.187227     12.000000
 -0.070210  0.070210 -0.210630      6.000000
 -0.093613  0.046807 -0.187227     12.000000
 -0.117017  0.023403 -0.163823     12.000000
 -0.070210  0.070210 -0.163823      6.000000
 -0.093613  0.046807 -0.140420     12.000000
 -0.070210  0.070210 -0.117017      6.000000
 -0.093613  0.093613 -0.093613      2.000000
  0.000000  0.187227 -0.187227      6.000000
 -0.023403  0.163823 -0.163823      6.000000
 -0.046807  0.140420 -0.140420      6.000000
 -0.070210  0.117017 -0.117017      6.000000
 -0.117017  0.070210 -0.257437     12.000000
 -0.140420  0.046807 -0.234033      6.000000
 -0.093613  0.093613 -0.234033      6.000000
 -0.117017  0.070210 -0.210630     12.000000
 -0.140420  0.046807 -0.187227     12.000000
 -0.093613  0.093613 -0.187227      6.000000
 -0.117017  0.070210 -0.163823     12.000000
 -0.093613  0.093613 -0.140420      6.000000
 -0.117017  0.117017 -0.117017      2.000000
 -0.070210  0.163823 -0.163823      6.000000
 -0.093613  0.140420 -0.140420      6.000000
 -0.140420  0.093613 -0.187227      6.000000
 -0.117017  0.117017 -0.163823      6.000000
 -0.140420  0.140420 -0.140420      1.000000
 
 
 Subroutine IBZKPT_HF returns following result:
 ==============================================
 
 Found   1728 k-points in 1st BZ
 the following   1728 k-points will be used (e.g. in the exchange kernel)
 Following reciprocal coordinates:   # in IRBZ
  0.000000  0.000000  0.000000    0.00057870   1 t-inv F
  0.083333 -0.000000 -0.000000    0.00057870   2 t-inv F
  0.166667 -0.000000 -0.000000    0.00057870   3 t-inv F
  0.250000 -0.000000 -0.000000    0.00057870   4 t-inv F
  0.333333 -0.000000 -0.000000    0.00057870   5 t-inv F
  0.416667 -0.000000 -0.000000    0.00057870   6 t-inv F
  0.500000 -0.000000 -0.000000    0.00057870   7 t-inv F
  0.083333  0.083333 -0.000000    0.00057870   8 t-inv F
  0.166667  0.083333 -0.000000    0.00057870   9 t-inv F
  0.250000  0.083333 -0.000000    0.00057870  10 t-inv F
  0.333333  0.083333 -0.000000    0.00057870  11 t-inv F
  0.416667  0.083333 -0.000000    0.00057870  12 t-inv F
  0.500000  0.083333 -0.000000    0.00057870  13 t-inv F
 -0.416667  0.083333  0.000000    0.00057870  14 t-inv F
 -0.333333  0.083333  0.000000    0.00057870  15 t-inv F
 -0.250000  0.083333  0.000000    0.00057870  16 t-inv F
 -0.166667  0.083333  0.000000    0.00057870  17 t-inv F
 -0.083333  0.083333  0.000000    0.00057870  18 t-inv F
  0.166667  0.166667 -0.000000    0.00057870  19 t-inv F
  0.250000  0.166667  0.000000    0.00057870  20 t-inv F
  0.333333  0.166667  0.000000    0.00057870  21 t-inv F
  0.416667  0.166667  0.000000    0.00057870  22 t-inv F
  0.500000  0.166667  0.000000    0.00057870  23 t-inv F
 -0.416667  0.166667  0.000000    0.00057870  24 t-inv F
 -0.333333  0.166667  0.000000    0.00057870  25 t-inv F
 -0.250000  0.166667  0.000000    0.00057870  26 t-inv F
 -0.166667  0.166667  0.000000    0.00057870  27 t-inv F
  0.250000  0.250000 -0.000000    0.00057870  28 t-inv F
  0.333333  0.250000 -0.000000    0.00057870  29 t-inv F
  0.416667  0.250000 -0.000000    0.00057870  30 t-inv F
  0.500000  0.250000  0.000000    0.00057870  31 t-inv F
 -0.416667  0.250000  0.000000    0.00057870  32 t-inv F
 -0.333333  0.250000  0.000000    0.00057870  33 t-inv F
 -0.250000  0.250000  0.000000    0.00057870  34 t-inv F
  0.333333  0.333333 -0.000000    0.00057870  35 t-inv F
  0.416667  0.333333 -0.000000    0.00057870  36 t-inv F
  0.500000  0.333333 -0.000000    0.00057870  37 t-inv F
 -0.416667  0.333333  0.000000    0.00057870  38 t-inv F
 -0.333333  0.333333  0.000000    0.00057870  39 t-inv F
  0.416667  0.416667 -0.000000    0.00057870  40 t-inv F
  0.500000  0.416667 -0.000000    0.00057870  41 t-inv F
 -0.416667  0.416667  0.000000    0.00057870  42 t-inv F
  0.500000  0.500000 -0.000000    0.00057870  43 t-inv F
  0.000000  0.000000  0.083333    0.00057870  44 t-inv F
  0.166667 -0.000000  0.083333    0.00057870  45 t-inv F
  0.250000 -0.000000  0.083333    0.00057870  46 t-inv F
  0.333333 -0.000000  0.083333    0.00057870  47 t-inv F
  0.416667 -0.000000  0.083333    0.00057870  48 t-inv F
  0.500000 -0.000000  0.083333    0.00057870  49 t-inv F
 -0.416667  0.000000  0.083333    0.00057870  50 t-inv F
 -0.333333  0.000000  0.083333    0.00057870  51 t-inv F
 -0.250000  0.000000  0.083333    0.00057870  52 t-inv F
 -0.166667  0.000000  0.083333    0.00057870  53 t-inv F
 -0.083333  0.000000  0.083333    0.00057870  54 t-inv F
  0.250000  0.166667  0.083333    0.00057870  55 t-inv F
  0.333333  0.166667  0.083333    0.00057870  56 t-inv F
  0.416667  0.166667  0.083333    0.00057870  57 t-inv F
  0.500000  0.166667  0.083333    0.00057870  58 t-inv F
 -0.416667  0.166667  0.083333    0.00057870  59 t-inv F
  0.250000  0.250000  0.083333    0.00057870  60 t-inv F
  0.333333  0.250000  0.083333    0.00057870  61 t-inv F
  0.416667  0.250000  0.083333    0.00057870  62 t-inv F
  0.500000  0.250000  0.083333    0.00057870  63 t-inv F
 -0.416667  0.250000  0.083333    0.00057870  64 t-inv F
 -0.333333  0.250000  0.083333    0.00057870  65 t-inv F
 -0.250000  0.250000  0.083333    0.00057870  66 t-inv F
 -0.166667  0.250000  0.083333    0.00057870  67 t-inv F
 -0.083333  0.250000  0.083333    0.00057870  68 t-inv F
  0.333333  0.333333  0.083333    0.00057870  69 t-inv F
  0.416667  0.333333  0.083333    0.00057870  70 t-inv F
  0.500000  0.333333  0.083333    0.00057870  71 t-inv F
 -0.416667  0.333333  0.083333    0.00057870  72 t-inv F
 -0.333333  0.333333  0.083333    0.00057870  73 t-inv F
 -0.250000  0.333333  0.083333    0.00057870  74 t-inv F
 -0.166667  0.333333  0.083333    0.00057870  75 t-inv F
 -0.083333  0.333333  0.083333    0.00057870  76 t-inv F
  0.416667  0.416667  0.083333    0.00057870  77 t-inv F
  0.500000  0.416667  0.083333    0.00057870  78 t-inv F
 -0.416667  0.416667  0.083333    0.00057870  79 t-inv F
 -0.333333  0.416667  0.083333    0.00057870  80 t-inv F
 -0.250000  0.416667  0.083333    0.00057870  81 t-inv F
 -0.166667  0.416667  0.083333    0.00057870  82 t-inv F
 -0.083333  0.416667  0.083333    0.00057870  83 t-inv F
  0.500000  0.500000  0.083333    0.00057870  84 t-inv F
 -0.416667  0.500000  0.083333    0.00057870  85 t-inv F
 -0.333333  0.500000  0.083333    0.00057870  86 t-inv F
 -0.250000  0.500000  0.083333    0.00057870  87 t-inv F
 -0.166667  0.500000  0.083333    0.00057870  88 t-inv F
 -0.083333  0.500000  0.083333    0.00057870  89 t-inv F
 -0.416667 -0.416667  0.083333    0.00057870  90 t-inv F
 -0.333333 -0.416667  0.083333    0.00057870  91 t-inv F
 -0.250000 -0.416667  0.083333    0.00057870  92 t-inv F
 -0.166667 -0.416667  0.083333    0.00057870  93 t-inv F
 -0.083333 -0.416667  0.083333    0.00057870  94 t-inv F
 -0.333333 -0.333333  0.083333    0.00057870  95 t-inv F
 -0.250000 -0.333333  0.083333    0.00057870  96 t-inv F
 -0.166667 -0.333333  0.083333    0.00057870  97 t-inv F
 -0.083333 -0.333333  0.083333    0.00057870  98 t-inv F
 -0.250000 -0.250000  0.083333    0.00057870  99 t-inv F
 -0.166667 -0.250000  0.083333    0.00057870 100 t-inv F
 -0.083333 -0.250000  0.083333    0.00057870 101 t-inv F
 -0.166667 -0.166667  0.083333    0.00057870 102 t-inv F
 -0.083333 -0.166667  0.083333    0.00057870 103 t-inv F
 -0.083333 -0.083333  0.083333    0.00057870 104 t-inv F
  0.000000  0.000000  0.166667    0.00057870 105 t-inv F
  0.333333 -0.000000  0.166667    0.00057870 106 t-inv F
  0.416667  0.000000  0.166667    0.00057870 107 t-inv F
  0.500000 -0.000000  0.166667    0.00057870 108 t-inv F
 -0.416667  0.000000  0.166667    0.00057870 109 t-inv F
 -0.333333 -0.000000  0.166667    0.00057870 110 t-inv F
 -0.250000  0.000000  0.166667    0.00057870 111 t-inv F
 -0.166667  0.000000  0.166667    0.00057870 112 t-inv F
 -0.083333  0.000000  0.166667    0.00057870 113 t-inv F
  0.416667  0.333333  0.166667    0.00057870 114 t-inv F
  0.500000  0.333333  0.166667    0.00057870 115 t-inv F
 -0.416667  0.333333  0.166667    0.00057870 116 t-inv F
 -0.333333  0.333333  0.166667    0.00057870 117 t-inv F
  0.416667  0.416667  0.166667    0.00057870 118 t-inv F
  0.500000  0.416667  0.166667    0.00057870 119 t-inv F
 -0.416667  0.416667  0.166667    0.00057870 120 t-inv F
 -0.333333  0.416667  0.166667    0.00057870 121 t-inv F
 -0.250000  0.416667  0.166667    0.00057870 122 t-inv F
 -0.166667  0.416667  0.166667    0.00057870 123 t-inv F
 -0.083333  0.416667  0.166667    0.00057870 124 t-inv F
  0.500000  0.500000  0.166667    0.00057870 125 t-inv F
 -0.416667  0.500000  0.166667    0.00057870 126 t-inv F
 -0.333333  0.500000  0.166667    0.00057870 127 t-inv F
 -0.250000  0.500000  0.166667    0.00057870 128 t-inv F
 -0.166667  0.500000  0.166667    0.00057870 129 t-inv F
 -0.083333  0.500000  0.166667    0.00057870 130 t-inv F
 -0.416667 -0.416667  0.166667    0.00057870 131 t-inv F
 -0.333333 -0.416667  0.166667    0.00057870 132 t-inv F
 -0.250000 -0.416667  0.166667    0.00057870 133 t-inv F
 -0.166667 -0.416667  0.166667    0.00057870 134 t-inv F
 -0.083333 -0.416667  0.166667    0.00057870 135 t-inv F
 -0.333333 -0.333333  0.166667    0.00057870 136 t-inv F
 -0.250000 -0.333333  0.166667    0.00057870 137 t-inv F
 -0.166667 -0.333333  0.166667    0.00057870 138 t-inv F
 -0.083333 -0.333333  0.166667    0.00057870 139 t-inv F
 -0.250000 -0.250000  0.166667    0.00057870 140 t-inv F
 -0.166667 -0.250000  0.166667    0.00057870 141 t-inv F
 -0.083333 -0.250000  0.166667    0.00057870 142 t-inv F
 -0.166667 -0.166667  0.166667    0.00057870 143 t-inv F
 -0.083333 -0.166667  0.166667    0.00057870 144 t-inv F
 -0.083333 -0.083333  0.166667    0.00057870 145 t-inv F
 -0.000000 -0.000000  0.250000    0.00057870 146 t-inv F
  0.500000 -0.000000  0.250000    0.00057870 147 t-inv F
 -0.416667  0.000000  0.250000    0.00057870 148 t-inv F
 -0.333333 -0.000000  0.250000    0.00057870 149 t-inv F
 -0.250000  0.000000  0.250000    0.00057870 150 t-inv F
 -0.166667  0.000000  0.250000    0.00057870 151 t-inv F
 -0.083333 -0.000000  0.250000    0.00057870 152 t-inv F
 -0.416667  0.500000  0.250000    0.00057870 153 t-inv F
 -0.333333  0.500000  0.250000    0.00057870 154 t-inv F
 -0.250000  0.500000  0.250000    0.00057870 155 t-inv F
 -0.416667 -0.416667  0.250000    0.00057870 156 t-inv F
 -0.333333 -0.416667  0.250000    0.00057870 157 t-inv F
 -0.250000 -0.416667  0.250000    0.00057870 158 t-inv F
 -0.166667 -0.416667  0.250000    0.00057870 159 t-inv F
 -0.083333 -0.416667  0.250000    0.00057870 160 t-inv F
 -0.333333 -0.333333  0.250000    0.00057870 161 t-inv F
 -0.250000 -0.333333  0.250000    0.00057870 162 t-inv F
 -0.166667 -0.333333  0.250000    0.00057870 163 t-inv F
 -0.083333 -0.333333  0.250000    0.00057870 164 t-inv F
 -0.250000 -0.250000  0.250000    0.00057870 165 t-inv F
 -0.166667 -0.250000  0.250000    0.00057870 166 t-inv F
 -0.083333 -0.250000  0.250000    0.00057870 167 t-inv F
 -0.166667 -0.166667  0.250000    0.00057870 168 t-inv F
 -0.083333 -0.166667  0.250000    0.00057870 169 t-inv F
 -0.083333 -0.083333  0.250000    0.00057870 170 t-inv F
  0.000000  0.000000  0.333333    0.00057870 171 t-inv F
 -0.333333  0.000000  0.333333    0.00057870 172 t-inv F
 -0.250000  0.000000  0.333333    0.00057870 173 t-inv F
 -0.166667 -0.000000  0.333333    0.00057870 174 t-inv F
 -0.083333  0.000000  0.333333    0.00057870 175 t-inv F
 -0.250000 -0.333333  0.333333    0.00057870 176 t-inv F
 -0.166667 -0.333333  0.333333    0.00057870 177 t-inv F
 -0.250000 -0.250000  0.333333    0.00057870 178 t-inv F
 -0.166667 -0.250000  0.333333    0.00057870 179 t-inv F
 -0.083333 -0.250000  0.333333    0.00057870 180 t-inv F
 -0.166667 -0.166667  0.333333    0.00057870 181 t-inv F
 -0.083333 -0.166667  0.333333    0.00057870 182 t-inv F
 -0.083333 -0.083333  0.333333    0.00057870 183 t-inv F
 -0.000000  0.000000  0.416667    0.00057870 184 t-inv F
 -0.166667  0.000000  0.416667    0.00057870 185 t-inv F
 -0.083333 -0.000000  0.416667    0.00057870 186 t-inv F
 -0.083333 -0.166667  0.416667    0.00057870 187 t-inv F
 -0.083333 -0.083333  0.416667    0.00057870 188 t-inv F
 -0.000000 -0.000000  0.500000    0.00057870 189 t-inv F
 -0.083333 -0.083333 -0.083333    0.00057870   2 t-inv F
 -0.083333  0.000000  0.000000    0.00057870   2 t-inv F
  0.083333  0.083333  0.083333    0.00057870   2 t-inv F
  0.000000  0.083333  0.000000    0.00057870   2 t-inv F
 -0.000000 -0.083333 -0.000000    0.00057870   2 t-inv F
 -0.166667 -0.166667 -0.166667    0.00057870   3 t-inv F
 -0.166667  0.000000  0.000000    0.00057870   3 t-inv F
  0.166667  0.166667  0.166667    0.00057870   3 t-inv F
  0.000000  0.166667  0.000000    0.00057870   3 t-inv F
 -0.000000 -0.166667 -0.000000    0.00057870   3 t-inv F
 -0.250000 -0.250000 -0.250000    0.00057870   4 t-inv F
 -0.250000  0.000000  0.000000    0.00057870   4 t-inv F
  0.250000  0.250000  0.250000    0.00057870   4 t-inv F
  0.000000  0.250000  0.000000    0.00057870   4 t-inv F
 -0.000000 -0.250000 -0.000000    0.00057870   4 t-inv F
 -0.333333 -0.333333 -0.333333    0.00057870   5 t-inv F
 -0.333333  0.000000  0.000000    0.00057870   5 t-inv F
  0.333333  0.333333  0.333333    0.00057870   5 t-inv F
  0.000000  0.333333  0.000000    0.00057870   5 t-inv F
 -0.000000 -0.333333 -0.000000    0.00057870   5 t-inv F
 -0.416667 -0.416667 -0.416667    0.00057870   6 t-inv F
 -0.416667  0.000000  0.000000    0.00057870   6 t-inv F
  0.416667  0.416667  0.416667    0.00057870   6 t-inv F
  0.000000  0.416667  0.000000    0.00057870   6 t-inv F
 -0.000000 -0.416667 -0.000000    0.00057870   6 t-inv F
 -0.500000 -0.500000 -0.500000    0.00057870   7 t-inv F
  0.000000  0.500000  0.000000    0.00057870   7 t-inv F
 -0.083333  0.000000 -0.083333    0.00057870   8 t-inv F
 -0.083333 -0.083333  0.000000    0.00057870   8 t-inv F
  0.083333  0.000000  0.083333    0.00057870   8 t-inv F
  0.000000  0.083333  0.083333    0.00057870   8 t-inv F
  0.000000 -0.083333 -0.083333    0.00057870   8 t-inv F
 -0.166667 -0.083333 -0.166667    0.00057870   9 t-inv F
 -0.166667 -0.083333  0.000000    0.00057870   9 t-inv F
  0.166667  0.083333  0.166667    0.00057870   9 t-inv F
 -0.083333  0.083333  0.083333    0.00057870   9 t-inv F
  0.083333 -0.083333 -0.083333    0.00057870   9 t-inv F
 -0.083333  0.083333 -0.083333    0.00057870   9 t-inv F
  0.083333 -0.083333  0.083333    0.00057870   9 t-inv F
 -0.083333 -0.166667 -0.166667    0.00057870   9 t-inv F
  0.083333  0.166667  0.166667    0.00057870   9 t-inv F
 -0.083333 -0.166667  0.000000    0.00057870   9 t-inv F
  0.083333  0.166667 -0.000000    0.00057870   9 t-inv F
 -0.250000 -0.166667 -0.250000    0.00057870  10 t-inv F
 -0.250000 -0.083333  0.000000    0.00057870  10 t-inv F
  0.250000  0.166667  0.250000    0.00057870  10 t-inv F
 -0.166667  0.083333  0.083333    0.00057870  10 t-inv F
  0.166667 -0.083333 -0.083333    0.00057870  10 t-inv F
 -0.083333  0.166667 -0.083333    0.00057870  10 t-inv F
  0.083333 -0.166667  0.083333    0.00057870  10 t-inv F
 -0.166667 -0.250000 -0.250000    0.00057870  10 t-inv F
  0.166667  0.250000  0.250000    0.00057870  10 t-inv F
 -0.083333 -0.250000  0.000000    0.00057870  10 t-inv F
  0.083333  0.250000 -0.000000    0.00057870  10 t-inv F
 -0.333333 -0.250000 -0.333333    0.00057870  11 t-inv F
 -0.333333 -0.083333  0.000000    0.00057870  11 t-inv F
  0.333333  0.250000  0.333333    0.00057870  11 t-inv F
 -0.250000  0.083333  0.083333    0.00057870  11 t-inv F
  0.250000 -0.083333 -0.083333    0.00057870  11 t-inv F
 -0.083333  0.250000 -0.083333    0.00057870  11 t-inv F
  0.083333 -0.250000  0.083333    0.00057870  11 t-inv F
 -0.250000 -0.333333 -0.333333    0.00057870  11 t-inv F
  0.250000  0.333333  0.333333    0.00057870  11 t-inv F
 -0.083333 -0.333333  0.000000    0.00057870  11 t-inv F
  0.083333  0.333333 -0.000000    0.00057870  11 t-inv F
 -0.416667 -0.333333 -0.416667    0.00057870  12 t-inv F
 -0.416667 -0.083333  0.000000    0.00057870  12 t-inv F
  0.416667  0.333333  0.416667    0.00057870  12 t-inv F
 -0.333333  0.083333  0.083333    0.00057870  12 t-inv F
  0.333333 -0.083333 -0.083333    0.00057870  12 t-inv F
 -0.083333  0.333333 -0.083333    0.00057870  12 t-inv F
  0.083333 -0.333333  0.083333    0.00057870  12 t-inv F
 -0.333333 -0.416667 -0.416667    0.00057870  12 t-inv F
  0.333333  0.416667  0.416667    0.00057870  12 t-inv F
 -0.083333 -0.416667  0.000000    0.00057870  12 t-inv F
  0.083333  0.416667 -0.000000    0.00057870  12 t-inv F
 -0.500000 -0.416667 -0.500000    0.00057870  13 t-inv F
 -0.500000 -0.083333  0.000000    0.00057870  13 t-inv F
  0.500000  0.416667  0.500000    0.00057870  13 t-inv F
 -0.416667  0.083333  0.083333    0.00057870  13 t-inv F
  0.416667 -0.083333 -0.083333    0.00057870  13 t-inv F
 -0.083333  0.416667 -0.083333    0.00057870  13 t-inv F
  0.083333 -0.416667  0.083333    0.00057870  13 t-inv F
 -0.416667 -0.500000 -0.500000    0.00057870  13 t-inv F
  0.416667  0.500000  0.500000    0.00057870  13 t-inv F
 -0.083333 -0.500000  0.000000    0.00057870  13 t-inv F
  0.083333  0.500000 -0.000000    0.00057870  13 t-inv F
  0.416667  0.500000  0.416667    0.00057870  14 t-inv F
  0.416667 -0.083333 -0.000000    0.00057870  14 t-inv F
 -0.416667 -0.500000 -0.416667    0.00057870  14 t-inv F
  0.500000  0.083333  0.083333    0.00057870  14 t-inv F
 -0.500000 -0.083333 -0.083333    0.00057870  14 t-inv F
 -0.083333 -0.500000 -0.083333    0.00057870  14 t-inv F
  0.083333  0.500000  0.083333    0.00057870  14 t-inv F
  0.500000  0.416667  0.416667    0.00057870  14 t-inv F
 -0.500000 -0.416667 -0.416667    0.00057870  14 t-inv F
 -0.083333  0.416667 -0.000000    0.00057870  14 t-inv F
  0.083333 -0.416667  0.000000    0.00057870  14 t-inv F
  0.333333  0.416667  0.333333    0.00057870  15 t-inv F
  0.333333 -0.083333 -0.000000    0.00057870  15 t-inv F
 -0.333333 -0.416667 -0.333333    0.00057870  15 t-inv F
  0.416667  0.083333  0.083333    0.00057870  15 t-inv F
 -0.416667 -0.083333 -0.083333    0.00057870  15 t-inv F
 -0.083333 -0.416667 -0.083333    0.00057870  15 t-inv F
  0.083333  0.416667  0.083333    0.00057870  15 t-inv F
  0.416667  0.333333  0.333333    0.00057870  15 t-inv F
 -0.416667 -0.333333 -0.333333    0.00057870  15 t-inv F
 -0.083333  0.333333 -0.000000    0.00057870  15 t-inv F
  0.083333 -0.333333  0.000000    0.00057870  15 t-inv F
  0.250000  0.333333  0.250000    0.00057870  16 t-inv F
  0.250000 -0.083333 -0.000000    0.00057870  16 t-inv F
 -0.250000 -0.333333 -0.250000    0.00057870  16 t-inv F
  0.333333  0.083333  0.083333    0.00057870  16 t-inv F
 -0.333333 -0.083333 -0.083333    0.00057870  16 t-inv F
 -0.083333 -0.333333 -0.083333    0.00057870  16 t-inv F
  0.083333  0.333333  0.083333    0.00057870  16 t-inv F
  0.333333  0.250000  0.250000    0.00057870  16 t-inv F
 -0.333333 -0.250000 -0.250000    0.00057870  16 t-inv F
 -0.083333  0.250000 -0.000000    0.00057870  16 t-inv F
  0.083333 -0.250000  0.000000    0.00057870  16 t-inv F
  0.166667  0.250000  0.166667    0.00057870  17 t-inv F
  0.166667 -0.083333 -0.000000    0.00057870  17 t-inv F
 -0.166667 -0.250000 -0.166667    0.00057870  17 t-inv F
  0.250000  0.083333  0.083333    0.00057870  17 t-inv F
 -0.250000 -0.083333 -0.083333    0.00057870  17 t-inv F
 -0.083333 -0.250000 -0.083333    0.00057870  17 t-inv F
  0.083333  0.250000  0.083333    0.00057870  17 t-inv F
  0.250000  0.166667  0.166667    0.00057870  17 t-inv F
 -0.250000 -0.166667 -0.166667    0.00057870  17 t-inv F
 -0.083333  0.166667 -0.000000    0.00057870  17 t-inv F
  0.083333 -0.166667  0.000000    0.00057870  17 t-inv F
  0.083333  0.166667  0.083333    0.00057870  18 t-inv F
  0.083333 -0.083333 -0.000000    0.00057870  18 t-inv F
 -0.083333 -0.166667 -0.083333    0.00057870  18 t-inv F
  0.166667  0.083333  0.083333    0.00057870  18 t-inv F
 -0.166667 -0.083333 -0.083333    0.00057870  18 t-inv F
 -0.166667  0.000000 -0.166667    0.00057870  19 t-inv F
 -0.166667 -0.166667  0.000000    0.00057870  19 t-inv F
  0.166667  0.000000  0.166667    0.00057870  19 t-inv F
  0.000000  0.166667  0.166667    0.00057870  19 t-inv F
  0.000000 -0.166667 -0.166667    0.00057870  19 t-inv F
 -0.250000 -0.083333 -0.250000    0.00057870  20 t-inv F
 -0.250000 -0.166667 -0.000000    0.00057870  20 t-inv F
  0.250000  0.083333  0.250000    0.00057870  20 t-inv F
 -0.083333  0.166667  0.166667    0.00057870  20 t-inv F
  0.083333 -0.166667 -0.166667    0.00057870  20 t-inv F
 -0.166667  0.083333 -0.166667    0.00057870  20 t-inv F
  0.166667 -0.083333  0.166667    0.00057870  20 t-inv F
 -0.083333 -0.250000 -0.250000    0.00057870  20 t-inv F
  0.083333  0.250000  0.250000    0.00057870  20 t-inv F
 -0.166667 -0.250000 -0.000000    0.00057870  20 t-inv F
  0.166667  0.250000  0.000000    0.00057870  20 t-inv F
 -0.333333 -0.166667 -0.333333    0.00057870  21 t-inv F
 -0.333333 -0.166667 -0.000000    0.00057870  21 t-inv F
  0.333333  0.166667  0.333333    0.00057870  21 t-inv F
 -0.166667  0.166667  0.166667    0.00057870  21 t-inv F
  0.166667 -0.166667 -0.166667    0.00057870  21 t-inv F
 -0.166667  0.166667 -0.166667    0.00057870  21 t-inv F
  0.166667 -0.166667  0.166667    0.00057870  21 t-inv F
 -0.166667 -0.333333 -0.333333    0.00057870  21 t-inv F
  0.166667  0.333333  0.333333    0.00057870  21 t-inv F
 -0.166667 -0.333333 -0.000000    0.00057870  21 t-inv F
  0.166667  0.333333  0.000000    0.00057870  21 t-inv F
 -0.416667 -0.250000 -0.416667    0.00057870  22 t-inv F
 -0.416667 -0.166667 -0.000000    0.00057870  22 t-inv F
  0.416667  0.250000  0.416667    0.00057870  22 t-inv F
 -0.250000  0.166667  0.166667    0.00057870  22 t-inv F
  0.250000 -0.166667 -0.166667    0.00057870  22 t-inv F
 -0.166667  0.250000 -0.166667    0.00057870  22 t-inv F
  0.166667 -0.250000  0.166667    0.00057870  22 t-inv F
 -0.250000 -0.416667 -0.416667    0.00057870  22 t-inv F
  0.250000  0.416667  0.416667    0.00057870  22 t-inv F
 -0.166667 -0.416667 -0.000000    0.00057870  22 t-inv F
  0.166667  0.416667  0.000000    0.00057870  22 t-inv F
 -0.500000 -0.333333 -0.500000    0.00057870  23 t-inv F
 -0.500000 -0.166667 -0.000000    0.00057870  23 t-inv F
  0.500000  0.333333  0.500000    0.00057870  23 t-inv F
 -0.333333  0.166667  0.166667    0.00057870  23 t-inv F
  0.333333 -0.166667 -0.166667    0.00057870  23 t-inv F
 -0.166667  0.333333 -0.166667    0.00057870  23 t-inv F
  0.166667 -0.333333  0.166667    0.00057870  23 t-inv F
 -0.333333 -0.500000 -0.500000    0.00057870  23 t-inv F
  0.333333  0.500000  0.500000    0.00057870  23 t-inv F
 -0.166667 -0.500000 -0.000000    0.00057870  23 t-inv F
  0.166667  0.500000  0.000000    0.00057870  23 t-inv F
  0.416667  0.583333  0.416667    0.00057870  24 t-inv F
  0.416667 -0.166667 -0.000000    0.00057870  24 t-inv F
 -0.416667 -0.583333 -0.416667    0.00057870  24 t-inv F
  0.583333  0.166667  0.166667    0.00057870  24 t-inv F
 -0.583333 -0.166667 -0.166667    0.00057870  24 t-inv F
 -0.166667 -0.583333 -0.166667    0.00057870  24 t-inv F
  0.166667  0.583333  0.166667    0.00057870  24 t-inv F
  0.583333  0.416667  0.416667    0.00057870  24 t-inv F
 -0.583333 -0.416667 -0.416667    0.00057870  24 t-inv F
 -0.166667  0.416667 -0.000000    0.00057870  24 t-inv F
  0.166667 -0.416667  0.000000    0.00057870  24 t-inv F
  0.333333  0.500000  0.333333    0.00057870  25 t-inv F
  0.333333 -0.166667 -0.000000    0.00057870  25 t-inv F
 -0.333333 -0.500000 -0.333333    0.00057870  25 t-inv F
  0.500000  0.166667  0.166667    0.00057870  25 t-inv F
 -0.500000 -0.166667 -0.166667    0.00057870  25 t-inv F
 -0.166667 -0.500000 -0.166667    0.00057870  25 t-inv F
  0.166667  0.500000  0.166667    0.00057870  25 t-inv F
  0.500000  0.333333  0.333333    0.00057870  25 t-inv F
 -0.500000 -0.333333 -0.333333    0.00057870  25 t-inv F
 -0.166667  0.333333 -0.000000    0.00057870  25 t-inv F
  0.166667 -0.333333  0.000000    0.00057870  25 t-inv F
  0.250000  0.416667  0.250000    0.00057870  26 t-inv F
  0.250000 -0.166667 -0.000000    0.00057870  26 t-inv F
 -0.250000 -0.416667 -0.250000    0.00057870  26 t-inv F
  0.416667  0.166667  0.166667    0.00057870  26 t-inv F
 -0.416667 -0.166667 -0.166667    0.00057870  26 t-inv F
 -0.166667 -0.416667 -0.166667    0.00057870  26 t-inv F
  0.166667  0.416667  0.166667    0.00057870  26 t-inv F
  0.416667  0.250000  0.250000    0.00057870  26 t-inv F
 -0.416667 -0.250000 -0.250000    0.00057870  26 t-inv F
 -0.166667  0.250000 -0.000000    0.00057870  26 t-inv F
  0.166667 -0.250000  0.000000    0.00057870  26 t-inv F
  0.166667  0.333333  0.166667    0.00057870  27 t-inv F
  0.166667 -0.166667 -0.000000    0.00057870  27 t-inv F
 -0.166667 -0.333333 -0.166667    0.00057870  27 t-inv F
  0.333333  0.166667  0.166667    0.00057870  27 t-inv F
 -0.333333 -0.166667 -0.166667    0.00057870  27 t-inv F
 -0.250000  0.000000 -0.250000    0.00057870  28 t-inv F
 -0.250000 -0.250000  0.000000    0.00057870  28 t-inv F
  0.250000  0.000000  0.250000    0.00057870  28 t-inv F
  0.000000  0.250000  0.250000    0.00057870  28 t-inv F
  0.000000 -0.250000 -0.250000    0.00057870  28 t-inv F
 -0.333333 -0.083333 -0.333333    0.00057870  29 t-inv F
 -0.333333 -0.250000  0.000000    0.00057870  29 t-inv F
  0.333333  0.083333  0.333333    0.00057870  29 t-inv F
 -0.083333  0.250000  0.250000    0.00057870  29 t-inv F
  0.083333 -0.250000 -0.250000    0.00057870  29 t-inv F
 -0.250000  0.083333 -0.250000    0.00057870  29 t-inv F
  0.250000 -0.083333  0.250000    0.00057870  29 t-inv F
 -0.083333 -0.333333 -0.333333    0.00057870  29 t-inv F
  0.083333  0.333333  0.333333    0.00057870  29 t-inv F
 -0.250000 -0.333333  0.000000    0.00057870  29 t-inv F
  0.250000  0.333333 -0.000000    0.00057870  29 t-inv F
 -0.416667 -0.166667 -0.416667    0.00057870  30 t-inv F
 -0.416667 -0.250000  0.000000    0.00057870  30 t-inv F
  0.416667  0.166667  0.416667    0.00057870  30 t-inv F
 -0.166667  0.250000  0.250000    0.00057870  30 t-inv F
  0.166667 -0.250000 -0.250000    0.00057870  30 t-inv F
 -0.250000  0.166667 -0.250000    0.00057870  30 t-inv F
  0.250000 -0.166667  0.250000    0.00057870  30 t-inv F
 -0.166667 -0.416667 -0.416667    0.00057870  30 t-inv F
  0.166667  0.416667  0.416667    0.00057870  30 t-inv F
 -0.250000 -0.416667  0.000000    0.00057870  30 t-inv F
  0.250000  0.416667 -0.000000    0.00057870  30 t-inv F
 -0.500000 -0.250000 -0.500000    0.00057870  31 t-inv F
 -0.500000 -0.250000 -0.000000    0.00057870  31 t-inv F
  0.500000  0.250000  0.500000    0.00057870  31 t-inv F
 -0.250000  0.250000  0.250000    0.00057870  31 t-inv F
  0.250000 -0.250000 -0.250000    0.00057870  31 t-inv F
 -0.250000  0.250000 -0.250000    0.00057870  31 t-inv F
  0.250000 -0.250000  0.250000    0.00057870  31 t-inv F
 -0.250000 -0.500000 -0.500000    0.00057870  31 t-inv F
  0.250000  0.500000  0.500000    0.00057870  31 t-inv F
 -0.250000 -0.500000 -0.000000    0.00057870  31 t-inv F
  0.250000  0.500000  0.000000    0.00057870  31 t-inv F
  0.416667  0.666667  0.416667    0.00057870  32 t-inv F
  0.416667 -0.250000 -0.000000    0.00057870  32 t-inv F
 -0.416667 -0.666667 -0.416667    0.00057870  32 t-inv F
  0.666667  0.250000  0.250000    0.00057870  32 t-inv F
 -0.666667 -0.250000 -0.250000    0.00057870  32 t-inv F
 -0.250000 -0.666667 -0.250000    0.00057870  32 t-inv F
  0.250000  0.666667  0.250000    0.00057870  32 t-inv F
  0.666667  0.416667  0.416667    0.00057870  32 t-inv F
 -0.666667 -0.416667 -0.416667    0.00057870  32 t-inv F
 -0.250000  0.416667 -0.000000    0.00057870  32 t-inv F
  0.250000 -0.416667  0.000000    0.00057870  32 t-inv F
  0.333333  0.583333  0.333333    0.00057870  33 t-inv F
  0.333333 -0.250000 -0.000000    0.00057870  33 t-inv F
 -0.333333 -0.583333 -0.333333    0.00057870  33 t-inv F
  0.583333  0.250000  0.250000    0.00057870  33 t-inv F
 -0.583333 -0.250000 -0.250000    0.00057870  33 t-inv F
 -0.250000 -0.583333 -0.250000    0.00057870  33 t-inv F
  0.250000  0.583333  0.250000    0.00057870  33 t-inv F
  0.583333  0.333333  0.333333    0.00057870  33 t-inv F
 -0.583333 -0.333333 -0.333333    0.00057870  33 t-inv F
 -0.250000  0.333333 -0.000000    0.00057870  33 t-inv F
  0.250000 -0.333333  0.000000    0.00057870  33 t-inv F
  0.250000  0.500000  0.250000    0.00057870  34 t-inv F
  0.250000 -0.250000 -0.000000    0.00057870  34 t-inv F
 -0.250000 -0.500000 -0.250000    0.00057870  34 t-inv F
  0.500000  0.250000  0.250000    0.00057870  34 t-inv F
 -0.500000 -0.250000 -0.250000    0.00057870  34 t-inv F
 -0.333333  0.000000 -0.333333    0.00057870  35 t-inv F
 -0.333333 -0.333333  0.000000    0.00057870  35 t-inv F
  0.333333  0.000000  0.333333    0.00057870  35 t-inv F
  0.000000  0.333333  0.333333    0.00057870  35 t-inv F
  0.000000 -0.333333 -0.333333    0.00057870  35 t-inv F
 -0.416667 -0.083333 -0.416667    0.00057870  36 t-inv F
 -0.416667 -0.333333  0.000000    0.00057870  36 t-inv F
  0.416667  0.083333  0.416667    0.00057870  36 t-inv F
 -0.083333  0.333333  0.333333    0.00057870  36 t-inv F
  0.083333 -0.333333 -0.333333    0.00057870  36 t-inv F
 -0.333333  0.083333 -0.333333    0.00057870  36 t-inv F
  0.333333 -0.083333  0.333333    0.00057870  36 t-inv F
 -0.083333 -0.416667 -0.416667    0.00057870  36 t-inv F
  0.083333  0.416667  0.416667    0.00057870  36 t-inv F
 -0.333333 -0.416667  0.000000    0.00057870  36 t-inv F
  0.333333  0.416667 -0.000000    0.00057870  36 t-inv F
 -0.500000 -0.166667 -0.500000    0.00057870  37 t-inv F
 -0.500000 -0.333333  0.000000    0.00057870  37 t-inv F
  0.500000  0.166667  0.500000    0.00057870  37 t-inv F
 -0.166667  0.333333  0.333333    0.00057870  37 t-inv F
  0.166667 -0.333333 -0.333333    0.00057870  37 t-inv F
 -0.333333  0.166667 -0.333333    0.00057870  37 t-inv F
  0.333333 -0.166667  0.333333    0.00057870  37 t-inv F
 -0.166667 -0.500000 -0.500000    0.00057870  37 t-inv F
  0.166667  0.500000  0.500000    0.00057870  37 t-inv F
 -0.333333 -0.500000  0.000000    0.00057870  37 t-inv F
  0.333333  0.500000 -0.000000    0.00057870  37 t-inv F
  0.416667  0.750000  0.416667    0.00057870  38 t-inv F
  0.416667 -0.333333 -0.000000    0.00057870  38 t-inv F
 -0.416667 -0.750000 -0.416667    0.00057870  38 t-inv F
  0.750000  0.333333  0.333333    0.00057870  38 t-inv F
 -0.750000 -0.333333 -0.333333    0.00057870  38 t-inv F
 -0.333333 -0.750000 -0.333333    0.00057870  38 t-inv F
  0.333333  0.750000  0.333333    0.00057870  38 t-inv F
  0.750000  0.416667  0.416667    0.00057870  38 t-inv F
 -0.750000 -0.416667 -0.416667    0.00057870  38 t-inv F
 -0.333333  0.416667 -0.000000    0.00057870  38 t-inv F
  0.333333 -0.416667  0.000000    0.00057870  38 t-inv F
  0.333333  0.666667  0.333333    0.00057870  39 t-inv F
  0.333333 -0.333333 -0.000000    0.00057870  39 t-inv F
 -0.333333 -0.666667 -0.333333    0.00057870  39 t-inv F
  0.666667  0.333333  0.333333    0.00057870  39 t-inv F
 -0.666667 -0.333333 -0.333333    0.00057870  39 t-inv F
 -0.416667  0.000000 -0.416667    0.00057870  40 t-inv F
 -0.416667 -0.416667  0.000000    0.00057870  40 t-inv F
  0.416667  0.000000  0.416667    0.00057870  40 t-inv F
  0.000000  0.416667  0.416667    0.00057870  40 t-inv F
  0.000000 -0.416667 -0.416667    0.00057870  40 t-inv F
 -0.500000 -0.083333 -0.500000    0.00057870  41 t-inv F
 -0.500000 -0.416667  0.000000    0.00057870  41 t-inv F
  0.500000  0.083333  0.500000    0.00057870  41 t-inv F
 -0.083333  0.416667  0.416667    0.00057870  41 t-inv F
  0.083333 -0.416667 -0.416667    0.00057870  41 t-inv F
 -0.416667  0.083333 -0.416667    0.00057870  41 t-inv F
  0.416667 -0.083333  0.416667    0.00057870  41 t-inv F
 -0.083333 -0.500000 -0.500000    0.00057870  41 t-inv F
  0.083333  0.500000  0.500000    0.00057870  41 t-inv F
 -0.416667 -0.500000  0.000000    0.00057870  41 t-inv F
  0.416667  0.500000 -0.000000    0.00057870  41 t-inv F
  0.416667  0.833333  0.416667    0.00057870  42 t-inv F
  0.416667 -0.416667 -0.000000    0.00057870  42 t-inv F
 -0.416667 -0.833333 -0.416667    0.00057870  42 t-inv F
  0.833333  0.416667  0.416667    0.00057870  42 t-inv F
 -0.833333 -0.416667 -0.416667    0.00057870  42 t-inv F
 -0.500000  0.000000 -0.500000    0.00057870  43 t-inv F
  0.000000  0.500000  0.500000    0.00057870  43 t-inv F
 -0.000000 -0.000000 -0.083333    0.00057870  44 t-inv F
 -0.166667 -0.166667 -0.083333    0.00057870  45 t-inv F
 -0.166667  0.000000 -0.083333    0.00057870  45 t-inv F
  0.166667  0.166667  0.083333    0.00057870  45 t-inv F
  0.000000  0.166667  0.083333    0.00057870  45 t-inv F
 -0.000000 -0.166667 -0.083333    0.00057870  45 t-inv F
 -0.250000 -0.250000 -0.166667    0.00057870  46 t-inv F
 -0.250000  0.000000 -0.083333    0.00057870  46 t-inv F
  0.250000  0.250000  0.166667    0.00057870  46 t-inv F
  0.000000  0.250000  0.083333    0.00057870  46 t-inv F
 -0.000000 -0.250000 -0.083333    0.00057870  46 t-inv F
 -0.333333 -0.333333 -0.250000    0.00057870  47 t-inv F
 -0.333333  0.000000 -0.083333    0.00057870  47 t-inv F
  0.333333  0.333333  0.250000    0.00057870  47 t-inv F
  0.000000  0.333333  0.083333    0.00057870  47 t-inv F
 -0.000000 -0.333333 -0.083333    0.00057870  47 t-inv F
 -0.416667 -0.416667 -0.333333    0.00057870  48 t-inv F
 -0.416667  0.000000 -0.083333    0.00057870  48 t-inv F
  0.416667  0.416667  0.333333    0.00057870  48 t-inv F
  0.000000  0.416667  0.083333    0.00057870  48 t-inv F
 -0.000000 -0.416667 -0.083333    0.00057870  48 t-inv F
 -0.500000 -0.500000 -0.416667    0.00057870  49 t-inv F
 -0.500000  0.000000 -0.083333    0.00057870  49 t-inv F
  0.500000  0.500000  0.416667    0.00057870  49 t-inv F
  0.000000  0.500000  0.083333    0.00057870  49 t-inv F
 -0.000000 -0.500000 -0.083333    0.00057870  49 t-inv F
  0.416667  0.416667  0.500000    0.00057870  50 t-inv F
  0.416667 -0.000000 -0.083333    0.00057870  50 t-inv F
 -0.416667 -0.416667 -0.500000    0.00057870  50 t-inv F
 -0.000000 -0.416667  0.083333    0.00057870  50 t-inv F
  0.000000  0.416667 -0.083333    0.00057870  50 t-inv F
  0.333333  0.333333  0.416667    0.00057870  51 t-inv F
  0.333333 -0.000000 -0.083333    0.00057870  51 t-inv F
 -0.333333 -0.333333 -0.416667    0.00057870  51 t-inv F
 -0.000000 -0.333333  0.083333    0.00057870  51 t-inv F
  0.000000  0.333333 -0.083333    0.00057870  51 t-inv F
  0.250000  0.250000  0.333333    0.00057870  52 t-inv F
  0.250000 -0.000000 -0.083333    0.00057870  52 t-inv F
 -0.250000 -0.250000 -0.333333    0.00057870  52 t-inv F
 -0.000000 -0.250000  0.083333    0.00057870  52 t-inv F
  0.000000  0.250000 -0.083333    0.00057870  52 t-inv F
  0.166667  0.166667  0.250000    0.00057870  53 t-inv F
  0.166667 -0.000000 -0.083333    0.00057870  53 t-inv F
 -0.166667 -0.166667 -0.250000    0.00057870  53 t-inv F
 -0.000000 -0.166667  0.083333    0.00057870  53 t-inv F
  0.000000  0.166667 -0.083333    0.00057870  53 t-inv F
  0.083333  0.083333  0.166667    0.00057870  54 t-inv F
  0.083333 -0.000000 -0.083333    0.00057870  54 t-inv F
 -0.083333 -0.083333 -0.166667    0.00057870  54 t-inv F
 -0.000000 -0.083333  0.083333    0.00057870  54 t-inv F
  0.000000  0.083333 -0.083333    0.00057870  54 t-inv F
 -0.250000 -0.083333 -0.166667    0.00057870  55 t-inv F
 -0.250000 -0.166667 -0.083333    0.00057870  55 t-inv F
  0.250000  0.083333  0.166667    0.00057870  55 t-inv F
 -0.083333  0.166667  0.083333    0.00057870  55 t-inv F
  0.083333 -0.166667 -0.083333    0.00057870  55 t-inv F
 -0.166667  0.083333 -0.083333    0.00057870  55 t-inv F
  0.166667 -0.083333  0.083333    0.00057870  55 t-inv F
 -0.083333 -0.250000 -0.166667    0.00057870  55 t-inv F
  0.083333  0.250000  0.166667    0.00057870  55 t-inv F
 -0.166667 -0.250000 -0.083333    0.00057870  55 t-inv F
  0.166667  0.250000  0.083333    0.00057870  55 t-inv F
 -0.333333 -0.166667 -0.250000    0.00057870  56 t-inv F
 -0.333333 -0.166667 -0.083333    0.00057870  56 t-inv F
  0.333333  0.166667  0.250000    0.00057870  56 t-inv F
 -0.166667  0.166667  0.083333    0.00057870  56 t-inv F
  0.166667 -0.166667 -0.083333    0.00057870  56 t-inv F
 -0.166667  0.166667 -0.083333    0.00057870  56 t-inv F
  0.166667 -0.166667  0.083333    0.00057870  56 t-inv F
 -0.166667 -0.333333 -0.250000    0.00057870  56 t-inv F
  0.166667  0.333333  0.250000    0.00057870  56 t-inv F
 -0.166667 -0.333333 -0.083333    0.00057870  56 t-inv F
  0.166667  0.333333  0.083333    0.00057870  56 t-inv F
 -0.416667 -0.250000 -0.333333    0.00057870  57 t-inv F
 -0.416667 -0.166667 -0.083333    0.00057870  57 t-inv F
  0.416667  0.250000  0.333333    0.00057870  57 t-inv F
 -0.250000  0.166667  0.083333    0.00057870  57 t-inv F
  0.250000 -0.166667 -0.083333    0.00057870  57 t-inv F
 -0.166667  0.250000 -0.083333    0.00057870  57 t-inv F
  0.166667 -0.250000  0.083333    0.00057870  57 t-inv F
 -0.250000 -0.416667 -0.333333    0.00057870  57 t-inv F
  0.250000  0.416667  0.333333    0.00057870  57 t-inv F
 -0.166667 -0.416667 -0.083333    0.00057870  57 t-inv F
  0.166667  0.416667  0.083333    0.00057870  57 t-inv F
 -0.500000 -0.333333 -0.416667    0.00057870  58 t-inv F
 -0.500000 -0.166667 -0.083333    0.00057870  58 t-inv F
  0.500000  0.333333  0.416667    0.00057870  58 t-inv F
 -0.333333  0.166667  0.083333    0.00057870  58 t-inv F
  0.333333 -0.166667 -0.083333    0.00057870  58 t-inv F
 -0.166667  0.333333 -0.083333    0.00057870  58 t-inv F
  0.166667 -0.333333  0.083333    0.00057870  58 t-inv F
 -0.333333 -0.500000 -0.416667    0.00057870  58 t-inv F
  0.333333  0.500000  0.416667    0.00057870  58 t-inv F
 -0.166667 -0.500000 -0.083333    0.00057870  58 t-inv F
  0.166667  0.500000  0.083333    0.00057870  58 t-inv F
  0.416667  0.583333  0.500000    0.00057870  59 t-inv F
  0.416667 -0.166667 -0.083333    0.00057870  59 t-inv F
 -0.416667 -0.583333 -0.500000    0.00057870  59 t-inv F
 -0.166667 -0.583333 -0.083333    0.00057870  59 t-inv F
  0.166667  0.583333  0.083333    0.00057870  59 t-inv F
 -0.250000 -0.000000 -0.166667    0.00057870  60 t-inv F
 -0.250000 -0.250000 -0.083333    0.00057870  60 t-inv F
  0.250000  0.000000  0.166667    0.00057870  60 t-inv F
 -0.000000  0.250000  0.166667    0.00057870  60 t-inv F
  0.000000 -0.250000 -0.166667    0.00057870  60 t-inv F
 -0.333333 -0.083333 -0.250000    0.00057870  61 t-inv F
 -0.333333 -0.250000 -0.083333    0.00057870  61 t-inv F
  0.333333  0.083333  0.250000    0.00057870  61 t-inv F
 -0.083333  0.250000  0.166667    0.00057870  61 t-inv F
  0.083333 -0.250000 -0.166667    0.00057870  61 t-inv F
 -0.250000  0.083333 -0.166667    0.00057870  61 t-inv F
  0.250000 -0.083333  0.166667    0.00057870  61 t-inv F
 -0.083333 -0.333333 -0.250000    0.00057870  61 t-inv F
  0.083333  0.333333  0.250000    0.00057870  61 t-inv F
 -0.250000 -0.333333 -0.083333    0.00057870  61 t-inv F
  0.250000  0.333333  0.083333    0.00057870  61 t-inv F
 -0.416667 -0.166667 -0.333333    0.00057870  62 t-inv F
 -0.416667 -0.250000 -0.083333    0.00057870  62 t-inv F
  0.416667  0.166667  0.333333    0.00057870  62 t-inv F
 -0.166667  0.250000  0.166667    0.00057870  62 t-inv F
  0.166667 -0.250000 -0.166667    0.00057870  62 t-inv F
 -0.250000  0.166667 -0.166667    0.00057870  62 t-inv F
  0.250000 -0.166667  0.166667    0.00057870  62 t-inv F
 -0.166667 -0.416667 -0.333333    0.00057870  62 t-inv F
  0.166667  0.416667  0.333333    0.00057870  62 t-inv F
 -0.250000 -0.416667 -0.083333    0.00057870  62 t-inv F
  0.250000  0.416667  0.083333    0.00057870  62 t-inv F
 -0.500000 -0.250000 -0.416667    0.00057870  63 t-inv F
 -0.500000 -0.250000 -0.083333    0.00057870  63 t-inv F
  0.500000  0.250000  0.416667    0.00057870  63 t-inv F
 -0.250000  0.250000  0.166667    0.00057870  63 t-inv F
  0.250000 -0.250000 -0.166667    0.00057870  63 t-inv F
 -0.250000  0.250000 -0.166667    0.00057870  63 t-inv F
  0.250000 -0.250000  0.166667    0.00057870  63 t-inv F
 -0.250000 -0.500000 -0.416667    0.00057870  63 t-inv F
  0.250000  0.500000  0.416667    0.00057870  63 t-inv F
 -0.250000 -0.500000 -0.083333    0.00057870  63 t-inv F
  0.250000  0.500000  0.083333    0.00057870  63 t-inv F
  0.416667  0.666667  0.500000    0.00057870  64 t-inv F
  0.416667 -0.250000 -0.083333    0.00057870  64 t-inv F
 -0.416667 -0.666667 -0.500000    0.00057870  64 t-inv F
  0.666667  0.250000  0.166667    0.00057870  64 t-inv F
 -0.666667 -0.250000 -0.166667    0.00057870  64 t-inv F
 -0.250000 -0.666667 -0.166667    0.00057870  64 t-inv F
  0.250000  0.666667  0.166667    0.00057870  64 t-inv F
  0.666667  0.416667  0.500000    0.00057870  64 t-inv F
 -0.666667 -0.416667 -0.500000    0.00057870  64 t-inv F
 -0.250000  0.416667 -0.083333    0.00057870  64 t-inv F
  0.250000 -0.416667  0.083333    0.00057870  64 t-inv F
  0.333333  0.583333  0.416667    0.00057870  65 t-inv F
  0.333333 -0.250000 -0.083333    0.00057870  65 t-inv F
 -0.333333 -0.583333 -0.416667    0.00057870  65 t-inv F
  0.583333  0.250000  0.166667    0.00057870  65 t-inv F
 -0.583333 -0.250000 -0.166667    0.00057870  65 t-inv F
 -0.250000 -0.583333 -0.166667    0.00057870  65 t-inv F
  0.250000  0.583333  0.166667    0.00057870  65 t-inv F
  0.583333  0.333333  0.416667    0.00057870  65 t-inv F
 -0.583333 -0.333333 -0.416667    0.00057870  65 t-inv F
 -0.250000  0.333333 -0.083333    0.00057870  65 t-inv F
  0.250000 -0.333333  0.083333    0.00057870  65 t-inv F
  0.250000  0.500000  0.333333    0.00057870  66 t-inv F
  0.250000 -0.250000 -0.083333    0.00057870  66 t-inv F
 -0.250000 -0.500000 -0.333333    0.00057870  66 t-inv F
  0.500000  0.250000  0.166667    0.00057870  66 t-inv F
 -0.500000 -0.250000 -0.166667    0.00057870  66 t-inv F
 -0.250000 -0.500000 -0.166667    0.00057870  66 t-inv F
  0.250000  0.500000  0.166667    0.00057870  66 t-inv F
  0.500000  0.250000  0.333333    0.00057870  66 t-inv F
 -0.500000 -0.250000 -0.333333    0.00057870  66 t-inv F
 -0.250000  0.250000 -0.083333    0.00057870  66 t-inv F
  0.250000 -0.250000  0.083333    0.00057870  66 t-inv F
  0.166667  0.416667  0.250000    0.00057870  67 t-inv F
  0.166667 -0.250000 -0.083333    0.00057870  67 t-inv F
 -0.166667 -0.416667 -0.250000    0.00057870  67 t-inv F
  0.416667  0.250000  0.166667    0.00057870  67 t-inv F
 -0.416667 -0.250000 -0.166667    0.00057870  67 t-inv F
 -0.250000 -0.416667 -0.166667    0.00057870  67 t-inv F
  0.250000  0.416667  0.166667    0.00057870  67 t-inv F
  0.416667  0.166667  0.250000    0.00057870  67 t-inv F
 -0.416667 -0.166667 -0.250000    0.00057870  67 t-inv F
 -0.250000  0.166667 -0.083333    0.00057870  67 t-inv F
  0.250000 -0.166667  0.083333    0.00057870  67 t-inv F
  0.083333  0.333333  0.166667    0.00057870  68 t-inv F
  0.083333 -0.250000 -0.083333    0.00057870  68 t-inv F
 -0.083333 -0.333333 -0.166667    0.00057870  68 t-inv F
  0.333333  0.250000  0.166667    0.00057870  68 t-inv F
 -0.333333 -0.250000 -0.166667    0.00057870  68 t-inv F
 -0.250000 -0.333333 -0.166667    0.00057870  68 t-inv F
  0.250000  0.333333  0.166667    0.00057870  68 t-inv F
  0.333333  0.083333  0.166667    0.00057870  68 t-inv F
 -0.333333 -0.083333 -0.166667    0.00057870  68 t-inv F
 -0.250000  0.083333 -0.083333    0.00057870  68 t-inv F
  0.250000 -0.083333  0.083333    0.00057870  68 t-inv F
 -0.333333  0.000000 -0.250000    0.00057870  69 t-inv F
 -0.333333 -0.333333 -0.083333    0.00057870  69 t-inv F
  0.333333  0.000000  0.250000    0.00057870  69 t-inv F
  0.000000  0.333333  0.250000    0.00057870  69 t-inv F
  0.000000 -0.333333 -0.250000    0.00057870  69 t-inv F
 -0.416667 -0.083333 -0.333333    0.00057870  70 t-inv F
 -0.416667 -0.333333 -0.083333    0.00057870  70 t-inv F
  0.416667  0.083333  0.333333    0.00057870  70 t-inv F
 -0.083333  0.333333  0.250000    0.00057870  70 t-inv F
  0.083333 -0.333333 -0.250000    0.00057870  70 t-inv F
 -0.333333  0.083333 -0.250000    0.00057870  70 t-inv F
  0.333333 -0.083333  0.250000    0.00057870  70 t-inv F
 -0.083333 -0.416667 -0.333333    0.00057870  70 t-inv F
  0.083333  0.416667  0.333333    0.00057870  70 t-inv F
 -0.333333 -0.416667 -0.083333    0.00057870  70 t-inv F
  0.333333  0.416667  0.083333    0.00057870  70 t-inv F
 -0.500000 -0.166667 -0.416667    0.00057870  71 t-inv F
 -0.500000 -0.333333 -0.083333    0.00057870  71 t-inv F
  0.500000  0.166667  0.416667    0.00057870  71 t-inv F
 -0.166667  0.333333  0.250000    0.00057870  71 t-inv F
  0.166667 -0.333333 -0.250000    0.00057870  71 t-inv F
 -0.333333  0.166667 -0.250000    0.00057870  71 t-inv F
  0.333333 -0.166667  0.250000    0.00057870  71 t-inv F
 -0.166667 -0.500000 -0.416667    0.00057870  71 t-inv F
  0.166667  0.500000  0.416667    0.00057870  71 t-inv F
 -0.333333 -0.500000 -0.083333    0.00057870  71 t-inv F
  0.333333  0.500000  0.083333    0.00057870  71 t-inv F
  0.416667  0.750000  0.500000    0.00057870  72 t-inv F
  0.416667 -0.333333 -0.083333    0.00057870  72 t-inv F
 -0.416667 -0.750000 -0.500000    0.00057870  72 t-inv F
  0.750000  0.333333  0.250000    0.00057870  72 t-inv F
 -0.750000 -0.333333 -0.250000    0.00057870  72 t-inv F
 -0.333333 -0.750000 -0.250000    0.00057870  72 t-inv F
  0.333333  0.750000  0.250000    0.00057870  72 t-inv F
  0.750000  0.416667  0.500000    0.00057870  72 t-inv F
 -0.750000 -0.416667 -0.500000    0.00057870  72 t-inv F
 -0.333333  0.416667 -0.083333    0.00057870  72 t-inv F
  0.333333 -0.416667  0.083333    0.00057870  72 t-inv F
  0.333333  0.666667  0.416667    0.00057870  73 t-inv F
  0.333333 -0.333333 -0.083333    0.00057870  73 t-inv F
 -0.333333 -0.666667 -0.416667    0.00057870  73 t-inv F
  0.666667  0.333333  0.250000    0.00057870  73 t-inv F
 -0.666667 -0.333333 -0.250000    0.00057870  73 t-inv F
 -0.333333 -0.666667 -0.250000    0.00057870  73 t-inv F
  0.333333  0.666667  0.250000    0.00057870  73 t-inv F
  0.666667  0.333333  0.416667    0.00057870  73 t-inv F
 -0.666667 -0.333333 -0.416667    0.00057870  73 t-inv F
 -0.333333  0.333333 -0.083333    0.00057870  73 t-inv F
  0.333333 -0.333333  0.083333    0.00057870  73 t-inv F
  0.250000  0.583333  0.333333    0.00057870  74 t-inv F
  0.250000 -0.333333 -0.083333    0.00057870  74 t-inv F
 -0.250000 -0.583333 -0.333333    0.00057870  74 t-inv F
  0.583333  0.333333  0.250000    0.00057870  74 t-inv F
 -0.583333 -0.333333 -0.250000    0.00057870  74 t-inv F
 -0.333333 -0.583333 -0.250000    0.00057870  74 t-inv F
  0.333333  0.583333  0.250000    0.00057870  74 t-inv F
  0.583333  0.250000  0.333333    0.00057870  74 t-inv F
 -0.583333 -0.250000 -0.333333    0.00057870  74 t-inv F
 -0.333333  0.250000 -0.083333    0.00057870  74 t-inv F
  0.333333 -0.250000  0.083333    0.00057870  74 t-inv F
  0.166667  0.500000  0.250000    0.00057870  75 t-inv F
  0.166667 -0.333333 -0.083333    0.00057870  75 t-inv F
 -0.166667 -0.500000 -0.250000    0.00057870  75 t-inv F
  0.500000  0.333333  0.250000    0.00057870  75 t-inv F
 -0.500000 -0.333333 -0.250000    0.00057870  75 t-inv F
 -0.333333 -0.500000 -0.250000    0.00057870  75 t-inv F
  0.333333  0.500000  0.250000    0.00057870  75 t-inv F
  0.500000  0.166667  0.250000    0.00057870  75 t-inv F
 -0.500000 -0.166667 -0.250000    0.00057870  75 t-inv F
 -0.333333  0.166667 -0.083333    0.00057870  75 t-inv F
  0.333333 -0.166667  0.083333    0.00057870  75 t-inv F
  0.083333  0.416667  0.166667    0.00057870  76 t-inv F
  0.083333 -0.333333 -0.083333    0.00057870  76 t-inv F
 -0.083333 -0.416667 -0.166667    0.00057870  76 t-inv F
  0.416667  0.333333  0.250000    0.00057870  76 t-inv F
 -0.416667 -0.333333 -0.250000    0.00057870  76 t-inv F
 -0.333333 -0.416667 -0.250000    0.00057870  76 t-inv F
  0.333333  0.416667  0.250000    0.00057870  76 t-inv F
  0.416667  0.083333  0.166667    0.00057870  76 t-inv F
 -0.416667 -0.083333 -0.166667    0.00057870  76 t-inv F
 -0.333333  0.083333 -0.083333    0.00057870  76 t-inv F
  0.333333 -0.083333  0.083333    0.00057870  76 t-inv F
 -0.416667  0.000000 -0.333333    0.00057870  77 t-inv F
 -0.416667 -0.416667 -0.083333    0.00057870  77 t-inv F
  0.416667  0.000000  0.333333    0.00057870  77 t-inv F
  0.000000  0.416667  0.333333    0.00057870  77 t-inv F
  0.000000 -0.416667 -0.333333    0.00057870  77 t-inv F
 -0.500000 -0.083333 -0.416667    0.00057870  78 t-inv F
 -0.500000 -0.416667 -0.083333    0.00057870  78 t-inv F
  0.500000  0.083333  0.416667    0.00057870  78 t-inv F
 -0.083333  0.416667  0.333333    0.00057870  78 t-inv F
  0.083333 -0.416667 -0.333333    0.00057870  78 t-inv F
 -0.416667  0.083333 -0.333333    0.00057870  78 t-inv F
  0.416667 -0.083333  0.333333    0.00057870  78 t-inv F
 -0.083333 -0.500000 -0.416667    0.00057870  78 t-inv F
  0.083333  0.500000  0.416667    0.00057870  78 t-inv F
 -0.416667 -0.500000 -0.083333    0.00057870  78 t-inv F
  0.416667  0.500000  0.083333    0.00057870  78 t-inv F
  0.416667  0.833333  0.500000    0.00057870  79 t-inv F
  0.416667 -0.416667 -0.083333    0.00057870  79 t-inv F
 -0.416667 -0.833333 -0.500000    0.00057870  79 t-inv F
  0.833333  0.416667  0.333333    0.00057870  79 t-inv F
 -0.833333 -0.416667 -0.333333    0.00057870  79 t-inv F
 -0.416667 -0.833333 -0.333333    0.00057870  79 t-inv F
  0.416667  0.833333  0.333333    0.00057870  79 t-inv F
  0.833333  0.416667  0.500000    0.00057870  79 t-inv F
 -0.833333 -0.416667 -0.500000    0.00057870  79 t-inv F
 -0.416667  0.416667 -0.083333    0.00057870  79 t-inv F
  0.416667 -0.416667  0.083333    0.00057870  79 t-inv F
  0.333333  0.750000  0.416667    0.00057870  80 t-inv F
  0.333333 -0.416667 -0.083333    0.00057870  80 t-inv F
 -0.333333 -0.750000 -0.416667    0.00057870  80 t-inv F
  0.750000  0.416667  0.333333    0.00057870  80 t-inv F
 -0.750000 -0.416667 -0.333333    0.00057870  80 t-inv F
 -0.416667 -0.750000 -0.333333    0.00057870  80 t-inv F
  0.416667  0.750000  0.333333    0.00057870  80 t-inv F
  0.750000  0.333333  0.416667    0.00057870  80 t-inv F
 -0.750000 -0.333333 -0.416667    0.00057870  80 t-inv F
 -0.416667  0.333333 -0.083333    0.00057870  80 t-inv F
  0.416667 -0.333333  0.083333    0.00057870  80 t-inv F
  0.250000  0.666667  0.333333    0.00057870  81 t-inv F
  0.250000 -0.416667 -0.083333    0.00057870  81 t-inv F
 -0.250000 -0.666667 -0.333333    0.00057870  81 t-inv F
  0.666667  0.416667  0.333333    0.00057870  81 t-inv F
 -0.666667 -0.416667 -0.333333    0.00057870  81 t-inv F
 -0.416667 -0.666667 -0.333333    0.00057870  81 t-inv F
  0.416667  0.666667  0.333333    0.00057870  81 t-inv F
  0.666667  0.250000  0.333333    0.00057870  81 t-inv F
 -0.666667 -0.250000 -0.333333    0.00057870  81 t-inv F
 -0.416667  0.250000 -0.083333    0.00057870  81 t-inv F
  0.416667 -0.250000  0.083333    0.00057870  81 t-inv F
  0.166667  0.583333  0.250000    0.00057870  82 t-inv F
  0.166667 -0.416667 -0.083333    0.00057870  82 t-inv F
 -0.166667 -0.583333 -0.250000    0.00057870  82 t-inv F
  0.583333  0.416667  0.333333    0.00057870  82 t-inv F
 -0.583333 -0.416667 -0.333333    0.00057870  82 t-inv F
 -0.416667 -0.583333 -0.333333    0.00057870  82 t-inv F
  0.416667  0.583333  0.333333    0.00057870  82 t-inv F
  0.583333  0.166667  0.250000    0.00057870  82 t-inv F
 -0.583333 -0.166667 -0.250000    0.00057870  82 t-inv F
 -0.416667  0.166667 -0.083333    0.00057870  82 t-inv F
  0.416667 -0.166667  0.083333    0.00057870  82 t-inv F
  0.083333  0.500000  0.166667    0.00057870  83 t-inv F
  0.083333 -0.416667 -0.083333    0.00057870  83 t-inv F
 -0.083333 -0.500000 -0.166667    0.00057870  83 t-inv F
  0.500000  0.416667  0.333333    0.00057870  83 t-inv F
 -0.500000 -0.416667 -0.333333    0.00057870  83 t-inv F
 -0.416667 -0.500000 -0.333333    0.00057870  83 t-inv F
  0.416667  0.500000  0.333333    0.00057870  83 t-inv F
  0.500000  0.083333  0.166667    0.00057870  83 t-inv F
 -0.500000 -0.083333 -0.166667    0.00057870  83 t-inv F
 -0.416667  0.083333 -0.083333    0.00057870  83 t-inv F
  0.416667 -0.083333  0.083333    0.00057870  83 t-inv F
 -0.500000 -0.000000 -0.416667    0.00057870  84 t-inv F
 -0.500000 -0.500000 -0.083333    0.00057870  84 t-inv F
  0.500000  0.000000  0.416667    0.00057870  84 t-inv F
 -0.000000  0.500000  0.416667    0.00057870  84 t-inv F
  0.000000 -0.500000 -0.416667    0.00057870  84 t-inv F
  0.416667  0.916667  0.500000    0.00057870  85 t-inv F
  0.416667 -0.500000 -0.083333    0.00057870  85 t-inv F
 -0.416667 -0.916667 -0.500000    0.00057870  85 t-inv F
  0.916667  0.500000  0.416667    0.00057870  85 t-inv F
 -0.916667 -0.500000 -0.416667    0.00057870  85 t-inv F
 -0.500000 -0.916667 -0.416667    0.00057870  85 t-inv F
  0.500000  0.916667  0.416667    0.00057870  85 t-inv F
  0.916667  0.416667  0.500000    0.00057870  85 t-inv F
 -0.916667 -0.416667 -0.500000    0.00057870  85 t-inv F
 -0.500000  0.416667 -0.083333    0.00057870  85 t-inv F
  0.500000 -0.416667  0.083333    0.00057870  85 t-inv F
  0.333333  0.833333  0.416667    0.00057870  86 t-inv F
  0.333333 -0.500000 -0.083333    0.00057870  86 t-inv F
 -0.333333 -0.833333 -0.416667    0.00057870  86 t-inv F
  0.833333  0.500000  0.416667    0.00057870  86 t-inv F
 -0.833333 -0.500000 -0.416667    0.00057870  86 t-inv F
 -0.500000 -0.833333 -0.416667    0.00057870  86 t-inv F
  0.500000  0.833333  0.416667    0.00057870  86 t-inv F
  0.833333  0.333333  0.416667    0.00057870  86 t-inv F
 -0.833333 -0.333333 -0.416667    0.00057870  86 t-inv F
 -0.500000  0.333333 -0.083333    0.00057870  86 t-inv F
  0.500000 -0.333333  0.083333    0.00057870  86 t-inv F
  0.250000  0.750000  0.333333    0.00057870  87 t-inv F
  0.250000 -0.500000 -0.083333    0.00057870  87 t-inv F
 -0.250000 -0.750000 -0.333333    0.00057870  87 t-inv F
  0.750000  0.500000  0.416667    0.00057870  87 t-inv F
 -0.750000 -0.500000 -0.416667    0.00057870  87 t-inv F
 -0.500000 -0.750000 -0.416667    0.00057870  87 t-inv F
  0.500000  0.750000  0.416667    0.00057870  87 t-inv F
  0.750000  0.250000  0.333333    0.00057870  87 t-inv F
 -0.750000 -0.250000 -0.333333    0.00057870  87 t-inv F
 -0.500000  0.250000 -0.083333    0.00057870  87 t-inv F
  0.500000 -0.250000  0.083333    0.00057870  87 t-inv F
[...]
      1      -0.7589      0.00000
      2       3.1159      0.00000
      3      -1.7666      0.00000
      4      -0.8086      0.00000
      5      -2.5934      0.00000
      6       0.4280      0.00000
      7      -0.8445      0.00000
      8      -1.4418      0.00000

 k-point 456 :       0.1667   -0.1667    0.4167
  band No.  band energies     occupation 
      1      -0.3404      0.00000
      2       2.0297      0.00000
      3      -0.1112      0.00000
      4      -1.7902      0.00000
      5      -8.0156      0.00000
      6       7.9252      0.00000
      7      -0.7755      0.00000
      8       2.2686      0.00000

 k-point 457 :       0.2500   -0.1667    0.4167
  band No.  band energies     occupation 
      1      -0.0001      0.00000
      2      -0.0001      0.00000
      3      -0.0001      0.00000
      4      -0.0001      0.00000
      5      -0.0001      0.00000
      6      -0.0001      0.00000
      7      -0.0001      0.00000
      8      -0.0001      0.00000

 k-point 458 :       0.3333    0.8333    0.4167
  band No.  band energies     occupation 
      1       0.5033      0.00000
      2      -0.4784      0.00000
      3      -4.9655      0.00000
      4       5.2238      0.00000
      5       4.9058      0.00000
      6      -4.7848      0.00000
      7      -3.8999      0.00000
      8       0.8282      0.00000

 k-point 459 :       0.4167    0.8333    0.4167
  band No.  band energies     occupation 
      1       4.3806      0.00000
      2      -4.3027      0.00000
      3      -4.8834      0.00000
      4       5.2409      0.00000
      5       4.9902      0.00000
      6      -4.8766      0.00000
      7     -10.6405      0.00000
      8       5.5700      0.00000

 k-point 460 :       0.0000   -0.0833    0.4167
  band No.  band energies     occupation 
      1      -0.7914      0.00000
      2       3.1166      0.00000
      3      -4.6528      0.00000
      4       2.4031      0.00000
      5       1.6185      0.00000
      6      -8.2057      0.00000
      7       1.7795      0.00000
      8      -5.8868      0.00000

 k-point 461 :       0.0833   -0.0833    0.4167
  band No.  band energies     occupation 
      1      -0.4350      0.00000
      2       2.6869      0.00000
      3      -1.3726      0.00000
      4      -0.9711      0.00000
      5     -10.0372      0.00000
      6       7.0622      0.00000
      7      -0.7134      0.00000
      8      -0.3899      0.00000

 k-point 462 :       0.1667   -0.0833    0.4167
  band No.  band energies     occupation 
      1      -0.2339      0.00000
      2       2.1694      0.00000
      3       1.1936      0.00000
      4      -3.3577      0.00000
      5      -6.0726      0.00000
      6       5.5281      0.00000
      7      -1.5996      0.00000
      8       3.5715      0.00000

 k-point 463 :       0.2500   -0.0833    0.4167
  band No.  band energies     occupation 
      1      -0.1055      0.00000
      2       0.6601      0.00000
      3       3.6280      0.00000
      4      -4.3563      0.00000
      5      -3.7823      0.00000
      6       3.5451      0.00000
      7       1.3037      0.00000
      8       0.8536      0.00000

 k-point 464 :       0.3333   -0.0833    0.4167
  band No.  band energies     occupation 
      1      -0.0001      0.00000
      2      -0.0001      0.00000
      3      -0.0001      0.00000
      4      -0.0001      0.00000
      5      -0.0000      0.00000
      6      -0.0000      0.00000
      7      -0.0001      0.00000
      8      -0.0001      0.00000

 k-point 465 :       0.4167   -0.0833    0.4167
  band No.  band energies     occupation 
      1       0.1126      0.00000
      2      -0.0550      0.00000
      3      -4.9294      0.00000
      4       4.9949      0.00000
      5       3.4626      0.00000
      6      -3.4691      0.00000
      7      -9.7717      0.00000
      8       8.3199      0.00000

 k-point 466 :       0.5000    0.9167    0.4167
  band No.  band energies     occupation 
      1      -4.1954      0.00000
      2       4.1952      0.00000
      3      -4.9612      0.00000
      4       4.9611      0.00000
      5      -4.9156      0.00000
      6       4.9155      0.00000
      7      -8.5312      0.00000
      8       8.5310      0.00000

 k-point 467 :      -0.4167   -0.0833   -0.5833
  band No.  band energies     occupation 
      1      -0.5034      0.00000
      2       0.4783      0.00000
      3       4.9654      0.00000
      4      -5.2239      0.00000
      5      -4.9059      0.00000
      6       4.7847      0.00000
      7       3.8997      0.00000
      8      -0.8284      0.00000

 k-point 468 :      -0.3333   -0.0833   -0.5833
  band No.  band energies     occupation 
      1      -0.8796      0.00000
      2       2.3113      0.00000
      3       3.7272      0.00000
      4      -5.7224      0.00000
      5      -5.6945      0.00000
      6       5.6788      0.00000
      7       2.2899      0.00000
      8       2.0582      0.00000

 k-point 469 :      -0.2500   -0.0833   -0.5833
  band No.  band energies     occupation 
      1      -1.4288      0.00000
      2       3.6696      0.00000
      3       3.1233      0.00000
      4      -6.0984      0.00000
      5      -7.2160      0.00000
      6       6.4243      0.00000
      7      -2.1557      0.00000
      8       3.1181      0.00000

 k-point 470 :      -0.1667   -0.0833   -0.5833
  band No.  band energies     occupation 
      1      -1.8156      0.00000
      2       4.1713      0.00000
      3       2.1462      0.00000
      4      -5.1535      0.00000
      5      -8.1330      0.00000
      6       6.1959      0.00000
      7      -1.3350      0.00000
      8      -4.8199      0.00000

 k-point 471 :       0.0833    0.0000    0.5000
  band No.  band energies     occupation 
      1      -1.3456      0.00000
      2       3.5980      0.00000
      3       5.9934      0.00000
      4      -8.6203      0.00000
      5      -9.5383      0.00000
      6      11.1820      0.00000
      7      -5.6904      0.00000
      8      -4.3187      0.00000

 k-point 472 :       0.1667    0.0000    0.5000
  band No.  band energies     occupation 
      1      -0.7991      0.00000
      2       2.9655      0.00000
      3       4.5298      0.00000
      4      -7.2543      0.00000
      5      -6.9451      0.00000
      6      10.2017      0.00000
      7      -5.8009      0.00000
      8       1.5724      0.00000

 k-point 473 :       0.2500    0.0000    0.5000
  band No.  band energies     occupation 
      1      -0.4601      0.00000
      2       2.1496      0.00000
      3       3.9071      0.00000
      4      -6.1245      0.00000
      5      -5.6063      0.00000
      6       3.9151      0.00000
      7       9.6939      0.00000
      8      -4.6515      0.00000

 k-point 474 :       0.3333    0.0000    0.5000
  band No.  band energies     occupation 
      1      -0.2555      0.00000
      2       0.3176      0.00000
      3       4.9772      0.00000
      4      -5.3926      0.00000
      5      -4.6369      0.00000
      6       4.4000      0.00000
      7       9.6695      0.00000
      8      -5.8143      0.00000

 k-point 475 :       0.4167    0.0000    0.5000
  band No.  band energies     occupation 
      1      -0.1127      0.00000
      2       0.0548      0.00000
      3       4.9293      0.00000
      4      -4.9950      0.00000
      5      -3.4627      0.00000
      6       3.4690      0.00000
      7       9.7715      0.00000
      8      -8.3201      0.00000

 k-point 476 :      -0.5000    0.0000   -0.5000
  band No.  band energies     occupation 
      1      -3.9958      0.00000
      2       3.9957      0.00000
      3      -4.8697      0.00000
      4       4.8696      0.00000
      5      -4.7592      0.00000
      6       4.7591      0.00000
      7      -9.8074      0.00000
      8       9.8072      0.00000


------------------------ aborting loop because EDIFF is reached ----------------------------------------


    FORLOC:  cpu time    0.0003: real time    0.0004
    FORNL :  cpu time    0.0275: real time    0.0389
    STRESS:  cpu time    0.3090: real time    0.4941
    FORCOR:  cpu time    0.0053: real time    0.0109
    OFIELD:  cpu time    0.0001: real time    0.0001
    FORLOC:  cpu time    0.0016: real time    0.0028
    FORNL :  cpu time    0.0367: real time    0.0682
    STRESS:  cpu time    0.3122: real time    0.5287
    FORCOR:  cpu time    0.0092: real time    0.0169
    OFIELD:  cpu time    0.0001: real time    0.0001
    FORLOC:  cpu time    0.0002: real time    0.0002
    FORNL :  cpu time    0.0271: real time    0.0482
    STRESS:  cpu time    0.3086: real time    0.5030
    FORCOR:  cpu time    0.0061: real time    0.0098
    OFIELD:  cpu time    0.0000: real time    0.0000
    FORLOC:  cpu time    0.0168: real time    0.0304
    FORNL :  cpu time    0.0293: real time    0.0431
    STRESS:  cpu time    0.3106: real time    0.5405
    FORCOR:  cpu time    0.0054: real time    0.0101
    OFIELD:  cpu time    0.0001: real time    0.0001

 INTERNAL STRAIN TENSOR  FOR ION    1  DIRECTION 1   (eV/Angst):
 -----------------------------------------------------------------------------
     0.00601 -0.03177  0.03177
     0.03171 -0.00331  3.44343
    -0.03171  3.44343 -0.00331


 POSITION                   FORCE-CONSTANT FOR ION    1 DIRECTION 1 (eV/Angst/Angst)
 -----------------------------------------------------------------------------------
     -1.78037      1.78037      0.00000       -37.682157      0.000067     -0.000067
     -2.67056      2.67056      2.67056        37.682157     -0.000067      0.000067
 -----------------------------------------------------------------------------------
    total drift:                                0.000000      0.000000      0.000000


 BORN EFFECTIVE CHARGE FOR ION    1 DIRECTION 1 :  -0.000  -0.000   0.000
                   rigid augmentation           :  -0.095  -0.000   0.000
                   ionic contribution           :   4.000  -0.000   0.000
                   Berry contribution           :  -3.905  -0.000   0.000


--------------------------------------------------------------------------------------------------------


  LATTYP: Found a face centered cubic cell.
 ALAT       =     3.5607448356
  
  Lattice vectors:
  
 A1 = (  -1.7803724178,   0.0000000000,   1.7803724178)
 A2 = (   0.0000000000,   1.7803724178,   1.7803724178)
 A3 = (  -1.7803724178,   1.7803724178,   0.0000000000)


Analysis of symmetry for initial positions (statically):
=====================================================================
 Subroutine PRICEL returns:
 Original cell was already a primitive cell.
 

 Routine SETGRP: Setting up the symmetry group for a 
 face centered cubic supercell.


 Subroutine GETGRP returns: Found 12 space group operations
 (whereof  2 operations were pure point group operations)
 out of a pool of 48 trial point group operations.


The static configuration has the point symmetry C_1h.
 The point group associated with its full space group is D_3d.


Analysis of symmetry for dynamics (positions and initial velocities):
=====================================================================
 Subroutine PRICEL returns:
 Original cell was already a primitive cell.
 

 Routine SETGRP: Setting up the symmetry group for a 
 face centered cubic supercell.


 Subroutine GETGRP returns: Found 12 space group operations
 (whereof  2 operations were pure point group operations)
 out of a pool of 48 trial point group operations.


The dynamic configuration has the point symmetry C_1h.
 The point group associated with its full space group is D_3d.


 Subroutine INISYM returns: Found 12 space group operations
 (whereof  2 operations are pure point group operations),
 and found     1 'primitive' translations



--------------------------------------------------------------------------------------------------------




 MACROSCOPIC STATIC DIELECTRIC TENSOR (including local field effects in DFT)
 ------------------------------------------------------
           5.811971     0.000471    -0.000471
           0.000471     5.811971     0.000471
          -0.000471     0.000471     5.811971
 ------------------------------------------------------


 PIEZOELECTRIC TENSOR  for field in x, y, z        (e  Angst)
          XX          YY          ZZ          XY          YZ          ZX
  --------------------------------------------------------------------------------
  x    -0.00005     0.00005     0.00005    -0.00004    -0.00013     0.00004
  y    -0.00011     0.00017    -0.00011     0.00005     0.00005    -0.00013
  z    -0.00002    -0.00002     0.00002     0.00000     0.00015    -0.00015

 PIEZOELECTRIC TENSOR  for field in x, y, z        (C/m^2)
          XX          YY          ZZ          XY          YZ          ZX
  --------------------------------------------------------------------------------
  x     0.00000     0.00000     0.00000     0.00000     0.00000     0.00000
  y    -0.00000     0.00000    -0.00000     0.00000     0.00000     0.00000
  z     0.00000     0.00000     0.00000     0.00000     0.00000     0.00000
 
 BORN EFFECTIVE CHARGES (in e, cummulative output)
 -------------------------------------------------
 ion    1
    1     0.00008    -0.00002     0.00002
    2    -0.00002     0.00007    -0.00002
    3    -0.00005     0.00005    -0.00000
 ion    2
    1    -0.00008     0.00002    -0.00002
    2     0.00002    -0.00007     0.00002
    3     0.00005    -0.00005     0.00000

 INTERNAL STRAIN TENSOR FOR ION    1 for displacements in x,y,z  (eV/Angst):
          X           Y           Z          XY          YZ          ZX
  --------------------------------------------------------------------------------
  x     0.00601    -0.00331    -0.00331     0.03171     3.44343     0.03177
  y     0.00331    -0.00601     0.00331     0.03177    -0.03171     3.44343
  z    -0.00331    -0.00331     0.00601     3.44343    -0.03177    -0.03171

 INTERNAL STRAIN TENSOR FOR ION    2 for displacements in x,y,z  (eV/Angst):
          X           Y           Z          XY          YZ          ZX
  --------------------------------------------------------------------------------
  x    -0.00601     0.00331     0.00331    -0.03171    -3.44343    -0.03177
  y    -0.00331     0.00601    -0.00331    -0.03177     0.03171    -3.44343
  z     0.00331     0.00331    -0.00601    -3.44343     0.03177     0.03171


--------------------------------------------------------------------------------------------------------


 
 SECOND DERIVATIVES (NOT SYMMETRIZED)
 ------------------------------------
               1X          1Y          1Z          2X          2Y          2Z 
  1X   -37.682157    0.000067   -0.000067   37.682157   -0.000067    0.000067
  1Y     0.000067  -37.682157    0.000067   -0.000067   37.682157   -0.000067
  1Z    -0.000067    0.000067  -37.682157    0.000067   -0.000067   37.682157
  2X    37.682157   -0.000067    0.000067  -37.682157    0.000067   -0.000067
  2Y    -0.000067   37.682157   -0.000067    0.000067  -37.682157    0.000067
  2Z     0.000067   -0.000067   37.682157   -0.000067    0.000067  -37.682157
 
 
 Eigenvectors and eigenvalues of the dynamical matrix
 ----------------------------------------------------
 
 
   1 f  =   39.160189 THz   246.050726 2PiTHz 1306.243272 cm-1   161.953583 meV
             X         Y         Z           dx          dy          dz
     -1.780372  1.780372  0.000000    -0.408248    0.408248   -0.408248  
     -2.670559  2.670559  2.670559     0.408248   -0.408248    0.408248  
 
   2 f  =   39.160085 THz   246.050070 2PiTHz 1306.239788 cm-1   161.953151 meV
             X         Y         Z           dx          dy          dz
     -1.780372  1.780372  0.000000     0.556358    0.411779   -0.144579  
     -2.670559  2.670559  2.670559    -0.556358   -0.411779    0.144579  
 
   3 f  =   39.160085 THz   246.050070 2PiTHz 1306.239788 cm-1   161.953151 meV
             X         Y         Z           dx          dy          dz
     -1.780372  1.780372  0.000000    -0.154268    0.404686    0.558955  
     -2.670559  2.670559  2.670559     0.154268   -0.404686   -0.558955  
 
   4 f  =    0.000001 THz     0.000003 2PiTHz    0.000017 cm-1     0.000002 meV
             X         Y         Z           dx          dy          dz
     -1.780372  1.780372  0.000000    -0.002589    0.067908    0.703834  
     -2.670559  2.670559  2.670559    -0.002589    0.067908    0.703834  
 
   5 f/i=    0.000000 THz     0.000001 2PiTHz    0.000005 cm-1     0.000001 meV
             X         Y         Z           dx          dy          dz
     -1.780372  1.780372  0.000000     0.706905   -0.016381    0.004181  
     -2.670559  2.670559  2.670559     0.706905   -0.016381    0.004181  
 
   6 f/i=    0.000001 THz     0.000004 2PiTHz    0.000023 cm-1     0.000003 meV
             X         Y         Z           dx          dy          dz
     -1.780372  1.780372  0.000000    -0.016706   -0.703648    0.067829  
     -2.670559  2.670559  2.670559    -0.016706   -0.703648    0.067829  
 


--------------------------------------------------------------------------------------------------------




 MACROSCOPIC STATIC DIELECTRIC TENSOR IONIC CONTRIBUTION
 ------------------------------------------------------
           0.000000    -0.000000    -0.000000
          -0.000000     0.000000     0.000000
          -0.000000     0.000000     0.000000
 ------------------------------------------------------


 ELASTIC MODULI IONIC CONTR (kBar)
 Direction    XX          YY          ZZ          XY          YZ          ZX
 --------------------------------------------------------------------------------
 XX          -0.0002      0.0001      0.0001      0.0418     -0.0779     -0.0441
 YY           0.0001     -0.0002      0.0001      0.0441      0.0418      0.0779
 ZZ           0.0001      0.0001     -0.0002     -0.0779      0.0441     -0.0418
 XY           0.0418      0.0441     -0.0779    -44.6754      0.0047     -0.0047
 YZ          -0.0779      0.0418      0.0441      0.0047    -44.6754     -0.0047
 ZX          -0.0441      0.0779     -0.0418     -0.0047     -0.0047    -44.6754
 --------------------------------------------------------------------------------


 PIEZOELECTRIC TENSOR IONIC CONTR  for field in x, y, z        (C/m^2)
          XX          YY          ZZ          XY          YZ          ZX
  --------------------------------------------------------------------------------
  x     0.00000    -0.00000    -0.00000     0.00000     0.00001    -0.00000
  y     0.00000    -0.00000     0.00000    -0.00000    -0.00000     0.00001
  z    -0.00000    -0.00000     0.00000    -0.00000    -0.00001     0.00001


--------------------------------------------------------------------------------------------------------


     LOOP+:  cpu time   57.5565: real time   97.4869
    4ORBIT:  cpu time    0.0000: real time    0.0000

 total amount of memory used by VASP MPI-rank0    35939. kBytes
=======================================================================

   base      :      30000. kBytes
   nonl-proj :       3880. kBytes
   fftplans  :        314. kBytes
   grid      :        723. kBytes
   one-center:          6. kBytes
   wavefun   :       1016. kBytes
 
  
  
 General timing and accounting informations for this job:
 ========================================================
  
                  Total CPU time used (sec):       58.633
                            User time (sec):       57.470
                          System time (sec):        1.163
                         Elapsed time (sec):      100.503
  
                   Maximum memory used (kb):      146296.
                   Average memory used (kb):           0.
  
                          Minor page faults:        46666
                          Major page faults:            7
                 Voluntary context switches:         2221
