<?xml version="1.0" encoding="ISO-8859-1"?>
<modeling>
 <generator>
  <i name="program" type="string">vasp </i>
  <i name="version" type="string">5.4.4.18Apr17-6-g9f103f2a35  </i>
  <i name="subversion" type="string">(build Aug 24 2017 11:22:49) complex            parallel </i>
  <i name="platform" type="string">LinuxIFC </i>
  <i name="date" type="string">2023 12 25 </i>
  <i name="time" type="string">13:07:07 </i>
 </generator>
 <incar>
  <i type="string" name="PREC">accurate</i>
  <i type="string" name="ALGO"> Normal</i>
  <i type="int" name="NELM">   100</i>
  <i type="int" name="IBRION">     8</i>
  <i name="EDIFF">      0.00000001</i>
  <i name="SYMPREC">      0.00000001</i>
  <i name="ENCUT">    520.00000000</i>
  <i type="logical" name="LREAL"> F  </i>
  <i type="int" name="ISMEAR">     0</i>
  <i name="SIGMA">      0.01000000</i>
  <i type="logical" name="LWAVE"> F  </i>
  <v type="int" name="KPOINT_BSE">    -1     0     0     0</v>
  <i type="int" name="NELM">   100</i>
  <i type="logical" name="LPEAD"> T  </i>
  <i type="logical" name="LEPSILON"> T  </i>
 </incar>
 <structure name="primitive_cell" >
  <crystal>
   <varray name="basis" >
    <v>      -1.78037242       0.00000000       1.78037242 </v>
    <v>       0.00000000       1.78037242       1.78037242 </v>
    <v>      -1.78037242       1.78037242       0.00000000 </v>
   </varray>
   <i name="volume">     11.28658529 </i>
   <varray name="rec_basis" >
    <v>      -0.28084012      -0.28084012       0.28084012 </v>
    <v>       0.28084012       0.28084012       0.28084012 </v>
    <v>      -0.28084012       0.28084012      -0.28084012 </v>
   </varray>
  </crystal>
  <varray name="positions" >
   <v>       0.00000000       0.00000008      -0.00000008 </v>
   <v>      -0.25000002      -0.24999994      -0.25000002 </v>
  </varray>
 </structure>
 <varray name="primitive_index" >
  <v type="int" >        1 </v>
  <v type="int" >        2 </v>
 </varray>
 <kpoints>
  <generation param="Gamma">
   <v type="int" name="divisions">      12       12       12 </v>
   <v name="usershift">      0.00000000       0.00000000       0.00000000 </v>
   <v name="genvec1">      0.08333333      -0.00000000      -0.00000000 </v>
   <v name="genvec2">     -0.00000000       0.08333333       0.00000000 </v>
   <v name="genvec3">      0.00000000       0.00000000       0.08333333 </v>
   <v name="shift">      0.00000000       0.00000000       0.00000000 </v>
  </generation>
  <varray name="kpointlist" >
   <v>       0.00000000       0.00000000       0.00000000 </v>
   <v>       0.08333333      -0.00000000      -0.00000000 </v>
   <v>       0.16666667      -0.00000000      -0.00000000 </v>
   <v>       0.25000000      -0.00000000      -0.00000000 </v>
   <v>       0.33333333      -0.00000000      -0.00000000 </v>
   <v>       0.41666667      -0.00000000      -0.00000000 </v>
   <v>       0.50000000      -0.00000000      -0.00000000 </v>
   <v>       0.08333333       0.08333333      -0.00000000 </v>
   <v>       0.16666667       0.08333333      -0.00000000 </v>
   <v>       0.25000000       0.08333333      -0.00000000 </v>
   <v>       0.33333333       0.08333333      -0.00000000 </v>
   <v>       0.41666667       0.08333333      -0.00000000 </v>
   <v>       0.50000000       0.08333333      -0.00000000 </v>
   <v>      -0.41666667       0.08333333       0.00000000 </v>
   <v>      -0.33333333       0.08333333       0.00000000 </v>
   <v>      -0.25000000       0.08333333       0.00000000 </v>
   <v>      -0.16666667       0.08333333       0.00000000 </v>
   <v>      -0.08333333       0.08333333       0.00000000 </v>
   <v>       0.16666667       0.16666667      -0.00000000 </v>
   <v>       0.25000000       0.16666667       0.00000000 </v>
   <v>       0.33333333       0.16666667       0.00000000 </v>
   <v>       0.41666667       0.16666667       0.00000000 </v>
   <v>       0.50000000       0.16666667       0.00000000 </v>
   <v>      -0.41666667       0.16666667       0.00000000 </v>
   <v>      -0.33333333       0.16666667       0.00000000 </v>
   <v>      -0.25000000       0.16666667       0.00000000 </v>
   <v>      -0.16666667       0.16666667       0.00000000 </v>
   <v>       0.25000000       0.25000000      -0.00000000 </v>
   <v>       0.33333333       0.25000000      -0.00000000 </v>
   <v>       0.41666667       0.25000000      -0.00000000 </v>
   <v>       0.50000000       0.25000000       0.00000000 </v>
   <v>      -0.41666667       0.25000000       0.00000000 </v>
   <v>      -0.33333333       0.25000000       0.00000000 </v>
   <v>      -0.25000000       0.25000000       0.00000000 </v>
   <v>       0.33333333       0.33333333      -0.00000000 </v>
   <v>       0.41666667       0.33333333      -0.00000000 </v>
   <v>       0.50000000       0.33333333      -0.00000000 </v>
   <v>      -0.41666667       0.33333333       0.00000000 </v>
   <v>      -0.33333333       0.33333333       0.00000000 </v>
   <v>       0.41666667       0.41666667      -0.00000000 </v>
   <v>       0.50000000       0.41666667      -0.00000000 </v>
   <v>      -0.41666667       0.41666667       0.00000000 </v>
   <v>       0.50000000       0.50000000      -0.00000000 </v>
   <v>       0.00000000       0.00000000       0.08333333 </v>
   <v>       0.16666667      -0.00000000       0.08333333 </v>
   <v>       0.25000000      -0.00000000       0.08333333 </v>
   <v>       0.33333333      -0.00000000       0.08333333 </v>
   <v>       0.41666667      -0.00000000       0.08333333 </v>
   <v>       0.50000000      -0.00000000       0.08333333 </v>
   <v>      -0.41666667       0.00000000       0.08333333 </v>
   <v>      -0.33333333       0.00000000       0.08333333 </v>
   <v>      -0.25000000       0.00000000       0.08333333 </v>
   <v>      -0.16666667       0.00000000       0.08333333 </v>
   <v>      -0.08333333       0.00000000       0.08333333 </v>
   <v>       0.25000000       0.16666667       0.08333333 </v>
   <v>       0.33333333       0.16666667       0.08333333 </v>
   <v>       0.41666667       0.16666667       0.08333333 </v>
   <v>       0.50000000       0.16666667       0.08333333 </v>
   <v>      -0.41666667       0.16666667       0.08333333 </v>
   <v>       0.25000000       0.25000000       0.08333333 </v>
   <v>       0.33333333       0.25000000       0.08333333 </v>
   <v>       0.41666667       0.25000000       0.08333333 </v>
   <v>       0.50000000       0.25000000       0.08333333 </v>
   <v>      -0.41666667       0.25000000       0.08333333 </v>
   <v>      -0.33333333       0.25000000       0.08333333 </v>
   <v>      -0.25000000       0.25000000       0.08333333 </v>
   <v>      -0.16666667       0.25000000       0.08333333 </v>
   <v>      -0.08333333       0.25000000       0.08333333 </v>
   <v>       0.33333333       0.33333333       0.08333333 </v>
   <v>       0.41666667       0.33333333       0.08333333 </v>
   <v>       0.50000000       0.33333333       0.08333333 </v>
   <v>      -0.41666667       0.33333333       0.08333333 </v>
   <v>      -0.33333333       0.33333333       0.08333333 </v>
   <v>      -0.25000000       0.33333333       0.08333333 </v>
   <v>      -0.16666667       0.33333333       0.08333333 </v>
   <v>      -0.08333333       0.33333333       0.08333333 </v>
   <v>       0.41666667       0.41666667       0.08333333 </v>
   <v>       0.50000000       0.41666667       0.08333333 </v>
   <v>      -0.41666667       0.41666667       0.08333333 </v>
   <v>      -0.33333333       0.41666667       0.08333333 </v>
   <v>      -0.25000000       0.41666667       0.08333333 </v>
   <v>      -0.16666667       0.41666667       0.08333333 </v>
   <v>      -0.08333333       0.41666667       0.08333333 </v>
   <v>       0.50000000       0.50000000       0.08333333 </v>
   <v>      -0.41666667       0.50000000       0.08333333 </v>
   <v>      -0.33333333       0.50000000       0.08333333 </v>
   <v>      -0.25000000       0.50000000       0.08333333 </v>
   <v>      -0.16666667       0.50000000       0.08333333 </v>
   <v>      -0.08333333       0.50000000       0.08333333 </v>
   <v>      -0.41666667      -0.41666667       0.08333333 </v>
   <v>      -0.33333333      -0.41666667       0.08333333 </v>
   <v>      -0.25000000      -0.41666667       0.08333333 </v>
   <v>      -0.16666667      -0.41666667       0.08333333 </v>
   <v>      -0.08333333      -0.41666667       0.08333333 </v>
   <v>      -0.33333333      -0.33333333       0.08333333 </v>
   <v>      -0.25000000      -0.33333333       0.08333333 </v>
   <v>      -0.16666667      -0.33333333       0.08333333 </v>
   <v>      -0.08333333      -0.33333333       0.08333333 </v>
   <v>      -0.25000000      -0.25000000       0.08333333 </v>
   <v>      -0.16666667      -0.25000000       0.08333333 </v>
   <v>      -0.08333333      -0.25000000       0.08333333 </v>
   <v>      -0.16666667      -0.16666667       0.08333333 </v>
   <v>      -0.08333333      -0.16666667       0.08333333 </v>
   <v>      -0.08333333      -0.08333333       0.08333333 </v>
   <v>       0.00000000       0.00000000       0.16666667 </v>
   <v>       0.33333333      -0.00000000       0.16666667 </v>
   <v>       0.41666667       0.00000000       0.16666667 </v>
   <v>       0.50000000      -0.00000000       0.16666667 </v>
   <v>      -0.41666667       0.00000000       0.16666667 </v>
   <v>      -0.33333333      -0.00000000       0.16666667 </v>
   <v>      -0.25000000       0.00000000       0.16666667 </v>
   <v>      -0.16666667       0.00000000       0.16666667 </v>
   <v>      -0.08333333       0.00000000       0.16666667 </v>
   <v>       0.41666667       0.33333333       0.16666667 </v>
   <v>       0.50000000       0.33333333       0.16666667 </v>
   <v>      -0.41666667       0.33333333       0.16666667 </v>
   <v>      -0.33333333       0.33333333       0.16666667 </v>
   <v>       0.41666667       0.41666667       0.16666667 </v>
   <v>       0.50000000       0.41666667       0.16666667 </v>
   <v>      -0.41666667       0.41666667       0.16666667 </v>
   <v>      -0.33333333       0.41666667       0.16666667 </v>
   <v>      -0.25000000       0.41666667       0.16666667 </v>
   <v>      -0.16666667       0.41666667       0.16666667 </v>
   <v>      -0.08333333       0.41666667       0.16666667 </v>
   <v>       0.50000000       0.50000000       0.16666667 </v>
   <v>      -0.41666667       0.50000000       0.16666667 </v>
   <v>      -0.33333333       0.50000000       0.16666667 </v>
   <v>      -0.25000000       0.50000000       0.16666667 </v>
   <v>      -0.16666667       0.50000000       0.16666667 </v>
   <v>      -0.08333333       0.50000000       0.16666667 </v>
   <v>      -0.41666667      -0.41666667       0.16666667 </v>
   <v>      -0.33333333      -0.41666667       0.16666667 </v>
   <v>      -0.25000000      -0.41666667       0.16666667 </v>
   <v>      -0.16666667      -0.41666667       0.16666667 </v>
   <v>      -0.08333333      -0.41666667       0.16666667 </v>
   <v>      -0.33333333      -0.33333333       0.16666667 </v>
   <v>      -0.25000000      -0.33333333       0.16666667 </v>
   <v>      -0.16666667      -0.33333333       0.16666667 </v>
   <v>      -0.08333333      -0.33333333       0.16666667 </v>
   <v>      -0.25000000      -0.25000000       0.16666667 </v>
   <v>      -0.16666667      -0.25000000       0.16666667 </v>
   <v>      -0.08333333      -0.25000000       0.16666667 </v>
   <v>      -0.16666667      -0.16666667       0.16666667 </v>
   <v>      -0.08333333      -0.16666667       0.16666667 </v>
   <v>      -0.08333333      -0.08333333       0.16666667 </v>
   <v>      -0.00000000      -0.00000000       0.25000000 </v>
   <v>       0.50000000      -0.00000000       0.25000000 </v>
   <v>      -0.41666667       0.00000000       0.25000000 </v>
   <v>      -0.33333333      -0.00000000       0.25000000 </v>
   <v>      -0.25000000       0.00000000       0.25000000 </v>
   <v>      -0.16666667       0.00000000       0.25000000 </v>
   <v>      -0.08333333      -0.00000000       0.25000000 </v>
   <v>      -0.41666667       0.50000000       0.25000000 </v>
   <v>      -0.33333333       0.50000000       0.25000000 </v>
   <v>      -0.25000000       0.50000000       0.25000000 </v>
   <v>      -0.41666667      -0.41666667       0.25000000 </v>
   <v>      -0.33333333      -0.41666667       0.25000000 </v>
   <v>      -0.25000000      -0.41666667       0.25000000 </v>
   <v>      -0.16666667      -0.41666667       0.25000000 </v>
   <v>      -0.08333333      -0.41666667       0.25000000 </v>
   <v>      -0.33333333      -0.33333333       0.25000000 </v>
   <v>      -0.25000000      -0.33333333       0.25000000 </v>
   <v>      -0.16666667      -0.33333333       0.25000000 </v>
   <v>      -0.08333333      -0.33333333       0.25000000 </v>
   <v>      -0.25000000      -0.25000000       0.25000000 </v>
   <v>      -0.16666667      -0.25000000       0.25000000 </v>
   <v>      -0.08333333      -0.25000000       0.25000000 </v>
   <v>      -0.16666667      -0.16666667       0.25000000 </v>
   <v>      -0.08333333      -0.16666667       0.25000000 </v>
   <v>      -0.08333333      -0.08333333       0.25000000 </v>
   <v>       0.00000000       0.00000000       0.33333333 </v>
   <v>      -0.33333333       0.00000000       0.33333333 </v>
   <v>      -0.25000000       0.00000000       0.33333333 </v>
   <v>      -0.16666667      -0.00000000       0.33333333 </v>
   <v>      -0.08333333       0.00000000       0.33333333 </v>
   <v>      -0.25000000      -0.33333333       0.33333333 </v>
   <v>      -0.16666667      -0.33333333       0.33333333 </v>
   <v>      -0.25000000      -0.25000000       0.33333333 </v>
   <v>      -0.16666667      -0.25000000       0.33333333 </v>
   <v>      -0.08333333      -0.25000000       0.33333333 </v>
   <v>      -0.16666667      -0.16666667       0.33333333 </v>
   <v>      -0.08333333      -0.16666667       0.33333333 </v>
   <v>      -0.08333333      -0.08333333       0.33333333 </v>
   <v>      -0.00000000       0.00000000       0.41666667 </v>
   <v>      -0.16666667       0.00000000       0.41666667 </v>
   <v>      -0.08333333      -0.00000000       0.41666667 </v>
   <v>      -0.08333333      -0.16666667       0.41666667 </v>
   <v>      -0.08333333      -0.08333333       0.41666667 </v>
   <v>      -0.00000000      -0.00000000       0.50000000 </v>
  </varray>
  <varray name="weights" >
   <v>       0.00057870 </v>
   <v>       0.00347222 </v>
   <v>       0.00347222 </v>
   <v>       0.00347222 </v>
   <v>       0.00347222 </v>
   <v>       0.00347222 </v>
   <v>       0.00173611 </v>
   <v>       0.00347222 </v>
   <v>       0.00694444 </v>
   <v>       0.00694444 </v>
   <v>       0.00694444 </v>
   <v>       0.00694444 </v>
   <v>       0.00694444 </v>
   <v>       0.00694444 </v>
   <v>       0.00694444 </v>
   <v>       0.00694444 </v>
   <v>       0.00694444 </v>
   <v>       0.00347222 </v>
   <v>       0.00347222 </v>
   <v>       0.00694444 </v>
   <v>       0.00694444 </v>
   <v>       0.00694444 </v>
   <v>       0.00694444 </v>
   <v>       0.00694444 </v>
   <v>       0.00694444 </v>
   <v>       0.00694444 </v>
   <v>       0.00347222 </v>
   <v>       0.00347222 </v>
   <v>       0.00694444 </v>
   <v>       0.00694444 </v>
   <v>       0.00694444 </v>
   <v>       0.00694444 </v>
   <v>       0.00694444 </v>
   <v>       0.00347222 </v>
   <v>       0.00347222 </v>
   <v>       0.00694444 </v>
   <v>       0.00694444 </v>
   <v>       0.00694444 </v>
   <v>       0.00347222 </v>
   <v>       0.00347222 </v>
   <v>       0.00694444 </v>
   <v>       0.00347222 </v>
   <v>       0.00173611 </v>
   <v>       0.00115741 </v>
   <v>       0.00347222 </v>
   <v>       0.00347222 </v>
   <v>       0.00347222 </v>
   <v>       0.00347222 </v>
   <v>       0.00347222 </v>
   <v>       0.00347222 </v>
   <v>       0.00347222 </v>
   <v>       0.00347222 </v>
   <v>       0.00347222 </v>
   <v>       0.00347222 </v>
   <v>       0.00694444 </v>
   <v>       0.00694444 </v>
   <v>       0.00694444 </v>
   <v>       0.00694444 </v>
   <v>       0.00347222 </v>
   <v>       0.00347222 </v>
   <v>       0.00694444 </v>
   <v>       0.00694444 </v>
   <v>       0.00694444 </v>
   <v>       0.00694444 </v>
   <v>       0.00694444 </v>
   <v>       0.00694444 </v>
   <v>       0.00694444 </v>
   <v>       0.00694444 </v>
   <v>       0.00347222 </v>
   <v>       0.00694444 </v>
   <v>       0.00694444 </v>
   <v>       0.00694444 </v>
   <v>       0.00694444 </v>
   <v>       0.00694444 </v>
   <v>       0.00694444 </v>
   <v>       0.00694444 </v>
   <v>       0.00347222 </v>
   <v>       0.00694444 </v>
   <v>       0.00694444 </v>
   <v>       0.00694444 </v>
   <v>       0.00694444 </v>
   <v>       0.00694444 </v>
   <v>       0.00694444 </v>
   <v>       0.00347222 </v>
   <v>       0.00694444 </v>
   <v>       0.00694444 </v>
   <v>       0.00694444 </v>
   <v>       0.00694444 </v>
   <v>       0.00694444 </v>
   <v>       0.00347222 </v>
   <v>       0.00694444 </v>
   <v>       0.00694444 </v>
   <v>       0.00694444 </v>
   <v>       0.00694444 </v>
   <v>       0.00347222 </v>
   <v>       0.00694444 </v>
   <v>       0.00694444 </v>
   <v>       0.00694444 </v>
   <v>       0.00347222 </v>
   <v>       0.00694444 </v>
   <v>       0.00694444 </v>
   <v>       0.00347222 </v>
   <v>       0.00694444 </v>
   <v>       0.00347222 </v>
   <v>       0.00115741 </v>
   <v>       0.00347222 </v>
   <v>       0.00347222 </v>
   <v>       0.00347222 </v>
   <v>       0.00347222 </v>
   <v>       0.00347222 </v>
   <v>       0.00347222 </v>
   <v>       0.00347222 </v>
   <v>       0.00347222 </v>
   <v>       0.00694444 </v>
   <v>       0.00694444 </v>
   <v>       0.00694444 </v>
   <v>       0.00347222 </v>
   <v>       0.00347222 </v>
   <v>       0.00694444 </v>
   <v>       0.00694444 </v>
   <v>       0.00694444 </v>
   <v>       0.00694444 </v>
   <v>       0.00694444 </v>
   <v>       0.00694444 </v>
   <v>       0.00347222 </v>
   <v>       0.00694444 </v>
   <v>       0.00694444 </v>
   <v>       0.00694444 </v>
   <v>       0.00694444 </v>
   <v>       0.00694444 </v>
   <v>       0.00347222 </v>
   <v>       0.00694444 </v>
   <v>       0.00694444 </v>
   <v>       0.00694444 </v>
   <v>       0.00694444 </v>
   <v>       0.00347222 </v>
   <v>       0.00694444 </v>
   <v>       0.00694444 </v>
   <v>       0.00694444 </v>
   <v>       0.00347222 </v>
   <v>       0.00694444 </v>
   <v>       0.00694444 </v>
   <v>       0.00347222 </v>
   <v>       0.00694444 </v>
   <v>       0.00347222 </v>
   <v>       0.00115741 </v>
   <v>       0.00347222 </v>
   <v>       0.00347222 </v>
   <v>       0.00347222 </v>
   <v>       0.00347222 </v>
   <v>       0.00347222 </v>
   <v>       0.00347222 </v>
   <v>       0.00694444 </v>
   <v>       0.00694444 </v>
   <v>       0.00347222 </v>
   <v>       0.00347222 </v>
   <v>       0.00694444 </v>
   <v>       0.00694444 </v>
   <v>       0.00694444 </v>
   <v>       0.00694444 </v>
   <v>       0.00347222 </v>
   <v>       0.00694444 </v>
   <v>       0.00694444 </v>
   <v>       0.00694444 </v>
   <v>       0.00347222 </v>
   <v>       0.00694444 </v>
   <v>       0.00694444 </v>
   <v>       0.00347222 </v>
   <v>       0.00694444 </v>
   <v>       0.00347222 </v>
   <v>       0.00115741 </v>
   <v>       0.00347222 </v>
   <v>       0.00347222 </v>
   <v>       0.00347222 </v>
   <v>       0.00347222 </v>
   <v>       0.00694444 </v>
   <v>       0.00347222 </v>
   <v>       0.00347222 </v>
   <v>       0.00694444 </v>
   <v>       0.00694444 </v>
   <v>       0.00347222 </v>
   <v>       0.00694444 </v>
   <v>       0.00347222 </v>
   <v>       0.00115741 </v>
   <v>       0.00347222 </v>
   <v>       0.00347222 </v>
   <v>       0.00347222 </v>
   <v>       0.00347222 </v>
   <v>       0.00057870 </v>
  </varray>
 </kpoints>
 <parameters>
  <separator name="general" >
   <i type="string" name="SYSTEM">unknown system</i>
   <i type="logical" name="LCOMPAT"> F  </i>
  </separator>
  <separator name="electronic" >
   <i type="string" name="PREC">accura</i>
   <i name="ENMAX">    520.00000000</i>
   <i name="ENAUG">    644.87300000</i>
   <i name="EDIFF">      0.00000001</i>
   <i type="int" name="IALGO">    38</i>
   <i type="int" name="IWAVPR">    11</i>
   <i type="int" name="NBANDS">     8</i>
   <i name="NELECT">      8.00000000</i>
   <i type="int" name="TURBO">     0</i>
   <i type="int" name="IRESTART">     0</i>
   <i type="int" name="NREBOOT">     0</i>
   <i type="int" name="NMIN">     0</i>
   <i name="EREF">      0.00000000</i>
   <separator name="electronic smearing" >
    <i type="int" name="ISMEAR">     0</i>
    <i name="SIGMA">      0.01000000</i>
    <i name="KSPACING">      0.50000000</i>
    <i type="logical" name="KGAMMA"> T  </i>
   </separator>
   <separator name="electronic projectors" >
    <i type="logical" name="LREAL"> F  </i>
    <v name="ROPT">      0.00000000</v>
    <i type="int" name="LMAXPAW">  -100</i>
    <i type="int" name="LMAXMIX">     2</i>
    <i type="logical" name="NLSPLINE"> F  </i>
   </separator>
   <separator name="electronic startup" >
    <i type="int" name="ISTART">     0</i>
    <i type="int" name="ICHARG">     2</i>
    <i type="int" name="INIWAV">     1</i>
   </separator>
   <separator name="electronic spin" >
    <i type="int" name="ISPIN">     1</i>
    <i type="logical" name="LNONCOLLINEAR"> F  </i>
    <v name="MAGMOM">      1.00000000      1.00000000</v>
    <i name="NUPDOWN">     -1.00000000</i>
    <i type="logical" name="LSORBIT"> F  </i>
    <v name="SAXIS">      0.00000000      0.00000000      1.00000000</v>
    <i type="logical" name="LSPIRAL"> F  </i>
    <v name="QSPIRAL">      0.00000000      0.00000000      0.00000000</v>
    <i type="logical" name="LZEROZ"> F  </i>
   </separator>
   <separator name="electronic exchange-correlation" >
    <i type="logical" name="LASPH"> F  </i>
    <i type="logical" name="LMETAGGA"> F  </i>
   </separator>
   <separator name="electronic convergence" >
    <i type="int" name="NELM">   100</i>
    <i type="int" name="NELMDL">    -5</i>
    <i type="int" name="NELMIN">     2</i>
    <i name="ENINI">    520.00000000</i>
    <separator name="electronic convergence detail" >
     <i type="logical" name="LDIAG"> T  </i>
     <i type="logical" name="LSUBROT"> F  </i>
     <i name="WEIMIN">      0.00100000</i>
     <i name="EBREAK">      0.00000000</i>
     <i name="DEPER">      0.30000000</i>
     <i type="int" name="NRMM">     4</i>
     <i name="TIME">      0.40000000</i>
    </separator>
   </separator>
   <separator name="electronic mixer" >
    <i name="AMIX">      0.40000000</i>
    <i name="BMIX">      1.00000000</i>
    <i name="AMIN">      0.10000000</i>
    <i name="AMIX_MAG">      1.60000000</i>
    <i name="BMIX_MAG">      1.00000000</i>
    <separator name="electronic mixer details" >
     <i type="int" name="IMIX">     4</i>
     <i type="logical" name="MIXFIRST"> F  </i>
     <i type="int" name="MAXMIX">   -45</i>
     <i name="WC">    100.00000000</i>
     <i type="int" name="INIMIX">     1</i>
     <i type="int" name="MIXPRE">     1</i>
     <i type="int" name="MREMOVE">     5</i>
    </separator>
   </separator>
   <separator name="electronic dipolcorrection" >
    <i type="logical" name="LDIPOL"> F  </i>
    <i type="logical" name="LMONO"> F  </i>
    <i type="int" name="IDIPOL">     0</i>
    <i name="EPSILON">      1.00000000</i>
    <v name="DIPOL">   -100.00000000   -100.00000000   -100.00000000</v>
    <i name="EFIELD">      0.00000000</i>
   </separator>
  </separator>
  <separator name="grids" >
   <i type="int" name="NGX">    20</i>
   <i type="int" name="NGY">    20</i>
   <i type="int" name="NGZ">    20</i>
   <i type="int" name="NGXF">    40</i>
   <i type="int" name="NGYF">    40</i>
   <i type="int" name="NGZF">    40</i>
   <i type="logical" name="ADDGRID"> F  </i>
  </separator>
  <separator name="ionic" >
   <i type="int" name="NSW">     1</i>
   <i type="int" name="IBRION">     8</i>
   <i type="int" name="MDALGO">     0</i>
   <i type="int" name="ISIF">     2</i>
   <i name="PSTRESS">      0.00000000</i>
   <i name="EDIFFG">      0.00000010</i>
   <i type="int" name="NFREE">     0</i>
   <i name="POTIM">      0.50000000</i>
   <i name="SMASS">     -3.00000000</i>
   <i name="SCALEE">      1.00000000</i>
  </separator>
  <separator name="ionic md" >
   <i name="TEBEG">      0.00010000</i>
   <i name="TEEND">      0.00010000</i>
   <i type="int" name="NBLOCK">     1</i>
   <i type="int" name="KBLOCK">     1</i>
   <i type="int" name="NPACO">   256</i>
   <i name="APACO">     16.00000000</i>
  </separator>
  <separator name="symmetry" >
   <i type="int" name="ISYM">     2</i>
   <i name="SYMPREC">      0.00000001</i>
  </separator>
  <separator name="dos" >
   <i type="int" name="LORBIT">     0</i>
   <v name="RWIGS">     -1.00000000</v>
   <i type="int" name="NEDOS">   301</i>
   <i name="EMIN">     10.00000000</i>
   <i name="EMAX">    -10.00000000</i>
   <i name="EFERMI">      0.00000000</i>
  </separator>
  <separator name="writing" >
   <i type="int" name="NWRITE">     2</i>
   <i type="logical" name="LWAVE"> F  </i>
   <i type="logical" name="LDOWNSAMPLE"> F  </i>
   <i type="logical" name="LCHARG"> T  </i>
   <i type="logical" name="LPARD"> F  </i>
   <i type="logical" name="LVTOT"> F  </i>
   <i type="logical" name="LVHAR"> F  </i>
   <i type="logical" name="LELF"> F  </i>
   <i type="logical" name="LOPTICS"> F  </i>
   <v name="STM">      0.00000000      0.00000000      0.00000000      0.00000000      0.00000000      0.00000000      0.00000000</v>
  </separator>
  <separator name="performance" >
   <i type="int" name="NPAR">     8</i>
   <i type="int" name="NSIM">     4</i>
   <i type="int" name="NBLK">    -1</i>
   <i type="logical" name="LPLANE"> T  </i>
   <i type="logical" name="LSCALAPACK"> T  </i>
   <i type="logical" name="LSCAAWARE"> F  </i>
   <i type="logical" name="LSCALU"> F  </i>
   <i type="logical" name="LASYNC"> F  </i>
   <i type="logical" name="LORBITALREAL"> F  </i>
  </separator>
  <separator name="miscellaneous" >
   <i type="int" name="IDIOT">     3</i>
   <i type="int" name="ISPECIAL">     0</i>
   <i type="logical" name="LMUSIC"> F  </i>
   <v name="POMASS">     12.01100000</v>
   <v name="DARWINR">      0.00000000</v>
   <v name="DARWINV">      1.00000000</v>
   <i type="logical" name="LCORR"> T  </i>
  </separator>
  <i type="logical" name="GGA_COMPAT"> T  </i>
  <i type="logical" name="LBERRY"> F  </i>
  <i type="int" name="ICORELEVEL">     0</i>
  <i type="logical" name="LDAU"> F  </i>
  <i type="int" name="I_CONSTRAINED_M">     0</i>
  <separator name="electronic exchange-correlation" >
   <i type="string" name="GGA">--</i>
   <i type="int" name="VOSKOWN">     0</i>
   <i type="logical" name="LHFCALC"> F  </i>
   <i type="string" name="PRECFOCK"></i>
   <i type="logical" name="LSYMGRAD"> F  </i>
   <i type="logical" name="LHFONE"> F  </i>
   <i type="logical" name="LRHFCALC"> F  </i>
   <i type="logical" name="LTHOMAS"> F  </i>
   <i type="logical" name="LMODELHF"> F  </i>
   <i name="ENCUT4O">     -1.00000000</i>
   <i type="int" name="EXXOEP">     0</i>
   <i type="int" name="FOURORBIT">     0</i>
   <i name="AEXX">      0.00000000</i>
   <i name="HFALPHA">      0.00000000</i>
   <i name="MCALPHA">      0.00000000</i>
   <i name="ALDAX">      1.00000000</i>
   <i name="AGGAX">      1.00000000</i>
   <i name="ALDAC">      1.00000000</i>
   <i name="AGGAC">      1.00000000</i>
   <i type="int" name="NKREDX">     1</i>
   <i type="int" name="NKREDY">     1</i>
   <i type="int" name="NKREDZ">     1</i>
   <i type="logical" name="SHIFTRED"> F  </i>
   <i type="logical" name="ODDONLY"> F  </i>
   <i type="logical" name="EVENONLY"> F  </i>
   <i type="int" name="LMAXFOCK">     0</i>
   <i type="int" name="NMAXFOCKAE">     0</i>
   <i type="logical" name="LFOCKAEDFT"> F  </i>
   <i name="HFSCREEN">      0.00000000</i>
   <i name="HFSCREENC">      0.00000000</i>
   <i type="int" name="NBANDSGWLOW">     0</i>
  </separator>
  <separator name="vdW DFT" >
   <i type="logical" name="LUSE_VDW"> F  </i>
   <i name="Zab_VDW">     -0.84910000</i>
   <i name="PARAM1">      0.12340000</i>
   <i name="PARAM2">      1.00000000</i>
   <i name="PARAM3">      0.00000000</i>
  </separator>
  <separator name="model GW" >
   <i type="int" name="MODEL_GW">     0</i>
   <i name="MODEL_EPS0">      3.38597559</i>
   <i name="MODEL_ALPHA">      1.00000000</i>
  </separator>
  <separator name="linear response parameters" >
   <i type="logical" name="LEPSILON"> T  </i>
   <i type="logical" name="LRPA"> F  </i>
   <i type="logical" name="LNABLA"> F  </i>
   <i type="logical" name="LVEL"> F  </i>
   <i type="int" name="KINTER">     0</i>
   <i name="CSHIFT">      0.10000000</i>
   <i name="OMEGAMAX">     -1.00000000</i>
   <i name="DEG_THRESHOLD">      0.00200000</i>
   <i name="RTIME">     -0.10000000</i>
   <i name="WPLASMAI">      0.00000000</i>
   <v name="DFIELD">      0.00000000      0.00000000      0.00000000</v>
   <v name="WPLASMA">      0.00000000      0.00000000      0.00000000      0.00000000      0.00000000      0.00000000      0.00000000      0.00000000      0.00000000</v>
  </separator>
  <separator name="orbital magnetization" >
   <i type="logical" name="NUCIND"> F  </i>
   <v name="MAGPOS">      0.00000000      0.00000000      0.00000000</v>
   <i type="logical" name="LNICSALL"> T  </i>
   <i type="logical" name="ORBITALMAG"> F  </i>
   <i type="logical" name="LMAGBLOCH"> F  </i>
   <i type="logical" name="LCHIMAG"> F  </i>
   <i type="logical" name="LGAUGE"> T  </i>
   <i type="int" name="MAGATOM">     0</i>
   <v name="MAGDIPOL">      0.00000000      0.00000000      0.00000000</v>
   <v name="AVECCONST">      0.00000000      0.00000000      0.00000000</v>
  </separator>
  <separator name="response functions" >
   <i type="logical" name="LADDER"> F  </i>
   <i type="logical" name="LRPAFORCE"> F  </i>
   <i type="logical" name="LFXC"> F  </i>
   <i type="logical" name="LHARTREE"> T  </i>
   <i type="int" name="IBSE">     0</i>
   <v type="int" name="KPOINT">    -1     0     0     0</v>
   <i type="logical" name="LTCTE"> F  </i>
   <i type="logical" name="LTETE"> F  </i>
   <i type="logical" name="LTRIPLET"> F  </i>
   <i type="logical" name="LFXCEPS"> F  </i>
   <i type="logical" name="LFXHEG"> F  </i>
   <i type="int" name="NATURALO">     2</i>
   <i type="logical" name="L2ORDER"> F  </i>
   <i type="logical" name="LMP2LT"> F  </i>
   <i type="logical" name="LUSEW"> F  </i>
   <i name="ENCUTGW">     -2.00000000</i>
   <i name="ENCUTGWSOFT">     -2.00000000</i>
   <i name="ENCUTLF">     -1.00000000</i>
   <i type="int" name="LMAXMP2">    -1</i>
   <i name="SCISSOR">      0.00000000</i>
   <i type="int" name="NOMEGA">     0</i>
   <i type="int" name="NOMEGAR">     0</i>
   <i type="int" name="NBANDSGW">    -1</i>
   <i type="int" name="NBANDSO">    -1</i>
   <i type="int" name="NBANDSV">    -1</i>
   <i type="int" name="NELM">   100</i>
   <i type="int" name="NELMHF">     1</i>
   <i type="int" name="DIM">     3</i>
   <i type="int" name="ANTIRES">     0</i>
   <i name="OMEGAMAX">    -30.00000000</i>
   <i name="OMEGAMIN">    -30.00000000</i>
   <i name="OMEGATL">   -200.00000000</i>
   <i type="int" name="OMEGAGRID">   140</i>
   <i name="CSHIFT">     -0.10000000</i>
   <i type="logical" name="SELFENERGY"> F  </i>
   <i type="logical" name="LSPECTRAL"> F  </i>
   <i type="logical" name="LSPECTRALGW"> F  </i>
   <i type="logical" name="LSINGLES"> F  </i>
   <i type="logical" name="LFERMIGW"> F  </i>
   <i type="logical" name="ODDONLYGW"> F  </i>
   <i type="logical" name="EVENONLYGW"> F  </i>
   <i type="int" name="NKREDLFX">     1</i>
   <i type="int" name="NKREDLFY">     1</i>
   <i type="int" name="NKREDLFZ">     1</i>
   <i type="int" name="MAXMEM">  2800</i>
   <i type="int" name="TELESCOPE">     0</i>
   <i type="int" name="TAUPAR">     1</i>
   <i type="int" name="OMEGAPAR">    -1</i>
   <i name="LAMBDA">      1.00000000</i>
  </separator>
  <separator name="External order field" >
   <i name="OFIELD_KAPPA">      0.00000000</i>
   <v name="OFIELD_K">      0.00000000      0.00000000      0.00000000</v>
   <i name="OFIELD_Q6_NEAR">      0.00000000</i>
   <i name="OFIELD_Q6_FAR">      0.00000000</i>
   <i name="OFIELD_A">      0.00000000</i>
  </separator>
 </parameters>
 <atominfo>
  <atoms>       2 </atoms>
  <types>       1 </types>
  <array name="atoms" >
   <dimension dim="1">ion</dimension>
   <field type="string">element</field>
   <field type="int">atomtype</field>
   <set>
    <rc><c>C </c><c>   1</c></rc>
    <rc><c>C </c><c>   1</c></rc>
   </set>
  </array>
  <array name="atomtypes" >
   <dimension dim="1">type</dimension>
   <field type="int">atomspertype</field>
   <field type="string">element</field>
   <field>mass</field>
   <field>valence</field>
   <field type="string">pseudopotential</field>
   <set>
    <rc><c>   2</c><c>C </c><c>     12.01100000</c><c>      4.00000000</c><c>  PAW_PBE C 08Apr2002                   </c></rc>
   </set>
  </array>
 </atominfo>
 <structure name="initialpos" >
  <crystal>
   <varray name="basis" >
    <v>      -1.78037242       0.00000000       1.78037242 </v>
    <v>       0.00000000       1.78037242       1.78037242 </v>
    <v>      -1.78037242       1.78037242       0.00000000 </v>
   </varray>
   <i name="volume">     11.28658529 </i>
   <varray name="rec_basis" >
    <v>      -0.28084012      -0.28084012       0.28084012 </v>
    <v>       0.28084012       0.28084012       0.28084012 </v>
    <v>      -0.28084012       0.28084012      -0.28084012 </v>
   </varray>
  </crystal>
  <varray name="positions" >
   <v>       0.00000000       0.00000008       0.99999992 </v>
   <v>       0.74999998       0.75000006       0.74999998 </v>
  </varray>
 </structure>
 <calculation>
  <scstep>
   <time name="dav">    0.61    0.99</time>
   <time name="total">    0.63    1.05</time>
   <energy>
    <i name="alphaZ">     29.11304487 </i>
    <i name="ewald">   -348.55065377 </i>
    <i name="hartreedc">    -17.50285554 </i>
    <i name="XCdc">     27.43730203 </i>
    <i name="pawpsdc">    217.04409276 </i>
    <i name="pawaedc">   -218.18290438 </i>
    <i name="eentropy">     -0.00003121 </i>
    <i name="bandstr">     15.95821954 </i>
    <i name="atom">    294.29778662 </i>
    <i name="e_fr_energy">     -0.38599908 </i>
    <i name="e_wo_entrp">     -0.38596787 </i>
    <i name="e_0_energy">     -0.38598347 </i>
   </energy>
  </scstep>
  <scstep>
   <time name="dav">    0.74    1.27</time>
   <time name="total">    0.74    1.27</time>
   <energy>
    <i name="e_fr_energy">    -18.71148471 </i>
    <i name="e_wo_entrp">    -18.71148471 </i>
    <i name="e_0_energy">    -18.71148471 </i>
   </energy>
  </scstep>
  <scstep>
   <time name="dav">    0.62    1.05</time>
   <time name="total">    0.62    1.05</time>
   <energy>
    <i name="e_fr_energy">    -18.83242465 </i>
    <i name="e_wo_entrp">    -18.83242465 </i>
    <i name="e_0_energy">    -18.83242465 </i>
   </energy>
  </scstep>
  <scstep>
   <time name="dav">    0.91    1.55</time>
   <time name="total">    0.91    1.55</time>
   <energy>
    <i name="e_fr_energy">    -18.83258437 </i>
    <i name="e_wo_entrp">    -18.83258437 </i>
    <i name="e_0_energy">    -18.83258437 </i>
   </energy>
  </scstep>
  <scstep>
   <time name="dav">    0.63    1.11</time>
   <time name="total">    0.66    1.17</time>
   <energy>
    <i name="e_fr_energy">    -18.83258442 </i>
    <i name="e_wo_entrp">    -18.83258442 </i>
    <i name="e_0_energy">    -18.83258442 </i>
   </energy>
  </scstep>
  <scstep>
   <time name="dav">    0.51    0.86</time>
   <time name="total">    0.55    0.96</time>
   <energy>
    <i name="e_fr_energy">    -18.34621349 </i>
    <i name="e_wo_entrp">    -18.34621349 </i>
    <i name="e_0_energy">    -18.34621349 </i>
   </energy>
  </scstep>
  <scstep>
   <time name="dav">    0.70    1.19</time>
   <time name="total">    0.75    1.28</time>
   <energy>
    <i name="e_fr_energy">    -18.18258067 </i>
    <i name="e_wo_entrp">    -18.18258067 </i>
    <i name="e_0_energy">    -18.18258067 </i>
   </energy>
  </scstep>
  <scstep>
   <time name="dav">    0.60    1.01</time>
   <time name="total">    0.65    1.11</time>
   <energy>
    <i name="e_fr_energy">    -18.18386201 </i>
    <i name="e_wo_entrp">    -18.18386201 </i>
    <i name="e_0_energy">    -18.18386201 </i>
   </energy>
  </scstep>
  <scstep>
   <time name="dav">    0.85    1.37</time>
   <time name="total">    0.89    1.46</time>
   <energy>
    <i name="e_fr_energy">    -18.18387800 </i>
    <i name="e_wo_entrp">    -18.18387800 </i>
    <i name="e_0_energy">    -18.18387800 </i>
   </energy>
  </scstep>
  <scstep>
   <time name="dav">    0.48    0.82</time>
   <time name="total">    0.52    0.89</time>
   <energy>
    <i name="e_fr_energy">    -18.18389080 </i>
    <i name="e_wo_entrp">    -18.18389080 </i>
    <i name="e_0_energy">    -18.18389080 </i>
   </energy>
  </scstep>
  <scstep>
   <time name="dav">    0.77    1.29</time>
   <time name="total">    0.81    1.38</time>
   <energy>
    <i name="e_fr_energy">    -18.18389066 </i>
    <i name="e_wo_entrp">    -18.18389066 </i>
    <i name="e_0_energy">    -18.18389066 </i>
   </energy>
  </scstep>
  <scstep>
   <time name="dav">    0.59    1.02</time>
   <time name="total">    0.60    1.05</time>
   <energy>
    <i name="alphaZ">     29.11304487 </i>
    <i name="ewald">   -348.55065377 </i>
    <i name="hartreedc">    -26.33319694 </i>
    <i name="XCdc">     28.24409352 </i>
    <i name="pawpsdc">    772.09593076 </i>
    <i name="pawaedc">   -773.43835238 </i>
    <i name="eentropy">     -0.00000000 </i>
    <i name="bandstr">      6.38745666 </i>
    <i name="atom">    294.29778662 </i>
    <i name="e_fr_energy">    -18.18389065 </i>
    <i name="e_wo_entrp">    -18.18389065 </i>
    <i name="e_0_energy">    -18.18389065 </i>
   </energy>
  </scstep>
  <structure>
   <crystal>
    <varray name="basis" >
     <v>      -1.78037242       0.00000000       1.78037242 </v>
     <v>       0.00000000       1.78037242       1.78037242 </v>
     <v>      -1.78037242       1.78037242       0.00000000 </v>
    </varray>
    <i name="volume">     11.28658529 </i>
    <varray name="rec_basis" >
     <v>      -0.28084012      -0.28084012       0.28084012 </v>
     <v>       0.28084012       0.28084012       0.28084012 </v>
     <v>      -0.28084012       0.28084012      -0.28084012 </v>
    </varray>
   </crystal>
   <varray name="positions" >
    <v>       0.00000000       0.00000008       0.99999992 </v>
    <v>       0.74999998       0.75000006       0.74999998 </v>
   </varray>
  </structure>
  <varray name="forces" >
   <v>      -0.00000271       0.00000271      -0.00000271 </v>
   <v>       0.00000271      -0.00000271       0.00000271 </v>
  </varray>
  <varray name="stress" >
   <v>      47.17846131       0.00001738      -0.00001738 </v>
   <v>       0.00001738      47.17846131       0.00001738 </v>
   <v>      -0.00001738       0.00001738      47.17846131 </v>
  </varray>
  <energy>
   <i name="e_fr_energy">    -18.18389065 </i>
   <i name="e_wo_entrp">    -18.18389065 </i>
   <i name="e_0_energy">     -0.00000000 </i>
  </energy>
  <scstep>
   <time name="total">    0.30    0.50</time>
   <energy>
    <i name="e_fr_energy">     -0.17267895 </i>
    <i name="e_wo_entrp">     -0.17267895 </i>
    <i name="e_0_energy">     -0.17267895 </i>
   </energy>
  </scstep>
  <scstep>
   <time name="total">    0.31    0.52</time>
   <energy>
    <i name="e_fr_energy">     -0.17652456 </i>
    <i name="e_wo_entrp">     -0.17652456 </i>
    <i name="e_0_energy">     -0.17652456 </i>
   </energy>
  </scstep>
  <scstep>
   <time name="total">    0.32    0.56</time>
   <energy>
    <i name="e_fr_energy">     -0.17652961 </i>
    <i name="e_wo_entrp">     -0.17652961 </i>
    <i name="e_0_energy">     -0.17652961 </i>
   </energy>
  </scstep>
  <scstep>
   <time name="total">    0.29    0.48</time>
   <energy>
    <i name="e_fr_energy">     -0.17652962 </i>
    <i name="e_wo_entrp">     -0.17652962 </i>
    <i name="e_0_energy">     -0.17652962 </i>
   </energy>
  </scstep>
  <scstep>
   <time name="total">    0.22    0.37</time>
   <energy>
    <i name="e_fr_energy">     -0.17652962 </i>
    <i name="e_wo_entrp">     -0.17652962 </i>
    <i name="e_0_energy">     -0.17652962 </i>
   </energy>
  </scstep>
  <scstep>
   <time name="total">    0.29    0.47</time>
   <energy>
    <i name="e_fr_energy">     -0.17744037 </i>
    <i name="e_wo_entrp">     -0.17744037 </i>
    <i name="e_0_energy">     -0.17744037 </i>
   </energy>
  </scstep>
  <scstep>
   <time name="total">    0.31    0.54</time>
   <energy>
    <i name="e_fr_energy">     -0.18156536 </i>
    <i name="e_wo_entrp">     -0.18156536 </i>
    <i name="e_0_energy">     -0.18156536 </i>
   </energy>
  </scstep>
  <scstep>
   <time name="total">    0.29    0.46</time>
   <energy>
    <i name="e_fr_energy">     -0.18157165 </i>
    <i name="e_wo_entrp">     -0.18157165 </i>
    <i name="e_0_energy">     -0.18157165 </i>
   </energy>
  </scstep>
  <scstep>
   <time name="total">    0.32    0.53</time>
   <energy>
    <i name="e_fr_energy">     -0.18157167 </i>
    <i name="e_wo_entrp">     -0.18157167 </i>
    <i name="e_0_energy">     -0.18157167 </i>
   </energy>
  </scstep>
  <scstep>
   <time name="total">    0.21    0.35</time>
   <energy>
    <i name="e_fr_energy">     -0.18157167 </i>
    <i name="e_wo_entrp">     -0.18157167 </i>
    <i name="e_0_energy">     -0.18157167 </i>
   </energy>
  </scstep>
  <scstep>
   <time name="total">    0.30    0.51</time>
   <energy>
    <i name="e_fr_energy">     -0.10205817 </i>
    <i name="e_wo_entrp">     -0.10205817 </i>
    <i name="e_0_energy">     -0.10205817 </i>
   </energy>
  </scstep>
  <scstep>
   <time name="total">    0.32    0.54</time>
   <energy>
    <i name="e_fr_energy">     -0.10452684 </i>
    <i name="e_wo_entrp">     -0.10452684 </i>
    <i name="e_0_energy">     -0.10452684 </i>
   </energy>
  </scstep>
  <scstep>
   <time name="total">    0.31    0.50</time>
   <energy>
    <i name="e_fr_energy">     -0.10453082 </i>
    <i name="e_wo_entrp">     -0.10453082 </i>
    <i name="e_0_energy">     -0.10453082 </i>
   </energy>
  </scstep>
  <scstep>
   <time name="total">    0.29    0.50</time>
   <energy>
    <i name="e_fr_energy">     -0.10453084 </i>
    <i name="e_wo_entrp">     -0.10453084 </i>
    <i name="e_0_energy">     -0.10453084 </i>
   </energy>
  </scstep>
  <scstep>
   <time name="total">    0.19    0.32</time>
   <energy>
    <i name="e_fr_energy">     -0.10453084 </i>
    <i name="e_wo_entrp">     -0.10453084 </i>
    <i name="e_0_energy">     -0.10453084 </i>
   </energy>
  </scstep>
  <varray name="epsilon_rpa" >
   <v>       5.94479140       0.00037909      -0.00037909 </v>
   <v>       0.00037909       5.94479140       0.00037909 </v>
   <v>      -0.00037909       0.00037909       5.94479140 </v>
  </varray>
  <kpoints>
   <generation param="Gamma">
    <v type="int" name="divisions">      12       12       12 </v>
    <v name="usershift">      0.00000000       0.00000000       0.00000000 </v>
    <v name="genvec1">      0.08333333      -0.00000000      -0.00000000 </v>
    <v name="genvec2">     -0.00000000       0.08333333       0.00000000 </v>
    <v name="genvec3">      0.00000000       0.00000000       0.08333333 </v>
    <v name="shift">      0.00000000       0.00000000       0.00000000 </v>
   </generation>
   <varray name="kpointlist" >
    <v>       0.00000000       0.00000000       0.00000000 </v>
    <v>       0.08333333      -0.00000000      -0.00000000 </v>
    <v>       0.16666667      -0.00000000      -0.00000000 </v>
    <v>       0.25000000      -0.00000000      -0.00000000 </v>
    <v>       0.33333333      -0.00000000      -0.00000000 </v>
    <v>       0.41666667      -0.00000000      -0.00000000 </v>
    <v>       0.50000000      -0.00000000      -0.00000000 </v>
    <v>      -0.00000000       0.08333333       0.00000000 </v>
    <v>       0.08333333       0.08333333      -0.00000000 </v>
    <v>       0.16666667       0.08333333      -0.00000000 </v>
    <v>       0.25000000       0.08333333      -0.00000000 </v>
    <v>       0.33333333       0.08333333      -0.00000000 </v>
    <v>       0.41666667       0.08333333      -0.00000000 </v>
    <v>       0.50000000       0.08333333      -0.00000000 </v>
    <v>      -0.41666667       0.08333333       0.00000000 </v>
    <v>      -0.33333333       0.08333333       0.00000000 </v>
    <v>      -0.25000000       0.08333333       0.00000000 </v>
    <v>      -0.16666667       0.08333333       0.00000000 </v>
    <v>      -0.08333333       0.08333333       0.00000000 </v>
    <v>      -0.00000000       0.16666667       0.00000000 </v>
    <v>       0.08333333       0.16666667       0.00000000 </v>
    <v>       0.16666667       0.16666667      -0.00000000 </v>
    <v>       0.25000000       0.16666667       0.00000000 </v>
    <v>       0.33333333       0.16666667       0.00000000 </v>
    <v>       0.41666667       0.16666667       0.00000000 </v>
    <v>       0.50000000       0.16666667       0.00000000 </v>
    <v>      -0.41666667       0.16666667       0.00000000 </v>
    <v>      -0.33333333       0.16666667       0.00000000 </v>
    <v>      -0.25000000       0.16666667       0.00000000 </v>
    <v>      -0.16666667       0.16666667       0.00000000 </v>
    <v>      -0.08333333       0.16666667       0.00000000 </v>
    <v>      -0.00000000       0.25000000       0.00000000 </v>
    <v>       0.08333333       0.25000000       0.00000000 </v>
    <v>       0.16666667       0.25000000      -0.00000000 </v>
    <v>       0.25000000       0.25000000      -0.00000000 </v>
    <v>       0.33333333       0.25000000      -0.00000000 </v>
    <v>       0.41666667       0.25000000      -0.00000000 </v>
    <v>       0.50000000       0.25000000       0.00000000 </v>
    <v>      -0.41666667       0.25000000       0.00000000 </v>
    <v>      -0.33333333       0.25000000       0.00000000 </v>
    <v>      -0.25000000       0.25000000       0.00000000 </v>
    <v>      -0.16666667       0.25000000       0.00000000 </v>
    <v>      -0.08333333       0.25000000       0.00000000 </v>
    <v>      -0.00000000       0.33333333       0.00000000 </v>
    <v>       0.08333333       0.33333333       0.00000000 </v>
    <v>       0.16666667       0.33333333       0.00000000 </v>
    <v>       0.25000000       0.33333333      -0.00000000 </v>
    <v>       0.33333333       0.33333333      -0.00000000 </v>
    <v>       0.41666667       0.33333333      -0.00000000 </v>
    <v>       0.50000000       0.33333333      -0.00000000 </v>
    <v>      -0.41666667       0.33333333       0.00000000 </v>
    <v>      -0.33333333       0.33333333       0.00000000 </v>
    <v>      -0.25000000       0.33333333       0.00000000 </v>
    <v>      -0.16666667       0.33333333       0.00000000 </v>
    <v>      -0.08333333       0.33333333       0.00000000 </v>
    <v>      -0.00000000       0.41666667       0.00000000 </v>
    <v>       0.08333333       0.41666667       0.00000000 </v>
    <v>       0.16666667       0.41666667       0.00000000 </v>
    <v>       0.25000000       0.41666667       0.00000000 </v>
    <v>       0.33333333       0.41666667      -0.00000000 </v>
    <v>       0.41666667       0.41666667      -0.00000000 </v>
    <v>       0.50000000       0.41666667      -0.00000000 </v>
    <v>      -0.41666667       0.41666667       0.00000000 </v>
    <v>      -0.33333333       0.41666667       0.00000000 </v>
    <v>      -0.25000000       0.41666667       0.00000000 </v>
    <v>      -0.16666667       0.41666667       0.00000000 </v>
    <v>      -0.08333333       0.41666667       0.00000000 </v>
    <v>      -0.00000000       0.50000000       0.00000000 </v>
    <v>       0.08333333       0.50000000       0.00000000 </v>
    <v>       0.16666667       0.50000000       0.00000000 </v>
    <v>       0.25000000       0.50000000       0.00000000 </v>
    <v>       0.33333333       0.50000000       0.00000000 </v>
    <v>       0.41666667       0.50000000      -0.00000000 </v>
    <v>       0.50000000       0.50000000      -0.00000000 </v>
    <v>       0.00000000       0.00000000       0.08333333 </v>
    <v>       0.08333333       0.00000000       0.08333333 </v>
    <v>       0.16666667      -0.00000000       0.08333333 </v>
    <v>       0.25000000      -0.00000000       0.08333333 </v>
    <v>       0.33333333      -0.00000000       0.08333333 </v>
    <v>       0.41666667      -0.00000000       0.08333333 </v>
    <v>       0.50000000      -0.00000000       0.08333333 </v>
    <v>      -0.41666667       0.00000000       0.08333333 </v>
    <v>      -0.33333333       0.00000000       0.08333333 </v>
    <v>      -0.25000000       0.00000000       0.08333333 </v>
    <v>      -0.16666667       0.00000000       0.08333333 </v>
    <v>      -0.08333333       0.00000000       0.08333333 </v>
    <v>       0.00000000       0.16666667       0.08333333 </v>
    <v>       0.08333333       0.16666667       0.08333333 </v>
    <v>       0.25000000       0.16666667       0.08333333 </v>
    <v>       0.33333333       0.16666667       0.08333333 </v>
    <v>       0.41666667       0.16666667       0.08333333 </v>
    <v>       0.50000000       0.16666667       0.08333333 </v>
    <v>      -0.41666667       0.16666667       0.08333333 </v>
    <v>      -0.00000000       0.25000000       0.08333333 </v>
    <v>       0.08333333       0.25000000       0.08333333 </v>
    <v>       0.16666667       0.25000000       0.08333333 </v>
    <v>       0.25000000       0.25000000       0.08333333 </v>
    <v>       0.33333333       0.25000000       0.08333333 </v>
    <v>       0.41666667       0.25000000       0.08333333 </v>
    <v>       0.50000000       0.25000000       0.08333333 </v>
    <v>      -0.41666667       0.25000000       0.08333333 </v>
    <v>      -0.33333333       0.25000000       0.08333333 </v>
    <v>      -0.25000000       0.25000000       0.08333333 </v>
    <v>      -0.16666667       0.25000000       0.08333333 </v>
    <v>      -0.08333333       0.25000000       0.08333333 </v>
    <v>       0.00000000       0.33333333       0.08333333 </v>
    <v>       0.08333333       0.33333333       0.08333333 </v>
    <v>       0.16666667       0.33333333       0.08333333 </v>
    <v>       0.25000000       0.33333333       0.08333333 </v>
    <v>       0.33333333       0.33333333       0.08333333 </v>
    <v>       0.41666667       0.33333333       0.08333333 </v>
    <v>       0.50000000       0.33333333       0.08333333 </v>
    <v>      -0.41666667       0.33333333       0.08333333 </v>
    <v>      -0.33333333       0.33333333       0.08333333 </v>
    <v>      -0.25000000       0.33333333       0.08333333 </v>
    <v>      -0.16666667       0.33333333       0.08333333 </v>
    <v>      -0.08333333       0.33333333       0.08333333 </v>
    <v>      -0.00000000       0.41666667       0.08333333 </v>
    <v>       0.08333333       0.41666667       0.08333333 </v>
    <v>       0.16666667       0.41666667       0.08333333 </v>
    <v>       0.25000000       0.41666667       0.08333333 </v>
    <v>       0.33333333       0.41666667       0.08333333 </v>
    <v>       0.41666667       0.41666667       0.08333333 </v>
    <v>       0.50000000       0.41666667       0.08333333 </v>
    <v>      -0.41666667       0.41666667       0.08333333 </v>
    <v>      -0.33333333       0.41666667       0.08333333 </v>
    <v>      -0.25000000       0.41666667       0.08333333 </v>
    <v>      -0.16666667       0.41666667       0.08333333 </v>
    <v>      -0.08333333       0.41666667       0.08333333 </v>
    <v>      -0.00000000       0.50000000       0.08333333 </v>
    <v>       0.08333333       0.50000000       0.08333333 </v>
    <v>       0.16666667       0.50000000       0.08333333 </v>
    <v>       0.25000000       0.50000000       0.08333333 </v>
    <v>       0.33333333       0.50000000       0.08333333 </v>
    <v>       0.41666667       0.50000000       0.08333333 </v>
    <v>       0.50000000       0.50000000       0.08333333 </v>
    <v>      -0.41666667       0.50000000       0.08333333 </v>
    <v>      -0.33333333       0.50000000       0.08333333 </v>
    <v>      -0.25000000       0.50000000       0.08333333 </v>
    <v>      -0.16666667       0.50000000       0.08333333 </v>
    <v>      -0.08333333       0.50000000       0.08333333 </v>
    <v>       0.00000000      -0.41666667       0.08333333 </v>
    <v>       0.08333333      -0.41666667       0.08333333 </v>
    <v>       0.16666667      -0.41666667       0.08333333 </v>
    <v>       0.25000000      -0.41666667       0.08333333 </v>
    <v>       0.33333333      -0.41666667       0.08333333 </v>
    <v>       0.41666667      -0.41666667       0.08333333 </v>
    <v>       0.50000000      -0.41666667       0.08333333 </v>
    <v>      -0.41666667      -0.41666667       0.08333333 </v>
    <v>      -0.33333333      -0.41666667       0.08333333 </v>
    <v>      -0.25000000      -0.41666667       0.08333333 </v>
    <v>      -0.16666667      -0.41666667       0.08333333 </v>
    <v>      -0.08333333      -0.41666667       0.08333333 </v>
    <v>       0.00000000      -0.33333333       0.08333333 </v>
    <v>       0.08333333      -0.33333333       0.08333333 </v>
    <v>       0.16666667      -0.33333333       0.08333333 </v>
    <v>       0.25000000      -0.33333333       0.08333333 </v>
    <v>       0.33333333      -0.33333333       0.08333333 </v>
    <v>       0.41666667      -0.33333333       0.08333333 </v>
    <v>       0.50000000      -0.33333333       0.08333333 </v>
    <v>      -0.41666667      -0.33333333       0.08333333 </v>
    <v>      -0.33333333      -0.33333333       0.08333333 </v>
    <v>      -0.25000000      -0.33333333       0.08333333 </v>
    <v>      -0.16666667      -0.33333333       0.08333333 </v>
    <v>      -0.08333333      -0.33333333       0.08333333 </v>
    <v>       0.00000000      -0.25000000       0.08333333 </v>
    <v>       0.08333333      -0.25000000       0.08333333 </v>
    <v>       0.16666667      -0.25000000       0.08333333 </v>
    <v>       0.25000000      -0.25000000       0.08333333 </v>
    <v>       0.33333333      -0.25000000       0.08333333 </v>
    <v>       0.41666667      -0.25000000       0.08333333 </v>
    <v>       0.50000000      -0.25000000       0.08333333 </v>
    <v>      -0.41666667      -0.25000000       0.08333333 </v>
    <v>      -0.33333333      -0.25000000       0.08333333 </v>
    <v>      -0.25000000      -0.25000000       0.08333333 </v>
    <v>      -0.16666667      -0.25000000       0.08333333 </v>
    <v>      -0.08333333      -0.25000000       0.08333333 </v>
    <v>       0.00000000      -0.16666667       0.08333333 </v>
    <v>       0.08333333      -0.16666667       0.08333333 </v>
    <v>       0.16666667      -0.16666667       0.08333333 </v>
    <v>       0.25000000      -0.16666667       0.08333333 </v>
    <v>       0.33333333      -0.16666667       0.08333333 </v>
    <v>       0.41666667      -0.16666667       0.08333333 </v>
    <v>       0.50000000      -0.16666667       0.08333333 </v>
    <v>      -0.41666667      -0.16666667       0.08333333 </v>
    <v>      -0.33333333      -0.16666667       0.08333333 </v>
    <v>      -0.25000000      -0.16666667       0.08333333 </v>
    <v>      -0.16666667      -0.16666667       0.08333333 </v>
    <v>      -0.08333333      -0.16666667       0.08333333 </v>
    <v>       0.00000000      -0.08333333       0.08333333 </v>
    <v>       0.08333333      -0.08333333       0.08333333 </v>
    <v>       0.16666667      -0.08333333       0.08333333 </v>
    <v>       0.25000000      -0.08333333       0.08333333 </v>
    <v>       0.33333333      -0.08333333       0.08333333 </v>
    <v>       0.41666667      -0.08333333       0.08333333 </v>
    <v>       0.50000000      -0.08333333       0.08333333 </v>
    <v>      -0.41666667      -0.08333333       0.08333333 </v>
    <v>      -0.33333333      -0.08333333       0.08333333 </v>
    <v>      -0.25000000      -0.08333333       0.08333333 </v>
    <v>      -0.16666667      -0.08333333       0.08333333 </v>
    <v>      -0.08333333      -0.08333333       0.08333333 </v>
    <v>       0.00000000       0.00000000       0.16666667 </v>
    <v>       0.08333333       0.00000000       0.16666667 </v>
    <v>       0.16666667       0.00000000       0.16666667 </v>
    <v>       0.25000000       0.00000000       0.16666667 </v>
    <v>       0.33333333      -0.00000000       0.16666667 </v>
    <v>       0.41666667       0.00000000       0.16666667 </v>
    <v>       0.50000000      -0.00000000       0.16666667 </v>
    <v>      -0.41666667       0.00000000       0.16666667 </v>
    <v>      -0.33333333      -0.00000000       0.16666667 </v>
    <v>      -0.25000000       0.00000000       0.16666667 </v>
    <v>      -0.16666667       0.00000000       0.16666667 </v>
    <v>      -0.08333333       0.00000000       0.16666667 </v>
    <v>       0.00000000       0.33333333       0.16666667 </v>
    <v>       0.08333333       0.33333333       0.16666667 </v>
    <v>       0.16666667       0.33333333       0.16666667 </v>
    <v>       0.41666667       0.33333333       0.16666667 </v>
    <v>       0.50000000       0.33333333       0.16666667 </v>
    <v>      -0.41666667       0.33333333       0.16666667 </v>
    <v>      -0.33333333       0.33333333       0.16666667 </v>
    <v>       0.00000000       0.41666667       0.16666667 </v>
    <v>       0.08333333       0.41666667       0.16666667 </v>
    <v>       0.16666667       0.41666667       0.16666667 </v>
    <v>       0.25000000       0.41666667       0.16666667 </v>
    <v>       0.33333333       0.41666667       0.16666667 </v>
    <v>       0.41666667       0.41666667       0.16666667 </v>
    <v>       0.50000000       0.41666667       0.16666667 </v>
    <v>      -0.41666667       0.41666667       0.16666667 </v>
    <v>      -0.33333333       0.41666667       0.16666667 </v>
    <v>      -0.25000000       0.41666667       0.16666667 </v>
    <v>      -0.16666667       0.41666667       0.16666667 </v>
    <v>      -0.08333333       0.41666667       0.16666667 </v>
    <v>      -0.00000000       0.50000000       0.16666667 </v>
    <v>       0.08333333       0.50000000       0.16666667 </v>
    <v>       0.16666667       0.50000000       0.16666667 </v>
    <v>       0.25000000       0.50000000       0.16666667 </v>
    <v>       0.33333333       0.50000000       0.16666667 </v>
    <v>       0.41666667       0.50000000       0.16666667 </v>
    <v>       0.50000000       0.50000000       0.16666667 </v>
    <v>      -0.41666667       0.50000000       0.16666667 </v>
    <v>      -0.33333333       0.50000000       0.16666667 </v>
    <v>      -0.25000000       0.50000000       0.16666667 </v>
    <v>      -0.16666667       0.50000000       0.16666667 </v>
    <v>      -0.08333333       0.50000000       0.16666667 </v>
    <v>       0.00000000      -0.41666667       0.16666667 </v>
    <v>       0.08333333      -0.41666667       0.16666667 </v>
    <v>       0.16666667      -0.41666667       0.16666667 </v>
    <v>       0.25000000      -0.41666667       0.16666667 </v>
    <v>       0.33333333      -0.41666667       0.16666667 </v>
    <v>       0.41666667      -0.41666667       0.16666667 </v>
    <v>       0.50000000      -0.41666667       0.16666667 </v>
    <v>      -0.41666667      -0.41666667       0.16666667 </v>
    <v>      -0.33333333      -0.41666667       0.16666667 </v>
    <v>      -0.25000000      -0.41666667       0.16666667 </v>
    <v>      -0.16666667      -0.41666667       0.16666667 </v>
    <v>      -0.08333333      -0.41666667       0.16666667 </v>
    <v>       0.00000000      -0.33333333       0.16666667 </v>
    <v>       0.08333333      -0.33333333       0.16666667 </v>
    <v>       0.16666667      -0.33333333       0.16666667 </v>
    <v>       0.25000000      -0.33333333       0.16666667 </v>
    <v>       0.33333333      -0.33333333       0.16666667 </v>
    <v>       0.41666667      -0.33333333       0.16666667 </v>
    <v>       0.50000000      -0.33333333       0.16666667 </v>
    <v>      -0.41666667      -0.33333333       0.16666667 </v>
    <v>      -0.33333333      -0.33333333       0.16666667 </v>
    <v>      -0.25000000      -0.33333333       0.16666667 </v>
    <v>      -0.16666667      -0.33333333       0.16666667 </v>
    <v>      -0.08333333      -0.33333333       0.16666667 </v>
    <v>       0.00000000      -0.25000000       0.16666667 </v>
    <v>       0.08333333      -0.25000000       0.16666667 </v>
    <v>       0.16666667      -0.25000000       0.16666667 </v>
    <v>       0.25000000      -0.25000000       0.16666667 </v>
    <v>       0.33333333      -0.25000000       0.16666667 </v>
    <v>       0.41666667      -0.25000000       0.16666667 </v>
    <v>       0.50000000      -0.25000000       0.16666667 </v>
    <v>      -0.41666667      -0.25000000       0.16666667 </v>
    <v>      -0.33333333      -0.25000000       0.16666667 </v>
    <v>      -0.25000000      -0.25000000       0.16666667 </v>
    <v>      -0.16666667      -0.25000000       0.16666667 </v>
    <v>      -0.08333333      -0.25000000       0.16666667 </v>
    <v>       0.00000000      -0.16666667       0.16666667 </v>
    <v>       0.08333333      -0.16666667       0.16666667 </v>
    <v>       0.16666667      -0.16666667       0.16666667 </v>
    <v>       0.25000000      -0.16666667       0.16666667 </v>
    <v>       0.33333333      -0.16666667       0.16666667 </v>
    <v>       0.41666667      -0.16666667       0.16666667 </v>
    <v>       0.50000000      -0.16666667       0.16666667 </v>
    <v>      -0.41666667      -0.16666667       0.16666667 </v>
    <v>      -0.33333333      -0.16666667       0.16666667 </v>
    <v>      -0.25000000      -0.16666667       0.16666667 </v>
    <v>      -0.16666667      -0.16666667       0.16666667 </v>
    <v>      -0.08333333      -0.16666667       0.16666667 </v>
    <v>      -0.00000000      -0.08333333       0.16666667 </v>
    <v>       0.08333333      -0.08333333       0.16666667 </v>
    <v>       0.16666667      -0.08333333       0.16666667 </v>
    <v>       0.25000000      -0.08333333       0.16666667 </v>
    <v>       0.33333333      -0.08333333       0.16666667 </v>
    <v>       0.41666667      -0.08333333       0.16666667 </v>
    <v>       0.50000000      -0.08333333       0.16666667 </v>
    <v>      -0.41666667      -0.08333333       0.16666667 </v>
    <v>      -0.33333333      -0.08333333       0.16666667 </v>
    <v>      -0.25000000      -0.08333333       0.16666667 </v>
    <v>      -0.16666667      -0.08333333       0.16666667 </v>
    <v>      -0.08333333      -0.08333333       0.16666667 </v>
    <v>      -0.00000000      -0.00000000       0.25000000 </v>
    <v>       0.08333333       0.00000000       0.25000000 </v>
    <v>       0.16666667       0.00000000       0.25000000 </v>
    <v>       0.25000000       0.00000000       0.25000000 </v>
    <v>       0.33333333       0.00000000       0.25000000 </v>
    <v>       0.41666667      -0.00000000       0.25000000 </v>
    <v>       0.50000000      -0.00000000       0.25000000 </v>
    <v>      -0.41666667       0.00000000       0.25000000 </v>
    <v>      -0.33333333      -0.00000000       0.25000000 </v>
    <v>      -0.25000000       0.00000000       0.25000000 </v>
    <v>      -0.16666667       0.00000000       0.25000000 </v>
    <v>      -0.08333333      -0.00000000       0.25000000 </v>
    <v>       0.00000000       0.50000000       0.25000000 </v>
    <v>       0.08333333       0.50000000       0.25000000 </v>
    <v>       0.16666667       0.50000000       0.25000000 </v>
    <v>       0.25000000       0.50000000       0.25000000 </v>
    <v>      -0.41666667       0.50000000       0.25000000 </v>
    <v>      -0.33333333       0.50000000       0.25000000 </v>
    <v>      -0.25000000       0.50000000       0.25000000 </v>
    <v>       0.00000000      -0.41666667       0.25000000 </v>
    <v>       0.08333333      -0.41666667       0.25000000 </v>
    <v>       0.16666667      -0.41666667       0.25000000 </v>
    <v>       0.25000000      -0.41666667       0.25000000 </v>
    <v>       0.33333333      -0.41666667       0.25000000 </v>
    <v>       0.41666667      -0.41666667       0.25000000 </v>
    <v>       0.50000000      -0.41666667       0.25000000 </v>
    <v>      -0.41666667      -0.41666667       0.25000000 </v>
    <v>      -0.33333333      -0.41666667       0.25000000 </v>
    <v>      -0.25000000      -0.41666667       0.25000000 </v>
    <v>      -0.16666667      -0.41666667       0.25000000 </v>
    <v>      -0.08333333      -0.41666667       0.25000000 </v>
    <v>       0.00000000      -0.33333333       0.25000000 </v>
    <v>       0.08333333      -0.33333333       0.25000000 </v>
    <v>       0.16666667      -0.33333333       0.25000000 </v>
    <v>       0.25000000      -0.33333333       0.25000000 </v>
    <v>       0.33333333      -0.33333333       0.25000000 </v>
    <v>       0.41666667      -0.33333333       0.25000000 </v>
    <v>       0.50000000      -0.33333333       0.25000000 </v>
    <v>      -0.41666667      -0.33333333       0.25000000 </v>
    <v>      -0.33333333      -0.33333333       0.25000000 </v>
    <v>      -0.25000000      -0.33333333       0.25000000 </v>
    <v>      -0.16666667      -0.33333333       0.25000000 </v>
    <v>      -0.08333333      -0.33333333       0.25000000 </v>
    <v>       0.00000000      -0.25000000       0.25000000 </v>
    <v>       0.08333333      -0.25000000       0.25000000 </v>
    <v>       0.16666667      -0.25000000       0.25000000 </v>
    <v>       0.25000000      -0.25000000       0.25000000 </v>
    <v>       0.33333333      -0.25000000       0.25000000 </v>
    <v>       0.41666667      -0.25000000       0.25000000 </v>
    <v>       0.50000000      -0.25000000       0.25000000 </v>
    <v>      -0.41666667      -0.25000000       0.25000000 </v>
    <v>      -0.33333333      -0.25000000       0.25000000 </v>
    <v>      -0.25000000      -0.25000000       0.25000000 </v>
    <v>      -0.16666667      -0.25000000       0.25000000 </v>
    <v>      -0.08333333      -0.25000000       0.25000000 </v>
    <v>       0.00000000      -0.16666667       0.25000000 </v>
    <v>       0.08333333      -0.16666667       0.25000000 </v>
    <v>       0.16666667      -0.16666667       0.25000000 </v>
    <v>       0.25000000      -0.16666667       0.25000000 </v>
    <v>       0.33333333      -0.16666667       0.25000000 </v>
    <v>       0.41666667      -0.16666667       0.25000000 </v>
    <v>       0.50000000      -0.16666667       0.25000000 </v>
    <v>      -0.41666667      -0.16666667       0.25000000 </v>
    <v>      -0.33333333      -0.16666667       0.25000000 </v>
    <v>      -0.25000000      -0.16666667       0.25000000 </v>
    <v>      -0.16666667      -0.16666667       0.25000000 </v>
    <v>      -0.08333333      -0.16666667       0.25000000 </v>
    <v>       0.00000000      -0.08333333       0.25000000 </v>
    <v>       0.08333333      -0.08333333       0.25000000 </v>
    <v>       0.16666667      -0.08333333       0.25000000 </v>
    <v>       0.25000000      -0.08333333       0.25000000 </v>
    <v>       0.33333333      -0.08333333       0.25000000 </v>
    <v>       0.41666667      -0.08333333       0.25000000 </v>
    <v>       0.50000000      -0.08333333       0.25000000 </v>
    <v>      -0.41666667      -0.08333333       0.25000000 </v>
    <v>      -0.33333333      -0.08333333       0.25000000 </v>
    <v>      -0.25000000      -0.08333333       0.25000000 </v>
    <v>      -0.16666667      -0.08333333       0.25000000 </v>
    <v>      -0.08333333      -0.08333333       0.25000000 </v>
    <v>       0.00000000       0.00000000       0.33333333 </v>
    <v>       0.08333333       0.00000000       0.33333333 </v>
    <v>       0.16666667      -0.00000000       0.33333333 </v>
    <v>       0.25000000       0.00000000       0.33333333 </v>
    <v>       0.33333333       0.00000000       0.33333333 </v>
    <v>       0.41666667       0.00000000       0.33333333 </v>
    <v>       0.50000000       0.00000000       0.33333333 </v>
    <v>      -0.41666667       0.00000000       0.33333333 </v>
    <v>      -0.33333333       0.00000000       0.33333333 </v>
    <v>      -0.25000000       0.00000000       0.33333333 </v>
    <v>      -0.16666667      -0.00000000       0.33333333 </v>
    <v>      -0.08333333       0.00000000       0.33333333 </v>
    <v>       0.00000000      -0.33333333       0.33333333 </v>
    <v>       0.08333333      -0.33333333       0.33333333 </v>
    <v>       0.16666667      -0.33333333       0.33333333 </v>
    <v>       0.25000000      -0.33333333       0.33333333 </v>
    <v>       0.33333333      -0.33333333       0.33333333 </v>
    <v>      -0.25000000      -0.33333333       0.33333333 </v>
    <v>      -0.16666667      -0.33333333       0.33333333 </v>
    <v>       0.00000000      -0.25000000       0.33333333 </v>
    <v>       0.08333333      -0.25000000       0.33333333 </v>
    <v>       0.16666667      -0.25000000       0.33333333 </v>
    <v>       0.25000000      -0.25000000       0.33333333 </v>
    <v>       0.33333333      -0.25000000       0.33333333 </v>
    <v>       0.41666667      -0.25000000       0.33333333 </v>
    <v>       0.50000000      -0.25000000       0.33333333 </v>
    <v>      -0.41666667      -0.25000000       0.33333333 </v>
    <v>      -0.33333333      -0.25000000       0.33333333 </v>
    <v>      -0.25000000      -0.25000000       0.33333333 </v>
    <v>      -0.16666667      -0.25000000       0.33333333 </v>
    <v>      -0.08333333      -0.25000000       0.33333333 </v>
    <v>      -0.00000000      -0.16666667       0.33333333 </v>
    <v>       0.08333333      -0.16666667       0.33333333 </v>
    <v>       0.16666667      -0.16666667       0.33333333 </v>
    <v>       0.25000000      -0.16666667       0.33333333 </v>
    <v>       0.33333333      -0.16666667       0.33333333 </v>
    <v>       0.41666667      -0.16666667       0.33333333 </v>
    <v>       0.50000000      -0.16666667       0.33333333 </v>
    <v>      -0.41666667      -0.16666667       0.33333333 </v>
    <v>      -0.33333333      -0.16666667       0.33333333 </v>
    <v>      -0.25000000      -0.16666667       0.33333333 </v>
    <v>      -0.16666667      -0.16666667       0.33333333 </v>
    <v>      -0.08333333      -0.16666667       0.33333333 </v>
    <v>      -0.00000000      -0.08333333       0.33333333 </v>
    <v>       0.08333333      -0.08333333       0.33333333 </v>
    <v>       0.16666667      -0.08333333       0.33333333 </v>
    <v>       0.25000000      -0.08333333       0.33333333 </v>
    <v>       0.33333333      -0.08333333       0.33333333 </v>
    <v>       0.41666667      -0.08333333       0.33333333 </v>
    <v>       0.50000000      -0.08333333       0.33333333 </v>
    <v>      -0.41666667      -0.08333333       0.33333333 </v>
    <v>      -0.33333333      -0.08333333       0.33333333 </v>
    <v>      -0.25000000      -0.08333333       0.33333333 </v>
    <v>      -0.16666667      -0.08333333       0.33333333 </v>
    <v>      -0.08333333      -0.08333333       0.33333333 </v>
    <v>      -0.00000000       0.00000000       0.41666667 </v>
    <v>       0.08333333       0.00000000       0.41666667 </v>
    <v>       0.16666667       0.00000000       0.41666667 </v>
    <v>       0.25000000       0.00000000       0.41666667 </v>
    <v>       0.33333333       0.00000000       0.41666667 </v>
    <v>       0.41666667       0.00000000       0.41666667 </v>
    <v>       0.50000000       0.00000000       0.41666667 </v>
    <v>      -0.41666667       0.00000000       0.41666667 </v>
    <v>      -0.33333333       0.00000000       0.41666667 </v>
    <v>      -0.25000000       0.00000000       0.41666667 </v>
    <v>      -0.16666667       0.00000000       0.41666667 </v>
    <v>      -0.08333333      -0.00000000       0.41666667 </v>
    <v>       0.00000000      -0.16666667       0.41666667 </v>
    <v>       0.08333333      -0.16666667       0.41666667 </v>
    <v>       0.16666667      -0.16666667       0.41666667 </v>
    <v>       0.25000000      -0.16666667       0.41666667 </v>
    <v>       0.33333333      -0.16666667       0.41666667 </v>
    <v>       0.41666667      -0.16666667       0.41666667 </v>
    <v>      -0.08333333      -0.16666667       0.41666667 </v>
    <v>       0.00000000      -0.08333333       0.41666667 </v>
    <v>       0.08333333      -0.08333333       0.41666667 </v>
    <v>       0.16666667      -0.08333333       0.41666667 </v>
    <v>       0.25000000      -0.08333333       0.41666667 </v>
    <v>       0.33333333      -0.08333333       0.41666667 </v>
    <v>       0.41666667      -0.08333333       0.41666667 </v>
    <v>       0.50000000      -0.08333333       0.41666667 </v>
    <v>      -0.41666667      -0.08333333       0.41666667 </v>
    <v>      -0.33333333      -0.08333333       0.41666667 </v>
    <v>      -0.25000000      -0.08333333       0.41666667 </v>
    <v>      -0.16666667      -0.08333333       0.41666667 </v>
    <v>      -0.08333333      -0.08333333       0.41666667 </v>
    <v>      -0.00000000      -0.00000000       0.50000000 </v>
    <v>       0.08333333       0.00000000       0.50000000 </v>
    <v>       0.16666667       0.00000000       0.50000000 </v>
    <v>       0.25000000      -0.00000000       0.50000000 </v>
    <v>       0.33333333       0.00000000       0.50000000 </v>
    <v>       0.41666667      -0.00000000       0.50000000 </v>
    <v>       0.50000000       0.00000000       0.50000000 </v>
   </varray>
   <varray name="weights" >
    <v>       0.00057870 </v>
    <v>       0.00115741 </v>
    <v>       0.00115741 </v>
    <v>       0.00115741 </v>
    <v>       0.00115741 </v>
    <v>       0.00115741 </v>
    <v>       0.00057870 </v>
    <v>       0.00231481 </v>
    <v>       0.00231481 </v>
    <v>       0.00231481 </v>
    <v>       0.00231481 </v>
    <v>       0.00231481 </v>
    <v>       0.00231481 </v>
    <v>       0.00231481 </v>
    <v>       0.00231481 </v>
    <v>       0.00231481 </v>
    <v>       0.00231481 </v>
    <v>       0.00231481 </v>
    <v>       0.00231481 </v>
    <v>       0.00231481 </v>
    <v>       0.00231481 </v>
    <v>       0.00231481 </v>
    <v>       0.00231481 </v>
    <v>       0.00231481 </v>
    <v>       0.00231481 </v>
    <v>       0.00231481 </v>
    <v>       0.00231481 </v>
    <v>       0.00231481 </v>
    <v>       0.00231481 </v>
    <v>       0.00231481 </v>
    <v>       0.00231481 </v>
    <v>       0.00231481 </v>
    <v>       0.00231481 </v>
    <v>       0.00231481 </v>
    <v>       0.00231481 </v>
    <v>       0.00231481 </v>
    <v>       0.00231481 </v>
    <v>       0.00231481 </v>
    <v>       0.00231481 </v>
    <v>       0.00231481 </v>
    <v>       0.00231481 </v>
    <v>       0.00231481 </v>
    <v>       0.00231481 </v>
    <v>       0.00231481 </v>
    <v>       0.00231481 </v>
    <v>       0.00231481 </v>
    <v>       0.00231481 </v>
    <v>       0.00231481 </v>
    <v>       0.00231481 </v>
    <v>       0.00231481 </v>
    <v>       0.00231481 </v>
    <v>       0.00231481 </v>
    <v>       0.00231481 </v>
    <v>       0.00231481 </v>
    <v>       0.00231481 </v>
    <v>       0.00231481 </v>
    <v>       0.00231481 </v>
    <v>       0.00231481 </v>
    <v>       0.00231481 </v>
    <v>       0.00231481 </v>
    <v>       0.00231481 </v>
    <v>       0.00231481 </v>
    <v>       0.00231481 </v>
    <v>       0.00231481 </v>
    <v>       0.00231481 </v>
    <v>       0.00231481 </v>
    <v>       0.00231481 </v>
    <v>       0.00115741 </v>
    <v>       0.00231481 </v>
    <v>       0.00231481 </v>
    <v>       0.00231481 </v>
    <v>       0.00231481 </v>
    <v>       0.00231481 </v>
    <v>       0.00115741 </v>
    <v>       0.00115741 </v>
    <v>       0.00115741 </v>
    <v>       0.00115741 </v>
    <v>       0.00115741 </v>
    <v>       0.00115741 </v>
    <v>       0.00115741 </v>
    <v>       0.00115741 </v>
    <v>       0.00115741 </v>
    <v>       0.00115741 </v>
    <v>       0.00115741 </v>
    <v>       0.00115741 </v>
    <v>       0.00115741 </v>
    <v>       0.00231481 </v>
    <v>       0.00115741 </v>
    <v>       0.00231481 </v>
    <v>       0.00231481 </v>
    <v>       0.00231481 </v>
    <v>       0.00231481 </v>
    <v>       0.00115741 </v>
    <v>       0.00231481 </v>
    <v>       0.00231481 </v>
    <v>       0.00231481 </v>
    <v>       0.00231481 </v>
    <v>       0.00231481 </v>
    <v>       0.00231481 </v>
    <v>       0.00231481 </v>
    <v>       0.00231481 </v>
    <v>       0.00231481 </v>
    <v>       0.00231481 </v>
    <v>       0.00231481 </v>
    <v>       0.00231481 </v>
    <v>       0.00231481 </v>
    <v>       0.00231481 </v>
    <v>       0.00231481 </v>
    <v>       0.00231481 </v>
    <v>       0.00231481 </v>
    <v>       0.00231481 </v>
    <v>       0.00231481 </v>
    <v>       0.00231481 </v>
    <v>       0.00231481 </v>
    <v>       0.00231481 </v>
    <v>       0.00231481 </v>
    <v>       0.00231481 </v>
    <v>       0.00231481 </v>
    <v>       0.00231481 </v>
    <v>       0.00231481 </v>
    <v>       0.00231481 </v>
    <v>       0.00231481 </v>
    <v>       0.00231481 </v>
    <v>       0.00231481 </v>
    <v>       0.00231481 </v>
    <v>       0.00231481 </v>
    <v>       0.00231481 </v>
    <v>       0.00231481 </v>
    <v>       0.00231481 </v>
    <v>       0.00231481 </v>
    <v>       0.00231481 </v>
    <v>       0.00231481 </v>
    <v>       0.00231481 </v>
    <v>       0.00231481 </v>
    <v>       0.00231481 </v>
    <v>       0.00231481 </v>
    <v>       0.00231481 </v>
    <v>       0.00231481 </v>
    <v>       0.00231481 </v>
    <v>       0.00231481 </v>
    <v>       0.00231481 </v>
    <v>       0.00231481 </v>
    <v>       0.00231481 </v>
    <v>       0.00231481 </v>
    <v>       0.00231481 </v>
    <v>       0.00231481 </v>
    <v>       0.00231481 </v>
    <v>       0.00231481 </v>
    <v>       0.00231481 </v>
    <v>       0.00231481 </v>
    <v>       0.00231481 </v>
    <v>       0.00231481 </v>
    <v>       0.00231481 </v>
    <v>       0.00231481 </v>
    <v>       0.00231481 </v>
    <v>       0.00231481 </v>
    <v>       0.00231481 </v>
    <v>       0.00231481 </v>
    <v>       0.00231481 </v>
    <v>       0.00231481 </v>
    <v>       0.00231481 </v>
    <v>       0.00231481 </v>
    <v>       0.00231481 </v>
    <v>       0.00231481 </v>
    <v>       0.00231481 </v>
    <v>       0.00231481 </v>
    <v>       0.00231481 </v>
    <v>       0.00231481 </v>
    <v>       0.00231481 </v>
    <v>       0.00231481 </v>
    <v>       0.00231481 </v>
    <v>       0.00231481 </v>
    <v>       0.00231481 </v>
    <v>       0.00231481 </v>
    <v>       0.00231481 </v>
    <v>       0.00231481 </v>
    <v>       0.00231481 </v>
    <v>       0.00231481 </v>
    <v>       0.00231481 </v>
    <v>       0.00231481 </v>
    <v>       0.00231481 </v>
    <v>       0.00231481 </v>
    <v>       0.00231481 </v>
    <v>       0.00231481 </v>
    <v>       0.00231481 </v>
    <v>       0.00231481 </v>
    <v>       0.00231481 </v>
    <v>       0.00231481 </v>
    <v>       0.00231481 </v>
    <v>       0.00231481 </v>
    <v>       0.00231481 </v>
    <v>       0.00231481 </v>
[...]
       <r>   -2.3129    1.0000 </r>
       <r>    2.2829    1.0000 </r>
       <r>    5.2828    1.0000 </r>
       <r>   16.3726    0.0000 </r>
       <r>   22.0507    0.0000 </r>
       <r>   23.1361    0.0000 </r>
       <r>   23.7445    0.0000 </r>
      </set>
      <set comment="kpoint 179">
       <r>   -5.0690    1.0000 </r>
       <r>   -2.3672    1.0000 </r>
       <r>    3.3970    1.0000 </r>
       <r>    5.1035    1.0000 </r>
       <r>   17.3518    0.0000 </r>
       <r>   20.2058    0.0000 </r>
       <r>   22.9005    0.0000 </r>
       <r>   24.1267    0.0000 </r>
      </set>
      <set comment="kpoint 180">
       <r>   -5.5136    1.0000 </r>
       <r>   -1.8156    1.0000 </r>
       <r>    3.0600    1.0000 </r>
       <r>    5.5137    1.0000 </r>
       <r>   17.8397    0.0000 </r>
       <r>   19.7039    0.0000 </r>
       <r>   22.7906    0.0000 </r>
       <r>   24.6832    0.0000 </r>
      </set>
      <set comment="kpoint 181">
       <r>   -5.9638    1.0000 </r>
       <r>   -2.2544    1.0000 </r>
       <r>    4.7972    1.0000 </r>
       <r>    5.8179    1.0000 </r>
       <r>   16.9210    0.0000 </r>
       <r>   20.5592    0.0000 </r>
       <r>   21.0967    0.0000 </r>
       <r>   24.1412    0.0000 </r>
      </set>
      <set comment="kpoint 182">
       <r>   -6.6517    1.0000 </r>
       <r>   -1.6905    1.0000 </r>
       <r>    5.0818    1.0000 </r>
       <r>    6.3771    1.0000 </r>
       <r>   17.8800    0.0000 </r>
       <r>   18.9537    0.0000 </r>
       <r>   20.8900    0.0000 </r>
       <r>   24.6469    0.0000 </r>
      </set>
      <set comment="kpoint 183">
       <r>   -7.5146    1.0000 </r>
       <r>   -1.1890    1.0000 </r>
       <r>    6.6070    1.0000 </r>
       <r>    6.7938    1.0000 </r>
       <r>   17.6010    0.0000 </r>
       <r>   19.1232    0.0000 </r>
       <r>   19.2866    0.0000 </r>
       <r>   24.8555    0.0000 </r>
      </set>
      <set comment="kpoint 184">
       <r>   -7.1289    1.0000 </r>
       <r>   -2.1169    1.0000 </r>
       <r>    7.1123    1.0000 </r>
       <r>    7.1123    1.0000 </r>
       <r>   18.2616    0.0000 </r>
       <r>   18.2616    0.0000 </r>
       <r>   18.6523    0.0000 </r>
       <r>   25.4594    0.0000 </r>
      </set>
      <set comment="kpoint 185">
       <r>   -5.5301    1.0000 </r>
       <r>   -2.7744    1.0000 </r>
       <r>    4.3081    1.0000 </r>
       <r>    6.1982    1.0000 </r>
       <r>   17.3607    0.0000 </r>
       <r>   20.0668    0.0000 </r>
       <r>   21.0741    0.0000 </r>
       <r>   25.3062    0.0000 </r>
      </set>
      <set comment="kpoint 186">
       <r>   -6.4360    1.0000 </r>
       <r>   -2.6774    1.0000 </r>
       <r>    6.1294    1.0000 </r>
       <r>    6.9350    1.0000 </r>
       <r>   18.1787    0.0000 </r>
       <r>   18.6273    0.0000 </r>
       <r>   19.3338    0.0000 </r>
       <r>   25.4751    0.0000 </r>
      </set>
      <set comment="kpoint 187">
       <r>   -5.4836    1.0000 </r>
       <r>   -3.1583    1.0000 </r>
       <r>    5.0822    1.0000 </r>
       <r>    6.1116    1.0000 </r>
       <r>   18.0144    0.0000 </r>
       <r>   18.8446    0.0000 </r>
       <r>   20.9736    0.0000 </r>
       <r>   25.3276    0.0000 </r>
      </set>
      <set comment="kpoint 188">
       <r>   -5.9837    1.0000 </r>
       <r>   -3.2348    1.0000 </r>
       <r>    6.3417    1.0000 </r>
       <r>    6.6399    1.0000 </r>
       <r>   17.8928    0.0000 </r>
       <r>   18.9219    0.0000 </r>
       <r>   19.3761    0.0000 </r>
       <r>   25.4474    0.0000 </r>
      </set>
      <set comment="kpoint 189">
       <r>   -5.9371    1.0000 </r>
       <r>   -3.6249    1.0000 </r>
       <r>    6.9903    1.0000 </r>
       <r>    6.9903    1.0000 </r>
       <r>   18.2837    0.0000 </r>
       <r>   18.2837    0.0000 </r>
       <r>   18.7199    0.0000 </r>
       <r>   25.5479    0.0000 </r>
      </set>
     </set>
    </set>
   </array>
  </eigenvalues>
  <separator name="orbital magnetization" >
   <v name="MAGDIPOLOUT">      0.00000000      0.00000000      0.00000000</v>
  </separator>
  <dos>
   <i name="efermi">      9.87765275 </i>
   <total>
    <array>
     <dimension dim="1">gridpoints</dimension>
     <dimension dim="2">spin</dimension>
     <field>energy</field>
     <field>total</field>
     <field>integrated</field>
     <set>
      <set comment="spin 1">
       <r>   -13.6636     0.0000     0.0000 </r>
       <r>   -13.5227     0.0000     0.0000 </r>
       <r>   -13.3818     0.0000     0.0000 </r>
       <r>   -13.2409     0.0000     0.0000 </r>
       <r>   -13.1000     0.0000     0.0000 </r>
       <r>   -12.9591     0.0000     0.0000 </r>
       <r>   -12.8181     0.0000     0.0000 </r>
       <r>   -12.6772     0.0000     0.0000 </r>
       <r>   -12.5363     0.0000     0.0000 </r>
       <r>   -12.3954     0.0000     0.0000 </r>
       <r>   -12.2545     0.0000     0.0000 </r>
       <r>   -12.1136     0.0000     0.0000 </r>
       <r>   -11.9727     0.0000     0.0000 </r>
       <r>   -11.8318     0.0000     0.0000 </r>
       <r>   -11.6908     0.0082     0.0012 </r>
       <r>   -11.5499     0.0293     0.0053 </r>
       <r>   -11.4090     0.0493     0.0174 </r>
       <r>   -11.2681     0.0000     0.0174 </r>
       <r>   -11.1272     0.0000     0.0312 </r>
       <r>   -10.9863     0.1987     0.0592 </r>
       <r>   -10.8454     0.0000     0.0683 </r>
       <r>   -10.7045     0.0470     0.0749 </r>
       <r>   -10.5635     0.0000     0.0752 </r>
       <r>   -10.4226     0.1971     0.1308 </r>
       <r>   -10.2817     0.0000     0.1308 </r>
       <r>   -10.1408     0.1971     0.1586 </r>
       <r>    -9.9999     0.2616     0.1954 </r>
       <r>    -9.8590     0.0000     0.1956 </r>
       <r>    -9.7181     0.0030     0.1960 </r>
       <r>    -9.5771     0.0000     0.2095 </r>
       <r>    -9.4362     0.6381     0.2994 </r>
       <r>    -9.2953     0.0000     0.2998 </r>
       <r>    -9.1544     0.1971     0.3275 </r>
       <r>    -9.0135     0.1598     0.3501 </r>
       <r>    -8.8726     0.0000     0.3831 </r>
       <r>    -8.7317     0.0005     0.3832 </r>
       <r>    -8.5908     0.0000     0.3924 </r>
       <r>    -8.4498     0.5791     0.4740 </r>
       <r>    -8.3089     0.0000     0.4757 </r>
       <r>    -8.1680     0.3943     0.5312 </r>
       <r>    -8.0271     0.3905     0.5863 </r>
       <r>    -7.8862     0.0000     0.6146 </r>
       <r>    -7.7453     0.0000     0.6146 </r>
       <r>    -7.6044     0.0000     0.6215 </r>
       <r>    -7.4635     0.3425     0.6976 </r>
       <r>    -7.3225     0.0000     0.7049 </r>
       <r>    -7.1816     0.2957     0.7465 </r>
       <r>    -7.0407     0.4444     0.8184 </r>
       <r>    -6.8998     0.0000     0.8391 </r>
       <r>    -6.7589     0.1676     0.8627 </r>
       <r>    -6.6180     0.3943     0.9225 </r>
       <r>    -6.4771     0.5914     1.0058 </r>
       <r>    -6.3361     0.0000     1.0336 </r>
       <r>    -6.1952     0.0000     1.0336 </r>
       <r>    -6.0543     0.3943     1.0891 </r>
       <r>    -5.9134     0.4271     1.1493 </r>
       <r>    -5.7725     0.0000     1.1493 </r>
       <r>    -5.6316     0.3941     1.2326 </r>
       <r>    -5.4907     0.6720     1.3273 </r>
       <r>    -5.3498     0.0000     1.3507 </r>
       <r>    -5.2088     0.3943     1.4340 </r>
       <r>    -5.0679     0.4184     1.4930 </r>
       <r>    -4.9270     0.0000     1.5174 </r>
       <r>    -4.7861     0.0000     1.5174 </r>
       <r>    -4.6452     0.1971     1.5451 </r>
       <r>    -4.5043     0.3943     1.6285 </r>
       <r>    -4.3634     0.0000     1.6285 </r>
       <r>    -4.2225     0.3360     1.6758 </r>
       <r>    -4.0815     0.1971     1.7535 </r>
       <r>    -3.9406     0.0000     1.7535 </r>
       <r>    -3.7997     0.5913     1.8368 </r>
       <r>    -3.6588     0.1971     1.8646 </r>
       <r>    -3.5179     0.0000     1.8692 </r>
       <r>    -3.3770     0.0000     1.8692 </r>
       <r>    -3.2361     0.0847     1.9367 </r>
       <r>    -3.0951     0.2473     1.9874 </r>
       <r>    -2.9542     0.0493     2.0150 </r>
       <r>    -2.8133     0.1970     2.0567 </r>
       <r>    -2.6724     0.1501     2.1056 </r>
       <r>    -2.5315     0.0681     2.1219 </r>
       <r>    -2.3906     0.1973     2.1540 </r>
       <r>    -2.2497     0.3446     2.2580 </r>
       <r>    -2.1088     0.0575     2.2870 </r>
       <r>    -1.9678     0.0045     2.2888 </r>
       <r>    -1.8269     0.0214     2.3468 </r>
       <r>    -1.6860     0.4871     2.4679 </r>
       <r>    -1.5451     0.2136     2.5683 </r>
       <r>    -1.4042     0.3943     2.6771 </r>
       <r>    -1.2633     0.3943     2.7326 </r>
       <r>    -1.1224     0.2981     2.7746 </r>
       <r>    -0.9815     0.1971     2.8299 </r>
       <r>    -0.8405     0.1971     2.8576 </r>
       <r>    -0.6996     0.1971     2.8854 </r>
       <r>    -0.5587     0.0000     2.9410 </r>
       <r>    -0.4178     0.7665     3.0490 </r>
       <r>    -0.2769     0.1971     3.0799 </r>
       <r>    -0.1360     0.0023     3.1149 </r>
       <r>     0.0049     0.1788     3.1676 </r>
       <r>     0.1458     0.0000     3.1701 </r>
       <r>     0.2868     0.0000     3.1701 </r>
       <r>     0.4277     0.5585     3.2488 </r>
       <r>     0.5686     0.1939     3.3317 </r>
       <r>     0.7095     0.0000     3.3322 </r>
       <r>     0.8504     0.3523     3.4374 </r>
       <r>     0.9913     0.0000     3.4433 </r>
       <r>     1.1322     0.9850     3.5821 </r>
       <r>     1.2732     0.0000     3.6794 </r>
       <r>     1.4141     0.0704     3.6893 </r>
       <r>     1.5550     0.0986     3.7350 </r>
       <r>     1.6959     0.0000     3.7350 </r>
       <r>     1.8368     0.3933     3.8737 </r>
       <r>     1.9777     0.6245     4.0730 </r>
       <r>     2.1186     0.1471     4.1168 </r>
       <r>     2.2595     0.0001     4.1655 </r>
       <r>     2.4005     0.1971     4.2211 </r>
       <r>     2.5414     0.1999     4.2770 </r>
       <r>     2.6823     0.2059     4.3334 </r>
       <r>     2.8232     0.3943     4.4225 </r>
       <r>     2.9641     0.3821     4.4763 </r>
       <r>     3.1050     0.5941     4.6451 </r>
       <r>     3.2459     0.2627     4.7095 </r>
       <r>     3.3868     0.7018     4.8084 </r>
       <r>     3.5278     0.0757     4.9424 </r>
       <r>     3.6687     0.1971     5.0220 </r>
       <r>     3.8096     0.5806     5.1177 </r>
       <r>     3.9505     0.0986     5.1887 </r>
       <r>     4.0914     0.8562     5.3093 </r>
       <r>     4.2323     1.0195     5.5962 </r>
       <r>     4.3732     0.1971     5.6470 </r>
       <r>     4.5142     0.2957     5.6887 </r>
       <r>     4.6551     0.1971     5.7720 </r>
       <r>     4.7960     0.0852     5.7840 </r>
       <r>     4.9369     0.1973     5.8554 </r>
       <r>     5.0778     0.3634     5.9760 </r>
       <r>     5.2187     0.6951     6.2866 </r>
       <r>     5.3596     0.4435     6.3623 </r>
       <r>     5.5005     0.0138     6.3642 </r>
       <r>     5.6415     0.3946     6.5012 </r>
       <r>     5.7824     0.2377     6.5485 </r>
       <r>     5.9233     0.0051     6.6547 </r>
       <r>     6.0642     0.0657     6.7187 </r>
       <r>     6.2051     0.5586     6.8252 </r>
       <r>     6.3460     0.1442     6.9057 </r>
       <r>     6.4869     0.3941     7.0521 </r>
       <r>     6.6278     0.4026     7.1366 </r>
       <r>     6.7688     0.0120     7.1649 </r>
       <r>     6.9097     0.3850     7.2869 </r>
       <r>     7.0506     0.4600     7.3808 </r>
       <r>     7.1915     0.3286     7.4826 </r>
       <r>     7.3324     0.0000     7.4965 </r>
       <r>     7.4733     0.4563     7.5886 </r>
       <r>     7.6142     0.1627     7.6213 </r>
       <r>     7.7552     0.0000     7.6470 </r>
       <r>     7.8961     0.0000     7.7025 </r>
       <r>     8.0370     0.0087     7.7038 </r>
       <r>     8.1779     0.2046     7.7916 </r>
       <r>     8.3188     0.0000     7.8183 </r>
       <r>     8.4597     0.2372     7.8517 </r>
       <r>     8.6006     0.0657     7.8692 </r>
       <r>     8.7415     0.0000     7.8692 </r>
       <r>     8.8825     0.2231     7.9192 </r>
       <r>     9.0234     0.0000     7.9572 </r>
       <r>     9.1643     0.0000     7.9572 </r>
       <r>     9.3052     0.0000     7.9641 </r>
       <r>     9.4461     0.0000     7.9641 </r>
       <r>     9.5870     0.0000     7.9965 </r>
       <r>     9.7279     0.0000     7.9965 </r>
       <r>     9.8688     0.0246     8.0000 </r>
       <r>    10.0098     0.0000     8.0000 </r>
       <r>    10.1507     0.0000     8.0000 </r>
       <r>    10.2916     0.0000     8.0000 </r>
       <r>    10.4325     0.0000     8.0000 </r>
       <r>    10.5734     0.0000     8.0000 </r>
       <r>    10.7143     0.0000     8.0000 </r>
       <r>    10.8552     0.0000     8.0000 </r>
       <r>    10.9961     0.0000     8.0000 </r>
       <r>    11.1371     0.0000     8.0000 </r>
       <r>    11.2780     0.0000     8.0000 </r>
       <r>    11.4189     0.0000     8.0000 </r>
       <r>    11.5598     0.0000     8.0000 </r>
       <r>    11.7007     0.0000     8.0000 </r>
       <r>    11.8416     0.0000     8.0000 </r>
       <r>    11.9825     0.0000     8.0000 </r>
       <r>    12.1235     0.0000     8.0000 </r>
       <r>    12.2644     0.0000     8.0000 </r>
       <r>    12.4053     0.0000     8.0000 </r>
       <r>    12.5462     0.0000     8.0000 </r>
       <r>    12.6871     0.0000     8.0000 </r>
       <r>    12.8280     0.0000     8.0000 </r>
       <r>    12.9689     0.0000     8.0000 </r>
       <r>    13.1098     0.0000     8.0000 </r>
       <r>    13.2508     0.0000     8.0000 </r>
       <r>    13.3917     0.0000     8.0000 </r>
       <r>    13.5326     0.0000     8.0000 </r>
       <r>    13.6735     0.0000     8.0000 </r>
       <r>    13.8144     0.0000     8.0000 </r>
       <r>    13.9553     0.0020     8.0003 </r>
       <r>    14.0962     0.0493     8.0139 </r>
       <r>    14.2371     0.0001     8.0139 </r>
       <r>    14.3781     0.0000     8.0208 </r>
       <r>    14.5190     0.0000     8.0486 </r>
       <r>    14.6599     0.3943     8.1111 </r>
       <r>    14.8008     0.0493     8.1181 </r>
       <r>    14.9417     0.0000     8.1181 </r>
       <r>    15.0826     0.6611     8.2251 </r>
       <r>    15.2235     0.0474     8.2497 </r>
       <r>    15.3645     0.2183     8.2808 </r>
       <r>    15.5054     0.0769     8.3199 </r>
       <r>    15.6463     0.1971     8.3924 </r>
       <r>    15.7872     0.4435     8.4549 </r>
       <r>    15.9281     0.6419     8.5916 </r>
       <r>    16.0690     0.0000     8.6539 </r>
       <r>    16.2099     0.1177     8.6798 </r>
       <r>    16.3508     0.1152     8.7489 </r>
       <r>    16.4918     0.0467     8.8226 </r>
       <r>    16.6327     0.3938     8.9687 </r>
       <r>    16.7736     0.4263     9.0566 </r>
       <r>    16.9145     0.1841     9.0827 </r>
       <r>    17.0554     0.6813     9.2361 </r>
       <r>    17.1963     0.1971     9.2928 </r>
       <r>    17.3372     0.0079     9.3032 </r>
       <r>    17.4781     0.4928     9.4549 </r>
       <r>    17.6191     0.7632     9.5902 </r>
       <r>    17.7600     0.3504     9.7241 </r>
       <r>    17.9009     1.3328     9.9181 </r>
       <r>    18.0418     0.4990    10.0506 </r>
       <r>    18.1827     0.3621    10.1239 </r>
       <r>    18.3236     0.1971    10.2025 </r>
       <r>    18.4645     1.4777    10.4386 </r>
       <r>    18.6055     0.2289    10.5913 </r>
       <r>    18.7464     0.2300    10.7118 </r>
       <r>    18.8873     0.5497    10.7893 </r>
       <r>    19.0282     0.4862    11.0442 </r>
       <r>    19.1691     1.1959    11.2831 </r>
       <r>    19.3100     0.1971    11.3507 </r>
       <r>    19.4509     0.3943    11.4340 </r>
       <r>    19.5918     0.1971    11.4618 </r>
       <r>    19.7328     0.3942    11.5174 </r>
       <r>    19.8737     0.3085    11.6164 </r>
       <r>    20.0146     0.3733    11.7505 </r>
       <r>    20.1555     0.0493    11.7882 </r>
       <r>    20.2964     0.0000    11.8437 </r>
       <r>    20.4373     0.0289    11.8756 </r>
       <r>    20.5782     0.2046    12.0531 </r>
       <r>    20.7191     1.1706    12.3281 </r>
       <r>    20.8601     0.4272    12.3901 </r>
       <r>    21.0010     0.3942    12.5798 </r>
       <r>    21.1419     0.9856    12.7187 </r>
       <r>    21.2828     0.1847    12.7448 </r>
       <r>    21.4237     0.0913    12.7872 </r>
       <r>    21.5646     0.0000    12.8437 </r>
       <r>    21.7055     0.0015    12.8717 </r>
       <r>    21.8465     0.1971    12.9549 </r>
       <r>    21.9874     0.3068    12.9981 </r>
       <r>    22.1283     0.5914    13.0937 </r>
       <r>    22.2692     0.2611    13.1444 </r>
       <r>    22.4101     0.3942    13.2326 </r>
       <r>    22.5510     1.1522    13.4506 </r>
       <r>    22.6919     0.1971    13.5451 </r>
       <r>    22.8328     0.4930    13.6146 </r>
       <r>    22.9738     0.3969    13.8372 </r>
       <r>    23.1147     0.3948    13.9202 </r>
       <r>    23.2556     0.2032    14.0321 </r>
       <r>    23.3965     0.5818    14.1144 </r>
       <r>    23.5374     0.7885    14.2847 </r>
       <r>    23.6783     0.4085    14.3701 </r>
       <r>    23.8192     0.5096    14.4676 </r>
       <r>    23.9601     0.2956    14.5995 </r>
       <r>    24.1011     0.7803    14.7373 </r>
       <r>    24.2420     0.5914    14.9051 </r>
       <r>    24.3829     0.1328    14.9516 </r>
       <r>    24.5238     0.0343    14.9655 </r>
       <r>    24.6647     0.6577    15.0626 </r>
       <r>    24.8056     1.2588    15.4251 </r>
       <r>    24.9465     0.5045    15.5410 </r>
       <r>    25.0874     0.1129    15.5830 </r>
       <r>    25.2284     0.0000    15.6319 </r>
       <r>    25.3693     0.5914    15.7153 </r>
       <r>    25.5102     0.5581    15.7939 </r>
       <r>    25.6511     0.0000    15.7986 </r>
       <r>    25.7920     0.4321    15.8595 </r>
       <r>    25.9329     0.0986    15.8958 </r>
       <r>    26.0738     0.0001    15.8958 </r>
       <r>    26.2148     0.3943    15.9653 </r>
       <r>    26.3557     0.1971    15.9931 </r>
       <r>    26.4966     0.0000    15.9931 </r>
       <r>    26.6375     0.0000    15.9931 </r>
       <r>    26.7784     0.0000    16.0000 </r>
       <r>    26.9193     0.0000    16.0000 </r>
       <r>    27.0602     0.0000    16.0000 </r>
       <r>    27.2011     0.0000    16.0000 </r>
       <r>    27.3421     0.0000    16.0000 </r>
       <r>    27.4830     0.0000    16.0000 </r>
       <r>    27.6239     0.0000    16.0000 </r>
       <r>    27.7648     0.0000    16.0000 </r>
       <r>    27.9057     0.0000    16.0000 </r>
       <r>    28.0466     0.0000    16.0000 </r>
       <r>    28.1875     0.0000    16.0000 </r>
       <r>    28.3284     0.0000    16.0000 </r>
       <r>    28.4694     0.0000    16.0000 </r>
       <r>    28.6103     0.0000    16.0000 </r>
      </set>
     </set>
    </array>
   </total>
  </dos>
 </calculation>
 <structure name="finalpos" >
  <crystal>
   <varray name="basis" >
    <v>      -1.78037242       0.00000000       1.78037242 </v>
    <v>       0.00000000       1.78037242       1.78037242 </v>
    <v>      -1.78037242       1.78037242       0.00000000 </v>
   </varray>
   <i name="volume">     11.28658529 </i>
   <varray name="rec_basis" >
    <v>      -0.28084012      -0.28084012       0.28084012 </v>
    <v>       0.28084012       0.28084012       0.28084012 </v>
    <v>      -0.28084012       0.28084012      -0.28084012 </v>
   </varray>
  </crystal>
  <varray name="positions" >
   <v>       0.00000000       0.00000008       0.99999992 </v>
   <v>       0.74999998       0.75000006       0.74999998 </v>
  </varray>
 </structure>
</modeling>
