 
             +---------------------------------------------------+
             |                                                   |
             |                   WANNIER90                       |
             |                                                   |
             +---------------------------------------------------+
             |                                                   |
             |        Welcome to the Maximally-Localized         |
             |        Generalized Wannier Functions code         |
             |            http://www.wannier.org                 |
             |                                                   |
             |                                                   |
             |  Wannier90 Developer Group:                       |
             |    Giovanni Pizzi    (EPFL)                       |
             |    Valerio Vitale    (Cambridge)                  |
             |    David Vanderbilt  (Rutgers University)         |
             |    Nicola Marzari    (EPFL)                       |
             |    Ivo Souza         (Universidad del Pais Vasco) |
             |    Arash A. Mostofi  (Imperial College London)    |
             |    Jonathan R. Yates (University of Oxford)       |
             |                                                   |
             |  For the full list of Wannier90 3.x authors,      |
             |  please check the code documentation and the      |
             |  README on the GitHub page of the code            |
             |                                                   |
             |                                                   |
             |  Please cite                                      |
             |                                                   |
             |  [ref] "Wannier90 as a community code:            |
             |        new features and applications",            |
             |        G. Pizzi et al., J. Phys. Cond. Matt. 32,  |
             |        165902 (2020).                             |
             |        http://doi.org/10.1088/1361-648X/ab51ff    |
             |                                                   |
             |  in any publications arising from the use of      |
             |  this code. For the method please cite            |
             |                                                   |
             |  [ref] "Maximally Localized Generalised Wannier   |
             |         Functions for Composite Energy Bands"     |
             |         N. Marzari and D. Vanderbilt              |
             |         Phys. Rev. B 56 12847 (1997)              |
             |                                                   |
             |  [ref] "Maximally Localized Wannier Functions     |
             |         for Entangled Energy Bands"               |
             |         I. Souza, N. Marzari and D. Vanderbilt    |
             |         Phys. Rev. B 65 035109 (2001)             |
             |                                                   |
             |                                                   |
             | Copyright (c) 1996-2020                           |
             |        The Wannier90 Developer Group and          |
             |        individual contributors                    |
             |                                                   |
             |      Release: 3.1.0        5th March    2020      |
             |                                                   |
             | This program is free software; you can            |
             | redistribute it and/or modify it under the terms  |
             | of the GNU General Public License as published by |
             | the Free Software Foundation; either version 2 of |
             | the License, or (at your option) any later version|
             |                                                   |
             | This program is distributed in the hope that it   |
             | will be useful, but WITHOUT ANY WARRANTY; without |
             | even the implied warranty of MERCHANTABILITY or   |
             | FITNESS FOR A PARTICULAR PURPOSE. See the GNU     |
             | General Public License for more details.          |
             |                                                   |
             | You should have received a copy of the GNU General|
             | Public License along with this program; if not,   |
             | write to the Free Software Foundation, Inc.,      |
             | 675 Mass Ave, Cambridge, MA 02139, USA.           |
             |                                                   |
             +---------------------------------------------------+
             |    Execution started on  3Jan2024 at 20:25:41     |
             +---------------------------------------------------+
 
 ******************************************************************************
 * -> Using CODATA 2006 constant values                                       *
 *    (http://physics.nist.gov/cuu/Constants/index.html)                      *
 * -> Using Bohr value from CODATA                                            *
 ******************************************************************************
 

 Running in parallel on   8 CPUs

 
                                    ------
                                    SYSTEM
                                    ------
 
                              Lattice Vectors (Ang)
                    a_1     8.064590   0.000000   0.000000
                    a_2     0.000000   8.776006   0.000000
                    a_3     0.000000   0.000000  12.083062
 
                   Unit Cell Volume:     855.17739  (Ang^3)
 
                        Reciprocal-Space Vectors (Ang^-1)
                    b_1     0.779108   0.000000   0.000000
                    b_2     0.000000   0.715950   0.000000
                    b_3     0.000000   0.000000   0.519999
  
 *----------------------------------------------------------------------------*
 |   Site       Fractional Coordinate          Cartesian Coordinate (Ang)     |
 +----------------------------------------------------------------------------+
 | H    1   0.50874   0.65523   0.68073   |    4.10274   5.75026   8.22530    |
 | H    2   0.00874   0.84478   0.81927   |    0.07044   7.41375   9.89929    |
 | H    3   0.49127   0.34478   0.18073   |    3.96185   3.02575   2.18377    |
 | H    4   0.99127   0.15523   0.31927   |    7.99415   1.36226   3.85776    |
 | H    5   0.49127   0.34478   0.31927   |    3.96185   3.02575   3.85776    |
 | H    6   0.99127   0.15523   0.18073   |    7.99415   1.36226   2.18377    |
 | H    7   0.50874   0.65523   0.81927   |    4.10274   5.75026   9.89929    |
 | H    8   0.00874   0.84478   0.68073   |    0.07044   7.41375   8.22530    |
 | H    9   0.67827   0.59530   0.75000   |    5.46999   5.22439   9.06230    |
 | H   10   0.17827   0.90470   0.75000   |    1.43769   7.93962   9.06230    |
 | H   11   0.32173   0.40470   0.25000   |    2.59460   3.55161   3.02077    |
 | H   12   0.82173   0.09530   0.25000   |    6.62690   0.83639   3.02077    |
 | H   13   0.52403   0.37841   0.67564   |    4.22607   3.32094   8.16374    |
 | H   14   0.02403   0.12159   0.82437   |    0.19378   1.06707   9.96085    |
 | H   15   0.47597   0.62159   0.17564   |    3.83852   5.45507   2.12221    |
 | H   16   0.97597   0.87841   0.32437   |    7.87081   7.70894   3.91932    |
 | H   17   0.47597   0.62159   0.32437   |    3.83852   5.45507   3.91932    |
 | H   18   0.97597   0.87841   0.17564   |    7.87081   7.70894   2.12221    |
 | H   19   0.52403   0.37841   0.82437   |    4.22607   3.32094   9.96085    |
 | H   20   0.02403   0.12159   0.67564   |    0.19378   1.06707   8.16374    |
 | H   21   0.34587   0.44386   0.75000   |    2.78929   3.89534   9.06230    |
 | H   22   0.84587   0.05614   0.75000   |    6.82159   0.49267   9.06230    |
 | H   23   0.65413   0.55614   0.25000   |    5.27530   4.88067   3.02077    |
 | H   24   0.15413   0.94386   0.25000   |    1.24300   8.28334   3.02077    |
 | Pb   1   0.50000   0.00000   0.00000   |    4.03230   0.00000   0.00000    |
 | Pb   2   0.00000   0.50000   0.50000   |    0.00000   4.38800   6.04153    |
 | Pb   3   0.50000   0.00000   0.50000   |    4.03230   0.00000   6.04153    |
 | Pb   4   0.00000   0.50000   0.00000   |    0.00000   4.38800   0.00000    |
 | C    1   0.48107   0.43775   0.75000   |    3.87959   3.84168   9.06230    |
 | C    2   0.98107   0.06225   0.75000   |    7.91189   0.54632   9.06230    |
 | C    3   0.51894   0.56225   0.25000   |    4.18500   4.93433   3.02077    |
 | C    4   0.01894   0.93775   0.25000   |    0.15270   8.22968   3.02077    |
 | Br   1   0.46697   0.01812   0.75000   |    3.76593   0.15898   9.06230    |
 | Br   2   0.96697   0.48189   0.75000   |    7.79823   4.22903   9.06230    |
 | Br   3   0.53303   0.98189   0.25000   |    4.29866   8.61703   3.02077    |
 | Br   4   0.03303   0.51812   0.25000   |    0.26637   4.54698   3.02077    |
 | Br   5   0.79578   0.78895   0.97064   |    6.41761   6.92386  11.72830    |
 | Br   6   0.29578   0.71105   0.52936   |    2.38531   6.24015   6.39629    |
 | Br   7   0.20422   0.21105   0.47064   |    1.64698   1.85215   5.68677    |
 | Br   8   0.70422   0.28895   0.02936   |    5.67928   2.53585   0.35476    |
 | Br   9   0.20422   0.21105   0.02936   |    1.64698   1.85215   0.35476    |
 | Br  10   0.70422   0.28895   0.47064   |    5.67928   2.53585   5.68677    |
 | Br  11   0.79578   0.78895   0.52936   |    6.41761   6.92386   6.39629    |
 | Br  12   0.29578   0.71105   0.97064   |    2.38531   6.24015  11.72830    |
 | N    1   0.54914   0.59625   0.75000   |    4.42855   5.23269   9.06230    |
 | N    2   0.04914   0.90375   0.75000   |    0.39625   7.93132   9.06230    |
 | N    3   0.45087   0.40375   0.25000   |    3.63604   3.54331   3.02077    |
 | N    4   0.95087   0.09625   0.25000   |    7.66834   0.84469   3.02077    |
 *----------------------------------------------------------------------------*
                                ------------
                                K-POINT GRID
                                ------------
  
             Grid size =  4 x  4 x  4      Total points =   64
  
  
 *---------------------------------- MAIN ------------------------------------*
 |  Number of Wannier Functions               :                36             |
 |  Number of Objective Wannier Functions     :                36             |
 |  Number of input Bloch states              :                36             |
 |  Output verbosity (1=low, 5=high)          :                 1             |
 |  Timing Level (1=low, 5=high)              :                 1             |
 |  Optimisation (0=memory, 3=speed)          :                 3             |
 |  Length Unit                               :               Ang             |
 |  Post-processing setup (write *.nnkp)      :                 F             |
 |  Using Gamma-only branch of algorithms     :                 F             |
 *----------------------------------------------------------------------------*
 *------------------------------- WANNIERISE ---------------------------------*
 |  Total number of iterations                :               500             |
 |  Number of CG steps before reset           :                 5             |
 |  Trial step length for line search         :             2.000             |
 |  Convergence tolerence                     :         0.100E-09             |
 |  Convergence window                        :                -1             |
 |  Iterations between writing output         :                 1             |
 |  Iterations between backing up to disk     :               100             |
 |  Write r^2_nm to file                      :                 F             |
 |  Write xyz WF centres to file              :                 F             |
 |  Write on-site energies <0n|H|0n> to file  :                 F             |
 |  Use guiding centre to control phases      :                 F             |
 |  Use phases for initial projections        :                 F             |
 *----------------------------------------------------------------------------*
 Time to read parameters        0.013 (sec)

 *---------------------------------- K-MESH ----------------------------------*
 +----------------------------------------------------------------------------+
 |                    Distance to Nearest-Neighbour Shells                    |
 |                    ------------------------------------                    |
 |          Shell             Distance (Ang^-1)          Multiplicity         |
 |          -----             -----------------          ------------         |
 |             1                   0.130000                      2            |
 |             2                   0.178988                      2            |
 |             3                   0.194777                      2            |
 |             4                   0.221216                      4            |
 |             5                   0.234175                      4            |
 |             6                   0.260000                      2            |
 |             7                   0.264527                      4            |
 |             8                   0.294745                      8            |
 |             9                   0.315652                      4            |
 |            10                   0.324866                      4            |
 |            11                   0.357975                      2            |
 |            12                   0.370910                      8            |
 |            13                   0.380849                      4            |
 |            14                   0.389554                      2            |
 |            15                   0.390000                      2            |
 |            16                   0.407534                      4            |
 |            17                   0.410673                      4            |
 |            18                   0.427767                      8            |
 |            19                   0.428706                      4            |
 |            20                   0.429111                      4            |
 |            21                   0.435933                      4            |
 |            22                   0.442432                      4            |
 |            23                   0.447983                      8            |
 |            24                   0.468350                      4            |
 |            25                   0.471248                      8            |
 |            26                   0.483409                      8            |
 |            27                   0.501387                      8            |
 |            28                   0.519999                      2            |
 |            29                   0.529054                      4            |
 |            30                   0.529383                      4            |
 |            31                   0.536963                      2            |
 |            32                   0.544792                      8            |
 |            33                   0.549942                      4            |
 |            34                   0.551228                      4            |
 |            35                   0.552475                      4            |
 |            36                   0.555281                      4            |
 +----------------------------------------------------------------------------+
 | The b-vectors are chosen automatically                                     |
 | The following shells are used:   1,  2,  3                                 |
 +----------------------------------------------------------------------------+
 |                        Shell   # Nearest-Neighbours                        |
 |                        -----   --------------------                        |
 |                          1               2                                 |
 |                          2               2                                 |
 |                          3               2                                 |
 +----------------------------------------------------------------------------+
 | Completeness relation is fully satisfied [Eq. (B1), PRB 56, 12847 (1997)]  |
 +----------------------------------------------------------------------------+
 |                  b_k Vectors (Ang^-1) and Weights (Ang^2)                  |
 |                  ----------------------------------------                  |
 |            No.         b_k(x)      b_k(y)      b_k(z)        w_b           |
 |            ---        --------------------------------     --------        |
 |             1         0.000000    0.000000    0.130000    29.585864        |
 |             2         0.000000    0.000000   -0.130000    29.585864        |
 |             3         0.000000    0.178988    0.000000    15.607167        |
 |             4         0.000000   -0.178988    0.000000    15.607167        |
 |             5         0.194777    0.000000    0.000000    13.179376        |
 |             6        -0.194777    0.000000    0.000000    13.179376        |
 +----------------------------------------------------------------------------+
 |                           b_k Directions (Ang^-1)                          |
 |                           -----------------------                          |
 |            No.           x           y           z                         |
 |            ---        --------------------------------                     |
 |             1         0.000000    0.000000    0.130000                     |
 |             2         0.000000    0.178988    0.000000                     |
 |             3         0.194777    0.000000    0.000000                     |
 +----------------------------------------------------------------------------+
  
 Time to get kmesh              0.061 (sec)
 *============================================================================*
 |                              MEMORY ESTIMATE                               |
 |         Maximum RAM allocated during each phase of the calculation         |
 *============================================================================*
 |                            Wannierise:           20.93 Mb                  |
 |                          plot_wannier:           20.93 Mb                  |
 *----------------------------------------------------------------------------*
  
 Starting a new Wannier90 calculation ...


 Reading overlaps from mp-732337.mmn    :  Created on  3Jan2024 at 19:49: 0

 Reading projections from mp-732337.amn :  Created on  3Jan2024 at 19:41:41  with SCDM

 Time to read overlaps          0.522 (sec)

 Writing checkpoint file mp-732337.chk... done

 
 *------------------------------- WANNIERISE ---------------------------------*
 +--------------------------------------------------------------------+<-- CONV
 | Iter  Delta Spread     RMS Gradient      Spread (Ang^2)      Time  |<-- CONV
 +--------------------------------------------------------------------+<-- CONV
 
 ------------------------------------------------------------------------------
 Initial State
  WF centre and spread    1  ( -2.381173,  2.530382,  0.346479 )     2.03438162
  WF centre and spread    2  (  1.651121,  1.857621,  5.695051 )     2.03437819
  WF centre and spread    3  (  2.381173, -2.530382, -5.695050 )     2.03437850
  WF centre and spread    4  ( -1.651121, -1.857620, -0.346480 )     2.03437798
  WF centre and spread    5  (  1.649132,  1.864459,  0.346819 )     2.04392217
  WF centre and spread    6  ( -1.649132, -1.864458, -5.694711 )     2.04392163
  WF centre and spread    7  (  2.383164, -2.523543, -0.346818 )     2.04392306
  WF centre and spread    8  ( -2.383163,  2.523543,  5.694712 )     2.04392108
  WF centre and spread    9  (  0.266703, -4.251163,  3.024900 )     1.99293511
  WF centre and spread   10  ( -0.266703,  4.251163, -3.016628 )     1.99293782
  WF centre and spread   11  (  3.765592,  0.136840, -3.024899 )     1.99293223
  WF centre and spread   12  ( -3.765591, -0.136840,  3.016630 )     1.99293690
  WF centre and spread   13  (  0.299025, -4.258060,  3.022817 )     2.18335006
  WF centre and spread   14  ( -0.299023, -4.517946, -3.018712 )     2.18334690
  WF centre and spread   15  ( -3.733269, -0.129942,  3.018713 )     2.18334828
  WF centre and spread   16  (  3.733271,  0.129942, -3.022815 )     2.18334576
  WF centre and spread   17  ( -2.403789,  2.563833,  0.389431 )     2.17190955
  WF centre and spread   18  ( -1.628198, -1.825302, -5.652420 )     2.17257630
  WF centre and spread   19  (  1.628199,  1.825304,  0.389111 )     2.17257334
  WF centre and spread   20  (  2.403790, -2.563832, -5.652098 )     2.17190588
  WF centre and spread   21  (  2.404097, -2.562698, -0.389110 )     2.17257244
  WF centre and spread   22  (  1.628505,  1.824171,  5.652099 )     2.17190610
  WF centre and spread   23  ( -2.404095,  2.562699,  5.652421 )     2.17257453
  WF centre and spread   24  ( -1.628505, -1.824169, -0.389431 )     2.17190583
  WF centre and spread   25  (  2.343240, -2.454190, -5.748990 )     3.98264002
  WF centre and spread   26  ( -1.689055, -1.933810, -0.292540 )     3.98263894
  WF centre and spread   27  (  1.689057,  1.933811,  5.748991 )     3.98263771
  WF centre and spread   28  ( -2.343239,  2.454191,  0.292539 )     3.98264388
  WF centre and spread   29  (  0.211840, -4.267402,  3.009015 )     4.13505215
  WF centre and spread   30  ( -3.820455, -0.120600,  3.032518 )     4.13504846
  WF centre and spread   31  ( -1.699653, -1.919750, -5.746322 )     3.97808957
  WF centre and spread   32  (  2.332641, -2.468253, -0.295209 )     3.97809679
  WF centre and spread   33  ( -2.332639,  2.468254,  5.746323 )     3.97809412
  WF centre and spread   34  (  1.699656,  1.919750,  0.295208 )     3.97809661
  WF centre and spread   35  ( -0.211840,  4.267403, -3.032514 )     4.13504817
  WF centre and spread   36  (  3.820455,  0.120600, -3.009011 )     4.13505129
  Sum of centres and spreads (  0.000014, -8.775990,  0.000019 )    98.77939897
 
      0     0.988E+02     0.0000000000       98.7793989683       0.00  <-- CONV
        O_D=      0.0080282 O_OD=      4.0563686 O_TOT=     98.7793990 <-- SPRD
 ------------------------------------------------------------------------------
 Cycle:      1
  WF centre and spread    1  ( -2.382718,  2.532443,  0.346065 )     1.99369811
  WF centre and spread    2  (  1.649576,  1.855560,  5.695465 )     1.99368859
  WF centre and spread    3  (  2.382718, -2.532442, -5.695464 )     1.99369153
  WF centre and spread    4  ( -1.649576, -1.855559, -0.346065 )     1.99369340
  WF centre and spread    5  (  1.646711,  1.861235,  0.346415 )     1.99380213
  WF centre and spread    6  ( -1.646711, -1.861234, -5.695115 )     1.99379834
  WF centre and spread    7  (  2.385585, -2.526767, -0.346414 )     1.99380236
  WF centre and spread    8  ( -2.385584,  2.526768,  5.695116 )     1.99379926
  WF centre and spread    9  (  0.268013, -4.247921,  3.023895 )     1.94454752
  WF centre and spread   10  ( -0.268014,  4.247922, -3.017633 )     1.94454974
  WF centre and spread   11  (  3.764281,  0.140081, -3.023893 )     1.94454521
  WF centre and spread   12  ( -3.764281, -0.140081,  3.017634 )     1.94454976
  WF centre and spread   13  (  0.301417, -4.257524,  3.022784 )     2.13979277
  WF centre and spread   14  ( -0.301416, -4.518481, -3.018744 )     2.13978778
  WF centre and spread   15  ( -3.730877, -0.130478,  3.018746 )     2.13978771
  WF centre and spread   16  (  3.730878,  0.130478, -3.022782 )     2.13978951
  WF centre and spread   17  ( -2.405234,  2.565085,  0.391927 )     2.13080536
  WF centre and spread   18  ( -1.625769, -1.824682, -5.649789 )     2.12600885
  WF centre and spread   19  (  1.625770,  1.824684,  0.391741 )     2.12601376
  WF centre and spread   20  (  2.405235, -2.565084, -5.649602 )     2.13079485
  WF centre and spread   21  (  2.406526, -2.563319, -0.391740 )     2.12601214
  WF centre and spread   22  (  1.627060,  1.822919,  5.649603 )     2.13079649
  WF centre and spread   23  ( -2.406524,  2.563319,  5.649790 )     2.12600697
  WF centre and spread   24  ( -1.627059, -1.822917, -0.391927 )     2.13080197
  WF centre and spread   25  (  2.343792, -2.458011, -5.745839 )     3.89359719
  WF centre and spread   26  ( -1.688503, -1.929989, -0.295691 )     3.89359118
  WF centre and spread   27  (  1.688504,  1.929991,  5.745840 )     3.89358667
  WF centre and spread   28  ( -2.343791,  2.458012,  0.295690 )     3.89359826
  WF centre and spread   29  (  0.214268, -4.265859,  3.013058 )     4.05490295
  WF centre and spread   30  ( -3.818026, -0.122143,  3.028474 )     4.05490368
  WF centre and spread   31  ( -1.696303, -1.919718, -5.744493 )     3.90572470
  WF centre and spread   32  (  2.335992, -2.468284, -0.297038 )     3.90573877
  WF centre and spread   33  ( -2.335990,  2.468285,  5.744494 )     3.90572326
  WF centre and spread   34  (  1.696304,  1.919718,  0.297037 )     3.90573264
  WF centre and spread   35  ( -0.214268,  4.265860, -3.028470 )     4.05489783
  WF centre and spread   36  (  3.818027,  0.122142, -3.013054 )     4.05491227
  Sum of centres and spreads (  0.000014, -8.775989,  0.000019 )    96.73147354
 
      1    -0.205E+01     2.2258832400       96.7314735355       0.01  <-- CONV
        O_D=      0.0064019 O_OD=      2.0100696 O_TOT=     96.7314735 <-- SPRD
 Delta: O_D= -0.1626366E-02 O_OD= -0.2046299E+01 O_TOT= -0.2047925E+01 <-- DLTA
 ------------------------------------------------------------------------------
 Cycle:      2
  WF centre and spread    1  ( -2.383224,  2.532982,  0.345720 )     1.98525384
  WF centre and spread    2  (  1.649070,  1.855021,  5.695809 )     1.98524813
  WF centre and spread    3  (  2.383224, -2.532981, -5.695809 )     1.98525181
  WF centre and spread    4  ( -1.649070, -1.855020, -0.345721 )     1.98524960
  WF centre and spread    5  (  1.645978,  1.860251,  0.346041 )     1.98318454
  WF centre and spread    6  ( -1.645978, -1.860250, -5.695488 )     1.98317758
  WF centre and spread    7  (  2.386318, -2.527752, -0.346040 )     1.98317401
  WF centre and spread    8  ( -2.386317,  2.527752,  5.695490 )     1.98317642
  WF centre and spread    9  (  0.268275, -4.246900,  3.023714 )     1.93276262
  WF centre and spread   10  ( -0.268276,  4.246900, -3.017814 )     1.93276921
  WF centre and spread   11  (  3.764019,  0.141103, -3.023712 )     1.93276545
  WF centre and spread   12  ( -3.764019, -0.141103,  3.017816 )     1.93276649
  WF centre and spread   13  (  0.302049, -4.257355,  3.022792 )     2.12810668
  WF centre and spread   14  ( -0.302048, -4.518651, -3.018737 )     2.12810388
  WF centre and spread   15  ( -3.730245, -0.130647,  3.018739 )     2.12810497
  WF centre and spread   16  (  3.730246,  0.130647, -3.022790 )     2.12810821
  WF centre and spread   17  ( -2.405696,  2.565246,  0.392639 )     2.12043525
  WF centre and spread   18  ( -1.625215, -1.824500, -5.649067 )     2.11600405
  WF centre and spread   19  (  1.625216,  1.824502,  0.392463 )     2.11600689
  WF centre and spread   20  (  2.405697, -2.565245, -5.648890 )     2.12043070
  WF centre and spread   21  (  2.407080, -2.563500, -0.392463 )     2.11600348
  WF centre and spread   22  (  1.626599,  1.822758,  5.648891 )     2.12042776
  WF centre and spread   23  ( -2.407078,  2.563501,  5.649068 )     2.11599721
  WF centre and spread   24  ( -1.626597, -1.822756, -0.392639 )     2.12043687
  WF centre and spread   25  (  2.343499, -2.459296, -5.745189 )     3.87817140
  WF centre and spread   26  ( -1.688796, -1.928704, -0.296341 )     3.87816757
  WF centre and spread   27  (  1.688797,  1.928706,  5.745190 )     3.87816275
  WF centre and spread   28  ( -2.343498,  2.459298,  0.296340 )     3.87817222
  WF centre and spread   29  (  0.214737, -4.265479,  3.014188 )     4.03598647
  WF centre and spread   30  ( -3.817557, -0.122523,  3.027344 )     4.03599854
  WF centre and spread   31  ( -1.695354, -1.920083, -5.744291 )     3.89247614
  WF centre and spread   32  (  2.336941, -2.467918, -0.297240 )     3.89249880
  WF centre and spread   33  ( -2.336939,  2.467919,  5.744292 )     3.89248586
  WF centre and spread   34  (  1.695356,  1.920084,  0.297238 )     3.89248248
  WF centre and spread   35  ( -0.214738,  4.265481, -3.027340 )     4.03599467
  WF centre and spread   36  (  3.817558,  0.122522, -3.014184 )     4.03600079
  Sum of centres and spreads (  0.000014, -8.775990,  0.000019 )    96.28954333
 
      2    -0.442E+00     1.7710395553       96.2895433298       0.03  <-- CONV
        O_D=      0.0046413 O_OD=      1.5698999 O_TOT=     96.2895433 <-- SPRD
 Delta: O_D= -0.1760537E-02 O_OD= -0.4401697E+00 O_TOT= -0.4419302E+00 <-- DLTA
 ------------------------------------------------------------------------------
 Cycle:      3
  WF centre and spread    1  ( -2.383464,  2.533201,  0.345534 )     1.98305681
  WF centre and spread    2  (  1.648831,  1.854802,  5.695996 )     1.98306624
  WF centre and spread    3  (  2.383464, -2.533200, -5.695995 )     1.98307362
  WF centre and spread    4  ( -1.648830, -1.854801, -0.345534 )     1.98306454
  WF centre and spread    5  (  1.645628,  1.859791,  0.345821 )     1.97975095
  WF centre and spread    6  ( -1.645628, -1.859790, -5.695708 )     1.97974540
  WF centre and spread    7  (  2.386668, -2.528212, -0.345821 )     1.97971770
  WF centre and spread    8  ( -2.386667,  2.528212,  5.695709 )     1.97973463
  WF centre and spread    9  (  0.268381, -4.246435,  3.023662 )     1.92986761
  WF centre and spread   10  ( -0.268381,  4.246436, -3.017866 )     1.92989493
  WF centre and spread   11  (  3.763914,  0.141567, -3.023660 )     1.92988195
  WF centre and spread   12  ( -3.763913, -0.141567,  3.017869 )     1.92987763
  WF centre and spread   13  (  0.302302, -4.257254,  3.022799 )     2.12493270
  WF centre and spread   14  ( -0.302301, -4.518751, -3.018730 )     2.12494122
  WF centre and spread   15  ( -3.729992, -0.130748,  3.018732 )     2.12494203
  WF centre and spread   16  (  3.729993,  0.130748, -3.022797 )     2.12493935
  WF centre and spread   17  ( -2.405887,  2.565291,  0.392915 )     2.11689396
  WF centre and spread   18  ( -1.625001, -1.824416, -5.648791 )     2.11237565
  WF centre and spread   19  (  1.625002,  1.824418,  0.392740 )     2.11237984
  WF centre and spread   20  (  2.405889, -2.565289, -5.648615 )     2.11690439
  WF centre and spread   21  (  2.407293, -2.563585, -0.392739 )     2.11235528
  WF centre and spread   22  (  1.626407,  1.822714,  5.648616 )     2.11687547
  WF centre and spread   23  ( -2.407292,  2.563585,  5.648792 )     2.11235221
  WF centre and spread   24  ( -1.626406, -1.822711, -0.392915 )     2.11690783
  WF centre and spread   25  (  2.343318, -2.459894, -5.744903 )     3.87571886
  WF centre and spread   26  ( -1.688977, -1.928106, -0.296627 )     3.87572336
  WF centre and spread   27  (  1.688979,  1.928108,  5.744904 )     3.87569891
  WF centre and spread   28  ( -2.343316,  2.459895,  0.296626 )     3.87571063
  WF centre and spread   29  (  0.214910, -4.265349,  3.014661 )     4.03243928
  WF centre and spread   30  ( -3.817384, -0.122653,  3.026870 )     4.03246375
  WF centre and spread   31  ( -1.694983, -1.920304, -5.744236 )     3.88995968
  WF centre and spread   32  (  2.337311, -2.467697, -0.297295 )     3.89001812
  WF centre and spread   33  ( -2.337310,  2.467698,  5.744236 )     3.88998621
  WF centre and spread   34  (  1.694985,  1.920305,  0.297294 )     3.88997581
  WF centre and spread   35  ( -0.214910,  4.265351, -3.026866 )     4.03245328
  WF centre and spread   36  (  3.817385,  0.122652, -3.014657 )     4.03246356
  Sum of centres and spreads (  0.000014, -8.775990,  0.000019 )    96.18014339
 
      3    -0.109E+00     0.9087774667       96.1801433942       0.04  <-- CONV
        O_D=      0.0042871 O_OD=      1.4608541 O_TOT=     96.1801434 <-- SPRD
 Delta: O_D= -0.3541708E-03 O_OD= -0.1090458E+00 O_TOT= -0.1093999E+00 <-- DLTA
 ------------------------------------------------------------------------------
 Cycle:      4
  WF centre and spread    1  ( -2.383626,  2.533354,  0.345379 )     1.98195149
  WF centre and spread    2  (  1.648669,  1.854649,  5.696151 )     1.98196434
  WF centre and spread    3  (  2.383626, -2.533354, -5.696150 )     1.98197388
  WF centre and spread    4  ( -1.648668, -1.854648, -0.345379 )     1.98196035
  WF centre and spread    5  (  1.645378,  1.859450,  0.345635 )     1.97777087
  WF centre and spread    6  ( -1.645378, -1.859449, -5.695894 )     1.97778074
  WF centre and spread    7  (  2.386917, -2.528553, -0.345634 )     1.97775004
  WF centre and spread    8  ( -2.386917,  2.528553,  5.695896 )     1.97776293
  WF centre and spread    9  (  0.268453, -4.246101,  3.023643 )     1.92868499
  WF centre and spread   10  ( -0.268453,  4.246101, -3.017885 )     1.92869332
  WF centre and spread   11  (  3.763841,  0.141902, -3.023641 )     1.92869100
  WF centre and spread   12  ( -3.763841, -0.141902,  3.017888 )     1.92869440
  WF centre and spread   13  (  0.302490, -4.257185,  3.022805 )     2.12325753
  WF centre and spread   14  ( -0.302489, -4.518820, -3.018723 )     2.12327912
  WF centre and spread   15  ( -3.729804, -0.130817,  3.018725 )     2.12327690
  WF centre and spread   16  (  3.729805,  0.130817, -3.022803 )     2.12325621
  WF centre and spread   17  ( -2.406012,  2.565323,  0.393121 )     2.11471222
  WF centre and spread   18  ( -1.624861, -1.824351, -5.648585 )     2.11002076
  WF centre and spread   19  (  1.624862,  1.824353,  0.392945 )     2.11002277
  WF centre and spread   20  (  2.406014, -2.565322, -5.648409 )     2.11473969
  WF centre and spread   21  (  2.407434, -2.563650, -0.392945 )     2.10999630
  WF centre and spread   22  (  1.626282,  1.822681,  5.648410 )     2.11470286
  WF centre and spread   23  ( -2.407432,  2.563650,  5.648586 )     2.11000645
  WF centre and spread   24  ( -1.626281, -1.822679, -0.393121 )     2.11472725
  WF centre and spread   25  (  2.343199, -2.460313, -5.744713 )     3.87543582
  WF centre and spread   26  ( -1.689096, -1.927687, -0.296818 )     3.87544721
  WF centre and spread   27  (  1.689097,  1.927689,  5.744713 )     3.87542793
  WF centre and spread   28  ( -2.343198,  2.460314,  0.296816 )     3.87542654
  WF centre and spread   29  (  0.215007, -4.265279,  3.014973 )     4.03145911
  WF centre and spread   30  ( -3.817287, -0.122723,  3.026558 )     4.03148311
  WF centre and spread   31  ( -1.694756, -1.920450, -5.744206 )     3.88871261
  WF centre and spread   32  (  2.337539, -2.467552, -0.297325 )     3.88876133
  WF centre and spread   33  ( -2.337537,  2.467553,  5.744207 )     3.88873046
  WF centre and spread   34  (  1.694758,  1.920450,  0.297323 )     3.88872627
  WF centre and spread   35  ( -0.215007,  4.265280, -3.026554 )     4.03147125
  WF centre and spread   36  (  3.817288,  0.122722, -3.014970 )     4.03147483
  Sum of centres and spreads (  0.000014, -8.775990,  0.000019 )    96.12823286
 
      4    -0.519E-01     0.7137206569       96.1282328563       0.05  <-- CONV
        O_D=      0.0041951 O_OD=      1.4090356 O_TOT=     96.1282329 <-- SPRD
 Delta: O_D= -0.9199591E-04 O_OD= -0.5181854E-01 O_TOT= -0.5191054E-01 <-- DLTA
 ------------------------------------------------------------------------------
 Cycle:      5
  WF centre and spread    1  ( -2.383793,  2.533521,  0.345197 )     1.98098627
  WF centre and spread    2  (  1.648502,  1.854482,  5.696332 )     1.98099401
  WF centre and spread    3  (  2.383793, -2.533521, -5.696332 )     1.98100259
  WF centre and spread    4  ( -1.648501, -1.854481, -0.345198 )     1.98098742
  WF centre and spread    5  (  1.645104,  1.859066,  0.345412 )     1.97602178
  WF centre and spread    6  ( -1.645104, -1.859065, -5.696117 )     1.97603837
  WF centre and spread    7  (  2.387191, -2.528936, -0.345411 )     1.97601307
  WF centre and spread    8  ( -2.387191,  2.528937,  5.696119 )     1.97602126
  WF centre and spread    9  (  0.268532, -4.245733,  3.023646 )     1.92768030
  WF centre and spread   10  ( -0.268532,  4.245733, -3.017882 )     1.92766170
  WF centre and spread   11  (  3.763762,  0.142270, -3.023644 )     1.92766644
  WF centre and spread   12  ( -3.763762, -0.142269,  3.017884 )     1.92767869
  WF centre and spread   13  (  0.302702, -4.257114,  3.022821 )     2.12162651
  WF centre and spread   14  ( -0.302701, -4.518892, -3.018707 )     2.12164715
  WF centre and spread   15  ( -3.729592, -0.130888,  3.018709 )     2.12164858
  WF centre and spread   16  (  3.729593,  0.130888, -3.022819 )     2.12160607
  WF centre and spread   17  ( -2.406134,  2.565367,  0.393367 )     2.11269286
  WF centre and spread   18  ( -1.624717, -1.824274, -5.648341 )     2.10783757
  WF centre and spread   19  (  1.624718,  1.824276,  0.393189 )     2.10784314
  WF centre and spread   20  (  2.406136, -2.565366, -5.648162 )     2.11272354
  WF centre and spread   21  (  2.407578, -2.563726, -0.393188 )     2.10782250
  WF centre and spread   22  (  1.626160,  1.822637,  5.648163 )     2.11269083
  WF centre and spread   23  ( -2.407576,  2.563727,  5.648342 )     2.10783416
  WF centre and spread   24  ( -1.626159, -1.822635, -0.393367 )     2.11271212
  WF centre and spread   25  (  2.343113, -2.460755, -5.744506 )     3.87587973
  WF centre and spread   26  ( -1.689182, -1.927245, -0.297025 )     3.87589409
  WF centre and spread   27  (  1.689184,  1.927247,  5.744506 )     3.87588146
  WF centre and spread   28  ( -2.343111,  2.460756,  0.297024 )     3.87587588
  WF centre and spread   29  (  0.215100, -4.265207,  3.015272 )     4.03067520
  WF centre and spread   30  ( -3.817194, -0.122795,  3.026259 )     4.03070306
  WF centre and spread   31  ( -1.694530, -1.920586, -5.744177 )     3.88779894
  WF centre and spread   32  (  2.337764, -2.467416, -0.297354 )     3.88784502
  WF centre and spread   33  ( -2.337763,  2.467416,  5.744177 )     3.88780999
  WF centre and spread   34  (  1.694532,  1.920587,  0.297353 )     3.88780392
  WF centre and spread   35  ( -0.215100,  4.265208, -3.026255 )     4.03069271
  WF centre and spread   36  (  3.817195,  0.122795, -3.015268 )     4.03068062
  Sum of centres and spreads (  0.000014, -8.775990,  0.000019 )    96.08497752
 
      5    -0.433E-01     0.5797900235       96.0849775230       0.06  <-- CONV
        O_D=      0.0041350 O_OD=      1.3658404 O_TOT=     96.0849775 <-- SPRD
 Delta: O_D= -0.6016321E-04 O_OD= -0.4319517E-01 O_TOT= -0.4325533E-01 <-- DLTA
 ------------------------------------------------------------------------------
 Cycle:      6
  WF centre and spread    1  ( -2.383903,  2.533638,  0.345065 )     1.98036519
  WF centre and spread    2  (  1.648391,  1.854365,  5.696465 )     1.98036727
  WF centre and spread    3  (  2.383904, -2.533637, -5.696464 )     1.98037091
  WF centre and spread    4  ( -1.648391, -1.854364, -0.345066 )     1.98036279
  WF centre and spread    5  (  1.644916,  1.858791,  0.345246 )     1.97501818
  WF centre and spread    6  ( -1.644917, -1.858789, -5.696283 )     1.97502397
  WF centre and spread    7  (  2.387379, -2.529212, -0.345245 )     1.97501248
  WF centre and spread    8  ( -2.387378,  2.529212,  5.696285 )     1.97501707
  WF centre and spread    9  (  0.268585, -4.245479,  3.023668 )     1.92723911
  WF centre and spread   10  ( -0.268585,  4.245479, -3.017860 )     1.92722101
  WF centre and spread   11  (  3.763710,  0.142524, -3.023666 )     1.92722513
  WF centre and spread   12  ( -3.763709, -0.142524,  3.017862 )     1.92723367
  WF centre and spread   13  (  0.302849, -4.257067,  3.022840 )     2.12046711
  WF centre and spread   14  ( -0.302848, -4.518939, -3.018689 )     2.12047489
  WF centre and spread   15  ( -3.729445, -0.130935,  3.018691 )     2.12048704
  WF centre and spread   16  (  3.729446,  0.130935, -3.022838 )     2.12044972
  WF centre and spread   17  ( -2.406211,  2.565402,  0.393554 )     2.11134970
  WF centre and spread   18  ( -1.624624, -1.824216, -5.648159 )     2.10642009
  WF centre and spread   19  (  1.624624,  1.824218,  0.393371 )     2.10642699
  WF centre and spread   20  (  2.406212, -2.565400, -5.647976 )     2.11135555
  WF centre and spread   21  (  2.407671, -2.563784, -0.393370 )     2.10641439
  WF centre and spread   22  (  1.626083,  1.822602,  5.647977 )     2.11134633
  WF centre and spread   23  ( -2.407670,  2.563785,  5.648161 )     2.10641951
  WF centre and spread   24  ( -1.626082, -1.822600, -0.393553 )     2.11135456
  WF centre and spread   25  (  2.343092, -2.461057, -5.744347 )     3.87619856
  WF centre and spread   26  ( -1.689203, -1.926943, -0.297184 )     3.87620352
  WF centre and spread   27  (  1.689204,  1.926945,  5.744347 )     3.87619512
  WF centre and spread   28  ( -2.343091,  2.461058,  0.297183 )     3.87619785
  WF centre and spread   29  (  0.215167, -4.265156,  3.015449 )     4.03026005
  WF centre and spread   30  ( -3.817127, -0.122846,  3.026083 )     4.03027406
  WF centre and spread   31  ( -1.694380, -1.920661, -5.744148 )     3.88722346
  WF centre and spread   32  (  2.337914, -2.467341, -0.297383 )     3.88726098
  WF centre and spread   33  ( -2.337913,  2.467342,  5.744149 )     3.88722856
  WF centre and spread   34  (  1.694382,  1.920661,  0.297381 )     3.88723123
  WF centre and spread   35  ( -0.215168,  4.265157, -3.026079 )     4.03027217
  WF centre and spread   36  (  3.817128,  0.122846, -3.015445 )     4.03026745
  Sum of centres and spreads (  0.000014, -8.775990,  0.000019 )    96.05823567
 
      6    -0.267E-01     0.5067336163       96.0582356696       0.07  <-- CONV
        O_D=      0.0041158 O_OD=      1.3391178 O_TOT=     96.0582357 <-- SPRD
 Delta: O_D= -0.1922516E-04 O_OD= -0.2672263E-01 O_TOT= -0.2674185E-01 <-- DLTA
 ------------------------------------------------------------------------------
 Cycle:      7
  WF centre and spread    1  ( -2.383904,  2.533646,  0.345059 )     1.98015500
  WF centre and spread    2  (  1.648390,  1.854357,  5.696471 )     1.98015400
  WF centre and spread    3  (  2.383905, -2.533645, -5.696471 )     1.98015835
  WF centre and spread    4  ( -1.648390, -1.854356, -0.345059 )     1.98015224
  WF centre and spread    5  (  1.644913,  1.858770,  0.345236 )     1.97480937
  WF centre and spread    6  ( -1.644913, -1.858769, -5.696293 )     1.97481359
  WF centre and spread    7  (  2.387382, -2.529232, -0.345236 )     1.97480751
  WF centre and spread    8  ( -2.387382,  2.529233,  5.696294 )     1.97480893
  WF centre and spread    9  (  0.268586, -4.245466,  3.023670 )     1.92703126
  WF centre and spread   10  ( -0.268586,  4.245466, -3.017858 )     1.92701581
  WF centre and spread   11  (  3.763708,  0.142536, -3.023668 )     1.92702063
  WF centre and spread   12  ( -3.763708, -0.142536,  3.017860 )     1.92702793
  WF centre and spread   13  (  0.302852, -4.257061,  3.022842 )     2.12015118
  WF centre and spread   14  ( -0.302851, -4.518945, -3.018686 )     2.12015774
  WF centre and spread   15  ( -3.729442, -0.130941,  3.018688 )     2.12016728
  WF centre and spread   16  (  3.729443,  0.130941, -3.022841 )     2.12013764
  WF centre and spread   17  ( -2.406211,  2.565407,  0.393559 )     2.11109463
  WF centre and spread   18  ( -1.624620, -1.824211, -5.648155 )     2.10616818
  WF centre and spread   19  (  1.624621,  1.824214,  0.393375 )     2.10617337
  WF centre and spread   20  (  2.406212, -2.565406, -5.647971 )     2.11109860
  WF centre and spread   21  (  2.407675, -2.563789, -0.393374 )     2.10616385
  WF centre and spread   22  (  1.626084,  1.822597,  5.647972 )     2.11109352
  WF centre and spread   23  ( -2.407673,  2.563790,  5.648157 )     2.10616923
  WF centre and spread   24  ( -1.626082, -1.822595, -0.393559 )     2.11109595
  WF centre and spread   25  (  2.343105, -2.461068, -5.744333 )     3.87602748
  WF centre and spread   26  ( -1.689189, -1.926933, -0.297198 )     3.87603111
  WF centre and spread   27  (  1.689191,  1.926934,  5.744334 )     3.87602700
  WF centre and spread   28  ( -2.343104,  2.461069,  0.297196 )     3.87602883
  WF centre and spread   29  (  0.215174, -4.265151,  3.015450 )     4.03007646
  WF centre and spread   30  ( -3.817120, -0.122851,  3.026081 )     4.03008636
  WF centre and spread   31  ( -1.694378, -1.920653, -5.744142 )     3.88713861
  WF centre and spread   32  (  2.337917, -2.467349, -0.297389 )     3.88716627
  WF centre and spread   33  ( -2.337915,  2.467350,  5.744143 )     3.88714162
  WF centre and spread   34  (  1.694380,  1.920653,  0.297388 )     3.88714583
  WF centre and spread   35  ( -0.215175,  4.265152, -3.026077 )     4.03008572
  WF centre and spread   36  (  3.817120,  0.122851, -3.015446 )     4.03008212
  Sum of centres and spreads (  0.000014, -8.775990,  0.000019 )    96.05066322
 
      7    -0.757E-02     0.3427695243       96.0506632226       0.08  <-- CONV
        O_D=      0.0040153 O_OD=      1.3316458 O_TOT=     96.0506632 <-- SPRD
 Delta: O_D= -0.1004723E-03 O_OD= -0.7471975E-02 O_TOT= -0.7572447E-02 <-- DLTA
 ------------------------------------------------------------------------------
 Cycle:      8
  WF centre and spread    1  ( -2.383906,  2.533660,  0.345044 )     1.97994187
  WF centre and spread    2  (  1.648389,  1.854343,  5.696486 )     1.97993758
  WF centre and spread    3  (  2.383906, -2.533659, -5.696486 )     1.97994091
  WF centre and spread    4  ( -1.648388, -1.854342, -0.345044 )     1.97993828
  WF centre and spread    5  (  1.644907,  1.858731,  0.345216 )     1.97459396
  WF centre and spread    6  ( -1.644907, -1.858729, -5.696313 )     1.97459388
  WF centre and spread    7  (  2.387388, -2.529272, -0.345215 )     1.97459359
  WF centre and spread    8  ( -2.387388,  2.529272,  5.696315 )     1.97459287
  WF centre and spread    9  (  0.268589, -4.245443,  3.023676 )     1.92690508
  WF centre and spread   10  ( -0.268589,  4.245443, -3.017852 )     1.92689672
  WF centre and spread   11  (  3.763705,  0.142560, -3.023674 )     1.92689943
  WF centre and spread   12  ( -3.763705, -0.142560,  3.017854 )     1.92690407
  WF centre and spread   13  (  0.302860, -4.257051,  3.022848 )     2.11984824
  WF centre and spread   14  ( -0.302859, -4.518955, -3.018680 )     2.11984994
  WF centre and spread   15  ( -3.729434, -0.130951,  3.018682 )     2.11985546
  WF centre and spread   16  (  3.729435,  0.130951, -3.022846 )     2.11984084
  WF centre and spread   17  ( -2.406211,  2.565418,  0.393571 )     2.11079966
  WF centre and spread   18  ( -1.624614, -1.824202, -5.648146 )     2.10586440
  WF centre and spread   19  (  1.624614,  1.824204,  0.393384 )     2.10586793
  WF centre and spread   20  (  2.406212, -2.565417, -5.647959 )     2.11079796
  WF centre and spread   21  (  2.407681, -2.563798, -0.393383 )     2.10586261
  WF centre and spread   22  (  1.626084,  1.822586,  5.647960 )     2.11079830
  WF centre and spread   23  ( -2.407680,  2.563799,  5.648148 )     2.10586575
  WF centre and spread   24  ( -1.626082, -1.822584, -0.393571 )     2.11079703
  WF centre and spread   25  (  2.343125, -2.461092, -5.744309 )     3.87610143
  WF centre and spread   26  ( -1.689170, -1.926908, -0.297221 )     3.87610241
  WF centre and spread   27  (  1.689171,  1.926910,  5.744310 )     3.87610043
  WF centre and spread   28  ( -2.343123,  2.461093,  0.297220 )     3.87610449
  WF centre and spread   29  (  0.215187, -4.265143,  3.015457 )     4.03025695
  WF centre and spread   30  ( -3.817107, -0.122859,  3.026074 )     4.03026226
  WF centre and spread   31  ( -1.694374, -1.920640, -5.744131 )     3.88729817
  WF centre and spread   32  (  2.337921, -2.467361, -0.297400 )     3.88731543
  WF centre and spread   33  ( -2.337919,  2.467362,  5.744132 )     3.88730126
  WF centre and spread   34  (  1.694376,  1.920641,  0.297399 )     3.88730546
  WF centre and spread   35  ( -0.215188,  4.265144, -3.026070 )     4.03026257
  WF centre and spread   36  (  3.817108,  0.122859, -3.015454 )     4.03026235
  Sum of centres and spreads (  0.000014, -8.775990,  0.000019 )    96.04645957
 
      8    -0.420E-02     0.2056204116       96.0464595676       0.09  <-- CONV
        O_D=      0.0039031 O_OD=      1.3275544 O_TOT=     96.0464596 <-- SPRD
 Delta: O_D= -0.1121988E-03 O_OD= -0.4091456E-02 O_TOT= -0.4203655E-02 <-- DLTA
 ------------------------------------------------------------------------------
 Cycle:      9
  WF centre and spread    1  ( -2.383909,  2.533674,  0.345028 )     1.97982474
  WF centre and spread    2  (  1.648386,  1.854329,  5.696502 )     1.97981995
  WF centre and spread    3  (  2.383909, -2.533673, -5.696502 )     1.97982250
  WF centre and spread    4  ( -1.648385, -1.854328, -0.345028 )     1.97982119
  WF centre and spread    5  (  1.644899,  1.858691,  0.345195 )     1.97446679
  WF centre and spread    6  ( -1.644900, -1.858689, -5.696335 )     1.97446503
  WF centre and spread    7  (  2.387396, -2.529312, -0.345194 )     1.97446620
  WF centre and spread    8  ( -2.387395,  2.529312,  5.696336 )     1.97446516
  WF centre and spread    9  (  0.268593, -4.245419,  3.023682 )     1.92685753
  WF centre and spread   10  ( -0.268593,  4.245419, -3.017846 )     1.92685331
  WF centre and spread   11  (  3.763701,  0.142584, -3.023680 )     1.92685437
  WF centre and spread   12  ( -3.763701, -0.142583,  3.017848 )     1.92685754
  WF centre and spread   13  (  0.302869, -4.257041,  3.022853 )     2.11964610
  WF centre and spread   14  ( -0.302868, -4.518964, -3.018675 )     2.11964577
  WF centre and spread   15  ( -3.729425, -0.130961,  3.018677 )     2.11964899
  WF centre and spread   16  (  3.729426,  0.130961, -3.022852 )     2.11964170
  WF centre and spread   17  ( -2.406211,  2.565429,  0.393585 )     2.11058304
  WF centre and spread   18  ( -1.624607, -1.824193, -5.648135 )     2.10563727
  WF centre and spread   19  (  1.624607,  1.824195,  0.393395 )     2.10563996
  WF centre and spread   20  (  2.406212, -2.565427, -5.647944 )     2.11057944
  WF centre and spread   21  (  2.407688, -2.563808, -0.393394 )     2.10563597
  WF centre and spread   22  (  1.626084,  1.822575,  5.647945 )     2.11058108
  WF centre and spread   23  ( -2.407686,  2.563808,  5.648137 )     2.10563836
  WF centre and spread   24  ( -1.626082, -1.822573, -0.393585 )     2.11057912
  WF centre and spread   25  (  2.343135, -2.461122, -5.744286 )     3.87626968
  WF centre and spread   26  ( -1.689160, -1.926879, -0.297244 )     3.87626936
  WF centre and spread   27  (  1.689161,  1.926881,  5.744287 )     3.87626725
  WF centre and spread   28  ( -2.343134,  2.461123,  0.297243 )     3.87627268
  WF centre and spread   29  (  0.215198, -4.265139,  3.015466 )     4.03041685
  WF centre and spread   30  ( -3.817096, -0.122863,  3.026065 )     4.03042014
  WF centre and spread   31  ( -1.694370, -1.920633, -5.744122 )     3.88745812
  WF centre and spread   32  (  2.337925, -2.467369, -0.297409 )     3.88747153
  WF centre and spread   33  ( -2.337923,  2.467370,  5.744123 )     3.88746203
  WF centre and spread   34  (  1.694372,  1.920633,  0.297408 )     3.88746613
  WF centre and spread   35  ( -0.215198,  4.265140, -3.026061 )     4.03042089
  WF centre and spread   36  (  3.817097,  0.122863, -3.015463 )     4.03042242
  Sum of centres and spreads (  0.000014, -8.775990,  0.000019 )    96.04464817
 
      9    -0.181E-02     0.1381510185       96.0446481749       0.11  <-- CONV
        O_D=      0.0038553 O_OD=      1.3257908 O_TOT=     96.0446482 <-- SPRD
 Delta: O_D= -0.4781479E-04 O_OD= -0.1763578E-02 O_TOT= -0.1811393E-02 <-- DLTA
 ------------------------------------------------------------------------------
 Cycle:     10
  WF centre and spread    1  ( -2.383914,  2.533688,  0.345011 )     1.97976931
  WF centre and spread    2  (  1.648380,  1.854315,  5.696519 )     1.97976440
  WF centre and spread    3  (  2.383915, -2.533687, -5.696519 )     1.97976683
  WF centre and spread    4  ( -1.648379, -1.854314, -0.345011 )     1.97976591
  WF centre and spread    5  (  1.644889,  1.858649,  0.345172 )     1.97438997
  WF centre and spread    6  ( -1.644890, -1.858648, -5.696358 )     1.97438800
  WF centre and spread    7  (  2.387406, -2.529353, -0.345171 )     1.97438965
  WF centre and spread    8  ( -2.387405,  2.529354,  5.696359 )     1.97438823
  WF centre and spread    9  (  0.268597, -4.245395,  3.023689 )     1.92686109
  WF centre and spread   10  ( -0.268598,  4.245395, -3.017839 )     1.92685852
  WF centre and spread   11  (  3.763697,  0.142608, -3.023687 )     1.92685917
  WF centre and spread   12  ( -3.763697, -0.142607,  3.017841 )     1.92686177
  WF centre and spread   13  (  0.302880, -4.257031,  3.022858 )     2.11951433
  WF centre and spread   14  ( -0.302879, -4.518974, -3.018670 )     2.11951376
  WF centre and spread   15  ( -3.729414, -0.130971,  3.018672 )     2.11951530
  WF centre and spread   16  (  3.729415,  0.130971, -3.022857 )     2.11951125
  WF centre and spread   17  ( -2.406212,  2.565440,  0.393602 )     2.11041506
  WF centre and spread   18  ( -1.624599, -1.824182, -5.648123 )     2.10545772
  WF centre and spread   19  (  1.624600,  1.824184,  0.393407 )     2.10545983
  WF centre and spread   20  (  2.406213, -2.565439, -5.647928 )     2.11041179
  WF centre and spread   21  (  2.407696, -2.563818, -0.393407 )     2.10545644
  WF centre and spread   22  (  1.626083,  1.822564,  5.647929 )     2.11041328
  WF centre and spread   23  ( -2.407694,  2.563819,  5.648124 )     2.10545878
  WF centre and spread   24  ( -1.626081, -1.822562, -0.393601 )     2.11041101
  WF centre and spread   25  (  2.343138, -2.461158, -5.744263 )     3.87644403
  WF centre and spread   26  ( -1.689157, -1.926842, -0.297268 )     3.87644348
  WF centre and spread   27  (  1.689158,  1.926844,  5.744264 )     3.87644156
  WF centre and spread   28  ( -2.343137,  2.461159,  0.297266 )     3.87644717
  WF centre and spread   29  (  0.215207, -4.265138,  3.015478 )     4.03051020
  WF centre and spread   30  ( -3.817087, -0.122864,  3.026054 )     4.03051265
  WF centre and spread   31  ( -1.694365, -1.920630, -5.744114 )     3.88756082
  WF centre and spread   32  (  2.337930, -2.467372, -0.297416 )     3.88757178
  WF centre and spread   33  ( -2.337928,  2.467373,  5.744115 )     3.88756479
  WF centre and spread   34  (  1.694367,  1.920630,  0.297415 )     3.88756892
  WF centre and spread   35  ( -0.215208,  4.265140, -3.026050 )     4.03051349
  WF centre and spread   36  (  3.817087,  0.122863, -3.015474 )     4.03051552
  Sum of centres and spreads (  0.000014, -8.775990,  0.000019 )    96.04369581
 
     10    -0.952E-03     0.0963315711       96.0436958125       0.12  <-- CONV
        O_D=      0.0038342 O_OD=      1.3248595 O_TOT=     96.0436958 <-- SPRD
 Delta: O_D= -0.2102884E-04 O_OD= -0.9313336E-03 O_TOT= -0.9523624E-03 <-- DLTA
 ------------------------------------------------------------------------------
 Cycle:     11
  WF centre and spread    1  ( -2.383925,  2.533706,  0.344989 )     1.97976775
  WF centre and spread    2  (  1.648369,  1.854297,  5.696541 )     1.97976273
  WF centre and spread    3  (  2.383926, -2.533705, -5.696540 )     1.97976562
  WF centre and spread    4  ( -1.648368, -1.854296, -0.344989 )     1.97976413
  WF centre and spread    5  (  1.644874,  1.858595,  0.345142 )     1.97434815
  WF centre and spread    6  ( -1.644875, -1.858594, -5.696387 )     1.97434678
  WF centre and spread    7  (  2.387421, -2.529407, -0.345141 )     1.97434781
  WF centre and spread    8  ( -2.387420,  2.529408,  5.696389 )     1.97434649
  WF centre and spread    9  (  0.268604, -4.245363,  3.023697 )     1.92691095
  WF centre and spread   10  ( -0.268604,  4.245364, -3.017831 )     1.92690737
  WF centre and spread   11  (  3.763690,  0.142639, -3.023696 )     1.92690857
  WF centre and spread   12  ( -3.763690, -0.142639,  3.017833 )     1.92691112
  WF centre and spread   13  (  0.302896, -4.257018,  3.022865 )     2.11942113
  WF centre and spread   14  ( -0.302894, -4.518987, -3.018664 )     2.11942120
  WF centre and spread   15  ( -3.729399, -0.130984,  3.018666 )     2.11942388
  WF centre and spread   16  (  3.729400,  0.130984, -3.022863 )     2.11941705
  WF centre and spread   17  ( -2.406214,  2.565455,  0.393624 )     2.11025695
  WF centre and spread   18  ( -1.624588, -1.824168, -5.648105 )     2.10528454
  WF centre and spread   19  (  1.624589,  1.824170,  0.393425 )     2.10528701
  WF centre and spread   20  (  2.406215, -2.565454, -5.647905 )     2.11025428
  WF centre and spread   21  (  2.407707, -2.563833, -0.393424 )     2.10528305
  WF centre and spread   22  (  1.626081,  1.822549,  5.647906 )     2.11025516
  WF centre and spread   23  ( -2.407705,  2.563833,  5.648106 )     2.10528554
  WF centre and spread   24  ( -1.626079, -1.822547, -0.393624 )     2.11025327
  WF centre and spread   25  (  2.343135, -2.461211, -5.744233 )     3.87661975
  WF centre and spread   26  ( -1.689160, -1.926790, -0.297297 )     3.87661938
  WF centre and spread   27  (  1.689161,  1.926792,  5.744234 )     3.87661758
  WF centre and spread   28  ( -2.343133,  2.461212,  0.297296 )     3.87662292
  WF centre and spread   29  (  0.215218, -4.265143,  3.015496 )     4.03052532
  WF centre and spread   30  ( -3.817076, -0.122859,  3.026035 )     4.03052847
  WF centre and spread   31  ( -1.694356, -1.920632, -5.744107 )     3.88760422
  WF centre and spread   32  (  2.337938, -2.467370, -0.297424 )     3.88761733
  WF centre and spread   33  ( -2.337937,  2.467371,  5.744108 )     3.88760829
  WF centre and spread   34  (  1.694358,  1.920632,  0.297423 )     3.88761237
  WF centre and spread   35  ( -0.215219,  4.265145, -3.026031 )     4.03052945
  WF centre and spread   36  (  3.817076,  0.122858, -3.015493 )     4.03053057
  Sum of centres and spreads (  0.000014, -8.775990,  0.000019 )    96.04296618
 
     11    -0.730E-03     0.0721835597       96.0429661835       0.13  <-- CONV
        O_D=      0.0038473 O_OD=      1.3241167 O_TOT=     96.0429662 <-- SPRD
 Delta: O_D=  0.1310334E-04 O_OD= -0.7427323E-03 O_TOT= -0.7296290E-03 <-- DLTA
 ------------------------------------------------------------------------------
 Cycle:     12
  WF centre and spread    1  ( -2.383936,  2.533722,  0.344971 )     1.97979287
  WF centre and spread    2  (  1.648358,  1.854281,  5.696559 )     1.97978807
  WF centre and spread    3  (  2.383937, -2.533721, -5.696559 )     1.97979026
  WF centre and spread    4  ( -1.648358, -1.854280, -0.344971 )     1.97978957
  WF centre and spread    5  (  1.644861,  1.858549,  0.345117 )     1.97433789
  WF centre and spread    6  ( -1.644861, -1.858547, -5.696413 )     1.97433582
  WF centre and spread    7  (  2.387434, -2.529454, -0.345116 )     1.97433759
  WF centre and spread    8  ( -2.387434,  2.529454,  5.696414 )     1.97433608
  WF centre and spread    9  (  0.268610, -4.245337,  3.023705 )     1.92696555
  WF centre and spread   10  ( -0.268610,  4.245337, -3.017824 )     1.92696373
  WF centre and spread   11  (  3.763684,  0.142666, -3.023703 )     1.92696415
  WF centre and spread   12  ( -3.763684, -0.142665,  3.017826 )     1.92696653
  WF centre and spread   13  (  0.302909, -4.257008,  3.022870 )     2.11936320
  WF centre and spread   14  ( -0.302907, -4.518998, -3.018659 )     2.11936253
  WF centre and spread   15  ( -3.729386, -0.130994,  3.018660 )     2.11936299
  WF centre and spread   16  (  3.729387,  0.130994, -3.022868 )     2.11936065
  WF centre and spread   17  ( -2.406216,  2.565469,  0.393645 )     2.11014884
  WF centre and spread   18  ( -1.624579, -1.824155, -5.648089 )     2.10516590
  WF centre and spread   19  (  1.624579,  1.824157,  0.393441 )     2.10516764
  WF centre and spread   20  (  2.406217, -2.565467, -5.647885 )     2.11014584
  WF centre and spread   21  (  2.407716, -2.563845, -0.393441 )     2.10516450
  WF centre and spread   22  (  1.626079,  1.822536,  5.647886 )     2.11014699
  WF centre and spread   23  ( -2.407715,  2.563846,  5.648090 )     2.10516681
  WF centre and spread   24  ( -1.626077, -1.822533, -0.393645 )     2.11014487
  WF centre and spread   25  (  2.343130, -2.461257, -5.744208 )     3.87673736
  WF centre and spread   26  ( -1.689165, -1.926743, -0.297322 )     3.87673675
  WF centre and spread   27  (  1.689166,  1.926745,  5.744209 )     3.87673478
  WF centre and spread   28  ( -2.343129,  2.461258,  0.297321 )     3.87674042
  WF centre and spread   29  (  0.215227, -4.265149,  3.015516 )     4.03050984
  WF centre and spread   30  ( -3.817067, -0.122853,  3.026015 )     4.03051208
  WF centre and spread   31  ( -1.694347, -1.920636, -5.744101 )     3.88759714
  WF centre and spread   32  (  2.337948, -2.467366, -0.297430 )     3.88760688
  WF centre and spread   33  ( -2.337946,  2.467366,  5.744102 )     3.88760125
  WF centre and spread   34  (  1.694349,  1.920637,  0.297428 )     3.88760527
  WF centre and spread   35  ( -0.215228,  4.265151, -3.026011 )     4.03051278
  WF centre and spread   36  (  3.817067,  0.122852, -3.015513 )     4.03051498
  Sum of centres and spreads (  0.000014, -8.775990,  0.000019 )    96.04247842
 
     12    -0.488E-03     0.0717377746       96.0424784203       0.14  <-- CONV
        O_D=      0.0038248 O_OD=      1.3236515 O_TOT=     96.0424784 <-- SPRD
 Delta: O_D= -0.2250382E-04 O_OD= -0.4652594E-03 O_TOT= -0.4877632E-03 <-- DLTA
 ------------------------------------------------------------------------------
 Cycle:     13
  WF centre and spread    1  ( -2.383937,  2.533724,  0.344969 )     1.97979829
  WF centre and spread    2  (  1.648357,  1.854279,  5.696561 )     1.97979348
  WF centre and spread    3  (  2.383938, -2.533723, -5.696561 )     1.97979560
  WF centre and spread    4  ( -1.648357, -1.854278, -0.344969 )     1.97979505
  WF centre and spread    5  (  1.644860,  1.858544,  0.345114 )     1.97433933
  WF centre and spread    6  ( -1.644860, -1.858542, -5.696415 )     1.97433714
  WF centre and spread    7  (  2.387435, -2.529459, -0.345114 )     1.97433910
  WF centre and spread    8  ( -2.387435,  2.529459,  5.696416 )     1.97433752
  WF centre and spread    9  (  0.268611, -4.245335,  3.023705 )     1.92696718
  WF centre and spread   10  ( -0.268611,  4.245335, -3.017823 )     1.92696558
  WF centre and spread   11  (  3.763683,  0.142668, -3.023703 )     1.92696591
  WF centre and spread   12  ( -3.763683, -0.142668,  3.017825 )     1.92696827
  WF centre and spread   13  (  0.302910, -4.257007,  3.022870 )     2.11935882
  WF centre and spread   14  ( -0.302909, -4.518998, -3.018658 )     2.11935804
  WF centre and spread   15  ( -3.729384, -0.130995,  3.018660 )     2.11935820
  WF centre and spread   16  (  3.729385,  0.130995, -3.022868 )     2.11935650
  WF centre and spread   17  ( -2.406216,  2.565470,  0.393647 )     2.11014654
  WF centre and spread   18  ( -1.624577, -1.824154, -5.648087 )     2.10516530
  WF centre and spread   19  (  1.624578,  1.824156,  0.393443 )     2.10516696
  WF centre and spread   20  (  2.406217, -2.565469, -5.647882 )     2.11014346
  WF centre and spread   21  (  2.407718, -2.563847, -0.393443 )     2.10516394
  WF centre and spread   22  (  1.626078,  1.822534,  5.647883 )     2.11014474
  WF centre and spread   23  ( -2.407716,  2.563847,  5.648088 )     2.10516625
  WF centre and spread   24  ( -1.626077, -1.822532, -0.393647 )     2.11014250
  WF centre and spread   25  (  2.343129, -2.461263, -5.744206 )     3.87672312
  WF centre and spread   26  ( -1.689165, -1.926738, -0.297324 )     3.87672255
  WF centre and spread   27  (  1.689167,  1.926740,  5.744207 )     3.87672060
  WF centre and spread   28  ( -2.343128,  2.461264,  0.297323 )     3.87672628
  WF centre and spread   29  (  0.215228, -4.265150,  3.015520 )     4.03050126
  WF centre and spread   30  ( -3.817066, -0.122852,  3.026011 )     4.03050334
  WF centre and spread   31  ( -1.694344, -1.920638, -5.744101 )     3.88757848
  WF centre and spread   32  (  2.337950, -2.467364, -0.297430 )     3.88758765
  WF centre and spread   33  ( -2.337948,  2.467365,  5.744102 )     3.88758252
  WF centre and spread   34  (  1.694346,  1.920638,  0.297429 )     3.88758656
  WF centre and spread   35  ( -0.215229,  4.265151, -3.026007 )     4.03050398
  WF centre and spread   36  (  3.817066,  0.122852, -3.015517 )     4.03050635
  Sum of centres and spreads (  0.000014, -8.775990,  0.000019 )    96.04231640
 
     13    -0.162E-03     0.0505512901       96.0423164028       0.15  <-- CONV
        O_D=      0.0038196 O_OD=      1.3234947 O_TOT=     96.0423164 <-- SPRD
 Delta: O_D= -0.5200413E-05 O_OD= -0.1568171E-03 O_TOT= -0.1620175E-03 <-- DLTA
 ------------------------------------------------------------------------------
 Cycle:     14
  WF centre and spread    1  ( -2.383939,  2.533728,  0.344965 )     1.97981108
  WF centre and spread    2  (  1.648355,  1.854275,  5.696565 )     1.97980629
  WF centre and spread    3  (  2.383940, -2.533728, -5.696564 )     1.97980824
  WF centre and spread    4  ( -1.648355, -1.854273, -0.344966 )     1.97980793
  WF centre and spread    5  (  1.644858,  1.858534,  0.345110 )     1.97434476
  WF centre and spread    6  ( -1.644858, -1.858532, -5.696420 )     1.97434235
  WF centre and spread    7  (  2.387437, -2.529469, -0.345109 )     1.97434457
  WF centre and spread    8  ( -2.387437,  2.529469,  5.696421 )     1.97434294
  WF centre and spread    9  (  0.268612, -4.245329,  3.023706 )     1.92697534
  WF centre and spread   10  ( -0.268612,  4.245330, -3.017823 )     1.92697417
  WF centre and spread   11  (  3.763682,  0.142673, -3.023704 )     1.92697428
  WF centre and spread   12  ( -3.763682, -0.142673,  3.017825 )     1.92697663
  WF centre and spread   13  (  0.302912, -4.257006,  3.022871 )     2.11935519
  WF centre and spread   14  ( -0.302911, -4.519000, -3.018658 )     2.11935417
  WF centre and spread   15  ( -3.729382, -0.130996,  3.018660 )     2.11935379
  WF centre and spread   16  (  3.729383,  0.130996, -3.022869 )     2.11935325
  WF centre and spread   17  ( -2.406216,  2.565473,  0.393652 )     2.11014441
  WF centre and spread   18  ( -1.624575, -1.824151, -5.648083 )     2.10516603
  WF centre and spread   19  (  1.624576,  1.824153,  0.393447 )     2.10516753
  WF centre and spread   20  (  2.406217, -2.565472, -5.647877 )     2.11014118
  WF centre and spread   21  (  2.407720, -2.563849, -0.393447 )     2.10516474
  WF centre and spread   22  (  1.626078,  1.822531,  5.647878 )     2.11014263
  WF centre and spread   23  ( -2.407718,  2.563850,  5.648084 )     2.10516699
  WF centre and spread   24  ( -1.626077, -1.822529, -0.393652 )     2.11014029
  WF centre and spread   25  (  2.343128, -2.461273, -5.744202 )     3.87670668
  WF centre and spread   26  ( -1.689167, -1.926728, -0.297329 )     3.87670612
  WF centre and spread   27  (  1.689168,  1.926730,  5.744202 )     3.87670412
  WF centre and spread   28  ( -2.343127,  2.461274,  0.297328 )     3.87670990
  WF centre and spread   29  (  0.215231, -4.265151,  3.015529 )     4.03049775
  WF centre and spread   30  ( -3.817063, -0.122851,  3.026003 )     4.03049960
  WF centre and spread   31  ( -1.694340, -1.920641, -5.744100 )     3.88755425
  WF centre and spread   32  (  2.337955, -2.467361, -0.297431 )     3.88756250
  WF centre and spread   33  ( -2.337953,  2.467362,  5.744101 )     3.88755828
  WF centre and spread   34  (  1.694342,  1.920641,  0.297429 )     3.88756227
  WF centre and spread   35  ( -0.215231,  4.265152, -3.025999 )     4.03050013
  WF centre and spread   36  (  3.817064,  0.122851, -3.015525 )     4.03050279
  Sum of centres and spreads (  0.000014, -8.775990,  0.000019 )    96.04222317
 
     14    -0.932E-04     0.0311501550       96.0422231732       0.16  <-- CONV
        O_D=      0.0038122 O_OD=      1.3234089 O_TOT=     96.0422232 <-- SPRD
 Delta: O_D= -0.7478628E-05 O_OD= -0.8575092E-04 O_TOT= -0.9322955E-04 <-- DLTA
 ------------------------------------------------------------------------------
 Cycle:     15
  WF centre and spread    1  ( -2.383942,  2.533736,  0.344959 )     1.97983118
  WF centre and spread    2  (  1.648352,  1.854267,  5.696571 )     1.97982640
  WF centre and spread    3  (  2.383943, -2.533735, -5.696571 )     1.97982834
  WF centre and spread    4  ( -1.648352, -1.854266, -0.344959 )     1.97982803
  WF centre and spread    5  (  1.644855,  1.858516,  0.345101 )     1.97435384
  WF centre and spread    6  ( -1.644855, -1.858515, -5.696428 )     1.97435140
  WF centre and spread    7  (  2.387440, -2.529486, -0.345101 )     1.97435362
  WF centre and spread    8  ( -2.387439,  2.529487,  5.696430 )     1.97435201
  WF centre and spread    9  (  0.268614, -4.245320,  3.023706 )     1.92699031
  WF centre and spread   10  ( -0.268614,  4.245321, -3.017822 )     1.92698914
  WF centre and spread   11  (  3.763680,  0.142682, -3.023704 )     1.92698923
  WF centre and spread   12  ( -3.763680, -0.142682,  3.017824 )     1.92699158
  WF centre and spread   13  (  0.302917, -4.257004,  3.022871 )     2.11934805
  WF centre and spread   14  ( -0.302916, -4.519002, -3.018657 )     2.11934701
  WF centre and spread   15  ( -3.729377, -0.130999,  3.018659 )     2.11934666
  WF centre and spread   16  (  3.729378,  0.130998, -3.022870 )     2.11934610
  WF centre and spread   17  ( -2.406216,  2.565479,  0.393661 )     2.11013855
  WF centre and spread   18  ( -1.624571, -1.824147, -5.648076 )     2.10516451
  WF centre and spread   19  (  1.624572,  1.824149,  0.393454 )     2.10516601
  WF centre and spread   20  (  2.406218, -2.565478, -5.647869 )     2.11013526
  WF centre and spread   21  (  2.407724, -2.563853, -0.393453 )     2.10516321
  WF centre and spread   22  (  1.626078,  1.822525,  5.647870 )     2.11013673
  WF centre and spread   23  ( -2.407722,  2.563854,  5.648077 )     2.10516545
  WF centre and spread   24  ( -1.626077, -1.822523, -0.393660 )     2.11013440
  WF centre and spread   25  (  2.343126, -2.461290, -5.744194 )     3.87668877
  WF centre and spread   26  ( -1.689168, -1.926710, -0.297337 )     3.87668818
  WF centre and spread   27  (  1.689170,  1.926712,  5.744194 )     3.87668616
  WF centre and spread   28  ( -2.343125,  2.461291,  0.297336 )     3.87669193
  WF centre and spread   29  (  0.215235, -4.265153,  3.015543 )     4.03049656
  WF centre and spread   30  ( -3.817059, -0.122849,  3.025989 )     4.03049842
  WF centre and spread   31  ( -1.694331, -1.920646, -5.744098 )     3.88752529
  WF centre and spread   32  (  2.337963, -2.467355, -0.297433 )     3.88753361
  WF centre and spread   33  ( -2.337962,  2.467356,  5.744099 )     3.88752937
  WF centre and spread   34  (  1.694333,  1.920647,  0.297432 )     3.88753335
  WF centre and spread   35  ( -0.215236,  4.265154, -3.025985 )     4.03049895
  WF centre and spread   36  (  3.817060,  0.122849, -3.015539 )     4.03050162
  Sum of centres and spreads (  0.000014, -8.775990,  0.000019 )    96.04214923
 
     15    -0.739E-04     0.0224997968       96.0421492328       0.17  <-- CONV
        O_D=      0.0038116 O_OD=      1.3233356 O_TOT=     96.0421492 <-- SPRD
 Delta: O_D= -0.6014206E-06 O_OD= -0.7333904E-04 O_TOT= -0.7394046E-04 <-- DLTA
 ------------------------------------------------------------------------------
 Cycle:     16
  WF centre and spread    1  ( -2.383945,  2.533743,  0.344953 )     1.97984846
  WF centre and spread    2  (  1.648350,  1.854260,  5.696577 )     1.97984370
  WF centre and spread    3  (  2.383945, -2.533743, -5.696577 )     1.97984562
  WF centre and spread    4  ( -1.648349, -1.854259, -0.344953 )     1.97984534
  WF centre and spread    5  (  1.644853,  1.858499,  0.345093 )     1.97436217
  WF centre and spread    6  ( -1.644853, -1.858498, -5.696436 )     1.97435972
  WF centre and spread    7  (  2.387442, -2.529503, -0.345093 )     1.97436198
  WF centre and spread    8  ( -2.387441,  2.529504,  5.696437 )     1.97436035
  WF centre and spread    9  (  0.268616, -4.245312,  3.023706 )     1.92700387
  WF centre and spread   10  ( -0.268616,  4.245312, -3.017822 )     1.92700280
  WF centre and spread   11  (  3.763678,  0.142691, -3.023705 )     1.92700285
  WF centre and spread   12  ( -3.763678, -0.142690,  3.017824 )     1.92700519
  WF centre and spread   13  (  0.302921, -4.257002,  3.022872 )     2.11933803
  WF centre and spread   14  ( -0.302920, -4.519004, -3.018656 )     2.11933697
  WF centre and spread   15  ( -3.729373, -0.131001,  3.018658 )     2.11933646
  WF centre and spread   16  (  3.729374,  0.131000, -3.022870 )     2.11933617
  WF centre and spread   17  ( -2.406216,  2.565485,  0.393669 )     2.11013107
  WF centre and spread   18  ( -1.624568, -1.824143, -5.648070 )     2.10516014
  WF centre and spread   19  (  1.624568,  1.824145,  0.393460 )     2.10516158
  WF centre and spread   20  (  2.406218, -2.565483, -5.647861 )     2.11012784
  WF centre and spread   21  (  2.407727, -2.563858, -0.393460 )     2.10515885
  WF centre and spread   22  (  1.626078,  1.822520,  5.647862 )     2.11012928
  WF centre and spread   23  ( -2.407726,  2.563858,  5.648071 )     2.10516109
  WF centre and spread   24  ( -1.626077, -1.822517, -0.393668 )     2.11012694
  WF centre and spread   25  (  2.343126, -2.461306, -5.744186 )     3.87667749
  WF centre and spread   26  ( -1.689169, -1.926695, -0.297345 )     3.87667692
  WF centre and spread   27  (  1.689171,  1.926697,  5.744186 )     3.87667490
  WF centre and spread   28  ( -2.343124,  2.461307,  0.297344 )     3.87668067
  WF centre and spread   29  (  0.215239, -4.265154,  3.015555 )     4.03049826
  WF centre and spread   30  ( -3.817055, -0.122848,  3.025976 )     4.03050006
  WF centre and spread   31  ( -1.694323, -1.920652, -5.744096 )     3.88750539
  WF centre and spread   32  (  2.337971, -2.467350, -0.297435 )     3.88751346
  WF centre and spread   33  ( -2.337970,  2.467351,  5.744096 )     3.88750946
  WF centre and spread   34  (  1.694325,  1.920652,  0.297434 )     3.88751344
  WF centre and spread   35  ( -0.215240,  4.265155, -3.025972 )     4.03050057
  WF centre and spread   36  (  3.817055,  0.122848, -3.015552 )     4.03050330
  Sum of centres and spreads (  0.000014, -8.775990,  0.000019 )    96.04210037
 
     16    -0.489E-04     0.0218690305       96.0421003746       0.19  <-- CONV
        O_D=      0.0038095 O_OD=      1.3232887 O_TOT=     96.0421004 <-- SPRD
 Delta: O_D= -0.2036161E-05 O_OD= -0.4682203E-04 O_TOT= -0.4885820E-04 <-- DLTA
 ------------------------------------------------------------------------------
 Cycle:     17
  WF centre and spread    1  ( -2.383946,  2.533750,  0.344948 )     1.97986214
  WF centre and spread    2  (  1.648349,  1.854253,  5.696582 )     1.97985739
  WF centre and spread    3  (  2.383946, -2.533749, -5.696582 )     1.97985929
  WF centre and spread    4  ( -1.648348, -1.854252, -0.344948 )     1.97985903
  WF centre and spread    5  (  1.644852,  1.858484,  0.345087 )     1.97436907
  WF centre and spread    6  ( -1.644853, -1.858483, -5.696443 )     1.97436660
  WF centre and spread    7  (  2.387443, -2.529518, -0.345086 )     1.97436888
  WF centre and spread    8  ( -2.387442,  2.529519,  5.696444 )     1.97436724
  WF centre and spread    9  (  0.268618, -4.245305,  3.023706 )     1.92701435
  WF centre and spread   10  ( -0.268618,  4.245305, -3.017822 )     1.92701333
  WF centre and spread   11  (  3.763676,  0.142698, -3.023705 )     1.92701336
  WF centre and spread   12  ( -3.763676, -0.142698,  3.017824 )     1.92701570
  WF centre and spread   13  (  0.302925, -4.257000,  3.022872 )     2.11932553
  WF centre and spread   14  ( -0.302924, -4.519005, -3.018656 )     2.11932445
  WF centre and spread   15  ( -3.729369, -0.131002,  3.018658 )     2.11932386
  WF centre and spread   16  (  3.729370,  0.131002, -3.022871 )     2.11932371
  WF centre and spread   17  ( -2.406216,  2.565489,  0.393675 )     2.11012260
  WF centre and spread   18  ( -1.624565, -1.824139, -5.648065 )     2.10515245
  WF centre and spread   19  (  1.624566,  1.824141,  0.393466 )     2.10515388
  WF centre and spread   20  (  2.406217, -2.565488, -5.647854 )     2.11011938
  WF centre and spread   21  (  2.407730, -2.563861, -0.393465 )     2.10515116
  WF centre and spread   22  (  1.626079,  1.822515,  5.647855 )     2.11012081
  WF centre and spread   23  ( -2.407728,  2.563862,  5.648066 )     2.10515340
  WF centre and spread   24  ( -1.626077, -1.822513, -0.393675 )     2.11011848
  WF centre and spread   25  (  2.343126, -2.461317, -5.744179 )     3.87667240
  WF centre and spread   26  ( -1.689168, -1.926683, -0.297351 )     3.87667183
  WF centre and spread   27  (  1.689170,  1.926685,  5.744180 )     3.87666981
  WF centre and spread   28  ( -2.343125,  2.461318,  0.297350 )     3.87667558
  WF centre and spread   29  (  0.215243, -4.265154,  3.015565 )     4.03050344
  WF centre and spread   30  ( -3.817051, -0.122848,  3.025966 )     4.03050520
  WF centre and spread   31  ( -1.694316, -1.920656, -5.744093 )     3.88749537
  WF centre and spread   32  (  2.337979, -2.467346, -0.297437 )     3.88750333
  WF centre and spread   33  ( -2.337977,  2.467347,  5.744094 )     3.88749943
  WF centre and spread   34  (  1.694318,  1.920656,  0.297436 )     3.88750343
  WF centre and spread   35  ( -0.215243,  4.265155, -3.025962 )     4.03050571
  WF centre and spread   36  (  3.817052,  0.122848, -3.015562 )     4.03050845
  Sum of centres and spreads (  0.000014, -8.775990,  0.000019 )    96.04207008
 
     17    -0.303E-04     0.0166389778       96.0420700779       0.20  <-- CONV
        O_D=      0.0038076 O_OD=      1.3232604 O_TOT=     96.0420701 <-- SPRD
 Delta: O_D= -0.1952115E-05 O_OD= -0.2834458E-04 O_TOT= -0.3029670E-04 <-- DLTA
 ------------------------------------------------------------------------------
 Cycle:     18
  WF centre and spread    1  ( -2.383946,  2.533755,  0.344944 )     1.97987060
  WF centre and spread    2  (  1.648349,  1.854249,  5.696586 )     1.97986585
  WF centre and spread    3  (  2.383946, -2.533754, -5.696585 )     1.97986774
  WF centre and spread    4  ( -1.648348, -1.854247, -0.344944 )     1.97986749
  WF centre and spread    5  (  1.644853,  1.858474,  0.345082 )     1.97437303
  WF centre and spread    6  ( -1.644853, -1.858472, -5.696447 )     1.97437054
  WF centre and spread    7  (  2.387442, -2.529529, -0.345082 )     1.97437284
  WF centre and spread    8  ( -2.387442,  2.529529,  5.696448 )     1.97437120
  WF centre and spread    9  (  0.268619, -4.245300,  3.023706 )     1.92701980
  WF centre and spread   10  ( -0.268620,  4.245301, -3.017822 )     1.92701881
  WF centre and spread   11  (  3.763675,  0.142702, -3.023704 )     1.92701882
  WF centre and spread   12  ( -3.763675, -0.142702,  3.017824 )     1.92702116
  WF centre and spread   13  (  0.302926, -4.256999,  3.022872 )     2.11931352
  WF centre and spread   14  ( -0.302925, -4.519007, -3.018656 )     2.11931242
[...]
  WF centre and spread   13  (  0.302337, -4.257005,  3.022225 )     2.11742246
  WF centre and spread   14  ( -0.302335, -4.519001, -3.019303 )     2.11742122
  WF centre and spread   15  ( -3.729958, -0.130998,  3.019305 )     2.11742074
  WF centre and spread   16  (  3.729959,  0.130997, -3.022224 )     2.11742074
  WF centre and spread   17  ( -2.404287,  2.567583,  0.394207 )     2.11681377
  WF centre and spread   18  ( -1.625417, -1.823140, -5.647638 )     2.10782683
  WF centre and spread   19  (  1.625417,  1.823142,  0.393892 )     2.10782721
  WF centre and spread   20  (  2.404288, -2.567582, -5.647322 )     2.11681047
  WF centre and spread   21  (  2.406878, -2.564860, -0.393891 )     2.10782508
  WF centre and spread   22  (  1.628007,  1.820421,  5.647323 )     2.11681160
  WF centre and spread   23  ( -2.406876,  2.564861,  5.647639 )     2.10782741
  WF centre and spread   24  ( -1.628006, -1.820419, -0.394207 )     2.11680958
  WF centre and spread   25  (  2.346592, -2.457619, -5.744241 )     3.86528094
  WF centre and spread   26  ( -1.685703, -1.930382, -0.297289 )     3.86528022
  WF centre and spread   27  (  1.685705,  1.930383,  5.744242 )     3.86527905
  WF centre and spread   28  ( -2.346590,  2.457620,  0.297288 )     3.86528410
  WF centre and spread   29  (  0.215191, -4.265179,  3.017489 )     4.03329976
  WF centre and spread   30  ( -3.817103, -0.122823,  3.024042 )     4.03330161
  WF centre and spread   31  ( -1.691600, -1.923881, -5.744175 )     3.88269337
  WF centre and spread   32  (  2.340694, -2.464121, -0.297356 )     3.88270197
  WF centre and spread   33  ( -2.340693,  2.464122,  5.744175 )     3.88269809
  WF centre and spread   34  (  1.691603,  1.923880,  0.297355 )     3.88270290
  WF centre and spread   35  ( -0.215192,  4.265180, -3.024038 )     4.03330250
  WF centre and spread   36  (  3.817103,  0.122823, -3.017485 )     4.03330444
  Sum of centres and spreads (  0.000014, -8.775990,  0.000019 )    96.03985479
 
    496    -0.407E-05     0.0052968303       96.0398547934       5.72  <-- CONV
        O_D=      0.0037932 O_OD=      1.3210595 O_TOT=     96.0398548 <-- SPRD
 Delta: O_D= -0.3705088E-06 O_OD= -0.3702421E-05 O_TOT= -0.4072930E-05 <-- DLTA
 ------------------------------------------------------------------------------
 Cycle:    497
  WF centre and spread    1  ( -2.382490,  2.535293,  0.344486 )     1.98439658
  WF centre and spread    2  (  1.649804,  1.852711,  5.697044 )     1.98439147
  WF centre and spread    3  (  2.382490, -2.535292, -5.697044 )     1.98439372
  WF centre and spread    4  ( -1.649804, -1.852709, -0.344486 )     1.98439363
  WF centre and spread    5  (  1.646639,  1.856317,  0.344739 )     1.97629895
  WF centre and spread    6  ( -1.646640, -1.856315, -5.696790 )     1.97629689
  WF centre and spread    7  (  2.385656, -2.531686, -0.344738 )     1.97629899
  WF centre and spread    8  ( -2.385655,  2.531686,  5.696792 )     1.97629728
  WF centre and spread    9  (  0.269263, -4.245263,  3.022490 )     1.92596857
  WF centre and spread   10  ( -0.269263,  4.245263, -3.019039 )     1.92596719
  WF centre and spread   11  (  3.763031,  0.142740, -3.022488 )     1.92596784
  WF centre and spread   12  ( -3.763031, -0.142739,  3.019041 )     1.92596980
  WF centre and spread   13  (  0.302335, -4.257005,  3.022223 )     2.11742206
  WF centre and spread   14  ( -0.302334, -4.519001, -3.019305 )     2.11742082
  WF centre and spread   15  ( -3.729959, -0.130997,  3.019307 )     2.11742033
  WF centre and spread   16  (  3.729960,  0.130997, -3.022222 )     2.11742034
  WF centre and spread   17  ( -2.404280,  2.567592,  0.394210 )     2.11684699
  WF centre and spread   18  ( -1.625421, -1.823135, -5.647636 )     2.10784883
  WF centre and spread   19  (  1.625421,  1.823137,  0.393894 )     2.10784921
  WF centre and spread   20  (  2.404281, -2.567591, -5.647320 )     2.11684369
  WF centre and spread   21  (  2.406874, -2.564865, -0.393894 )     2.10784708
  WF centre and spread   22  (  1.628015,  1.820412,  5.647321 )     2.11684482
  WF centre and spread   23  ( -2.406872,  2.564866,  5.647637 )     2.10784941
  WF centre and spread   24  ( -1.628014, -1.820410, -0.394209 )     2.11684280
  WF centre and spread   25  (  2.346604, -2.457606, -5.744241 )     3.86522468
  WF centre and spread   26  ( -1.685690, -1.930394, -0.297290 )     3.86522396
  WF centre and spread   27  (  1.685692,  1.930396,  5.744242 )     3.86522279
  WF centre and spread   28  ( -2.346603,  2.457607,  0.297288 )     3.86522783
  WF centre and spread   29  (  0.215191, -4.265178,  3.017497 )     4.03329779
  WF centre and spread   30  ( -3.817103, -0.122824,  3.024035 )     4.03329964
  WF centre and spread   31  ( -1.691587, -1.923894, -5.744175 )     3.88265755
  WF centre and spread   32  (  2.340707, -2.464108, -0.297356 )     3.88266613
  WF centre and spread   33  ( -2.340705,  2.464108,  5.744176 )     3.88266227
  WF centre and spread   34  (  1.691590,  1.923894,  0.297355 )     3.88266709
  WF centre and spread   35  ( -0.215192,  4.265180, -3.024031 )     4.03330053
  WF centre and spread   36  (  3.817103,  0.122823, -3.017493 )     4.03330247
  Sum of centres and spreads (  0.000014, -8.775990,  0.000019 )    96.03985001
 
    497    -0.478E-05     0.0058176879       96.0398500141       5.73  <-- CONV
        O_D=      0.0037929 O_OD=      1.3210550 O_TOT=     96.0398500 <-- SPRD
 Delta: O_D= -0.3113981E-06 O_OD= -0.4467875E-05 O_TOT= -0.4779273E-05 <-- DLTA
 ------------------------------------------------------------------------------
 Cycle:    498
  WF centre and spread    1  ( -2.382484,  2.535299,  0.344484 )     1.98441930
  WF centre and spread    2  (  1.649810,  1.852704,  5.697046 )     1.98441419
  WF centre and spread    3  (  2.382484, -2.535298, -5.697046 )     1.98441644
  WF centre and spread    4  ( -1.649810, -1.852703, -0.344484 )     1.98441635
  WF centre and spread    5  (  1.646646,  1.856308,  0.344737 )     1.97631228
  WF centre and spread    6  ( -1.646647, -1.856307, -5.696792 )     1.97631023
  WF centre and spread    7  (  2.385649, -2.531694, -0.344737 )     1.97631232
  WF centre and spread    8  ( -2.385648,  2.531695,  5.696793 )     1.97631062
  WF centre and spread    9  (  0.269265, -4.245263,  3.022485 )     1.92596952
  WF centre and spread   10  ( -0.269265,  4.245263, -3.019043 )     1.92596815
  WF centre and spread   11  (  3.763029,  0.142740, -3.022484 )     1.92596879
  WF centre and spread   12  ( -3.763029, -0.142739,  3.019045 )     1.92597075
  WF centre and spread   13  (  0.302333, -4.257005,  3.022221 )     2.11741737
  WF centre and spread   14  ( -0.302331, -4.519001, -3.019308 )     2.11741613
  WF centre and spread   15  ( -3.729962, -0.130997,  3.019309 )     2.11741564
  WF centre and spread   16  (  3.729963,  0.130997, -3.022219 )     2.11741565
  WF centre and spread   17  ( -2.404270,  2.567602,  0.394212 )     2.11688211
  WF centre and spread   18  ( -1.625426, -1.823129, -5.647634 )     2.10786819
  WF centre and spread   19  (  1.625426,  1.823132,  0.393896 )     2.10786856
  WF centre and spread   20  (  2.404271, -2.567601, -5.647318 )     2.11687881
  WF centre and spread   21  (  2.406869, -2.564871, -0.393896 )     2.10786644
  WF centre and spread   22  (  1.628024,  1.820402,  5.647319 )     2.11687994
  WF centre and spread   23  ( -2.406867,  2.564872,  5.647635 )     2.10786876
  WF centre and spread   24  ( -1.628023, -1.820400, -0.394212 )     2.11687792
  WF centre and spread   25  (  2.346620, -2.457590, -5.744241 )     3.86516678
  WF centre and spread   26  ( -1.685675, -1.930410, -0.297289 )     3.86516607
  WF centre and spread   27  (  1.685677,  1.930412,  5.744242 )     3.86516490
  WF centre and spread   28  ( -2.346618,  2.457592,  0.297288 )     3.86516993
  WF centre and spread   29  (  0.215191, -4.265179,  3.017504 )     4.03330150
  WF centre and spread   30  ( -3.817103, -0.122823,  3.024028 )     4.03330335
  WF centre and spread   31  ( -1.691574, -1.923910, -5.744175 )     3.88262377
  WF centre and spread   32  (  2.340720, -2.464092, -0.297356 )     3.88263236
  WF centre and spread   33  ( -2.340719,  2.464093,  5.744176 )     3.88262849
  WF centre and spread   34  (  1.691576,  1.923909,  0.297354 )     3.88263332
  WF centre and spread   35  ( -0.215192,  4.265180, -3.024024 )     4.03330425
  WF centre and spread   36  (  3.817103,  0.122823, -3.017500 )     4.03330619
  Sum of centres and spreads (  0.000014, -8.775990,  0.000019 )    96.03984539
 
    498    -0.462E-05     0.0057722402       96.0398453893       5.75  <-- CONV
        O_D=      0.0037929 O_OD=      1.3210504 O_TOT=     96.0398454 <-- SPRD
 Delta: O_D= -0.1937912E-07 O_OD= -0.4605478E-05 O_TOT= -0.4624857E-05 <-- DLTA
 ------------------------------------------------------------------------------
 Cycle:    499
  WF centre and spread    1  ( -2.382483,  2.535299,  0.344484 )     1.98441975
  WF centre and spread    2  (  1.649811,  1.852704,  5.697046 )     1.98441464
  WF centre and spread    3  (  2.382484, -2.535299, -5.697046 )     1.98441689
  WF centre and spread    4  ( -1.649811, -1.852702, -0.344484 )     1.98441680
  WF centre and spread    5  (  1.646647,  1.856308,  0.344737 )     1.97631184
  WF centre and spread    6  ( -1.646648, -1.856306, -5.696792 )     1.97630978
  WF centre and spread    7  (  2.385648, -2.531695, -0.344737 )     1.97631188
  WF centre and spread    8  ( -2.385647,  2.531695,  5.696794 )     1.97631017
  WF centre and spread    9  (  0.269265, -4.245263,  3.022485 )     1.92596837
  WF centre and spread   10  ( -0.269266,  4.245263, -3.019043 )     1.92596700
  WF centre and spread   11  (  3.763029,  0.142740, -3.022484 )     1.92596765
  WF centre and spread   12  ( -3.763029, -0.142739,  3.019045 )     1.92596960
  WF centre and spread   13  (  0.302332, -4.257005,  3.022221 )     2.11741404
  WF centre and spread   14  ( -0.302331, -4.519001, -3.019308 )     2.11741280
  WF centre and spread   15  ( -3.729962, -0.130997,  3.019310 )     2.11741232
  WF centre and spread   16  (  3.729963,  0.130997, -3.022219 )     2.11741232
  WF centre and spread   17  ( -2.404269,  2.567603,  0.394212 )     2.11688321
  WF centre and spread   18  ( -1.625427, -1.823129, -5.647634 )     2.10786659
  WF centre and spread   19  (  1.625427,  1.823131,  0.393896 )     2.10786696
  WF centre and spread   20  (  2.404271, -2.567601, -5.647318 )     2.11687991
  WF centre and spread   21  (  2.406868, -2.564872, -0.393896 )     2.10786484
  WF centre and spread   22  (  1.628025,  1.820402,  5.647319 )     2.11688104
  WF centre and spread   23  ( -2.406867,  2.564872,  5.647635 )     2.10786716
  WF centre and spread   24  ( -1.628024, -1.820399, -0.394212 )     2.11687901
  WF centre and spread   25  (  2.346621, -2.457589, -5.744241 )     3.86516543
  WF centre and spread   26  ( -1.685673, -1.930412, -0.297289 )     3.86516471
  WF centre and spread   27  (  1.685675,  1.930414,  5.744242 )     3.86516355
  WF centre and spread   28  ( -2.346620,  2.457590,  0.297288 )     3.86516858
  WF centre and spread   29  (  0.215191, -4.265179,  3.017504 )     4.03330547
  WF centre and spread   30  ( -3.817103, -0.122823,  3.024028 )     4.03330732
  WF centre and spread   31  ( -1.691574, -1.923910, -5.744175 )     3.88262499
  WF centre and spread   32  (  2.340721, -2.464092, -0.297356 )     3.88263358
  WF centre and spread   33  ( -2.340719,  2.464092,  5.744176 )     3.88262971
  WF centre and spread   34  (  1.691576,  1.923910,  0.297354 )     3.88263454
  WF centre and spread   35  ( -0.215192,  4.265180, -3.024024 )     4.03330821
  WF centre and spread   36  (  3.817104,  0.122823, -3.017500 )     4.03331015
  Sum of centres and spreads (  0.000014, -8.775990,  0.000019 )    96.03984078
 
    499    -0.461E-05     0.0081110276       96.0398407765       5.76  <-- CONV
        O_D=      0.0037928 O_OD=      1.3210458 O_TOT=     96.0398408 <-- SPRD
 Delta: O_D= -0.4545867E-07 O_OD= -0.4567268E-05 O_TOT= -0.4612727E-05 <-- DLTA
 ------------------------------------------------------------------------------
 Cycle:    500
  WF centre and spread    1  ( -2.382482,  2.535301,  0.344483 )     1.98442170
  WF centre and spread    2  (  1.649813,  1.852703,  5.697047 )     1.98441659
  WF centre and spread    3  (  2.382482, -2.535300, -5.697046 )     1.98441884
  WF centre and spread    4  ( -1.649812, -1.852701, -0.344484 )     1.98441875
  WF centre and spread    5  (  1.646649,  1.856306,  0.344737 )     1.97631105
  WF centre and spread    6  ( -1.646650, -1.856304, -5.696792 )     1.97630900
  WF centre and spread    7  (  2.385646, -2.531697, -0.344736 )     1.97631109
  WF centre and spread    8  ( -2.385645,  2.531697,  5.696794 )     1.97630939
  WF centre and spread    9  (  0.269266, -4.245263,  3.022484 )     1.92596612
  WF centre and spread   10  ( -0.269266,  4.245264, -3.019044 )     1.92596474
  WF centre and spread   11  (  3.763028,  0.142739, -3.022483 )     1.92596540
  WF centre and spread   12  ( -3.763028, -0.142739,  3.019046 )     1.92596735
  WF centre and spread   13  (  0.302331, -4.257005,  3.022220 )     2.11740612
  WF centre and spread   14  ( -0.302330, -4.519001, -3.019308 )     2.11740489
  WF centre and spread   15  ( -3.729963, -0.130997,  3.019310 )     2.11740440
  WF centre and spread   16  (  3.729964,  0.130997, -3.022218 )     2.11740441
  WF centre and spread   17  ( -2.404267,  2.567605,  0.394212 )     2.11688745
  WF centre and spread   18  ( -1.625428, -1.823127, -5.647634 )     2.10786289
  WF centre and spread   19  (  1.625429,  1.823130,  0.393896 )     2.10786326
  WF centre and spread   20  (  2.404268, -2.567604, -5.647317 )     2.11688415
  WF centre and spread   21  (  2.406867, -2.564873, -0.393896 )     2.10786114
  WF centre and spread   22  (  1.628028,  1.820399,  5.647318 )     2.11688528
  WF centre and spread   23  ( -2.406865,  2.564873,  5.647635 )     2.10786347
  WF centre and spread   24  ( -1.628026, -1.820397, -0.394212 )     2.11688326
  WF centre and spread   25  (  2.346626, -2.457583, -5.744242 )     3.86516016
  WF centre and spread   26  ( -1.685668, -1.930418, -0.297289 )     3.86515944
  WF centre and spread   27  (  1.685670,  1.930420,  5.744242 )     3.86515828
  WF centre and spread   28  ( -2.346625,  2.457584,  0.297288 )     3.86516331
  WF centre and spread   29  (  0.215191, -4.265179,  3.017503 )     4.03331545
  WF centre and spread   30  ( -3.817103, -0.122823,  3.024028 )     4.03331730
  WF centre and spread   31  ( -1.691572, -1.923913, -5.744175 )     3.88262754
  WF centre and spread   32  (  2.340722, -2.464089, -0.297355 )     3.88263614
  WF centre and spread   33  ( -2.340721,  2.464090,  5.744176 )     3.88263226
  WF centre and spread   34  (  1.691574,  1.923913,  0.297354 )     3.88263709
  WF centre and spread   35  ( -0.215191,  4.265180, -3.024024 )     4.03331820
  WF centre and spread   36  (  3.817104,  0.122823, -3.017499 )     4.03332013
  Sum of centres and spreads (  0.000014, -8.775990,  0.000019 )    96.03983600
 
    500    -0.477E-05     0.0057683738       96.0398360020       5.77  <-- CONV
        O_D=      0.0037931 O_OD=      1.3210408 O_TOT=     96.0398360 <-- SPRD
 Delta: O_D=  0.2410140E-06 O_OD= -0.5015537E-05 O_TOT= -0.4774523E-05 <-- DLTA
 ------------------------------------------------------------------------------

 Writing checkpoint file mp-732337.chk... done

 Final State
  WF centre and spread    1  ( -2.382482,  2.535301,  0.344483 )     1.98442170
  WF centre and spread    2  (  1.649813,  1.852703,  5.697047 )     1.98441659
  WF centre and spread    3  (  2.382482, -2.535300, -5.697046 )     1.98441884
  WF centre and spread    4  ( -1.649812, -1.852701, -0.344484 )     1.98441875
  WF centre and spread    5  (  1.646649,  1.856306,  0.344737 )     1.97631105
  WF centre and spread    6  ( -1.646650, -1.856304, -5.696792 )     1.97630900
  WF centre and spread    7  (  2.385646, -2.531697, -0.344736 )     1.97631109
  WF centre and spread    8  ( -2.385645,  2.531697,  5.696794 )     1.97630939
  WF centre and spread    9  (  0.269266, -4.245263,  3.022484 )     1.92596612
  WF centre and spread   10  ( -0.269266,  4.245264, -3.019044 )     1.92596474
  WF centre and spread   11  (  3.763028,  0.142739, -3.022483 )     1.92596540
  WF centre and spread   12  ( -3.763028, -0.142739,  3.019046 )     1.92596735
  WF centre and spread   13  (  0.302331, -4.257005,  3.022220 )     2.11740612
  WF centre and spread   14  ( -0.302330, -4.519001, -3.019308 )     2.11740489
  WF centre and spread   15  ( -3.729963, -0.130997,  3.019310 )     2.11740440
  WF centre and spread   16  (  3.729964,  0.130997, -3.022218 )     2.11740441
  WF centre and spread   17  ( -2.404267,  2.567605,  0.394212 )     2.11688745
  WF centre and spread   18  ( -1.625428, -1.823127, -5.647634 )     2.10786289
  WF centre and spread   19  (  1.625429,  1.823130,  0.393896 )     2.10786326
  WF centre and spread   20  (  2.404268, -2.567604, -5.647317 )     2.11688415
  WF centre and spread   21  (  2.406867, -2.564873, -0.393896 )     2.10786114
  WF centre and spread   22  (  1.628028,  1.820399,  5.647318 )     2.11688528
  WF centre and spread   23  ( -2.406865,  2.564873,  5.647635 )     2.10786347
  WF centre and spread   24  ( -1.628026, -1.820397, -0.394212 )     2.11688326
  WF centre and spread   25  (  2.346626, -2.457583, -5.744242 )     3.86516016
  WF centre and spread   26  ( -1.685668, -1.930418, -0.297289 )     3.86515944
  WF centre and spread   27  (  1.685670,  1.930420,  5.744242 )     3.86515828
  WF centre and spread   28  ( -2.346625,  2.457584,  0.297288 )     3.86516331
  WF centre and spread   29  (  0.215191, -4.265179,  3.017503 )     4.03331545
  WF centre and spread   30  ( -3.817103, -0.122823,  3.024028 )     4.03331730
  WF centre and spread   31  ( -1.691572, -1.923913, -5.744175 )     3.88262754
  WF centre and spread   32  (  2.340722, -2.464089, -0.297355 )     3.88263614
  WF centre and spread   33  ( -2.340721,  2.464090,  5.744176 )     3.88263226
  WF centre and spread   34  (  1.691574,  1.923913,  0.297354 )     3.88263709
  WF centre and spread   35  ( -0.215191,  4.265180, -3.024024 )     4.03331820
  WF centre and spread   36  (  3.817104,  0.122823, -3.017499 )     4.03332013
  Sum of centres and spreads (  0.000014, -8.775990,  0.000019 )    96.03983600
 
         Spreads (Ang^2)       Omega I      =    94.715002104
        ================       Omega D      =     0.003793079
                               Omega OD     =     1.321040819
    Final Spread (Ang^2)       Omega Total  =    96.039836002
 ------------------------------------------------------------------------------
 Time for wannierise            5.778 (sec)

 Writing checkpoint file mp-732337.chk... done

 Time for plotting              0.000 (sec)
 Total Execution Time           6.380 (sec)

 *===========================================================================*
 |                             TIMING INFORMATION                            |
 *===========================================================================*
 |    Tag                                                Ncalls      Time (s)|
 |---------------------------------------------------------------------------|
 |kmesh: get                                        :         1         0.061|
 |overlap: allocate                                 :         1         0.004|
 |overlap: read                                     :         1         0.517|
 |wann: main                                        :         1         5.778|
 |plot: main                                        :         1         0.000|
 *---------------------------------------------------------------------------*
 
 All done: wannier90 exiting
