 vasp.5.4.4.18Apr17-6-g9f103f2a35 (build Aug 24 2017 11:22:49) complex          
  
 executed on             LinuxIFC date 2023.12.25  13:07:46
 running on    8 total cores
 distrk:  each k-point on    8 cores,    1 groups
 distr:  one band on NCORES_PER_BAND=   1 cores,    8 groups


--------------------------------------------------------------------------------------------------------


 INCAR:
 POTCAR:    PAW_PBE Ar 07Sep2000                  

 ----------------------------------------------------------------------------- 
|                                                                             |
|           W    W    AA    RRRRR   N    N  II  N    N   GGGG   !!!           |
|           W    W   A  A   R    R  NN   N  II  NN   N  G    G  !!!           |
|           W    W  A    A  R    R  N N  N  II  N N  N  G       !!!           |
|           W WW W  AAAAAA  RRRRR   N  N N  II  N  N N  G  GGG   !            |
|           WW  WW  A    A  R   R   N   NN  II  N   NN  G    G                |
|           W    W  A    A  R    R  N    N  II  N    N   GGGG   !!!           |
|                                                                             |
|      For optimal performance we recommend to set                            |
|        NCORE= 4 - approx SQRT( number of cores)                             |
|      NCORE specifies how many cores store one orbital (NPAR=cpu/NCORE).     |
|      This setting can  greatly improve the performance of VASP for DFT.     |
|      The default,   NCORE=1            might be grossly inefficient         |
|      on modern multi-core architectures or massively parallel machines.     |
|      Do your own testing !!!!                                               |
|      Unfortunately you need to use the default for GW and RPA calculations. |
|      (for HF NCORE is supported but not extensively tested yet)             |
|                                                                             |
 ----------------------------------------------------------------------------- 

 POTCAR:    PAW_PBE Ar 07Sep2000                  
   VRHFIN =Ar: s2p6                                                             
   LEXCH  = PE                                                                  
   EATOM  =   579.0493 eV,   42.5589 Ry                                         
                                                                                
   TITEL  = PAW_PBE Ar 07Sep2000                                                
   LULTRA =        F    use ultrasoft PP ?                                      
   IUNSCR =        1    unscreen: 0-lin 1-nonlin 2-no                           
   RPACOR =    2.000    partial core radius                                     
   POMASS =   39.949; ZVAL   =    8.000    mass and valenz                      
   RCORE  =    1.900    outmost cutoff radius                                   
   RWIGS  =    1.800; RWIGS  =    0.953    wigner-seitz radius (au A)           
   ENMAX  =  266.408; ENMIN  =  199.806 eV                                      
   ICORE  =        2    local potential                                         
   LCOR   =        T    correct aug charges                                     
   LPAW   =        T    paw PP                                                  
   EAUG   =  482.930                                                            
   DEXC   =    0.000                                                            
   RMAX   =    1.945    core radius for proj-oper                               
   RAUG   =    1.300    factor for augmentation sphere                          
   RDEP   =    1.972    radius for radial grids                                 
   RDEPT  =    1.517    core radius for aug-charge                              
                                                                                
   Atomic configuration                                                         
    6 entries                                                                   
     n  l   j            E        occ.                                          
     1  0  0.50     -3120.2029   2.0000                                         
     2  0  0.50      -296.9756   2.0000                                         
     2  1  1.50      -229.8673   6.0000                                         
     3  0  0.50       -24.2863   2.0000                                         
     3  1  0.50       -10.2695   6.0000                                         
     3  2  1.50        -2.7212   0.0000                                         
   Description                                                                  
     l       E           TYP  RCUT    TYP  RCUT                                 
     0    -24.2863172     23  1.500                                             
     0     54.4233040     23  1.500                                             
     1    -10.2694819     23  1.900                                             
     2     -2.7211652     23  1.500                                             
  local pseudopotential read in
  partial core-charges read in
  partial kinetic energy density read in
  atomic valenz-charges read in
  non local Contribution for L=           0  read in
    real space projection operators read in
  non local Contribution for L=           0  read in
    real space projection operators read in
  non local Contribution for L=           1  read in
    real space projection operators read in
    PAW grid and wavefunctions read in
 
   number of l-projection  operators is LMAX  =           3
   number of lm-projection operators is LMMAX =           5
 
  PAW_PBE Ar 07Sep2000                  :
 energy of atom  1       EATOM= -579.0493
 kinetic energy error for atom=    0.0049 (will be added to EATOM!!)
 
 
 POSCAR: Ar1                                     
  positions in direct lattice
  No initial velocities read in
 exchange correlation table for  LEXCH =        8
   RHO(1)=    0.500       N(1)  =     2000
   RHO(2)=  100.500       N(2)  =     4000
 


--------------------------------------------------------------------------------------------------------


 ion  position               nearest neighbor table
   1  0.000  0.000  0.000-
 
  LATTYP: Found a face centered cubic cell.
 ALAT       =     5.3631594354
  
  Lattice vectors:
  
 A1 = (  -2.6815797177,   0.0000000000,   2.6815797177)
 A2 = (   0.0000000000,   2.6815797177,   2.6815797177)
 A3 = (  -2.6815797177,   2.6815797177,   0.0000000000)


Analysis of symmetry for initial positions (statically):
=====================================================================
 Subroutine PRICEL returns:
 Original cell was already a primitive cell.
 

 Routine SETGRP: Setting up the symmetry group for a 
 face centered cubic supercell.


 Subroutine GETGRP returns: Found 48 space group operations
 (whereof 48 operations were pure point group operations)
 out of a pool of 48 trial point group operations.


The static configuration has the point symmetry O_h .


Analysis of symmetry for dynamics (positions and initial velocities):
=====================================================================
 Subroutine PRICEL returns:
 Original cell was already a primitive cell.
 

 Routine SETGRP: Setting up the symmetry group for a 
 face centered cubic supercell.


 Subroutine GETGRP returns: Found 48 space group operations
 (whereof 48 operations were pure point group operations)
 out of a pool of 48 trial point group operations.


The dynamic configuration has the point symmetry O_h .


 Subroutine INISYM returns: Found 48 space group operations
 (whereof 48 operations are pure point group operations),
 and found     1 'primitive' translations

 
 
 KPOINTS: pymatgen with grid density = 3000 / numb

Automatic generation of k-mesh.
Space group operators:
 irot       det(A)        alpha          n_x          n_y          n_z        tau_x        tau_y        tau_z
    1     1.000000     0.000000     1.000000     0.000000     0.000000     0.000000     0.000000     0.000000
    2    -1.000000     0.000000     1.000000     0.000000     0.000000     0.000000     0.000000     0.000000
    3     1.000000   120.000000     0.577350    -0.577350    -0.577350     0.000000     0.000000     0.000000
    4    -1.000000   120.000000     0.577350    -0.577350    -0.577350     0.000000     0.000000     0.000000
    5     1.000000   120.000000    -0.577350     0.577350     0.577350     0.000000     0.000000     0.000000
    6    -1.000000   120.000000    -0.577350     0.577350     0.577350     0.000000     0.000000     0.000000
    7     1.000000    90.000000     0.000000     0.000000    -1.000000     0.000000     0.000000     0.000000
    8    -1.000000    90.000000     0.000000     0.000000    -1.000000     0.000000     0.000000     0.000000
    9     1.000000   180.000000     0.707107     0.000000    -0.707107     0.000000     0.000000     0.000000
   10    -1.000000   180.000000     0.707107     0.000000    -0.707107     0.000000     0.000000     0.000000
   11     1.000000    90.000000    -1.000000    -0.000000    -0.000000     0.000000     0.000000     0.000000
   12    -1.000000    90.000000    -1.000000    -0.000000    -0.000000     0.000000     0.000000     0.000000
   13     1.000000   180.000000    -0.000000     0.000000    -1.000000     0.000000     0.000000     0.000000
   14    -1.000000   180.000000    -0.000000     0.000000    -1.000000     0.000000     0.000000     0.000000
   15     1.000000   120.000000    -0.577350    -0.577350     0.577350     0.000000     0.000000     0.000000
   16    -1.000000   120.000000    -0.577350    -0.577350     0.577350     0.000000     0.000000     0.000000
   17     1.000000   120.000000    -0.577350    -0.577350    -0.577350     0.000000     0.000000     0.000000
   18    -1.000000   120.000000    -0.577350    -0.577350    -0.577350     0.000000     0.000000     0.000000
   19     1.000000    90.000000    -0.000000     0.000000     1.000000     0.000000     0.000000     0.000000
   20    -1.000000    90.000000    -0.000000     0.000000     1.000000     0.000000     0.000000     0.000000
   21     1.000000    90.000000    -0.000000    -1.000000     0.000000     0.000000     0.000000     0.000000
   22    -1.000000    90.000000    -0.000000    -1.000000     0.000000     0.000000     0.000000     0.000000
   23     1.000000   180.000000    -0.000000     0.707107     0.707107     0.000000     0.000000     0.000000
   24    -1.000000   180.000000    -0.000000     0.707107     0.707107     0.000000     0.000000     0.000000
   25     1.000000   120.000000     0.577350     0.577350     0.577350     0.000000     0.000000     0.000000
   26    -1.000000   120.000000     0.577350     0.577350     0.577350     0.000000     0.000000     0.000000
   27     1.000000   120.000000     0.577350    -0.577350     0.577350     0.000000     0.000000     0.000000
   28    -1.000000   120.000000     0.577350    -0.577350     0.577350     0.000000     0.000000     0.000000
   29     1.000000   180.000000    -0.000000    -1.000000    -0.000000     0.000000     0.000000     0.000000
   30    -1.000000   180.000000    -0.000000    -1.000000    -0.000000     0.000000     0.000000     0.000000
   31     1.000000    90.000000     1.000000     0.000000    -0.000000     0.000000     0.000000     0.000000
   32    -1.000000    90.000000     1.000000     0.000000    -0.000000     0.000000     0.000000     0.000000
   33     1.000000   180.000000     0.707107    -0.707107     0.000000     0.000000     0.000000     0.000000
   34    -1.000000   180.000000     0.707107    -0.707107     0.000000     0.000000     0.000000     0.000000
   35     1.000000    90.000000     0.000000     1.000000     0.000000     0.000000     0.000000     0.000000
   36    -1.000000    90.000000     0.000000     1.000000     0.000000     0.000000     0.000000     0.000000
   37     1.000000   120.000000     0.577350     0.577350    -0.577350     0.000000     0.000000     0.000000
   38    -1.000000   120.000000     0.577350     0.577350    -0.577350     0.000000     0.000000     0.000000
   39     1.000000   180.000000     1.000000     0.000000     0.000000     0.000000     0.000000     0.000000
   40    -1.000000   180.000000     1.000000     0.000000     0.000000     0.000000     0.000000     0.000000
   41     1.000000   120.000000    -0.577350     0.577350    -0.577350     0.000000     0.000000     0.000000
   42    -1.000000   120.000000    -0.577350     0.577350    -0.577350     0.000000     0.000000     0.000000
   43     1.000000   180.000000     0.707107     0.000000     0.707107     0.000000     0.000000     0.000000
   44    -1.000000   180.000000     0.707107     0.000000     0.707107     0.000000     0.000000     0.000000
   45     1.000000   180.000000     0.707107     0.707107    -0.000000     0.000000     0.000000     0.000000
   46    -1.000000   180.000000     0.707107     0.707107    -0.000000     0.000000     0.000000     0.000000
   47     1.000000   180.000000     0.000000    -0.707107     0.707107     0.000000     0.000000     0.000000
   48    -1.000000   180.000000     0.000000    -0.707107     0.707107     0.000000     0.000000     0.000000
 
 Subroutine IBZKPT returns following result:
 ===========================================
 
 Found    104 irreducible k-points:
 
 Following reciprocal coordinates:
            Coordinates               Weight
  0.000000  0.000000  0.000000      1.000000
  0.071429  0.000000  0.000000      8.000000
  0.142857 -0.000000 -0.000000      8.000000
  0.214286  0.000000  0.000000      8.000000
  0.285714  0.000000  0.000000      8.000000
  0.357143  0.000000  0.000000      8.000000
  0.428571  0.000000  0.000000      8.000000
  0.500000  0.000000  0.000000      4.000000
  0.071429  0.071429  0.000000      6.000000
  0.142857  0.071429  0.000000     24.000000
  0.214286  0.071429  0.000000     24.000000
  0.285714  0.071429  0.000000     24.000000
  0.357143  0.071429 -0.000000     24.000000
  0.428571  0.071429  0.000000     24.000000
  0.500000  0.071429  0.000000     24.000000
 -0.428571  0.071429  0.000000     24.000000
 -0.357143  0.071429 -0.000000     24.000000
 -0.285714  0.071429  0.000000     24.000000
 -0.214286  0.071429 -0.000000     24.000000
 -0.142857  0.071429 -0.000000     24.000000
 -0.071429  0.071429 -0.000000     12.000000
  0.142857  0.142857  0.000000      6.000000
  0.214286  0.142857  0.000000     24.000000
  0.285714  0.142857  0.000000     24.000000
  0.357143  0.142857 -0.000000     24.000000
  0.428571  0.142857  0.000000     24.000000
  0.500000  0.142857 -0.000000     24.000000
 -0.428571  0.142857  0.000000     24.000000
 -0.357143  0.142857 -0.000000     24.000000
 -0.285714  0.142857 -0.000000     24.000000
 -0.214286  0.142857 -0.000000     24.000000
 -0.142857  0.142857 -0.000000     12.000000
  0.214286  0.214286  0.000000      6.000000
  0.285714  0.214286  0.000000     24.000000
  0.357143  0.214286  0.000000     24.000000
  0.428571  0.214286  0.000000     24.000000
  0.500000  0.214286  0.000000     24.000000
 -0.428571  0.214286 -0.000000     24.000000
 -0.357143  0.214286 -0.000000     24.000000
 -0.285714  0.214286 -0.000000     24.000000
 -0.214286  0.214286 -0.000000     12.000000
  0.285714  0.285714  0.000000      6.000000
  0.357143  0.285714  0.000000     24.000000
  0.428571  0.285714  0.000000     24.000000
  0.500000  0.285714  0.000000     24.000000
 -0.428571  0.285714  0.000000     24.000000
 -0.357143  0.285714 -0.000000     24.000000
 -0.285714  0.285714 -0.000000     12.000000
  0.357143  0.357143  0.000000      6.000000
  0.428571  0.357143  0.000000     24.000000
  0.500000  0.357143  0.000000     24.000000
 -0.428571  0.357143 -0.000000     24.000000
 -0.357143  0.357143  0.000000     12.000000
  0.428571  0.428571  0.000000      6.000000
  0.500000  0.428571  0.000000     24.000000
 -0.428571  0.428571 -0.000000     12.000000
  0.500000  0.500000  0.000000      3.000000
  0.214286  0.142857  0.071429     24.000000
  0.285714  0.142857  0.071429     48.000000
  0.357143  0.142857  0.071429     48.000000
  0.428571  0.142857  0.071429     48.000000
  0.500000  0.142857  0.071429     48.000000
 -0.428571  0.142857  0.071429     24.000000
  0.285714  0.214286  0.071429     24.000000
  0.357143  0.214286  0.071429     48.000000
  0.428571  0.214286  0.071429     48.000000
  0.500000  0.214286  0.071429     48.000000
 -0.428571  0.214286  0.071429     48.000000
 -0.357143  0.214286  0.071429     48.000000
 -0.285714  0.214286  0.071429     48.000000
 -0.214286  0.214286  0.071429     48.000000
 -0.142857  0.214286  0.071429     24.000000
  0.357143  0.285714  0.071429     24.000000
  0.428571  0.285714  0.071429     48.000000
  0.500000  0.285714  0.071429     48.000000
 -0.428571  0.285714  0.071429     48.000000
 -0.357143  0.285714  0.071429     48.000000
 -0.285714  0.285714  0.071429     48.000000
 -0.214286  0.285714  0.071429     24.000000
  0.428571  0.357143  0.071429     24.000000
  0.500000  0.357143  0.071429     48.000000
 -0.428571  0.357143  0.071429     48.000000
 -0.357143  0.357143  0.071429     48.000000
 -0.285714  0.357143  0.071429     24.000000
  0.500000  0.428571  0.071429     24.000000
 -0.428571  0.428571  0.071429     48.000000
 -0.357143  0.428571  0.071429     24.000000
 -0.428571  0.500000  0.071429     12.000000
  0.428571  0.285714  0.142857     24.000000
  0.500000  0.285714  0.142857     48.000000
 -0.428571  0.285714  0.142857     48.000000
 -0.357143  0.285714  0.142857     24.000000
  0.500000  0.357143  0.142857     24.000000
 -0.428571  0.357143  0.142857     48.000000
 -0.357143  0.357143  0.142857     48.000000
 -0.285714  0.357143  0.142857     48.000000
 -0.214286  0.357143  0.142857     24.000000
 -0.428571  0.428571  0.142857     24.000000
 -0.357143  0.428571  0.142857     48.000000
 -0.285714  0.428571  0.142857     24.000000
 -0.357143  0.500000  0.142857     12.000000
 -0.357143  0.428571  0.214286     24.000000
 -0.285714  0.428571  0.214286     24.000000
 -0.285714  0.500000  0.214286     12.000000
 
 Following cartesian coordinates:
            Coordinates               Weight
  0.000000  0.000000  0.000000      1.000000
 -0.013318 -0.013318  0.013318      8.000000
 -0.026637 -0.026637  0.026637      8.000000
 -0.039955 -0.039955  0.039955      8.000000
 -0.053274 -0.053274  0.053274      8.000000
 -0.066592 -0.066592  0.066592      8.000000
 -0.079910 -0.079910  0.079910      8.000000
 -0.093229 -0.093229  0.093229      4.000000
  0.000000  0.000000  0.026637      6.000000
 -0.013318 -0.013318  0.039955     24.000000
 -0.026637 -0.026637  0.053274     24.000000
 -0.039955 -0.039955  0.066592     24.000000
 -0.053274 -0.053274  0.079910     24.000000
 -0.066592 -0.066592  0.093229     24.000000
 -0.079910 -0.079910  0.106547     24.000000
  0.093229  0.093229 -0.066592     24.000000
  0.079910  0.079910 -0.053274     24.000000
  0.066592  0.066592 -0.039955     24.000000
  0.053274  0.053274 -0.026637     24.000000
  0.039955  0.039955 -0.013318     24.000000
  0.026637  0.026637  0.000000     12.000000
  0.000000  0.000000  0.053274      6.000000
 -0.013318 -0.013318  0.066592     24.000000
 -0.026637 -0.026637  0.079910     24.000000
 -0.039955 -0.039955  0.093229     24.000000
 -0.053274 -0.053274  0.106547     24.000000
 -0.066592 -0.066592  0.119865     24.000000
  0.106547  0.106547 -0.053274     24.000000
  0.093229  0.093229 -0.039955     24.000000
  0.079910  0.079910 -0.026637     24.000000
  0.066592  0.066592 -0.013318     24.000000
  0.053274  0.053274  0.000000     12.000000
  0.000000  0.000000  0.079910      6.000000
 -0.013318 -0.013318  0.093229     24.000000
 -0.026637 -0.026637  0.106547     24.000000
 -0.039955 -0.039955  0.119865     24.000000
 -0.053274 -0.053274  0.133184     24.000000
  0.119865  0.119865 -0.039955     24.000000
  0.106547  0.106547 -0.026637     24.000000
  0.093229  0.093229 -0.013318     24.000000
  0.079910  0.079910  0.000000     12.000000
 -0.000000 -0.000000  0.106547      6.000000
 -0.013318 -0.013318  0.119865     24.000000
 -0.026637 -0.026637  0.133184     24.000000
 -0.039955 -0.039955  0.146502     24.000000
  0.133184  0.133184 -0.026637     24.000000
  0.119865  0.119865 -0.013318     24.000000
  0.106547  0.106547 -0.000000     12.000000
  0.000000  0.000000  0.133184      6.000000
 -0.013318 -0.013318  0.146502     24.000000
 -0.026637 -0.026637  0.159821     24.000000
  0.146502  0.146502 -0.013318     24.000000
  0.133184  0.133184  0.000000     12.000000
  0.000000  0.000000  0.159821      6.000000
 -0.013318 -0.013318  0.173139     24.000000
  0.159821  0.159821  0.000000     12.000000
  0.000000  0.000000  0.186457      3.000000
 -0.026637  0.000000  0.053274     24.000000
 -0.039955 -0.013318  0.066592     48.000000
 -0.053274 -0.026637  0.079910     48.000000
 -0.066592 -0.039955  0.093229     48.000000
 -0.079910 -0.053274  0.106547     48.000000
  0.093229  0.119865 -0.066592     24.000000
 -0.026637 -0.000000  0.079910     24.000000
 -0.039955 -0.013318  0.093229     48.000000
 -0.053274 -0.026637  0.106547     48.000000
 -0.066592 -0.039955  0.119865     48.000000
  0.106547  0.133184 -0.053274     48.000000
  0.093229  0.119865 -0.039955     48.000000
  0.079910  0.106547 -0.026637     48.000000
  0.066592  0.093229 -0.013318     48.000000
  0.053274  0.079910  0.000000     24.000000
 -0.026637  0.000000  0.106547     24.000000
 -0.039955 -0.013318  0.119865     48.000000
 -0.053274 -0.026637  0.133184     48.000000
  0.119865  0.146502 -0.039955     48.000000
  0.106547  0.133184 -0.026637     48.000000
  0.093229  0.119865 -0.013318     48.000000
  0.079910  0.106547  0.000000     24.000000
 -0.026637 -0.000000  0.133184     24.000000
 -0.039955 -0.013318  0.146502     48.000000
  0.133184  0.159821 -0.026637     48.000000
  0.119865  0.146502 -0.013318     48.000000
  0.106547  0.133184  0.000000     24.000000
 -0.026637 -0.000000  0.159821     24.000000
  0.146502  0.173139 -0.013318     48.000000
  0.133184  0.159821  0.000000     24.000000
  0.159821  0.186457  0.000000     12.000000
 -0.053274  0.000000  0.106547     24.000000
 -0.066592 -0.013318  0.119865     48.000000
  0.106547  0.159821 -0.053274     48.000000
  0.093229  0.146502 -0.039955     24.000000
 -0.053274  0.000000  0.133184     24.000000
  0.119865  0.173139 -0.039955     48.000000
  0.106547  0.159821 -0.026637     48.000000
  0.093229  0.146502 -0.013318     48.000000
  0.079910  0.133184  0.000000     24.000000
  0.133184  0.186457 -0.026637     24.000000
  0.119865  0.173139 -0.013318     48.000000
  0.106547  0.159821  0.000000     24.000000
  0.133184  0.186457  0.000000     12.000000
  0.106547  0.186457 -0.026637     24.000000
  0.093229  0.173139 -0.013318     24.000000
  0.106547  0.186457 -0.000000     12.000000
 
 
 Subroutine IBZKPT_HF returns following result:
 ==============================================
 
 Found   2744 k-points in 1st BZ
 the following   2744 k-points will be used (e.g. in the exchange kernel)
 Following reciprocal coordinates:   # in IRBZ
  0.000000  0.000000  0.000000    0.00036443   1 t-inv F
  0.071429  0.000000  0.000000    0.00036443   2 t-inv F
  0.142857 -0.000000 -0.000000    0.00036443   3 t-inv F
  0.214286  0.000000  0.000000    0.00036443   4 t-inv F
  0.285714  0.000000  0.000000    0.00036443   5 t-inv F
  0.357143  0.000000  0.000000    0.00036443   6 t-inv F
  0.428571  0.000000  0.000000    0.00036443   7 t-inv F
  0.500000  0.000000  0.000000    0.00036443   8 t-inv F
  0.071429  0.071429  0.000000    0.00036443   9 t-inv F
  0.142857  0.071429  0.000000    0.00036443  10 t-inv F
  0.214286  0.071429  0.000000    0.00036443  11 t-inv F
  0.285714  0.071429  0.000000    0.00036443  12 t-inv F
  0.357143  0.071429 -0.000000    0.00036443  13 t-inv F
  0.428571  0.071429  0.000000    0.00036443  14 t-inv F
  0.500000  0.071429  0.000000    0.00036443  15 t-inv F
 -0.428571  0.071429  0.000000    0.00036443  16 t-inv F
 -0.357143  0.071429 -0.000000    0.00036443  17 t-inv F
 -0.285714  0.071429  0.000000    0.00036443  18 t-inv F
 -0.214286  0.071429 -0.000000    0.00036443  19 t-inv F
 -0.142857  0.071429 -0.000000    0.00036443  20 t-inv F
 -0.071429  0.071429 -0.000000    0.00036443  21 t-inv F
  0.142857  0.142857  0.000000    0.00036443  22 t-inv F
  0.214286  0.142857  0.000000    0.00036443  23 t-inv F
  0.285714  0.142857  0.000000    0.00036443  24 t-inv F
  0.357143  0.142857 -0.000000    0.00036443  25 t-inv F
  0.428571  0.142857  0.000000    0.00036443  26 t-inv F
  0.500000  0.142857 -0.000000    0.00036443  27 t-inv F
 -0.428571  0.142857  0.000000    0.00036443  28 t-inv F
 -0.357143  0.142857 -0.000000    0.00036443  29 t-inv F
 -0.285714  0.142857 -0.000000    0.00036443  30 t-inv F
 -0.214286  0.142857 -0.000000    0.00036443  31 t-inv F
 -0.142857  0.142857 -0.000000    0.00036443  32 t-inv F
  0.214286  0.214286  0.000000    0.00036443  33 t-inv F
  0.285714  0.214286  0.000000    0.00036443  34 t-inv F
  0.357143  0.214286  0.000000    0.00036443  35 t-inv F
  0.428571  0.214286  0.000000    0.00036443  36 t-inv F
  0.500000  0.214286  0.000000    0.00036443  37 t-inv F
 -0.428571  0.214286 -0.000000    0.00036443  38 t-inv F
 -0.357143  0.214286 -0.000000    0.00036443  39 t-inv F
 -0.285714  0.214286 -0.000000    0.00036443  40 t-inv F
 -0.214286  0.214286 -0.000000    0.00036443  41 t-inv F
  0.285714  0.285714  0.000000    0.00036443  42 t-inv F
  0.357143  0.285714  0.000000    0.00036443  43 t-inv F
  0.428571  0.285714  0.000000    0.00036443  44 t-inv F
  0.500000  0.285714  0.000000    0.00036443  45 t-inv F
 -0.428571  0.285714  0.000000    0.00036443  46 t-inv F
 -0.357143  0.285714 -0.000000    0.00036443  47 t-inv F
 -0.285714  0.285714 -0.000000    0.00036443  48 t-inv F
  0.357143  0.357143  0.000000    0.00036443  49 t-inv F
  0.428571  0.357143  0.000000    0.00036443  50 t-inv F
  0.500000  0.357143  0.000000    0.00036443  51 t-inv F
 -0.428571  0.357143 -0.000000    0.00036443  52 t-inv F
 -0.357143  0.357143  0.000000    0.00036443  53 t-inv F
  0.428571  0.428571  0.000000    0.00036443  54 t-inv F
  0.500000  0.428571  0.000000    0.00036443  55 t-inv F
 -0.428571  0.428571 -0.000000    0.00036443  56 t-inv F
  0.500000  0.500000  0.000000    0.00036443  57 t-inv F
  0.214286  0.142857  0.071429    0.00036443  58 t-inv F
  0.285714  0.142857  0.071429    0.00036443  59 t-inv F
  0.357143  0.142857  0.071429    0.00036443  60 t-inv F
  0.428571  0.142857  0.071429    0.00036443  61 t-inv F
  0.500000  0.142857  0.071429    0.00036443  62 t-inv F
 -0.428571  0.142857  0.071429    0.00036443  63 t-inv F
  0.285714  0.214286  0.071429    0.00036443  64 t-inv F
  0.357143  0.214286  0.071429    0.00036443  65 t-inv F
  0.428571  0.214286  0.071429    0.00036443  66 t-inv F
  0.500000  0.214286  0.071429    0.00036443  67 t-inv F
 -0.428571  0.214286  0.071429    0.00036443  68 t-inv F
 -0.357143  0.214286  0.071429    0.00036443  69 t-inv F
 -0.285714  0.214286  0.071429    0.00036443  70 t-inv F
 -0.214286  0.214286  0.071429    0.00036443  71 t-inv F
 -0.142857  0.214286  0.071429    0.00036443  72 t-inv F
  0.357143  0.285714  0.071429    0.00036443  73 t-inv F
  0.428571  0.285714  0.071429    0.00036443  74 t-inv F
  0.500000  0.285714  0.071429    0.00036443  75 t-inv F
 -0.428571  0.285714  0.071429    0.00036443  76 t-inv F
 -0.357143  0.285714  0.071429    0.00036443  77 t-inv F
 -0.285714  0.285714  0.071429    0.00036443  78 t-inv F
 -0.214286  0.285714  0.071429    0.00036443  79 t-inv F
  0.428571  0.357143  0.071429    0.00036443  80 t-inv F
  0.500000  0.357143  0.071429    0.00036443  81 t-inv F
 -0.428571  0.357143  0.071429    0.00036443  82 t-inv F
 -0.357143  0.357143  0.071429    0.00036443  83 t-inv F
 -0.285714  0.357143  0.071429    0.00036443  84 t-inv F
  0.500000  0.428571  0.071429    0.00036443  85 t-inv F
 -0.428571  0.428571  0.071429    0.00036443  86 t-inv F
 -0.357143  0.428571  0.071429    0.00036443  87 t-inv F
 -0.428571  0.500000  0.071429    0.00036443  88 t-inv F
  0.428571  0.285714  0.142857    0.00036443  89 t-inv F
  0.500000  0.285714  0.142857    0.00036443  90 t-inv F
 -0.428571  0.285714  0.142857    0.00036443  91 t-inv F
 -0.357143  0.285714  0.142857    0.00036443  92 t-inv F
  0.500000  0.357143  0.142857    0.00036443  93 t-inv F
 -0.428571  0.357143  0.142857    0.00036443  94 t-inv F
 -0.357143  0.357143  0.142857    0.00036443  95 t-inv F
 -0.285714  0.357143  0.142857    0.00036443  96 t-inv F
 -0.214286  0.357143  0.142857    0.00036443  97 t-inv F
 -0.428571  0.428571  0.142857    0.00036443  98 t-inv F
 -0.357143  0.428571  0.142857    0.00036443  99 t-inv F
 -0.285714  0.428571  0.142857    0.00036443 100 t-inv F
 -0.357143  0.500000  0.142857    0.00036443 101 t-inv F
 -0.357143  0.428571  0.214286    0.00036443 102 t-inv F
 -0.285714  0.428571  0.214286    0.00036443 103 t-inv F
 -0.285714  0.500000  0.214286    0.00036443 104 t-inv F
 -0.071429 -0.000000 -0.000000    0.00036443   2 t-inv F
  0.000000  0.071429  0.000000    0.00036443   2 t-inv F
 -0.000000 -0.071429 -0.000000    0.00036443   2 t-inv F
  0.000000  0.000000  0.071429    0.00036443   2 t-inv F
 -0.000000 -0.000000 -0.071429    0.00036443   2 t-inv F
  0.071429  0.071429  0.071429    0.00036443   2 t-inv F
 -0.071429 -0.071429 -0.071429    0.00036443   2 t-inv F
 -0.142857  0.000000  0.000000    0.00036443   3 t-inv F
 -0.000000  0.142857 -0.000000    0.00036443   3 t-inv F
  0.000000 -0.142857  0.000000    0.00036443   3 t-inv F
 -0.000000 -0.000000  0.142857    0.00036443   3 t-inv F
  0.000000  0.000000 -0.142857    0.00036443   3 t-inv F
  0.142857  0.142857  0.142857    0.00036443   3 t-inv F
 -0.142857 -0.142857 -0.142857    0.00036443   3 t-inv F
 -0.214286 -0.000000 -0.000000    0.00036443   4 t-inv F
  0.000000  0.214286  0.000000    0.00036443   4 t-inv F
 -0.000000 -0.214286 -0.000000    0.00036443   4 t-inv F
  0.000000  0.000000  0.214286    0.00036443   4 t-inv F
 -0.000000 -0.000000 -0.214286    0.00036443   4 t-inv F
  0.214286  0.214286  0.214286    0.00036443   4 t-inv F
 -0.214286 -0.214286 -0.214286    0.00036443   4 t-inv F
 -0.285714 -0.000000 -0.000000    0.00036443   5 t-inv F
  0.000000  0.285714  0.000000    0.00036443   5 t-inv F
 -0.000000 -0.285714 -0.000000    0.00036443   5 t-inv F
  0.000000  0.000000  0.285714    0.00036443   5 t-inv F
 -0.000000 -0.000000 -0.285714    0.00036443   5 t-inv F
  0.285714  0.285714  0.285714    0.00036443   5 t-inv F
 -0.285714 -0.285714 -0.285714    0.00036443   5 t-inv F
 -0.357143 -0.000000 -0.000000    0.00036443   6 t-inv F
  0.000000  0.357143  0.000000    0.00036443   6 t-inv F
 -0.000000 -0.357143 -0.000000    0.00036443   6 t-inv F
  0.000000  0.000000  0.357143    0.00036443   6 t-inv F
 -0.000000 -0.000000 -0.357143    0.00036443   6 t-inv F
  0.357143  0.357143  0.357143    0.00036443   6 t-inv F
 -0.357143 -0.357143 -0.357143    0.00036443   6 t-inv F
 -0.428571 -0.000000 -0.000000    0.00036443   7 t-inv F
  0.000000  0.428571  0.000000    0.00036443   7 t-inv F
 -0.000000 -0.428571 -0.000000    0.00036443   7 t-inv F
  0.000000  0.000000  0.428571    0.00036443   7 t-inv F
 -0.000000 -0.000000 -0.428571    0.00036443   7 t-inv F
  0.428571  0.428571  0.428571    0.00036443   7 t-inv F
 -0.428571 -0.428571 -0.428571    0.00036443   7 t-inv F
  0.000000  0.500000  0.000000    0.00036443   8 t-inv F
  0.000000  0.000000  0.500000    0.00036443   8 t-inv F
  0.500000  0.500000  0.500000    0.00036443   8 t-inv F
 -0.071429 -0.071429 -0.000000    0.00036443   9 t-inv F
  0.000000  0.071429  0.071429    0.00036443   9 t-inv F
 -0.000000 -0.071429 -0.071429    0.00036443   9 t-inv F
  0.071429  0.000000  0.071429    0.00036443   9 t-inv F
 -0.071429 -0.000000 -0.071429    0.00036443   9 t-inv F
 -0.142857 -0.071429 -0.000000    0.00036443  10 t-inv F
  0.000000  0.142857  0.071429    0.00036443  10 t-inv F
 -0.000000 -0.142857 -0.071429    0.00036443  10 t-inv F
  0.071429  0.000000  0.142857    0.00036443  10 t-inv F
 -0.071429 -0.000000 -0.142857    0.00036443  10 t-inv F
  0.071429  0.071429 -0.071429    0.00036443  10 t-inv F
 -0.071429 -0.071429  0.071429    0.00036443  10 t-inv F
  0.142857  0.071429  0.142857    0.00036443  10 t-inv F
 -0.142857 -0.071429 -0.142857    0.00036443  10 t-inv F
  0.071429  0.142857 -0.000000    0.00036443  10 t-inv F
 -0.071429 -0.142857  0.000000    0.00036443  10 t-inv F
  0.071429 -0.071429 -0.071429    0.00036443  10 t-inv F
 -0.071429  0.071429  0.071429    0.00036443  10 t-inv F
  0.142857  0.142857  0.071429    0.00036443  10 t-inv F
 -0.142857 -0.142857 -0.071429    0.00036443  10 t-inv F
 -0.000000  0.071429  0.142857    0.00036443  10 t-inv F
  0.000000 -0.071429 -0.142857    0.00036443  10 t-inv F
 -0.071429  0.071429 -0.071429    0.00036443  10 t-inv F
  0.071429 -0.071429  0.071429    0.00036443  10 t-inv F
  0.071429  0.142857  0.142857    0.00036443  10 t-inv F
 -0.071429 -0.142857 -0.142857    0.00036443  10 t-inv F
  0.142857 -0.000000  0.071429    0.00036443  10 t-inv F
 -0.142857  0.000000 -0.071429    0.00036443  10 t-inv F
 -0.214286 -0.071429 -0.000000    0.00036443  11 t-inv F
  0.000000  0.214286  0.071429    0.00036443  11 t-inv F
 -0.000000 -0.214286 -0.071429    0.00036443  11 t-inv F
  0.071429  0.000000  0.214286    0.00036443  11 t-inv F
 -0.071429 -0.000000 -0.214286    0.00036443  11 t-inv F
  0.071429  0.071429 -0.142857    0.00036443  11 t-inv F
 -0.071429 -0.071429  0.142857    0.00036443  11 t-inv F
  0.214286  0.142857  0.214286    0.00036443  11 t-inv F
 -0.214286 -0.142857 -0.214286    0.00036443  11 t-inv F
  0.071429  0.214286 -0.000000    0.00036443  11 t-inv F
 -0.071429 -0.214286  0.000000    0.00036443  11 t-inv F
  0.142857 -0.071429 -0.071429    0.00036443  11 t-inv F
 -0.142857  0.071429  0.071429    0.00036443  11 t-inv F
  0.214286  0.214286  0.142857    0.00036443  11 t-inv F
 -0.214286 -0.214286 -0.142857    0.00036443  11 t-inv F
 -0.000000  0.071429  0.214286    0.00036443  11 t-inv F
  0.000000 -0.071429 -0.214286    0.00036443  11 t-inv F
 -0.071429  0.142857 -0.071429    0.00036443  11 t-inv F
  0.071429 -0.142857  0.071429    0.00036443  11 t-inv F
  0.142857  0.214286  0.214286    0.00036443  11 t-inv F
 -0.142857 -0.214286 -0.214286    0.00036443  11 t-inv F
  0.214286 -0.000000  0.071429    0.00036443  11 t-inv F
 -0.214286  0.000000 -0.071429    0.00036443  11 t-inv F
 -0.285714 -0.071429 -0.000000    0.00036443  12 t-inv F
  0.000000  0.285714  0.071429    0.00036443  12 t-inv F
 -0.000000 -0.285714 -0.071429    0.00036443  12 t-inv F
  0.071429  0.000000  0.285714    0.00036443  12 t-inv F
 -0.071429 -0.000000 -0.285714    0.00036443  12 t-inv F
  0.071429  0.071429 -0.214286    0.00036443  12 t-inv F
 -0.071429 -0.071429  0.214286    0.00036443  12 t-inv F
  0.285714  0.214286  0.285714    0.00036443  12 t-inv F
 -0.285714 -0.214286 -0.285714    0.00036443  12 t-inv F
  0.071429  0.285714 -0.000000    0.00036443  12 t-inv F
 -0.071429 -0.285714  0.000000    0.00036443  12 t-inv F
  0.214286 -0.071429 -0.071429    0.00036443  12 t-inv F
 -0.214286  0.071429  0.071429    0.00036443  12 t-inv F
  0.285714  0.285714  0.214286    0.00036443  12 t-inv F
 -0.285714 -0.285714 -0.214286    0.00036443  12 t-inv F
 -0.000000  0.071429  0.285714    0.00036443  12 t-inv F
  0.000000 -0.071429 -0.285714    0.00036443  12 t-inv F
 -0.071429  0.214286 -0.071429    0.00036443  12 t-inv F
  0.071429 -0.214286  0.071429    0.00036443  12 t-inv F
  0.214286  0.285714  0.285714    0.00036443  12 t-inv F
 -0.214286 -0.285714 -0.285714    0.00036443  12 t-inv F
  0.285714 -0.000000  0.071429    0.00036443  12 t-inv F
 -0.285714  0.000000 -0.071429    0.00036443  12 t-inv F
 -0.357143 -0.071429  0.000000    0.00036443  13 t-inv F
 -0.000000  0.357143  0.071429    0.00036443  13 t-inv F
  0.000000 -0.357143 -0.071429    0.00036443  13 t-inv F
  0.071429 -0.000000  0.357143    0.00036443  13 t-inv F
 -0.071429  0.000000 -0.357143    0.00036443  13 t-inv F
  0.071429  0.071429 -0.285714    0.00036443  13 t-inv F
 -0.071429 -0.071429  0.285714    0.00036443  13 t-inv F
  0.357143  0.285714  0.357143    0.00036443  13 t-inv F
 -0.357143 -0.285714 -0.357143    0.00036443  13 t-inv F
  0.071429  0.357143  0.000000    0.00036443  13 t-inv F
 -0.071429 -0.357143 -0.000000    0.00036443  13 t-inv F
  0.285714 -0.071429 -0.071429    0.00036443  13 t-inv F
 -0.285714  0.071429  0.071429    0.00036443  13 t-inv F
  0.357143  0.357143  0.285714    0.00036443  13 t-inv F
 -0.357143 -0.357143 -0.285714    0.00036443  13 t-inv F
  0.000000  0.071429  0.357143    0.00036443  13 t-inv F
 -0.000000 -0.071429 -0.357143    0.00036443  13 t-inv F
 -0.071429  0.285714 -0.071429    0.00036443  13 t-inv F
  0.071429 -0.285714  0.071429    0.00036443  13 t-inv F
  0.285714  0.357143  0.357143    0.00036443  13 t-inv F
 -0.285714 -0.357143 -0.357143    0.00036443  13 t-inv F
  0.357143  0.000000  0.071429    0.00036443  13 t-inv F
 -0.357143 -0.000000 -0.071429    0.00036443  13 t-inv F
 -0.428571 -0.071429 -0.000000    0.00036443  14 t-inv F
  0.000000  0.428571  0.071429    0.00036443  14 t-inv F
 -0.000000 -0.428571 -0.071429    0.00036443  14 t-inv F
  0.071429  0.000000  0.428571    0.00036443  14 t-inv F
 -0.071429 -0.000000 -0.428571    0.00036443  14 t-inv F
  0.071429  0.071429 -0.357143    0.00036443  14 t-inv F
 -0.071429 -0.071429  0.357143    0.00036443  14 t-inv F
  0.428571  0.357143  0.428571    0.00036443  14 t-inv F
 -0.428571 -0.357143 -0.428571    0.00036443  14 t-inv F
  0.071429  0.428571 -0.000000    0.00036443  14 t-inv F
 -0.071429 -0.428571  0.000000    0.00036443  14 t-inv F
  0.357143 -0.071429 -0.071429    0.00036443  14 t-inv F
 -0.357143  0.071429  0.071429    0.00036443  14 t-inv F
  0.428571  0.428571  0.357143    0.00036443  14 t-inv F
 -0.428571 -0.428571 -0.357143    0.00036443  14 t-inv F
 -0.000000  0.071429  0.428571    0.00036443  14 t-inv F
  0.000000 -0.071429 -0.428571    0.00036443  14 t-inv F
 -0.071429  0.357143 -0.071429    0.00036443  14 t-inv F
  0.071429 -0.357143  0.071429    0.00036443  14 t-inv F
  0.357143  0.428571  0.428571    0.00036443  14 t-inv F
 -0.357143 -0.428571 -0.428571    0.00036443  14 t-inv F
  0.428571 -0.000000  0.071429    0.00036443  14 t-inv F
 -0.428571  0.000000 -0.071429    0.00036443  14 t-inv F
 -0.500000 -0.071429 -0.000000    0.00036443  15 t-inv F
  0.000000  0.500000  0.071429    0.00036443  15 t-inv F
 -0.000000 -0.500000 -0.071429    0.00036443  15 t-inv F
  0.071429  0.000000  0.500000    0.00036443  15 t-inv F
 -0.071429 -0.000000 -0.500000    0.00036443  15 t-inv F
  0.071429  0.071429 -0.428571    0.00036443  15 t-inv F
 -0.071429 -0.071429  0.428571    0.00036443  15 t-inv F
  0.500000  0.428571  0.500000    0.00036443  15 t-inv F
 -0.500000 -0.428571 -0.500000    0.00036443  15 t-inv F
  0.071429  0.500000 -0.000000    0.00036443  15 t-inv F
 -0.071429 -0.500000  0.000000    0.00036443  15 t-inv F
  0.428571 -0.071429 -0.071429    0.00036443  15 t-inv F
 -0.428571  0.071429  0.071429    0.00036443  15 t-inv F
  0.500000  0.500000  0.428571    0.00036443  15 t-inv F
 -0.500000 -0.500000 -0.428571    0.00036443  15 t-inv F
 -0.000000  0.071429  0.500000    0.00036443  15 t-inv F
  0.000000 -0.071429 -0.500000    0.00036443  15 t-inv F
 -0.071429  0.428571 -0.071429    0.00036443  15 t-inv F
  0.071429 -0.428571  0.071429    0.00036443  15 t-inv F
  0.428571  0.500000  0.500000    0.00036443  15 t-inv F
 -0.428571 -0.500000 -0.500000    0.00036443  15 t-inv F
  0.500000 -0.000000  0.071429    0.00036443  15 t-inv F
 -0.500000  0.000000 -0.071429    0.00036443  15 t-inv F
  0.428571 -0.071429 -0.000000    0.00036443  16 t-inv F
  0.000000 -0.428571  0.071429    0.00036443  16 t-inv F
 -0.000000  0.428571 -0.071429    0.00036443  16 t-inv F
  0.071429  0.000000 -0.428571    0.00036443  16 t-inv F
 -0.071429 -0.000000  0.428571    0.00036443  16 t-inv F
  0.071429  0.071429  0.500000    0.00036443  16 t-inv F
 -0.071429 -0.071429 -0.500000    0.00036443  16 t-inv F
 -0.428571 -0.500000 -0.428571    0.00036443  16 t-inv F
  0.428571  0.500000  0.428571    0.00036443  16 t-inv F
  0.071429 -0.428571 -0.000000    0.00036443  16 t-inv F
 -0.071429  0.428571  0.000000    0.00036443  16 t-inv F
 -0.500000 -0.071429 -0.071429    0.00036443  16 t-inv F
  0.500000  0.071429  0.071429    0.00036443  16 t-inv F
 -0.428571 -0.428571 -0.500000    0.00036443  16 t-inv F
  0.428571  0.428571  0.500000    0.00036443  16 t-inv F
 -0.000000  0.071429 -0.428571    0.00036443  16 t-inv F
  0.000000 -0.071429  0.428571    0.00036443  16 t-inv F
 -0.071429 -0.500000 -0.071429    0.00036443  16 t-inv F
  0.071429  0.500000  0.071429    0.00036443  16 t-inv F
 -0.500000 -0.428571 -0.428571    0.00036443  16 t-inv F
  0.500000  0.428571  0.428571    0.00036443  16 t-inv F
 -0.428571 -0.000000  0.071429    0.00036443  16 t-inv F
  0.428571  0.000000 -0.071429    0.00036443  16 t-inv F
  0.357143 -0.071429  0.000000    0.00036443  17 t-inv F
 -0.000000 -0.357143  0.071429    0.00036443  17 t-inv F
  0.000000  0.357143 -0.071429    0.00036443  17 t-inv F
  0.071429 -0.000000 -0.357143    0.00036443  17 t-inv F
 -0.071429  0.000000  0.357143    0.00036443  17 t-inv F
  0.071429  0.071429  0.428571    0.00036443  17 t-inv F
 -0.071429 -0.071429 -0.428571    0.00036443  17 t-inv F
 -0.357143 -0.428571 -0.357143    0.00036443  17 t-inv F
  0.357143  0.428571  0.357143    0.00036443  17 t-inv F
  0.071429 -0.357143  0.000000    0.00036443  17 t-inv F
 -0.071429  0.357143 -0.000000    0.00036443  17 t-inv F
 -0.428571 -0.071429 -0.071429    0.00036443  17 t-inv F
  0.428571  0.071429  0.071429    0.00036443  17 t-inv F
 -0.357143 -0.357143 -0.428571    0.00036443  17 t-inv F
  0.357143  0.357143  0.428571    0.00036443  17 t-inv F
  0.000000  0.071429 -0.357143    0.00036443  17 t-inv F
 -0.000000 -0.071429  0.357143    0.00036443  17 t-inv F
 -0.071429 -0.428571 -0.071429    0.00036443  17 t-inv F
  0.071429  0.428571  0.071429    0.00036443  17 t-inv F
 -0.428571 -0.357143 -0.357143    0.00036443  17 t-inv F
  0.428571  0.357143  0.357143    0.00036443  17 t-inv F
 -0.357143  0.000000  0.071429    0.00036443  17 t-inv F
  0.357143 -0.000000 -0.071429    0.00036443  17 t-inv F
  0.285714 -0.071429 -0.000000    0.00036443  18 t-inv F
  0.000000 -0.285714  0.071429    0.00036443  18 t-inv F
 -0.000000  0.285714 -0.071429    0.00036443  18 t-inv F
  0.071429  0.000000 -0.285714    0.00036443  18 t-inv F
 -0.071429 -0.000000  0.285714    0.00036443  18 t-inv F
  0.071429  0.071429  0.357143    0.00036443  18 t-inv F
 -0.071429 -0.071429 -0.357143    0.00036443  18 t-inv F
 -0.285714 -0.357143 -0.285714    0.00036443  18 t-inv F
  0.285714  0.357143  0.285714    0.00036443  18 t-inv F
  0.071429 -0.285714 -0.000000    0.00036443  18 t-inv F
 -0.071429  0.285714  0.000000    0.00036443  18 t-inv F
 -0.357143 -0.071429 -0.071429    0.00036443  18 t-inv F
  0.357143  0.071429  0.071429    0.00036443  18 t-inv F
 -0.285714 -0.285714 -0.357143    0.00036443  18 t-inv F
  0.285714  0.285714  0.357143    0.00036443  18 t-inv F
 -0.000000  0.071429 -0.285714    0.00036443  18 t-inv F
  0.000000 -0.071429  0.285714    0.00036443  18 t-inv F
 -0.071429 -0.357143 -0.071429    0.00036443  18 t-inv F
  0.071429  0.357143  0.071429    0.00036443  18 t-inv F
 -0.357143 -0.285714 -0.285714    0.00036443  18 t-inv F
  0.357143  0.285714  0.285714    0.00036443  18 t-inv F
 -0.285714 -0.000000  0.071429    0.00036443  18 t-inv F
  0.285714  0.000000 -0.071429    0.00036443  18 t-inv F
  0.214286 -0.071429  0.000000    0.00036443  19 t-inv F
 -0.000000 -0.214286  0.071429    0.00036443  19 t-inv F
  0.000000  0.214286 -0.071429    0.00036443  19 t-inv F
  0.071429 -0.000000 -0.214286    0.00036443  19 t-inv F
 -0.071429  0.000000  0.214286    0.00036443  19 t-inv F
  0.071429  0.071429  0.285714    0.00036443  19 t-inv F
 -0.071429 -0.071429 -0.285714    0.00036443  19 t-inv F
 -0.214286 -0.285714 -0.214286    0.00036443  19 t-inv F
  0.214286  0.285714  0.214286    0.00036443  19 t-inv F
  0.071429 -0.214286  0.000000    0.00036443  19 t-inv F
 -0.071429  0.214286 -0.000000    0.00036443  19 t-inv F
 -0.285714 -0.071429 -0.071429    0.00036443  19 t-inv F
  0.285714  0.071429  0.071429    0.00036443  19 t-inv F
 -0.214286 -0.214286 -0.285714    0.00036443  19 t-inv F
  0.214286  0.214286  0.285714    0.00036443  19 t-inv F
  0.000000  0.071429 -0.214286    0.00036443  19 t-inv F
 -0.000000 -0.071429  0.214286    0.00036443  19 t-inv F
 -0.071429 -0.285714 -0.071429    0.00036443  19 t-inv F
  0.071429  0.285714  0.071429    0.00036443  19 t-inv F
 -0.285714 -0.214286 -0.214286    0.00036443  19 t-inv F
  0.285714  0.214286  0.214286    0.00036443  19 t-inv F
 -0.214286  0.000000  0.071429    0.00036443  19 t-inv F
  0.214286 -0.000000 -0.071429    0.00036443  19 t-inv F
  0.142857 -0.071429  0.000000    0.00036443  20 t-inv F
 -0.000000 -0.142857  0.071429    0.00036443  20 t-inv F
  0.000000  0.142857 -0.071429    0.00036443  20 t-inv F
  0.071429 -0.000000 -0.142857    0.00036443  20 t-inv F
 -0.071429  0.000000  0.142857    0.00036443  20 t-inv F
  0.071429  0.071429  0.214286    0.00036443  20 t-inv F
 -0.071429 -0.071429 -0.214286    0.00036443  20 t-inv F
 -0.142857 -0.214286 -0.142857    0.00036443  20 t-inv F
  0.142857  0.214286  0.142857    0.00036443  20 t-inv F
  0.071429 -0.142857  0.000000    0.00036443  20 t-inv F
 -0.071429  0.142857 -0.000000    0.00036443  20 t-inv F
 -0.214286 -0.071429 -0.071429    0.00036443  20 t-inv F
  0.214286  0.071429  0.071429    0.00036443  20 t-inv F
 -0.142857 -0.142857 -0.214286    0.00036443  20 t-inv F
  0.142857  0.142857  0.214286    0.00036443  20 t-inv F
  0.000000  0.071429 -0.142857    0.00036443  20 t-inv F
 -0.000000 -0.071429  0.142857    0.00036443  20 t-inv F
 -0.071429 -0.214286 -0.071429    0.00036443  20 t-inv F
  0.071429  0.214286  0.071429    0.00036443  20 t-inv F
 -0.214286 -0.142857 -0.142857    0.00036443  20 t-inv F
  0.214286  0.142857  0.142857    0.00036443  20 t-inv F
 -0.142857  0.000000  0.071429    0.00036443  20 t-inv F
  0.142857 -0.000000 -0.071429    0.00036443  20 t-inv F
  0.071429 -0.071429  0.000000    0.00036443  21 t-inv F
 -0.000000 -0.071429  0.071429    0.00036443  21 t-inv F
  0.000000  0.071429 -0.071429    0.00036443  21 t-inv F
  0.071429 -0.000000 -0.071429    0.00036443  21 t-inv F
 -0.071429  0.000000  0.071429    0.00036443  21 t-inv F
  0.071429  0.071429  0.142857    0.00036443  21 t-inv F
 -0.071429 -0.071429 -0.142857    0.00036443  21 t-inv F
 -0.071429 -0.142857 -0.071429    0.00036443  21 t-inv F
  0.071429  0.142857  0.071429    0.00036443  21 t-inv F
 -0.142857 -0.071429 -0.071429    0.00036443  21 t-inv F
  0.142857  0.071429  0.071429    0.00036443  21 t-inv F
 -0.142857 -0.142857 -0.000000    0.00036443  22 t-inv F
  0.000000  0.142857  0.142857    0.00036443  22 t-inv F
 -0.000000 -0.142857 -0.142857    0.00036443  22 t-inv F
  0.142857  0.000000  0.142857    0.00036443  22 t-inv F
 -0.142857 -0.000000 -0.142857    0.00036443  22 t-inv F
 -0.214286 -0.142857 -0.000000    0.00036443  23 t-inv F
  0.000000  0.214286  0.142857    0.00036443  23 t-inv F
 -0.000000 -0.214286 -0.142857    0.00036443  23 t-inv F
  0.142857  0.000000  0.214286    0.00036443  23 t-inv F
 -0.142857 -0.000000 -0.214286    0.00036443  23 t-inv F
  0.142857  0.142857 -0.071429    0.00036443  23 t-inv F
 -0.142857 -0.142857  0.071429    0.00036443  23 t-inv F
  0.214286  0.071429  0.214286    0.00036443  23 t-inv F
 -0.214286 -0.071429 -0.214286    0.00036443  23 t-inv F
  0.142857  0.214286 -0.000000    0.00036443  23 t-inv F
 -0.142857 -0.214286  0.000000    0.00036443  23 t-inv F
  0.071429 -0.142857 -0.142857    0.00036443  23 t-inv F
 -0.071429  0.142857  0.142857    0.00036443  23 t-inv F
  0.214286  0.214286  0.071429    0.00036443  23 t-inv F
 -0.214286 -0.214286 -0.071429    0.00036443  23 t-inv F
 -0.000000  0.142857  0.214286    0.00036443  23 t-inv F
  0.000000 -0.142857 -0.214286    0.00036443  23 t-inv F
 -0.142857  0.071429 -0.142857    0.00036443  23 t-inv F
  0.142857 -0.071429  0.142857    0.00036443  23 t-inv F
  0.071429  0.214286  0.214286    0.00036443  23 t-inv F
 -0.071429 -0.214286 -0.214286    0.00036443  23 t-inv F
  0.214286 -0.000000  0.142857    0.00036443  23 t-inv F
 -0.214286  0.000000 -0.142857    0.00036443  23 t-inv F
 -0.285714 -0.142857 -0.000000    0.00036443  24 t-inv F
  0.000000  0.285714  0.142857    0.00036443  24 t-inv F
 -0.000000 -0.285714 -0.142857    0.00036443  24 t-inv F
  0.142857  0.000000  0.285714    0.00036443  24 t-inv F
 -0.142857 -0.000000 -0.285714    0.00036443  24 t-inv F
  0.142857  0.142857 -0.142857    0.00036443  24 t-inv F
 -0.142857 -0.142857  0.142857    0.00036443  24 t-inv F
  0.285714  0.142857  0.285714    0.00036443  24 t-inv F
 -0.285714 -0.142857 -0.285714    0.00036443  24 t-inv F
  0.142857  0.285714 -0.000000    0.00036443  24 t-inv F
 -0.142857 -0.285714  0.000000    0.00036443  24 t-inv F
  0.142857 -0.142857 -0.142857    0.00036443  24 t-inv F
 -0.142857  0.142857  0.142857    0.00036443  24 t-inv F
  0.285714  0.285714  0.142857    0.00036443  24 t-inv F
 -0.285714 -0.285714 -0.142857    0.00036443  24 t-inv F
 -0.000000  0.142857  0.285714    0.00036443  24 t-inv F
  0.000000 -0.142857 -0.285714    0.00036443  24 t-inv F
 -0.142857  0.142857 -0.142857    0.00036443  24 t-inv F
  0.142857 -0.142857  0.142857    0.00036443  24 t-inv F
  0.142857  0.285714  0.285714    0.00036443  24 t-inv F
 -0.142857 -0.285714 -0.285714    0.00036443  24 t-inv F
  0.285714 -0.000000  0.142857    0.00036443  24 t-inv F
 -0.285714  0.000000 -0.142857    0.00036443  24 t-inv F
 -0.357143 -0.142857  0.000000    0.00036443  25 t-inv F
 -0.000000  0.357143  0.142857    0.00036443  25 t-inv F
  0.000000 -0.357143 -0.142857    0.00036443  25 t-inv F
  0.142857 -0.000000  0.357143    0.00036443  25 t-inv F
 -0.142857  0.000000 -0.357143    0.00036443  25 t-inv F
  0.142857  0.142857 -0.214286    0.00036443  25 t-inv F
 -0.142857 -0.142857  0.214286    0.00036443  25 t-inv F
  0.357143  0.214286  0.357143    0.00036443  25 t-inv F
 -0.357143 -0.214286 -0.357143    0.00036443  25 t-inv F
  0.142857  0.357143  0.000000    0.00036443  25 t-inv F
 -0.142857 -0.357143 -0.000000    0.00036443  25 t-inv F
  0.214286 -0.142857 -0.142857    0.00036443  25 t-inv F
 -0.214286  0.142857  0.142857    0.00036443  25 t-inv F
  0.357143  0.357143  0.214286    0.00036443  25 t-inv F
 -0.357143 -0.357143 -0.214286    0.00036443  25 t-inv F
  0.000000  0.142857  0.357143    0.00036443  25 t-inv F
 -0.000000 -0.142857 -0.357143    0.00036443  25 t-inv F
 -0.142857  0.214286 -0.142857    0.00036443  25 t-inv F
  0.142857 -0.214286  0.142857    0.00036443  25 t-inv F
  0.214286  0.357143  0.357143    0.00036443  25 t-inv F
 -0.214286 -0.357143 -0.357143    0.00036443  25 t-inv F
  0.357143  0.000000  0.142857    0.00036443  25 t-inv F
 -0.357143 -0.000000 -0.142857    0.00036443  25 t-inv F
 -0.428571 -0.142857 -0.000000    0.00036443  26 t-inv F
  0.000000  0.428571  0.142857    0.00036443  26 t-inv F
 -0.000000 -0.428571 -0.142857    0.00036443  26 t-inv F
  0.142857  0.000000  0.428571    0.00036443  26 t-inv F
 -0.142857 -0.000000 -0.428571    0.00036443  26 t-inv F
  0.142857  0.142857 -0.285714    0.00036443  26 t-inv F
 -0.142857 -0.142857  0.285714    0.00036443  26 t-inv F
  0.428571  0.285714  0.428571    0.00036443  26 t-inv F
 -0.428571 -0.285714 -0.428571    0.00036443  26 t-inv F
  0.142857  0.428571 -0.000000    0.00036443  26 t-inv F
 -0.142857 -0.428571  0.000000    0.00036443  26 t-inv F
  0.285714 -0.142857 -0.142857    0.00036443  26 t-inv F
 -0.285714  0.142857  0.142857    0.00036443  26 t-inv F
  0.428571  0.428571  0.285714    0.00036443  26 t-inv F
 -0.428571 -0.428571 -0.285714    0.00036443  26 t-inv F
 -0.000000  0.142857  0.428571    0.00036443  26 t-inv F
  0.000000 -0.142857 -0.428571    0.00036443  26 t-inv F
 -0.142857  0.285714 -0.142857    0.00036443  26 t-inv F
  0.142857 -0.285714  0.142857    0.00036443  26 t-inv F
  0.285714  0.428571  0.428571    0.00036443  26 t-inv F
 -0.285714 -0.428571 -0.428571    0.00036443  26 t-inv F
  0.428571 -0.000000  0.142857    0.00036443  26 t-inv F
 -0.428571  0.000000 -0.142857    0.00036443  26 t-inv F
 -0.500000 -0.142857  0.000000    0.00036443  27 t-inv F
 -0.000000  0.500000  0.142857    0.00036443  27 t-inv F
  0.000000 -0.500000 -0.142857    0.00036443  27 t-inv F
  0.142857 -0.000000  0.500000    0.00036443  27 t-inv F
 -0.142857  0.000000 -0.500000    0.00036443  27 t-inv F
  0.142857  0.142857 -0.357143    0.00036443  27 t-inv F
 -0.142857 -0.142857  0.357143    0.00036443  27 t-inv F
  0.500000  0.357143  0.500000    0.00036443  27 t-inv F
 -0.500000 -0.357143 -0.500000    0.00036443  27 t-inv F
  0.142857  0.500000  0.000000    0.00036443  27 t-inv F
 -0.142857 -0.500000 -0.000000    0.00036443  27 t-inv F
  0.357143 -0.142857 -0.142857    0.00036443  27 t-inv F
 -0.357143  0.142857  0.142857    0.00036443  27 t-inv F
  0.500000  0.500000  0.357143    0.00036443  27 t-inv F
 -0.500000 -0.500000 -0.357143    0.00036443  27 t-inv F
  0.000000  0.142857  0.500000    0.00036443  27 t-inv F
 -0.000000 -0.142857 -0.500000    0.00036443  27 t-inv F
 -0.142857  0.357143 -0.142857    0.00036443  27 t-inv F
  0.142857 -0.357143  0.142857    0.00036443  27 t-inv F
  0.357143  0.500000  0.500000    0.00036443  27 t-inv F
 -0.357143 -0.500000 -0.500000    0.00036443  27 t-inv F
  0.500000  0.000000  0.142857    0.00036443  27 t-inv F
 -0.500000 -0.000000 -0.142857    0.00036443  27 t-inv F
  0.428571 -0.142857 -0.000000    0.00036443  28 t-inv F
  0.000000 -0.428571  0.142857    0.00036443  28 t-inv F
 -0.000000  0.428571 -0.142857    0.00036443  28 t-inv F
  0.142857  0.000000 -0.428571    0.00036443  28 t-inv F
 -0.142857 -0.000000  0.428571    0.00036443  28 t-inv F
  0.142857  0.142857  0.571429    0.00036443  28 t-inv F
 -0.142857 -0.142857 -0.571429    0.00036443  28 t-inv F
 -0.428571 -0.571429 -0.428571    0.00036443  28 t-inv F
  0.428571  0.571429  0.428571    0.00036443  28 t-inv F
  0.142857 -0.428571 -0.000000    0.00036443  28 t-inv F
 -0.142857  0.428571  0.000000    0.00036443  28 t-inv F
 -0.571429 -0.142857 -0.142857    0.00036443  28 t-inv F
  0.571429  0.142857  0.142857    0.00036443  28 t-inv F
 -0.428571 -0.428571 -0.571429    0.00036443  28 t-inv F
  0.428571  0.428571  0.571429    0.00036443  28 t-inv F
 -0.000000  0.142857 -0.428571    0.00036443  28 t-inv F
  0.000000 -0.142857  0.428571    0.00036443  28 t-inv F
 -0.142857 -0.571429 -0.142857    0.00036443  28 t-inv F
  0.142857  0.571429  0.142857    0.00036443  28 t-inv F
 -0.571429 -0.428571 -0.428571    0.00036443  28 t-inv F
  0.571429  0.428571  0.428571    0.00036443  28 t-inv F
 -0.428571 -0.000000  0.142857    0.00036443  28 t-inv F
  0.428571  0.000000 -0.142857    0.00036443  28 t-inv F
  0.357143 -0.142857  0.000000    0.00036443  29 t-inv F
 -0.000000 -0.357143  0.142857    0.00036443  29 t-inv F
  0.000000  0.357143 -0.142857    0.00036443  29 t-inv F
  0.142857 -0.000000 -0.357143    0.00036443  29 t-inv F
 -0.142857  0.000000  0.357143    0.00036443  29 t-inv F
  0.142857  0.142857  0.500000    0.00036443  29 t-inv F
 -0.142857 -0.142857 -0.500000    0.00036443  29 t-inv F
 -0.357143 -0.500000 -0.357143    0.00036443  29 t-inv F
  0.357143  0.500000  0.357143    0.00036443  29 t-inv F
  0.142857 -0.357143  0.000000    0.00036443  29 t-inv F
 -0.142857  0.357143 -0.000000    0.00036443  29 t-inv F
 -0.500000 -0.142857 -0.142857    0.00036443  29 t-inv F
  0.500000  0.142857  0.142857    0.00036443  29 t-inv F
 -0.357143 -0.357143 -0.500000    0.00036443  29 t-inv F
  0.357143  0.357143  0.500000    0.00036443  29 t-inv F
  0.000000  0.142857 -0.357143    0.00036443  29 t-inv F
 -0.000000 -0.142857  0.357143    0.00036443  29 t-inv F
 -0.142857 -0.500000 -0.142857    0.00036443  29 t-inv F
  0.142857  0.500000  0.142857    0.00036443  29 t-inv F
 -0.500000 -0.357143 -0.357143    0.00036443  29 t-inv F
  0.500000  0.357143  0.357143    0.00036443  29 t-inv F
 -0.357143  0.000000  0.142857    0.00036443  29 t-inv F
  0.357143 -0.000000 -0.142857    0.00036443  29 t-inv F
  0.285714 -0.142857  0.000000    0.00036443  30 t-inv F
 -0.000000 -0.285714  0.142857    0.00036443  30 t-inv F
  0.000000  0.285714 -0.142857    0.00036443  30 t-inv F
  0.142857 -0.000000 -0.285714    0.00036443  30 t-inv F
 -0.142857  0.000000  0.285714    0.00036443  30 t-inv F
  0.142857  0.142857  0.428571    0.00036443  30 t-inv F
 -0.142857 -0.142857 -0.428571    0.00036443  30 t-inv F
 -0.285714 -0.428571 -0.285714    0.00036443  30 t-inv F
  0.285714  0.428571  0.285714    0.00036443  30 t-inv F
  0.142857 -0.285714  0.000000    0.00036443  30 t-inv F
 -0.142857  0.285714 -0.000000    0.00036443  30 t-inv F
 -0.428571 -0.142857 -0.142857    0.00036443  30 t-inv F
  0.428571  0.142857  0.142857    0.00036443  30 t-inv F
 -0.285714 -0.285714 -0.428571    0.00036443  30 t-inv F
  0.285714  0.285714  0.428571    0.00036443  30 t-inv F
  0.000000  0.142857 -0.285714    0.00036443  30 t-inv F
 -0.000000 -0.142857  0.285714    0.00036443  30 t-inv F
 -0.142857 -0.428571 -0.142857    0.00036443  30 t-inv F
  0.142857  0.428571  0.142857    0.00036443  30 t-inv F
 -0.428571 -0.285714 -0.285714    0.00036443  30 t-inv F
  0.428571  0.285714  0.285714    0.00036443  30 t-inv F
 -0.285714  0.000000  0.142857    0.00036443  30 t-inv F
  0.285714 -0.000000 -0.142857    0.00036443  30 t-inv F
  0.214286 -0.142857  0.000000    0.00036443  31 t-inv F
 -0.000000 -0.214286  0.142857    0.00036443  31 t-inv F
  0.000000  0.214286 -0.142857    0.00036443  31 t-inv F
  0.142857 -0.000000 -0.214286    0.00036443  31 t-inv F
 -0.142857  0.000000  0.214286    0.00036443  31 t-inv F
  0.142857  0.142857  0.357143    0.00036443  31 t-inv F
 -0.142857 -0.142857 -0.357143    0.00036443  31 t-inv F
 -0.214286 -0.357143 -0.214286    0.00036443  31 t-inv F
  0.214286  0.357143  0.214286    0.00036443  31 t-inv F
  0.142857 -0.214286  0.000000    0.00036443  31 t-inv F
 -0.142857  0.214286 -0.000000    0.00036443  31 t-inv F
 -0.357143 -0.142857 -0.142857    0.00036443  31 t-inv F
  0.357143  0.142857  0.142857    0.00036443  31 t-inv F
 -0.214286 -0.214286 -0.357143    0.00036443  31 t-inv F
  0.214286  0.214286  0.357143    0.00036443  31 t-inv F
  0.000000  0.142857 -0.214286    0.00036443  31 t-inv F
 -0.000000 -0.142857  0.214286    0.00036443  31 t-inv F
 -0.142857 -0.357143 -0.142857    0.00036443  31 t-inv F
  0.142857  0.357143  0.142857    0.00036443  31 t-inv F
 -0.357143 -0.214286 -0.214286    0.00036443  31 t-inv F
  0.357143  0.214286  0.214286    0.00036443  31 t-inv F
 -0.214286  0.000000  0.142857    0.00036443  31 t-inv F
  0.214286 -0.000000 -0.142857    0.00036443  31 t-inv F
  0.142857 -0.142857  0.000000    0.00036443  32 t-inv F
 -0.000000 -0.142857  0.142857    0.00036443  32 t-inv F
  0.000000  0.142857 -0.142857    0.00036443  32 t-inv F
  0.142857 -0.000000 -0.142857    0.00036443  32 t-inv F
 -0.142857  0.000000  0.142857    0.00036443  32 t-inv F
  0.142857  0.142857  0.285714    0.00036443  32 t-inv F
 -0.142857 -0.142857 -0.285714    0.00036443  32 t-inv F
 -0.142857 -0.285714 -0.142857    0.00036443  32 t-inv F
  0.142857  0.285714  0.142857    0.00036443  32 t-inv F
 -0.285714 -0.142857 -0.142857    0.00036443  32 t-inv F
  0.285714  0.142857  0.142857    0.00036443  32 t-inv F
 -0.214286 -0.214286 -0.000000    0.00036443  33 t-inv F
  0.000000  0.214286  0.214286    0.00036443  33 t-inv F
 -0.000000 -0.214286 -0.214286    0.00036443  33 t-inv F
  0.214286  0.000000  0.214286    0.00036443  33 t-inv F
 -0.214286 -0.000000 -0.214286    0.00036443  33 t-inv F
 -0.285714 -0.214286 -0.000000    0.00036443  34 t-inv F
  0.000000  0.285714  0.214286    0.00036443  34 t-inv F
 -0.000000 -0.285714 -0.214286    0.00036443  34 t-inv F
  0.214286  0.000000  0.285714    0.00036443  34 t-inv F
 -0.214286 -0.000000 -0.285714    0.00036443  34 t-inv F
  0.214286  0.214286 -0.071429    0.00036443  34 t-inv F
 -0.214286 -0.214286  0.071429    0.00036443  34 t-inv F
  0.285714  0.071429  0.285714    0.00036443  34 t-inv F
 -0.285714 -0.071429 -0.285714    0.00036443  34 t-inv F
  0.214286  0.285714 -0.000000    0.00036443  34 t-inv F
 -0.214286 -0.285714  0.000000    0.00036443  34 t-inv F
  0.071429 -0.214286 -0.214286    0.00036443  34 t-inv F
 -0.071429  0.214286  0.214286    0.00036443  34 t-inv F
  0.285714  0.285714  0.071429    0.00036443  34 t-inv F
 -0.285714 -0.285714 -0.071429    0.00036443  34 t-inv F
 -0.000000  0.214286  0.285714    0.00036443  34 t-inv F
  0.000000 -0.214286 -0.285714    0.00036443  34 t-inv F
 -0.214286  0.071429 -0.214286    0.00036443  34 t-inv F
  0.214286 -0.071429  0.214286    0.00036443  34 t-inv F
  0.071429  0.285714  0.285714    0.00036443  34 t-inv F
 -0.071429 -0.285714 -0.285714    0.00036443  34 t-inv F
  0.285714 -0.000000  0.214286    0.00036443  34 t-inv F
 -0.285714  0.000000 -0.214286    0.00036443  34 t-inv F
 -0.357143 -0.214286 -0.000000    0.00036443  35 t-inv F
  0.000000  0.357143  0.214286    0.00036443  35 t-inv F
 -0.000000 -0.357143 -0.214286    0.00036443  35 t-inv F
  0.214286  0.000000  0.357143    0.00036443  35 t-inv F
 -0.214286 -0.000000 -0.357143    0.00036443  35 t-inv F
  0.214286  0.214286 -0.142857    0.00036443  35 t-inv F
 -0.214286 -0.214286  0.142857    0.00036443  35 t-inv F
  0.357143  0.142857  0.357143    0.00036443  35 t-inv F
 -0.357143 -0.142857 -0.357143    0.00036443  35 t-inv F
  0.214286  0.357143 -0.000000    0.00036443  35 t-inv F
 -0.214286 -0.357143  0.000000    0.00036443  35 t-inv F
  0.142857 -0.214286 -0.214286    0.00036443  35 t-inv F
 -0.142857  0.214286  0.214286    0.00036443  35 t-inv F
  0.357143  0.357143  0.142857    0.00036443  35 t-inv F
 -0.357143 -0.357143 -0.142857    0.00036443  35 t-inv F
 -0.000000  0.214286  0.357143    0.00036443  35 t-inv F
  0.000000 -0.214286 -0.357143    0.00036443  35 t-inv F
 -0.214286  0.142857 -0.214286    0.00036443  35 t-inv F
  0.214286 -0.142857  0.214286    0.00036443  35 t-inv F
  0.142857  0.357143  0.357143    0.00036443  35 t-inv F
 -0.142857 -0.357143 -0.357143    0.00036443  35 t-inv F
  0.357143 -0.000000  0.214286    0.00036443  35 t-inv F
 -0.357143  0.000000 -0.214286    0.00036443  35 t-inv F
 -0.428571 -0.214286 -0.000000    0.00036443  36 t-inv F
  0.000000  0.428571  0.214286    0.00036443  36 t-inv F
 -0.000000 -0.428571 -0.214286    0.00036443  36 t-inv F
  0.214286  0.000000  0.428571    0.00036443  36 t-inv F
 -0.214286 -0.000000 -0.428571    0.00036443  36 t-inv F
  0.214286  0.214286 -0.214286    0.00036443  36 t-inv F
 -0.214286 -0.214286  0.214286    0.00036443  36 t-inv F
  0.428571  0.214286  0.428571    0.00036443  36 t-inv F
 -0.428571 -0.214286 -0.428571    0.00036443  36 t-inv F
  0.214286  0.428571 -0.000000    0.00036443  36 t-inv F
 -0.214286 -0.428571  0.000000    0.00036443  36 t-inv F
  0.214286 -0.214286 -0.214286    0.00036443  36 t-inv F
 -0.214286  0.214286  0.214286    0.00036443  36 t-inv F
  0.428571  0.428571  0.214286    0.00036443  36 t-inv F
 -0.428571 -0.428571 -0.214286    0.00036443  36 t-inv F
 -0.000000  0.214286  0.428571    0.00036443  36 t-inv F
  0.000000 -0.214286 -0.428571    0.00036443  36 t-inv F
 -0.214286  0.214286 -0.214286    0.00036443  36 t-inv F
  0.214286 -0.214286  0.214286    0.00036443  36 t-inv F
  0.214286  0.428571  0.428571    0.00036443  36 t-inv F
 -0.214286 -0.428571 -0.428571    0.00036443  36 t-inv F
  0.428571 -0.000000  0.214286    0.00036443  36 t-inv F
 -0.428571  0.000000 -0.214286    0.00036443  36 t-inv F
 -0.500000 -0.214286 -0.000000    0.00036443  37 t-inv F
  0.000000  0.500000  0.214286    0.00036443  37 t-inv F
 -0.000000 -0.500000 -0.214286    0.00036443  37 t-inv F
  0.214286  0.000000  0.500000    0.00036443  37 t-inv F
 -0.214286 -0.000000 -0.500000    0.00036443  37 t-inv F
  0.214286  0.214286 -0.285714    0.00036443  37 t-inv F
 -0.214286 -0.214286  0.285714    0.00036443  37 t-inv F
  0.500000  0.285714  0.500000    0.00036443  37 t-inv F
 -0.500000 -0.285714 -0.500000    0.00036443  37 t-inv F
  0.214286  0.500000 -0.000000    0.00036443  37 t-inv F
 -0.214286 -0.500000  0.000000    0.00036443  37 t-inv F
  0.285714 -0.214286 -0.214286    0.00036443  37 t-inv F
 -0.285714  0.214286  0.214286    0.00036443  37 t-inv F
  0.500000  0.500000  0.285714    0.00036443  37 t-inv F
 -0.500000 -0.500000 -0.285714    0.00036443  37 t-inv F
 -0.000000  0.214286  0.500000    0.00036443  37 t-inv F
  0.000000 -0.214286 -0.500000    0.00036443  37 t-inv F
 -0.214286  0.285714 -0.214286    0.00036443  37 t-inv F
  0.214286 -0.285714  0.214286    0.00036443  37 t-inv F
  0.285714  0.500000  0.500000    0.00036443  37 t-inv F
 -0.285714 -0.500000 -0.500000    0.00036443  37 t-inv F
  0.500000 -0.000000  0.214286    0.00036443  37 t-inv F
 -0.500000  0.000000 -0.214286    0.00036443  37 t-inv F
  0.428571 -0.214286  0.000000    0.00036443  38 t-inv F
 -0.000000 -0.428571  0.214286    0.00036443  38 t-inv F
  0.000000  0.428571 -0.214286    0.00036443  38 t-inv F
  0.214286 -0.000000 -0.428571    0.00036443  38 t-inv F
 -0.214286  0.000000  0.428571    0.00036443  38 t-inv F
  0.214286  0.214286  0.642857    0.00036443  38 t-inv F
 -0.214286 -0.214286 -0.642857    0.00036443  38 t-inv F
 -0.428571 -0.642857 -0.428571    0.00036443  38 t-inv F
  0.428571  0.642857  0.428571    0.00036443  38 t-inv F
  0.214286 -0.428571  0.000000    0.00036443  38 t-inv F
 -0.214286  0.428571 -0.000000    0.00036443  38 t-inv F
 -0.642857 -0.214286 -0.214286    0.00036443  38 t-inv F
  0.642857  0.214286  0.214286    0.00036443  38 t-inv F
 -0.428571 -0.428571 -0.642857    0.00036443  38 t-inv F
  0.428571  0.428571  0.642857    0.00036443  38 t-inv F
  0.000000  0.214286 -0.428571    0.00036443  38 t-inv F
 -0.000000 -0.214286  0.428571    0.00036443  38 t-inv F
 -0.214286 -0.642857 -0.214286    0.00036443  38 t-inv F
  0.214286  0.642857  0.214286    0.00036443  38 t-inv F
 -0.642857 -0.428571 -0.428571    0.00036443  38 t-inv F
  0.642857  0.428571  0.428571    0.00036443  38 t-inv F
 -0.428571  0.000000  0.214286    0.00036443  38 t-inv F
  0.428571 -0.000000 -0.214286    0.00036443  38 t-inv F
  0.357143 -0.214286  0.000000    0.00036443  39 t-inv F
 -0.000000 -0.357143  0.214286    0.00036443  39 t-inv F
  0.000000  0.357143 -0.214286    0.00036443  39 t-inv F
  0.214286 -0.000000 -0.357143    0.00036443  39 t-inv F
 -0.214286  0.000000  0.357143    0.00036443  39 t-inv F
  0.214286  0.214286  0.571429    0.00036443  39 t-inv F
 -0.214286 -0.214286 -0.571429    0.00036443  39 t-inv F
 -0.357143 -0.571429 -0.357143    0.00036443  39 t-inv F
  0.357143  0.571429  0.357143    0.00036443  39 t-inv F
  0.214286 -0.357143  0.000000    0.00036443  39 t-inv F
 -0.214286  0.357143 -0.000000    0.00036443  39 t-inv F
 -0.571429 -0.214286 -0.214286    0.00036443  39 t-inv F
  0.571429  0.214286  0.214286    0.00036443  39 t-inv F
 -0.357143 -0.357143 -0.571429    0.00036443  39 t-inv F
  0.357143  0.357143  0.571429    0.00036443  39 t-inv F
  0.000000  0.214286 -0.357143    0.00036443  39 t-inv F
 -0.000000 -0.214286  0.357143    0.00036443  39 t-inv F
 -0.214286 -0.571429 -0.214286    0.00036443  39 t-inv F
  0.214286  0.571429  0.214286    0.00036443  39 t-inv F
 -0.571429 -0.357143 -0.357143    0.00036443  39 t-inv F
  0.571429  0.357143  0.357143    0.00036443  39 t-inv F
 -0.357143  0.000000  0.214286    0.00036443  39 t-inv F
  0.357143 -0.000000 -0.214286    0.00036443  39 t-inv F
  0.285714 -0.214286  0.000000    0.00036443  40 t-inv F
 -0.000000 -0.285714  0.214286    0.00036443  40 t-inv F
  0.000000  0.285714 -0.214286    0.00036443  40 t-inv F
  0.214286 -0.000000 -0.285714    0.00036443  40 t-inv F
 -0.214286  0.000000  0.285714    0.00036443  40 t-inv F
  0.214286  0.214286  0.500000    0.00036443  40 t-inv F
 -0.214286 -0.214286 -0.500000    0.00036443  40 t-inv F
 -0.285714 -0.500000 -0.285714    0.00036443  40 t-inv F
  0.285714  0.500000  0.285714    0.00036443  40 t-inv F
  0.214286 -0.285714  0.000000    0.00036443  40 t-inv F
 -0.214286  0.285714 -0.000000    0.00036443  40 t-inv F
 -0.500000 -0.214286 -0.214286    0.00036443  40 t-inv F
  0.500000  0.214286  0.214286    0.00036443  40 t-inv F
 -0.285714 -0.285714 -0.500000    0.00036443  40 t-inv F
  0.285714  0.285714  0.500000    0.00036443  40 t-inv F
  0.000000  0.214286 -0.285714    0.00036443  40 t-inv F
 -0.000000 -0.214286  0.285714    0.00036443  40 t-inv F
 -0.214286 -0.500000 -0.214286    0.00036443  40 t-inv F
  0.214286  0.500000  0.214286    0.00036443  40 t-inv F
 -0.500000 -0.285714 -0.285714    0.00036443  40 t-inv F
  0.500000  0.285714  0.285714    0.00036443  40 t-inv F
 -0.285714  0.000000  0.214286    0.00036443  40 t-inv F
  0.285714 -0.000000 -0.214286    0.00036443  40 t-inv F
  0.214286 -0.214286  0.000000    0.00036443  41 t-inv F
 -0.000000 -0.214286  0.214286    0.00036443  41 t-inv F
  0.000000  0.214286 -0.214286    0.00036443  41 t-inv F
  0.214286 -0.000000 -0.214286    0.00036443  41 t-inv F
 -0.214286  0.000000  0.214286    0.00036443  41 t-inv F
  0.214286  0.214286  0.428571    0.00036443  41 t-inv F
 -0.214286 -0.214286 -0.428571    0.00036443  41 t-inv F
 -0.214286 -0.428571 -0.214286    0.00036443  41 t-inv F
  0.214286  0.428571  0.214286    0.00036443  41 t-inv F
 -0.428571 -0.214286 -0.214286    0.00036443  41 t-inv F
  0.428571  0.214286  0.214286    0.00036443  41 t-inv F
 -0.285714 -0.285714 -0.000000    0.00036443  42 t-inv F
  0.000000  0.285714  0.285714    0.00036443  42 t-inv F
 -0.000000 -0.285714 -0.285714    0.00036443  42 t-inv F
  0.285714  0.000000  0.285714    0.00036443  42 t-inv F
 -0.285714 -0.000000 -0.285714    0.00036443  42 t-inv F
 -0.357143 -0.285714 -0.000000    0.00036443  43 t-inv F
  0.000000  0.357143  0.285714    0.00036443  43 t-inv F
 -0.000000 -0.357143 -0.285714    0.00036443  43 t-inv F
  0.285714  0.000000  0.357143    0.00036443  43 t-inv F
 -0.285714 -0.000000 -0.357143    0.00036443  43 t-inv F
  0.285714  0.285714 -0.071429    0.00036443  43 t-inv F
 -0.285714 -0.285714  0.071429    0.00036443  43 t-inv F
  0.357143  0.071429  0.357143    0.00036443  43 t-inv F
 -0.357143 -0.071429 -0.357143    0.00036443  43 t-inv F
  0.285714  0.357143 -0.000000    0.00036443  43 t-inv F
 -0.285714 -0.357143  0.000000    0.00036443  43 t-inv F
  0.071429 -0.285714 -0.285714    0.00036443  43 t-inv F
 -0.071429  0.285714  0.285714    0.00036443  43 t-inv F
  0.357143  0.357143  0.071429    0.00036443  43 t-inv F
 -0.357143 -0.357143 -0.071429    0.00036443  43 t-inv F
 -0.000000  0.285714  0.357143    0.00036443  43 t-inv F
  0.000000 -0.285714 -0.357143    0.00036443  43 t-inv F
 -0.285714  0.071429 -0.285714    0.00036443  43 t-inv F
  0.285714 -0.071429  0.285714    0.00036443  43 t-inv F
  0.071429  0.357143  0.357143    0.00036443  43 t-inv F
 -0.071429 -0.357143 -0.357143    0.00036443  43 t-inv F
  0.357143 -0.000000  0.285714    0.00036443  43 t-inv F
 -0.357143  0.000000 -0.285714    0.00036443  43 t-inv F
 -0.428571 -0.285714 -0.000000    0.00036443  44 t-inv F
  0.000000  0.428571  0.285714    0.00036443  44 t-inv F
 -0.000000 -0.428571 -0.285714    0.00036443  44 t-inv F
  0.285714  0.000000  0.428571    0.00036443  44 t-inv F
 -0.285714 -0.000000 -0.428571    0.00036443  44 t-inv F
  0.285714  0.285714 -0.142857    0.00036443  44 t-inv F
 -0.285714 -0.285714  0.142857    0.00036443  44 t-inv F
  0.428571  0.142857  0.428571    0.00036443  44 t-inv F
 -0.428571 -0.142857 -0.428571    0.00036443  44 t-inv F
  0.285714  0.428571 -0.000000    0.00036443  44 t-inv F
 -0.285714 -0.428571  0.000000    0.00036443  44 t-inv F
  0.142857 -0.285714 -0.285714    0.00036443  44 t-inv F
 -0.142857  0.285714  0.285714    0.00036443  44 t-inv F
  0.428571  0.428571  0.142857    0.00036443  44 t-inv F
 -0.428571 -0.428571 -0.142857    0.00036443  44 t-inv F
 -0.000000  0.285714  0.428571    0.00036443  44 t-inv F
  0.000000 -0.285714 -0.428571    0.00036443  44 t-inv F
 -0.285714  0.142857 -0.285714    0.00036443  44 t-inv F
  0.285714 -0.142857  0.285714    0.00036443  44 t-inv F
  0.142857  0.428571  0.428571    0.00036443  44 t-inv F
 -0.142857 -0.428571 -0.428571    0.00036443  44 t-inv F
  0.428571 -0.000000  0.285714    0.00036443  44 t-inv F
 -0.428571  0.000000 -0.285714    0.00036443  44 t-inv F
 -0.500000 -0.285714 -0.000000    0.00036443  45 t-inv F
  0.000000  0.500000  0.285714    0.00036443  45 t-inv F
 -0.000000 -0.500000 -0.285714    0.00036443  45 t-inv F
  0.285714  0.000000  0.500000    0.00036443  45 t-inv F
 -0.285714 -0.000000 -0.500000    0.00036443  45 t-inv F
  0.285714  0.285714 -0.214286    0.00036443  45 t-inv F
 -0.285714 -0.285714  0.214286    0.00036443  45 t-inv F
  0.500000  0.214286  0.500000    0.00036443  45 t-inv F
 -0.500000 -0.214286 -0.500000    0.00036443  45 t-inv F
  0.285714  0.500000 -0.000000    0.00036443  45 t-inv F
 -0.285714 -0.500000  0.000000    0.00036443  45 t-inv F
  0.214286 -0.285714 -0.285714    0.00036443  45 t-inv F
 -0.214286  0.285714  0.285714    0.00036443  45 t-inv F
  0.500000  0.500000  0.214286    0.00036443  45 t-inv F
 -0.500000 -0.500000 -0.214286    0.00036443  45 t-inv F
 -0.000000  0.285714  0.500000    0.00036443  45 t-inv F
  0.000000 -0.285714 -0.500000    0.00036443  45 t-inv F
 -0.285714  0.214286 -0.285714    0.00036443  45 t-inv F
  0.285714 -0.214286  0.285714    0.00036443  45 t-inv F
  0.214286  0.500000  0.500000    0.00036443  45 t-inv F
 -0.214286 -0.500000 -0.500000    0.00036443  45 t-inv F
  0.500000 -0.000000  0.285714    0.00036443  45 t-inv F
 -0.500000  0.000000 -0.285714    0.00036443  45 t-inv F
  0.428571 -0.285714 -0.000000    0.00036443  46 t-inv F
  0.000000 -0.428571  0.285714    0.00036443  46 t-inv F
 -0.000000  0.428571 -0.285714    0.00036443  46 t-inv F
  0.285714  0.000000 -0.428571    0.00036443  46 t-inv F
 -0.285714 -0.000000  0.428571    0.00036443  46 t-inv F
  0.285714  0.285714  0.714286    0.00036443  46 t-inv F
 -0.285714 -0.285714 -0.714286    0.00036443  46 t-inv F
 -0.428571 -0.714286 -0.428571    0.00036443  46 t-inv F
  0.428571  0.714286  0.428571    0.00036443  46 t-inv F
  0.285714 -0.428571 -0.000000    0.00036443  46 t-inv F
 -0.285714  0.428571  0.000000    0.00036443  46 t-inv F
 -0.714286 -0.285714 -0.285714    0.00036443  46 t-inv F
  0.714286  0.285714  0.285714    0.00036443  46 t-inv F
 -0.428571 -0.428571 -0.714286    0.00036443  46 t-inv F
  0.428571  0.428571  0.714286    0.00036443  46 t-inv F
 -0.000000  0.285714 -0.428571    0.00036443  46 t-inv F
  0.000000 -0.285714  0.428571    0.00036443  46 t-inv F
 -0.285714 -0.714286 -0.285714    0.00036443  46 t-inv F
  0.285714  0.714286  0.285714    0.00036443  46 t-inv F
 -0.714286 -0.428571 -0.428571    0.00036443  46 t-inv F
  0.714286  0.428571  0.428571    0.00036443  46 t-inv F
 -0.428571 -0.000000  0.285714    0.00036443  46 t-inv F
  0.428571  0.000000 -0.285714    0.00036443  46 t-inv F
  0.357143 -0.285714  0.000000    0.00036443  47 t-inv F
 -0.000000 -0.357143  0.285714    0.00036443  47 t-inv F
  0.000000  0.357143 -0.285714    0.00036443  47 t-inv F
  0.285714 -0.000000 -0.357143    0.00036443  47 t-inv F
 -0.285714  0.000000  0.357143    0.00036443  47 t-inv F
  0.285714  0.285714  0.642857    0.00036443  47 t-inv F
 -0.285714 -0.285714 -0.642857    0.00036443  47 t-inv F
 -0.357143 -0.642857 -0.357143    0.00036443  47 t-inv F
  0.357143  0.642857  0.357143    0.00036443  47 t-inv F
  0.285714 -0.357143  0.000000    0.00036443  47 t-inv F
 -0.285714  0.357143 -0.000000    0.00036443  47 t-inv F
 -0.642857 -0.285714 -0.285714    0.00036443  47 t-inv F
  0.642857  0.285714  0.285714    0.00036443  47 t-inv F
 -0.357143 -0.357143 -0.642857    0.00036443  47 t-inv F
  0.357143  0.357143  0.642857    0.00036443  47 t-inv F
  0.000000  0.285714 -0.357143    0.00036443  47 t-inv F
 -0.000000 -0.285714  0.357143    0.00036443  47 t-inv F
 -0.285714 -0.642857 -0.285714    0.00036443  47 t-inv F
  0.285714  0.642857  0.285714    0.00036443  47 t-inv F
 -0.642857 -0.357143 -0.357143    0.00036443  47 t-inv F
  0.642857  0.357143  0.357143    0.00036443  47 t-inv F
 -0.357143  0.000000  0.285714    0.00036443  47 t-inv F
  0.357143 -0.000000 -0.285714    0.00036443  47 t-inv F
  0.285714 -0.285714  0.000000    0.00036443  48 t-inv F
 -0.000000 -0.285714  0.285714    0.00036443  48 t-inv F
  0.000000  0.285714 -0.285714    0.00036443  48 t-inv F
  0.285714 -0.000000 -0.285714    0.00036443  48 t-inv F
 -0.285714  0.000000  0.285714    0.00036443  48 t-inv F
  0.285714  0.285714  0.571429    0.00036443  48 t-inv F
 -0.285714 -0.285714 -0.571429    0.00036443  48 t-inv F
 -0.285714 -0.571429 -0.285714    0.00036443  48 t-inv F
  0.285714  0.571429  0.285714    0.00036443  48 t-inv F
 -0.571429 -0.285714 -0.285714    0.00036443  48 t-inv F
  0.571429  0.285714  0.285714    0.00036443  48 t-inv F
 -0.357143 -0.357143 -0.000000    0.00036443  49 t-inv F
  0.000000  0.357143  0.357143    0.00036443  49 t-inv F
 -0.000000 -0.357143 -0.357143    0.00036443  49 t-inv F
  0.357143  0.000000  0.357143    0.00036443  49 t-inv F
 -0.357143 -0.000000 -0.357143    0.00036443  49 t-inv F
 -0.428571 -0.357143 -0.000000    0.00036443  50 t-inv F
  0.000000  0.428571  0.357143    0.00036443  50 t-inv F
 -0.000000 -0.428571 -0.357143    0.00036443  50 t-inv F
  0.357143  0.000000  0.428571    0.00036443  50 t-inv F
 -0.357143 -0.000000 -0.428571    0.00036443  50 t-inv F
  0.357143  0.357143 -0.071429    0.00036443  50 t-inv F
 -0.357143 -0.357143  0.071429    0.00036443  50 t-inv F
  0.428571  0.071429  0.428571    0.00036443  50 t-inv F
 -0.428571 -0.071429 -0.428571    0.00036443  50 t-inv F
  0.357143  0.428571 -0.000000    0.00036443  50 t-inv F
 -0.357143 -0.428571  0.000000    0.00036443  50 t-inv F
  0.071429 -0.357143 -0.357143    0.00036443  50 t-inv F
 -0.071429  0.357143  0.357143    0.00036443  50 t-inv F
  0.428571  0.428571  0.071429    0.00036443  50 t-inv F
 -0.428571 -0.428571 -0.071429    0.00036443  50 t-inv F
 -0.000000  0.357143  0.428571    0.00036443  50 t-inv F
  0.000000 -0.357143 -0.428571    0.00036443  50 t-inv F
 -0.357143  0.071429 -0.357143    0.00036443  50 t-inv F
  0.357143 -0.071429  0.357143    0.00036443  50 t-inv F
  0.071429  0.428571  0.428571    0.00036443  50 t-inv F
 -0.071429 -0.428571 -0.428571    0.00036443  50 t-inv F
  0.428571 -0.000000  0.357143    0.00036443  50 t-inv F
 -0.428571  0.000000 -0.357143    0.00036443  50 t-inv F
 -0.500000 -0.357143 -0.000000    0.00036443  51 t-inv F
  0.000000  0.500000  0.357143    0.00036443  51 t-inv F
 -0.000000 -0.500000 -0.357143    0.00036443  51 t-inv F
  0.357143  0.000000  0.500000    0.00036443  51 t-inv F
 -0.357143 -0.000000 -0.500000    0.00036443  51 t-inv F
  0.357143  0.357143 -0.142857    0.00036443  51 t-inv F
 -0.357143 -0.357143  0.142857    0.00036443  51 t-inv F
  0.500000  0.142857  0.500000    0.00036443  51 t-inv F
 -0.500000 -0.142857 -0.500000    0.00036443  51 t-inv F
  0.357143  0.500000 -0.000000    0.00036443  51 t-inv F
 -0.357143 -0.500000  0.000000    0.00036443  51 t-inv F
  0.142857 -0.357143 -0.357143    0.00036443  51 t-inv F
 -0.142857  0.357143  0.357143    0.00036443  51 t-inv F
  0.500000  0.500000  0.142857    0.00036443  51 t-inv F
 -0.500000 -0.500000 -0.142857    0.00036443  51 t-inv F
 -0.000000  0.357143  0.500000    0.00036443  51 t-inv F
  0.000000 -0.357143 -0.500000    0.00036443  51 t-inv F
 -0.357143  0.142857 -0.357143    0.00036443  51 t-inv F
  0.357143 -0.142857  0.357143    0.00036443  51 t-inv F
[...]
      7      -0.0001      0.00000
      8       0.0042      0.00000

 k-point 217 :       0.4286   -0.0000    0.2857
  band No.  band energies     occupation 
      1      -0.0001      0.00000
      2      -0.0001      0.00000
      3      -0.0001      0.00000
      4      -0.0001      0.00000
      5      -0.0000      0.00000
      6      -0.0000      0.00000
      7      -0.0001      0.00000
      8      -0.0001      0.00000

 k-point 218 :       0.5000   -0.0000    0.2857
  band No.  band energies     occupation 
      1      -0.0001      0.00000
      2      -0.0001      0.00000
      3      -0.0001      0.00000
      4      -0.0001      0.00000
      5      -0.0000      0.00000
      6      -0.0000      0.00000
      7      -0.0001      0.00000
      8      -0.0001      0.00000

 k-point 219 :      -0.4286   -0.0000    0.2857
  band No.  band energies     occupation 
      1      -0.0001      0.00000
      2      -0.0001      0.00000
      3      -0.0001      0.00000
      4      -0.0001      0.00000
      5      -0.0000      0.00000
      6      -0.0000      0.00000
      7      -0.0001      0.00000
      8      -0.0001      0.00000

 k-point 220 :      -0.3571    0.0000    0.2857
  band No.  band energies     occupation 
      1      -0.0001      0.00000
      2      -0.0001      0.00000
      3      -0.0001      0.00000
      4      -0.0001      0.00000
      5      -0.0000      0.00000
      6      -0.0000      0.00000
      7      -0.0001      0.00000
      8      -0.0001      0.00000

 k-point 221 :      -0.2857    0.0000    0.2857
  band No.  band energies     occupation 
      1      -0.0001      0.00000
      2      -0.0001      0.00000
      3      -0.0001      0.00000
      4      -0.0001      0.00000
      5      -0.0000      0.00000
      6      -0.0000      0.00000
      7      -0.0001      0.00000
      8      -0.0001      0.00000

 k-point 222 :       0.3571    0.6429    0.2857
  band No.  band energies     occupation 
      1      -0.0001      0.00000
      2      -0.0001      0.00000
      3      -0.0001      0.00000
      4      -0.0001      0.00000
      5      -0.0000      0.00000
      6      -0.0000      0.00000
      7      -0.0001      0.00000
      8      -0.0001      0.00000

 k-point 223 :       0.3571    0.7143    0.2857
  band No.  band energies     occupation 
      1      -0.0001      0.00000
      2      -0.0001      0.00000
      3      -0.0001      0.00000
      4      -0.0001      0.00000
      5      -0.0000      0.00000
      6      -0.0000      0.00000
      7      -0.0001      0.00000
      8      -0.0001      0.00000

 k-point 224 :       0.4286    0.7143    0.2857
  band No.  band energies     occupation 
      1      -0.0001      0.00000
      2      -0.0001      0.00000
      3      -0.0001      0.00000
      4      -0.0001      0.00000
      5      -0.0000      0.00000
      6      -0.0000      0.00000
      7      -0.0001      0.00000
      8      -0.0000      0.00000

 k-point 225 :       0.3571    0.7857    0.2857
  band No.  band energies     occupation 
      1      -0.0001      0.00000
      2      -0.0001      0.00000
      3      -0.0001      0.00000
      4      -0.0001      0.00000
      5      -0.0000      0.00000
      6      -0.0000      0.00000
      7      -0.0001      0.00000
      8      -0.0001      0.00000

 k-point 226 :       0.4286    0.7857    0.2857
  band No.  band energies     occupation 
      1      -0.0001      0.00000
      2      -0.0001      0.00000
      3      -0.0001      0.00000
      4      -0.0001      0.00000
      5      -0.0000      0.00000
      6      -0.0000      0.00000
      7      -0.0001      0.00000
      8      -0.0000      0.00000

 k-point 227 :      -0.5000   -0.2143    0.2857
  band No.  band energies     occupation 
      1      -0.0001      0.00000
      2      -0.0001      0.00000
      3      -0.0001      0.00000
      4      -0.0001      0.00000
      5      -0.0000      0.00000
      6      -0.0000      0.00000
      7      -0.0001      0.00000
      8      -0.0000      0.00000

 k-point 228 :       0.3571   -0.1429    0.2857
  band No.  band energies     occupation 
      1      -0.0001      0.00000
      2      -0.0001      0.00000
      3      -0.0001      0.00000
      4      -0.0001      0.00000
      5      -0.0000      0.00000
      6      -0.0000      0.00000
      7      -0.0001      0.00000
      8      -0.0001      0.00000

 k-point 229 :       0.4286    0.8571    0.2857
  band No.  band energies     occupation 
      1      -0.0001      0.00000
      2      -0.0001      0.00000
      3      -0.0001      0.00000
      4      -0.0001      0.00000
      5      -0.0000      0.00000
      6      -0.0000      0.00000
      7      -0.0001      0.00000
      8      -0.0001      0.00000

 k-point 230 :       0.3571   -0.0714    0.2857
  band No.  band energies     occupation 
      1      -0.0001      0.00000
      2      -0.0001      0.00000
      3      -0.0001      0.00000
      4      -0.0001      0.00000
      5      -0.0000      0.00000
      6      -0.0000      0.00000
      7      -0.0001      0.00000
      8      -0.0000      0.00000

 k-point 231 :       0.3571    0.0000    0.3571
  band No.  band energies     occupation 
      1      -0.0001      0.00000
      2      -0.0001      0.00000
      3      -0.0001      0.00000
      4      -0.0001      0.00000
      5      -0.0000      0.00000
      6      -0.0000      0.00000
      7      -0.0001      0.00000
      8      -0.0001      0.00000

 k-point 232 :       0.4286   -0.0000    0.3571
  band No.  band energies     occupation 
      1      -0.0001      0.00000
      2      -0.0001      0.00000
      3      -0.0001      0.00000
      4      -0.0001      0.00000
      5      -0.0000      0.00000
      6      -0.0000      0.00000
      7      -0.0001      0.00000
      8      -0.0027      0.00000

 k-point 233 :       0.5000   -0.0000    0.3571
  band No.  band energies     occupation 
      1      -0.0001      0.00000
      2      -0.0001      0.00000
      3      -0.0001      0.00000
      4      -0.0001      0.00000
      5      -0.0000      0.00000
      6      -0.0000      0.00000
      7      -0.0001      0.00000
      8      -0.0001      0.00000

 k-point 234 :      -0.4286    0.0000    0.3571
  band No.  band energies     occupation 
      1      -0.0001      0.00000
      2      -0.0001      0.00000
      3      -0.0001      0.00000
      4      -0.0001      0.00000
      5      -0.0000      0.00000
      6      -0.0000      0.00000
      7      -0.0001      0.00000
      8      -0.0001      0.00000

 k-point 235 :      -0.3571   -0.0000    0.3571
  band No.  band energies     occupation 
      1      -0.0001      0.00000
      2      -0.0001      0.00000
      3      -0.0001      0.00000
      4      -0.0001      0.00000
      5      -0.0000      0.00000
      6      -0.0000      0.00000
      7      -0.0001      0.00000
      8      -0.0001      0.00000

 k-point 236 :       0.4286    0.7857    0.3571
  band No.  band energies     occupation 
      1      -0.0001      0.00000
      2      -0.0001      0.00000
      3      -0.0001      0.00000
      4      -0.0001      0.00000
      5      -0.0000      0.00000
      6      -0.0000      0.00000
      7      -0.0001      0.00000
      8      -0.0001      0.00000

 k-point 237 :       0.4286    0.8571    0.3571
  band No.  band energies     occupation 
      1      -0.0001      0.00000
      2      -0.0001      0.00000
      3      -0.0001      0.00000
      4      -0.0001      0.00000
      5      -0.0000      0.00000
      6      -0.0000      0.00000
      7      -0.0001      0.00000
      8      -0.0001      0.00000

 k-point 238 :      -0.5000   -0.1429    0.3571
  band No.  band energies     occupation 
      1      -0.0001      0.00000
      2      -0.0001      0.00000
      3      -0.0001      0.00000
      4      -0.0001      0.00000
      5      -0.0000      0.00000
      6      -0.0000      0.00000
      7      -0.0001      0.00000
      8      -0.0000      0.00000

 k-point 239 :       0.4286   -0.0714    0.3571
  band No.  band energies     occupation 
      1      -0.0001      0.00000
      2      -0.0001      0.00000
      3      -0.0001      0.00000
      4      -0.0001      0.00000
      5      -0.0000      0.00000
      6      -0.0000      0.00000
      7      -0.0001      0.00000
      8      -0.0001      0.00000

 k-point 240 :       0.4286    0.0000    0.4286
  band No.  band energies     occupation 
      1      -0.0001      0.00000
      2      -0.0001      0.00000
      3      -0.0001      0.00000
      4      -0.0001      0.00000
      5      -0.0000      0.00000
      6      -0.0000      0.00000
      7      -0.0001      0.00000
      8      -0.0001      0.00000

 k-point 241 :       0.5000   -0.0000    0.4286
  band No.  band energies     occupation 
      1      -0.0001      0.00000
      2      -0.0001      0.00000
      3      -0.0001      0.00000
      4      -0.0001      0.00000
      5      -0.0000      0.00000
      6      -0.0000      0.00000
      7      -0.0001      0.00000
      8       0.0003      0.00000

 k-point 242 :      -0.4286    0.0000    0.4286
  band No.  band energies     occupation 
      1      -0.0001      0.00000
      2      -0.0001      0.00000
      3      -0.0001      0.00000
      4      -0.0001      0.00000
      5      -0.0000      0.00000
      6      -0.0000      0.00000
      7      -0.0001      0.00000
      8      -0.0001      0.00000

 k-point 243 :      -0.5000   -0.0714    0.4286
  band No.  band energies     occupation 
      1      -0.0001      0.00000
      2      -0.0001      0.00000
      3      -0.0001      0.00000
      4      -0.0001      0.00000
      5      -0.0000      0.00000
      6      -0.0000      0.00000
      7      -0.0001      0.00000
      8      -0.0001      0.00000

 k-point 244 :       0.5000    0.0000    0.5000
  band No.  band energies     occupation 
      1      -0.0001      0.00000
      2      -0.0001      0.00000
      3      -0.0001      0.00000
      4      -0.0001      0.00000
      5      -0.0000      0.00000
      6      -0.0000      0.00000
      7      -0.0001      0.00000
      8       0.0001      0.00000


------------------------ aborting loop because EDIFF is reached ----------------------------------------


    FORLOC:  cpu time    0.0006: real time    0.0006
    FORNL :  cpu time    0.0181: real time    0.0181
    STRESS:  cpu time    0.3650: real time    0.3650
    FORCOR:  cpu time    0.0090: real time    0.0090
    OFIELD:  cpu time    0.0001: real time    0.0001
    FORLOC:  cpu time    0.0005: real time    0.0005
    FORNL :  cpu time    0.0181: real time    0.0181
    STRESS:  cpu time    0.3649: real time    0.3649
    FORCOR:  cpu time    0.0090: real time    0.0090
    OFIELD:  cpu time    0.0001: real time    0.0001
    FORLOC:  cpu time    0.0005: real time    0.0006
    FORNL :  cpu time    0.0181: real time    0.0181
    STRESS:  cpu time    0.3649: real time    0.3649
    FORCOR:  cpu time    0.0090: real time    0.0090
    OFIELD:  cpu time    0.0001: real time    0.0000
    FORLOC:  cpu time    0.0005: real time    0.0005
    FORNL :  cpu time    0.0181: real time    0.0181
    STRESS:  cpu time    0.3658: real time    0.3658
    FORCOR:  cpu time    0.0090: real time    0.0090
    OFIELD:  cpu time    0.0001: real time    0.0001

 INTERNAL STRAIN TENSOR  FOR ION    1  DIRECTION 1   (eV/Angst):
 -----------------------------------------------------------------------------
    -0.00043  0.00000  0.00000
    -0.00000 -0.00061 -0.00000
     0.00000  0.00000 -0.00061


 POSITION                   FORCE-CONSTANT FOR ION    1 DIRECTION 1 (eV/Angst/Angst)
 -----------------------------------------------------------------------------------
      0.00000      0.00000      0.00000        -0.165708      0.000000     -0.000000
 -----------------------------------------------------------------------------------
    total drift:                               -0.165708      0.000000     -0.000000


 BORN EFFECTIVE CHARGE FOR ION    1 DIRECTION 1 :   0.000   0.000  -0.000
                   rigid augmentation           :   0.634  -0.000   0.000
                   ionic contribution           :   8.000  -0.000   0.000
                   Berry contribution           :  -8.633   0.000  -0.000


--------------------------------------------------------------------------------------------------------


  LATTYP: Found a face centered cubic cell.
 ALAT       =     5.3631594354
  
  Lattice vectors:
  
 A1 = (  -2.6815797177,   0.0000000000,   2.6815797177)
 A2 = (   0.0000000000,   2.6815797177,   2.6815797177)
 A3 = (  -2.6815797177,   2.6815797177,   0.0000000000)


Analysis of symmetry for initial positions (statically):
=====================================================================
 Subroutine PRICEL returns:
 Original cell was already a primitive cell.
 

 Routine SETGRP: Setting up the symmetry group for a 
 face centered cubic supercell.


 Subroutine GETGRP returns: Found 48 space group operations
 (whereof 48 operations were pure point group operations)
 out of a pool of 48 trial point group operations.


The static configuration has the point symmetry O_h .


Analysis of symmetry for dynamics (positions and initial velocities):
=====================================================================
 Subroutine PRICEL returns:
 Original cell was already a primitive cell.
 

 Routine SETGRP: Setting up the symmetry group for a 
 face centered cubic supercell.


 Subroutine GETGRP returns: Found 48 space group operations
 (whereof 48 operations were pure point group operations)
 out of a pool of 48 trial point group operations.


The dynamic configuration has the point symmetry O_h .


 Subroutine INISYM returns: Found 48 space group operations
 (whereof 48 operations are pure point group operations),
 and found     1 'primitive' translations



--------------------------------------------------------------------------------------------------------




 MACROSCOPIC STATIC DIELECTRIC TENSOR (including local field effects in DFT)
 ------------------------------------------------------
           1.698589    -0.000000     0.000000
          -0.000000     1.698589    -0.000000
           0.000000    -0.000000     1.698589
 ------------------------------------------------------


 PIEZOELECTRIC TENSOR  for field in x, y, z        (e  Angst)
          XX          YY          ZZ          XY          YZ          ZX
  --------------------------------------------------------------------------------
  x     0.00003     0.00002     0.00002    -0.00000    -0.00000     0.00000
  y    -0.00003    -0.00002    -0.00003    -0.00000     0.00000     0.00000
  z    -0.00003    -0.00003    -0.00003     0.00000    -0.00000     0.00000

 PIEZOELECTRIC TENSOR  for field in x, y, z        (C/m^2)
          XX          YY          ZZ          XY          YZ          ZX
  --------------------------------------------------------------------------------
  x     0.00000     0.00000     0.00000     0.00000     0.00000     0.00000
  y     0.00000     0.00000     0.00000     0.00000     0.00000     0.00000
  z     0.00000     0.00000     0.00000     0.00000     0.00000     0.00000
 
 BORN EFFECTIVE CHARGES (in e, cummulative output)
 -------------------------------------------------
 ion    1
    1     0.00000     0.00000     0.00000
    2     0.00000     0.00000     0.00000
    3     0.00000     0.00000     0.00000

 INTERNAL STRAIN TENSOR FOR ION    1 for displacements in x,y,z  (eV/Angst):
          X           Y           Z          XY          YZ          ZX
  --------------------------------------------------------------------------------
  x     0.00000     0.00000     0.00000     0.00000     0.00000     0.00000
  y     0.00000     0.00000     0.00000     0.00000     0.00000     0.00000
  z     0.00000     0.00000     0.00000     0.00000     0.00000     0.00000


--------------------------------------------------------------------------------------------------------


 
 SECOND DERIVATIVES (NOT SYMMETRIZED)
 ------------------------------------
               1X          1Y          1Z 
  1X    -0.165708    0.000000   -0.000000
  1Y     0.000000   -0.165708    0.000000
  1Z    -0.000000    0.000000   -0.165708
 
 
 Eigenvectors and eigenvalues of the dynamical matrix
 ----------------------------------------------------
 
 
   1 f  =    1.006862 THz     6.326298 2PiTHz   33.585286 cm-1     4.164046 meV
             X         Y         Z           dx          dy          dz
      0.000000  0.000000  0.000000     0.894427    0.447214    0.000000  
 
   2 f  =    1.006862 THz     6.326298 2PiTHz   33.585286 cm-1     4.164046 meV
             X         Y         Z           dx          dy          dz
      0.000000  0.000000  0.000000     0.447214   -0.894427    0.000000  
 
   3 f  =    1.006862 THz     6.326298 2PiTHz   33.585286 cm-1     4.164046 meV
             X         Y         Z           dx          dy          dz
      0.000000  0.000000  0.000000     0.000000    0.000000    1.000000  
 


--------------------------------------------------------------------------------------------------------




 MACROSCOPIC STATIC DIELECTRIC TENSOR IONIC CONTRIBUTION
 ------------------------------------------------------
           0.000000     0.000000     0.000000
           0.000000     0.000000     0.000000
           0.000000     0.000000     0.000000
 ------------------------------------------------------


 ELASTIC MODULI IONIC CONTR (kBar)
 Direction    XX          YY          ZZ          XY          YZ          ZX
 --------------------------------------------------------------------------------
 XX           0.0000      0.0000      0.0000      0.0000      0.0000      0.0000
 YY           0.0000      0.0000      0.0000      0.0000      0.0000      0.0000
 ZZ           0.0000      0.0000      0.0000      0.0000      0.0000      0.0000
 XY           0.0000      0.0000      0.0000      0.0000      0.0000      0.0000
 YZ           0.0000      0.0000      0.0000      0.0000      0.0000      0.0000
 ZX           0.0000      0.0000      0.0000      0.0000      0.0000      0.0000
 --------------------------------------------------------------------------------


 PIEZOELECTRIC TENSOR IONIC CONTR  for field in x, y, z        (C/m^2)
          XX          YY          ZZ          XY          YZ          ZX
  --------------------------------------------------------------------------------
  x     0.00000     0.00000     0.00000     0.00000     0.00000     0.00000
  y     0.00000     0.00000     0.00000     0.00000     0.00000     0.00000
  z     0.00000     0.00000     0.00000     0.00000     0.00000     0.00000


--------------------------------------------------------------------------------------------------------


     LOOP+:  cpu time   67.2231: real time   67.2659
    4ORBIT:  cpu time    0.0000: real time    0.0000

 total amount of memory used by VASP MPI-rank0    39007. kBytes
=======================================================================

   base      :      30000. kBytes
   nonl-proj :       4409. kBytes
   fftplans  :        858. kBytes
   grid      :       1969. kBytes
   one-center:          1. kBytes
   wavefun   :       1770. kBytes
 
  
  
 General timing and accounting informations for this job:
 ========================================================
  
                  Total CPU time used (sec):       69.629
                            User time (sec):       68.336
                          System time (sec):        1.293
                         Elapsed time (sec):       69.641
  
                   Maximum memory used (kb):      290672.
                   Average memory used (kb):           0.
  
                          Minor page faults:        55212
                          Major page faults:           14
                 Voluntary context switches:         2232
