<?xml version="1.0" encoding="ISO-8859-1"?>
<modeling>
 <generator>
  <i name="program" type="string">vasp </i>
  <i name="version" type="string">5.4.4.18Apr17-6-g9f103f2a35  </i>
  <i name="subversion" type="string">(build Aug 24 2017 11:22:49) complex            parallel </i>
  <i name="platform" type="string">LinuxIFC </i>
  <i name="date" type="string">2023 12 25 </i>
  <i name="time" type="string">13:07:46 </i>
 </generator>
 <incar>
  <i type="string" name="PREC">accurate</i>
  <i type="string" name="ALGO"> Normal</i>
  <i type="int" name="NELM">   100</i>
  <i type="int" name="IBRION">     8</i>
  <i name="EDIFF">      0.00000001</i>
  <i name="SYMPREC">      0.00000001</i>
  <i name="ENCUT">    520.00000000</i>
  <i type="logical" name="LREAL"> F  </i>
  <i type="int" name="ISMEAR">     0</i>
  <i name="SIGMA">      0.01000000</i>
  <i type="logical" name="LWAVE"> F  </i>
  <v type="int" name="KPOINT_BSE">    -1     0     0     0</v>
  <i type="int" name="NELM">   100</i>
  <i type="logical" name="LPEAD"> T  </i>
  <i type="logical" name="LEPSILON"> T  </i>
 </incar>
 <structure name="primitive_cell" >
  <crystal>
   <varray name="basis" >
    <v>      -2.68157972       0.00000000       2.68157972 </v>
    <v>       0.00000000       2.68157972       2.68157972 </v>
    <v>      -2.68157972       2.68157972       0.00000000 </v>
   </varray>
   <i name="volume">     38.56578112 </i>
   <varray name="rec_basis" >
    <v>      -0.18645726      -0.18645726       0.18645726 </v>
    <v>       0.18645726       0.18645726       0.18645726 </v>
    <v>      -0.18645726       0.18645726      -0.18645726 </v>
   </varray>
  </crystal>
  <varray name="positions" >
   <v>       0.00000000       0.00000000       0.00000000 </v>
  </varray>
 </structure>
 <varray name="primitive_index" >
  <v type="int" >        1 </v>
 </varray>
 <kpoints>
  <generation param="Gamma">
   <v type="int" name="divisions">      14       14       14 </v>
   <v name="usershift">      0.00000000       0.00000000       0.00000000 </v>
   <v name="genvec1">      0.07142857      -0.00000000      -0.00000000 </v>
   <v name="genvec2">     -0.00000000       0.07142857       0.00000000 </v>
   <v name="genvec3">      0.00000000       0.00000000       0.07142857 </v>
   <v name="shift">      0.00000000       0.00000000       0.00000000 </v>
  </generation>
  <varray name="kpointlist" >
   <v>       0.00000000       0.00000000       0.00000000 </v>
   <v>       0.07142857       0.00000000       0.00000000 </v>
   <v>       0.14285714      -0.00000000      -0.00000000 </v>
   <v>       0.21428571       0.00000000       0.00000000 </v>
   <v>       0.28571429       0.00000000       0.00000000 </v>
   <v>       0.35714286       0.00000000       0.00000000 </v>
   <v>       0.42857143       0.00000000       0.00000000 </v>
   <v>       0.50000000       0.00000000       0.00000000 </v>
   <v>       0.07142857       0.07142857       0.00000000 </v>
   <v>       0.14285714       0.07142857       0.00000000 </v>
   <v>       0.21428571       0.07142857       0.00000000 </v>
   <v>       0.28571429       0.07142857       0.00000000 </v>
   <v>       0.35714286       0.07142857      -0.00000000 </v>
   <v>       0.42857143       0.07142857       0.00000000 </v>
   <v>       0.50000000       0.07142857       0.00000000 </v>
   <v>      -0.42857143       0.07142857       0.00000000 </v>
   <v>      -0.35714286       0.07142857      -0.00000000 </v>
   <v>      -0.28571429       0.07142857       0.00000000 </v>
   <v>      -0.21428571       0.07142857      -0.00000000 </v>
   <v>      -0.14285714       0.07142857      -0.00000000 </v>
   <v>      -0.07142857       0.07142857      -0.00000000 </v>
   <v>       0.14285714       0.14285714       0.00000000 </v>
   <v>       0.21428571       0.14285714       0.00000000 </v>
   <v>       0.28571429       0.14285714       0.00000000 </v>
   <v>       0.35714286       0.14285714      -0.00000000 </v>
   <v>       0.42857143       0.14285714       0.00000000 </v>
   <v>       0.50000000       0.14285714      -0.00000000 </v>
   <v>      -0.42857143       0.14285714       0.00000000 </v>
   <v>      -0.35714286       0.14285714      -0.00000000 </v>
   <v>      -0.28571429       0.14285714      -0.00000000 </v>
   <v>      -0.21428571       0.14285714      -0.00000000 </v>
   <v>      -0.14285714       0.14285714      -0.00000000 </v>
   <v>       0.21428571       0.21428571       0.00000000 </v>
   <v>       0.28571429       0.21428571       0.00000000 </v>
   <v>       0.35714286       0.21428571       0.00000000 </v>
   <v>       0.42857143       0.21428571       0.00000000 </v>
   <v>       0.50000000       0.21428571       0.00000000 </v>
   <v>      -0.42857143       0.21428571      -0.00000000 </v>
   <v>      -0.35714286       0.21428571      -0.00000000 </v>
   <v>      -0.28571429       0.21428571      -0.00000000 </v>
   <v>      -0.21428571       0.21428571      -0.00000000 </v>
   <v>       0.28571429       0.28571429       0.00000000 </v>
   <v>       0.35714286       0.28571429       0.00000000 </v>
   <v>       0.42857143       0.28571429       0.00000000 </v>
   <v>       0.50000000       0.28571429       0.00000000 </v>
   <v>      -0.42857143       0.28571429       0.00000000 </v>
   <v>      -0.35714286       0.28571429      -0.00000000 </v>
   <v>      -0.28571429       0.28571429      -0.00000000 </v>
   <v>       0.35714286       0.35714286       0.00000000 </v>
   <v>       0.42857143       0.35714286       0.00000000 </v>
   <v>       0.50000000       0.35714286       0.00000000 </v>
   <v>      -0.42857143       0.35714286      -0.00000000 </v>
   <v>      -0.35714286       0.35714286       0.00000000 </v>
   <v>       0.42857143       0.42857143       0.00000000 </v>
   <v>       0.50000000       0.42857143       0.00000000 </v>
   <v>      -0.42857143       0.42857143      -0.00000000 </v>
   <v>       0.50000000       0.50000000       0.00000000 </v>
   <v>       0.21428571       0.14285714       0.07142857 </v>
   <v>       0.28571429       0.14285714       0.07142857 </v>
   <v>       0.35714286       0.14285714       0.07142857 </v>
   <v>       0.42857143       0.14285714       0.07142857 </v>
   <v>       0.50000000       0.14285714       0.07142857 </v>
   <v>      -0.42857143       0.14285714       0.07142857 </v>
   <v>       0.28571429       0.21428571       0.07142857 </v>
   <v>       0.35714286       0.21428571       0.07142857 </v>
   <v>       0.42857143       0.21428571       0.07142857 </v>
   <v>       0.50000000       0.21428571       0.07142857 </v>
   <v>      -0.42857143       0.21428571       0.07142857 </v>
   <v>      -0.35714286       0.21428571       0.07142857 </v>
   <v>      -0.28571429       0.21428571       0.07142857 </v>
   <v>      -0.21428571       0.21428571       0.07142857 </v>
   <v>      -0.14285714       0.21428571       0.07142857 </v>
   <v>       0.35714286       0.28571429       0.07142857 </v>
   <v>       0.42857143       0.28571429       0.07142857 </v>
   <v>       0.50000000       0.28571429       0.07142857 </v>
   <v>      -0.42857143       0.28571429       0.07142857 </v>
   <v>      -0.35714286       0.28571429       0.07142857 </v>
   <v>      -0.28571429       0.28571429       0.07142857 </v>
   <v>      -0.21428571       0.28571429       0.07142857 </v>
   <v>       0.42857143       0.35714286       0.07142857 </v>
   <v>       0.50000000       0.35714286       0.07142857 </v>
   <v>      -0.42857143       0.35714286       0.07142857 </v>
   <v>      -0.35714286       0.35714286       0.07142857 </v>
   <v>      -0.28571429       0.35714286       0.07142857 </v>
   <v>       0.50000000       0.42857143       0.07142857 </v>
   <v>      -0.42857143       0.42857143       0.07142857 </v>
   <v>      -0.35714286       0.42857143       0.07142857 </v>
   <v>      -0.42857143       0.50000000       0.07142857 </v>
   <v>       0.42857143       0.28571429       0.14285714 </v>
   <v>       0.50000000       0.28571429       0.14285714 </v>
   <v>      -0.42857143       0.28571429       0.14285714 </v>
   <v>      -0.35714286       0.28571429       0.14285714 </v>
   <v>       0.50000000       0.35714286       0.14285714 </v>
   <v>      -0.42857143       0.35714286       0.14285714 </v>
   <v>      -0.35714286       0.35714286       0.14285714 </v>
   <v>      -0.28571429       0.35714286       0.14285714 </v>
   <v>      -0.21428571       0.35714286       0.14285714 </v>
   <v>      -0.42857143       0.42857143       0.14285714 </v>
   <v>      -0.35714286       0.42857143       0.14285714 </v>
   <v>      -0.28571429       0.42857143       0.14285714 </v>
   <v>      -0.35714286       0.50000000       0.14285714 </v>
   <v>      -0.35714286       0.42857143       0.21428571 </v>
   <v>      -0.28571429       0.42857143       0.21428571 </v>
   <v>      -0.28571429       0.50000000       0.21428571 </v>
  </varray>
  <varray name="weights" >
   <v>       0.00036443 </v>
   <v>       0.00291545 </v>
   <v>       0.00291545 </v>
   <v>       0.00291545 </v>
   <v>       0.00291545 </v>
   <v>       0.00291545 </v>
   <v>       0.00291545 </v>
   <v>       0.00145773 </v>
   <v>       0.00218659 </v>
   <v>       0.00874636 </v>
   <v>       0.00874636 </v>
   <v>       0.00874636 </v>
   <v>       0.00874636 </v>
   <v>       0.00874636 </v>
   <v>       0.00874636 </v>
   <v>       0.00874636 </v>
   <v>       0.00874636 </v>
   <v>       0.00874636 </v>
   <v>       0.00874636 </v>
   <v>       0.00874636 </v>
   <v>       0.00437318 </v>
   <v>       0.00218659 </v>
   <v>       0.00874636 </v>
   <v>       0.00874636 </v>
   <v>       0.00874636 </v>
   <v>       0.00874636 </v>
   <v>       0.00874636 </v>
   <v>       0.00874636 </v>
   <v>       0.00874636 </v>
   <v>       0.00874636 </v>
   <v>       0.00874636 </v>
   <v>       0.00437318 </v>
   <v>       0.00218659 </v>
   <v>       0.00874636 </v>
   <v>       0.00874636 </v>
   <v>       0.00874636 </v>
   <v>       0.00874636 </v>
   <v>       0.00874636 </v>
   <v>       0.00874636 </v>
   <v>       0.00874636 </v>
   <v>       0.00437318 </v>
   <v>       0.00218659 </v>
   <v>       0.00874636 </v>
   <v>       0.00874636 </v>
   <v>       0.00874636 </v>
   <v>       0.00874636 </v>
   <v>       0.00874636 </v>
   <v>       0.00437318 </v>
   <v>       0.00218659 </v>
   <v>       0.00874636 </v>
   <v>       0.00874636 </v>
   <v>       0.00874636 </v>
   <v>       0.00437318 </v>
   <v>       0.00218659 </v>
   <v>       0.00874636 </v>
   <v>       0.00437318 </v>
   <v>       0.00109329 </v>
   <v>       0.00874636 </v>
   <v>       0.01749271 </v>
   <v>       0.01749271 </v>
   <v>       0.01749271 </v>
   <v>       0.01749271 </v>
   <v>       0.00874636 </v>
   <v>       0.00874636 </v>
   <v>       0.01749271 </v>
   <v>       0.01749271 </v>
   <v>       0.01749271 </v>
   <v>       0.01749271 </v>
   <v>       0.01749271 </v>
   <v>       0.01749271 </v>
   <v>       0.01749271 </v>
   <v>       0.00874636 </v>
   <v>       0.00874636 </v>
   <v>       0.01749271 </v>
   <v>       0.01749271 </v>
   <v>       0.01749271 </v>
   <v>       0.01749271 </v>
   <v>       0.01749271 </v>
   <v>       0.00874636 </v>
   <v>       0.00874636 </v>
   <v>       0.01749271 </v>
   <v>       0.01749271 </v>
   <v>       0.01749271 </v>
   <v>       0.00874636 </v>
   <v>       0.00874636 </v>
   <v>       0.01749271 </v>
   <v>       0.00874636 </v>
   <v>       0.00437318 </v>
   <v>       0.00874636 </v>
   <v>       0.01749271 </v>
   <v>       0.01749271 </v>
   <v>       0.00874636 </v>
   <v>       0.00874636 </v>
   <v>       0.01749271 </v>
   <v>       0.01749271 </v>
   <v>       0.01749271 </v>
   <v>       0.00874636 </v>
   <v>       0.00874636 </v>
   <v>       0.01749271 </v>
   <v>       0.00874636 </v>
   <v>       0.00437318 </v>
   <v>       0.00874636 </v>
   <v>       0.00874636 </v>
   <v>       0.00437318 </v>
  </varray>
 </kpoints>
 <parameters>
  <separator name="general" >
   <i type="string" name="SYSTEM">unknown system</i>
   <i type="logical" name="LCOMPAT"> F  </i>
  </separator>
  <separator name="electronic" >
   <i type="string" name="PREC">accura</i>
   <i name="ENMAX">    520.00000000</i>
   <i name="ENAUG">    482.93000000</i>
   <i name="EDIFF">      0.00000001</i>
   <i type="int" name="IALGO">    38</i>
   <i type="int" name="IWAVPR">    11</i>
   <i type="int" name="NBANDS">     8</i>
   <i name="NELECT">      8.00000000</i>
   <i type="int" name="TURBO">     0</i>
   <i type="int" name="IRESTART">     0</i>
   <i type="int" name="NREBOOT">     0</i>
   <i type="int" name="NMIN">     0</i>
   <i name="EREF">      0.00000000</i>
   <separator name="electronic smearing" >
    <i type="int" name="ISMEAR">     0</i>
    <i name="SIGMA">      0.01000000</i>
    <i name="KSPACING">      0.50000000</i>
    <i type="logical" name="KGAMMA"> T  </i>
   </separator>
   <separator name="electronic projectors" >
    <i type="logical" name="LREAL"> F  </i>
    <v name="ROPT">      0.00000000</v>
    <i type="int" name="LMAXPAW">  -100</i>
    <i type="int" name="LMAXMIX">     2</i>
    <i type="logical" name="NLSPLINE"> F  </i>
   </separator>
   <separator name="electronic startup" >
    <i type="int" name="ISTART">     0</i>
    <i type="int" name="ICHARG">     2</i>
    <i type="int" name="INIWAV">     1</i>
   </separator>
   <separator name="electronic spin" >
    <i type="int" name="ISPIN">     1</i>
    <i type="logical" name="LNONCOLLINEAR"> F  </i>
    <v name="MAGMOM">      1.00000000</v>
    <i name="NUPDOWN">     -1.00000000</i>
    <i type="logical" name="LSORBIT"> F  </i>
    <v name="SAXIS">      0.00000000      0.00000000      1.00000000</v>
    <i type="logical" name="LSPIRAL"> F  </i>
    <v name="QSPIRAL">      0.00000000      0.00000000      0.00000000</v>
    <i type="logical" name="LZEROZ"> F  </i>
   </separator>
   <separator name="electronic exchange-correlation" >
    <i type="logical" name="LASPH"> F  </i>
    <i type="logical" name="LMETAGGA"> F  </i>
   </separator>
   <separator name="electronic convergence" >
    <i type="int" name="NELM">   100</i>
    <i type="int" name="NELMDL">    -5</i>
    <i type="int" name="NELMIN">     2</i>
    <i name="ENINI">    520.00000000</i>
    <separator name="electronic convergence detail" >
     <i type="logical" name="LDIAG"> T  </i>
     <i type="logical" name="LSUBROT"> F  </i>
     <i name="WEIMIN">      0.00100000</i>
     <i name="EBREAK">      0.00000000</i>
     <i name="DEPER">      0.30000000</i>
     <i type="int" name="NRMM">     4</i>
     <i name="TIME">      0.40000000</i>
    </separator>
   </separator>
   <separator name="electronic mixer" >
    <i name="AMIX">      0.40000000</i>
    <i name="BMIX">      1.00000000</i>
    <i name="AMIN">      0.10000000</i>
    <i name="AMIX_MAG">      1.60000000</i>
    <i name="BMIX_MAG">      1.00000000</i>
    <separator name="electronic mixer details" >
     <i type="int" name="IMIX">     4</i>
     <i type="logical" name="MIXFIRST"> F  </i>
     <i type="int" name="MAXMIX">   -45</i>
     <i name="WC">    100.00000000</i>
     <i type="int" name="INIMIX">     1</i>
     <i type="int" name="MIXPRE">     1</i>
     <i type="int" name="MREMOVE">     5</i>
    </separator>
   </separator>
   <separator name="electronic dipolcorrection" >
    <i type="logical" name="LDIPOL"> F  </i>
    <i type="logical" name="LMONO"> F  </i>
    <i type="int" name="IDIPOL">     0</i>
    <i name="EPSILON">      1.00000000</i>
    <v name="DIPOL">   -100.00000000   -100.00000000   -100.00000000</v>
    <i name="EFIELD">      0.00000000</i>
   </separator>
  </separator>
  <separator name="grids" >
   <i type="int" name="NGX">    28</i>
   <i type="int" name="NGY">    28</i>
   <i type="int" name="NGZ">    28</i>
   <i type="int" name="NGXF">    56</i>
   <i type="int" name="NGYF">    56</i>
   <i type="int" name="NGZF">    56</i>
   <i type="logical" name="ADDGRID"> F  </i>
  </separator>
  <separator name="ionic" >
   <i type="int" name="NSW">     1</i>
   <i type="int" name="IBRION">     8</i>
   <i type="int" name="MDALGO">     0</i>
   <i type="int" name="ISIF">     2</i>
   <i name="PSTRESS">      0.00000000</i>
   <i name="EDIFFG">      0.00000010</i>
   <i type="int" name="NFREE">     0</i>
   <i name="POTIM">      0.50000000</i>
   <i name="SMASS">     -3.00000000</i>
   <i name="SCALEE">      1.00000000</i>
  </separator>
  <separator name="ionic md" >
   <i name="TEBEG">      0.00010000</i>
   <i name="TEEND">      0.00010000</i>
   <i type="int" name="NBLOCK">     1</i>
   <i type="int" name="KBLOCK">     1</i>
   <i type="int" name="NPACO">   256</i>
   <i name="APACO">     16.00000000</i>
  </separator>
  <separator name="symmetry" >
   <i type="int" name="ISYM">     2</i>
   <i name="SYMPREC">      0.00000001</i>
  </separator>
  <separator name="dos" >
   <i type="int" name="LORBIT">     0</i>
   <v name="RWIGS">     -1.00000000</v>
   <i type="int" name="NEDOS">   301</i>
   <i name="EMIN">     10.00000000</i>
   <i name="EMAX">    -10.00000000</i>
   <i name="EFERMI">      0.00000000</i>
  </separator>
  <separator name="writing" >
   <i type="int" name="NWRITE">     2</i>
   <i type="logical" name="LWAVE"> F  </i>
   <i type="logical" name="LDOWNSAMPLE"> F  </i>
   <i type="logical" name="LCHARG"> T  </i>
   <i type="logical" name="LPARD"> F  </i>
   <i type="logical" name="LVTOT"> F  </i>
   <i type="logical" name="LVHAR"> F  </i>
   <i type="logical" name="LELF"> F  </i>
   <i type="logical" name="LOPTICS"> F  </i>
   <v name="STM">      0.00000000      0.00000000      0.00000000      0.00000000      0.00000000      0.00000000      0.00000000</v>
  </separator>
  <separator name="performance" >
   <i type="int" name="NPAR">     8</i>
   <i type="int" name="NSIM">     4</i>
   <i type="int" name="NBLK">    -1</i>
   <i type="logical" name="LPLANE"> T  </i>
   <i type="logical" name="LSCALAPACK"> T  </i>
   <i type="logical" name="LSCAAWARE"> F  </i>
   <i type="logical" name="LSCALU"> F  </i>
   <i type="logical" name="LASYNC"> F  </i>
   <i type="logical" name="LORBITALREAL"> F  </i>
  </separator>
  <separator name="miscellaneous" >
   <i type="int" name="IDIOT">     3</i>
   <i type="int" name="ISPECIAL">     0</i>
   <i type="logical" name="LMUSIC"> F  </i>
   <v name="POMASS">     39.94900000</v>
   <v name="DARWINR">      0.00000000</v>
   <v name="DARWINV">      1.00000000</v>
   <i type="logical" name="LCORR"> T  </i>
  </separator>
  <i type="logical" name="GGA_COMPAT"> T  </i>
  <i type="logical" name="LBERRY"> F  </i>
  <i type="int" name="ICORELEVEL">     0</i>
  <i type="logical" name="LDAU"> F  </i>
  <i type="int" name="I_CONSTRAINED_M">     0</i>
  <separator name="electronic exchange-correlation" >
   <i type="string" name="GGA">--</i>
   <i type="int" name="VOSKOWN">     0</i>
   <i type="logical" name="LHFCALC"> F  </i>
   <i type="string" name="PRECFOCK"></i>
   <i type="logical" name="LSYMGRAD"> F  </i>
   <i type="logical" name="LHFONE"> F  </i>
   <i type="logical" name="LRHFCALC"> F  </i>
   <i type="logical" name="LTHOMAS"> F  </i>
   <i type="logical" name="LMODELHF"> F  </i>
   <i name="ENCUT4O">     -1.00000000</i>
   <i type="int" name="EXXOEP">     0</i>
   <i type="int" name="FOURORBIT">     0</i>
   <i name="AEXX">      0.00000000</i>
   <i name="HFALPHA">      0.00000000</i>
   <i name="MCALPHA">      0.00000000</i>
   <i name="ALDAX">      1.00000000</i>
   <i name="AGGAX">      1.00000000</i>
   <i name="ALDAC">      1.00000000</i>
   <i name="AGGAC">      1.00000000</i>
   <i type="int" name="NKREDX">     1</i>
   <i type="int" name="NKREDY">     1</i>
   <i type="int" name="NKREDZ">     1</i>
   <i type="logical" name="SHIFTRED"> F  </i>
   <i type="logical" name="ODDONLY"> F  </i>
   <i type="logical" name="EVENONLY"> F  </i>
   <i type="int" name="LMAXFOCK">     0</i>
   <i type="int" name="NMAXFOCKAE">     0</i>
   <i type="logical" name="LFOCKAEDFT"> F  </i>
   <i name="HFSCREEN">      0.00000000</i>
   <i name="HFSCREENC">      0.00000000</i>
   <i type="int" name="NBANDSGWLOW">     0</i>
  </separator>
  <separator name="vdW DFT" >
   <i type="logical" name="LUSE_VDW"> F  </i>
   <i name="Zab_VDW">     -0.84910000</i>
   <i name="PARAM1">      0.12340000</i>
   <i name="PARAM2">      1.00000000</i>
   <i name="PARAM3">      0.00000000</i>
  </separator>
  <separator name="model GW" >
   <i type="int" name="MODEL_GW">     0</i>
   <i name="MODEL_EPS0">     23.13946867</i>
   <i name="MODEL_ALPHA">      1.00000000</i>
  </separator>
  <separator name="linear response parameters" >
   <i type="logical" name="LEPSILON"> T  </i>
   <i type="logical" name="LRPA"> F  </i>
   <i type="logical" name="LNABLA"> F  </i>
   <i type="logical" name="LVEL"> F  </i>
   <i type="int" name="KINTER">     0</i>
   <i name="CSHIFT">      0.10000000</i>
   <i name="OMEGAMAX">     -1.00000000</i>
   <i name="DEG_THRESHOLD">      0.00200000</i>
   <i name="RTIME">     -0.10000000</i>
   <i name="WPLASMAI">      0.00000000</i>
   <v name="DFIELD">      0.00000000      0.00000000      0.00000000</v>
   <v name="WPLASMA">      0.00000000      0.00000000      0.00000000      0.00000000      0.00000000      0.00000000      0.00000000      0.00000000      0.00000000</v>
  </separator>
  <separator name="orbital magnetization" >
   <i type="logical" name="NUCIND"> F  </i>
   <v name="MAGPOS">      0.00000000      0.00000000      0.00000000</v>
   <i type="logical" name="LNICSALL"> T  </i>
   <i type="logical" name="ORBITALMAG"> F  </i>
   <i type="logical" name="LMAGBLOCH"> F  </i>
   <i type="logical" name="LCHIMAG"> F  </i>
   <i type="logical" name="LGAUGE"> T  </i>
   <i type="int" name="MAGATOM">     0</i>
   <v name="MAGDIPOL">      0.00000000      0.00000000      0.00000000</v>
   <v name="AVECCONST">      0.00000000      0.00000000      0.00000000</v>
  </separator>
  <separator name="response functions" >
   <i type="logical" name="LADDER"> F  </i>
   <i type="logical" name="LRPAFORCE"> F  </i>
   <i type="logical" name="LFXC"> F  </i>
   <i type="logical" name="LHARTREE"> T  </i>
   <i type="int" name="IBSE">     0</i>
   <v type="int" name="KPOINT">    -1     0     0     0</v>
   <i type="logical" name="LTCTE"> F  </i>
   <i type="logical" name="LTETE"> F  </i>
   <i type="logical" name="LTRIPLET"> F  </i>
   <i type="logical" name="LFXCEPS"> F  </i>
   <i type="logical" name="LFXHEG"> F  </i>
   <i type="int" name="NATURALO">     2</i>
   <i type="logical" name="L2ORDER"> F  </i>
   <i type="logical" name="LMP2LT"> F  </i>
   <i type="logical" name="LUSEW"> F  </i>
   <i name="ENCUTGW">     -2.00000000</i>
   <i name="ENCUTGWSOFT">     -2.00000000</i>
   <i name="ENCUTLF">     -1.00000000</i>
   <i type="int" name="LMAXMP2">    -1</i>
   <i name="SCISSOR">      0.00000000</i>
   <i type="int" name="NOMEGA">     0</i>
   <i type="int" name="NOMEGAR">     0</i>
   <i type="int" name="NBANDSGW">    -1</i>
   <i type="int" name="NBANDSO">    -1</i>
   <i type="int" name="NBANDSV">    -1</i>
   <i type="int" name="NELM">   100</i>
   <i type="int" name="NELMHF">     1</i>
   <i type="int" name="DIM">     3</i>
   <i type="int" name="ANTIRES">     0</i>
   <i name="OMEGAMAX">    -30.00000000</i>
   <i name="OMEGAMIN">    -30.00000000</i>
   <i name="OMEGATL">   -200.00000000</i>
   <i type="int" name="OMEGAGRID">   140</i>
   <i name="CSHIFT">     -0.10000000</i>
   <i type="logical" name="SELFENERGY"> F  </i>
   <i type="logical" name="LSPECTRAL"> F  </i>
   <i type="logical" name="LSPECTRALGW"> F  </i>
   <i type="logical" name="LSINGLES"> F  </i>
   <i type="logical" name="LFERMIGW"> F  </i>
   <i type="logical" name="ODDONLYGW"> F  </i>
   <i type="logical" name="EVENONLYGW"> F  </i>
   <i type="int" name="NKREDLFX">     1</i>
   <i type="int" name="NKREDLFY">     1</i>
   <i type="int" name="NKREDLFZ">     1</i>
   <i type="int" name="MAXMEM">  2800</i>
   <i type="int" name="TELESCOPE">     0</i>
   <i type="int" name="TAUPAR">     1</i>
   <i type="int" name="OMEGAPAR">    -1</i>
   <i name="LAMBDA">      1.00000000</i>
  </separator>
  <separator name="External order field" >
   <i name="OFIELD_KAPPA">      0.00000000</i>
   <v name="OFIELD_K">      0.00000000      0.00000000      0.00000000</v>
   <i name="OFIELD_Q6_NEAR">      0.00000000</i>
   <i name="OFIELD_Q6_FAR">      0.00000000</i>
   <i name="OFIELD_A">      0.00000000</i>
  </separator>
 </parameters>
 <atominfo>
  <atoms>       1 </atoms>
  <types>       1 </types>
  <array name="atoms" >
   <dimension dim="1">ion</dimension>
   <field type="string">element</field>
   <field type="int">atomtype</field>
   <set>
    <rc><c>Ar</c><c>   1</c></rc>
   </set>
  </array>
  <array name="atomtypes" >
   <dimension dim="1">type</dimension>
   <field type="int">atomspertype</field>
   <field type="string">element</field>
   <field>mass</field>
   <field>valence</field>
   <field type="string">pseudopotential</field>
   <set>
    <rc><c>   1</c><c>Ar</c><c>     39.94900000</c><c>      8.00000000</c><c>  PAW_PBE Ar 07Sep2000                  </c></rc>
   </set>
  </array>
 </atominfo>
 <structure name="initialpos" >
  <crystal>
   <varray name="basis" >
    <v>      -2.68157972       0.00000000       2.68157972 </v>
    <v>       0.00000000       2.68157972       2.68157972 </v>
    <v>      -2.68157972       2.68157972       0.00000000 </v>
   </varray>
   <i name="volume">     38.56578112 </i>
   <varray name="rec_basis" >
    <v>      -0.18645726      -0.18645726       0.18645726 </v>
    <v>       0.18645726       0.18645726       0.18645726 </v>
    <v>      -0.18645726       0.18645726      -0.18645726 </v>
   </varray>
  </crystal>
  <varray name="positions" >
   <v>       0.00000000       0.00000000       0.00000000 </v>
  </varray>
 </structure>
 <calculation>
  <scstep>
   <time name="dav">    0.26    0.26</time>
   <time name="total">    0.29    0.29</time>
   <energy>
    <i name="alphaZ">      3.83229515 </i>
    <i name="ewald">   -393.92325419 </i>
    <i name="hartreedc">   -142.91064238 </i>
    <i name="XCdc">     29.18807150 </i>
    <i name="pawpsdc">    464.39213177 </i>
    <i name="pawaedc">   -468.88429268 </i>
    <i name="eentropy">     -0.00004690 </i>
    <i name="bandstr">    -30.75643483 </i>
    <i name="atom">    579.04441424 </i>
    <i name="e_fr_energy">     39.98224168 </i>
    <i name="e_wo_entrp">     39.98228859 </i>
    <i name="e_0_energy">     39.98226513 </i>
   </energy>
  </scstep>
  <scstep>
   <time name="dav">    0.32    0.32</time>
   <time name="total">    0.32    0.32</time>
   <energy>
    <i name="e_fr_energy">      1.64103779 </i>
    <i name="e_wo_entrp">      1.64103779 </i>
    <i name="e_0_energy">      1.64103779 </i>
   </energy>
  </scstep>
  <scstep>
   <time name="dav">    0.30    0.31</time>
   <time name="total">    0.30    0.31</time>
   <energy>
    <i name="e_fr_energy">     -0.01323717 </i>
    <i name="e_wo_entrp">     -0.01323717 </i>
    <i name="e_0_energy">     -0.01323717 </i>
   </energy>
  </scstep>
  <scstep>
   <time name="dav">    0.39    0.39</time>
   <time name="total">    0.39    0.39</time>
   <energy>
    <i name="e_fr_energy">     -0.02610910 </i>
    <i name="e_wo_entrp">     -0.02610910 </i>
    <i name="e_0_energy">     -0.02610910 </i>
   </energy>
  </scstep>
  <scstep>
   <time name="dav">    0.33    0.33</time>
   <time name="total">    0.36    0.37</time>
   <energy>
    <i name="e_fr_energy">     -0.02612238 </i>
    <i name="e_wo_entrp">     -0.02612238 </i>
    <i name="e_0_energy">     -0.02612238 </i>
   </energy>
  </scstep>
  <scstep>
   <time name="dav">    0.40    0.40</time>
   <time name="total">    0.45    0.45</time>
   <energy>
    <i name="e_fr_energy">     -0.02616868 </i>
    <i name="e_wo_entrp">     -0.02616868 </i>
    <i name="e_0_energy">     -0.02616868 </i>
   </energy>
  </scstep>
  <scstep>
   <time name="dav">    0.32    0.32</time>
   <time name="total">    0.36    0.36</time>
   <energy>
    <i name="e_fr_energy">     -0.02619885 </i>
    <i name="e_wo_entrp">     -0.02619885 </i>
    <i name="e_0_energy">     -0.02619885 </i>
   </energy>
  </scstep>
  <scstep>
   <time name="dav">    0.32    0.32</time>
   <time name="total">    0.37    0.37</time>
   <energy>
    <i name="e_fr_energy">     -0.02620581 </i>
    <i name="e_wo_entrp">     -0.02620581 </i>
    <i name="e_0_energy">     -0.02620581 </i>
   </energy>
  </scstep>
  <scstep>
   <time name="dav">    0.40    0.40</time>
   <time name="total">    0.44    0.44</time>
   <energy>
    <i name="e_fr_energy">     -0.02620577 </i>
    <i name="e_wo_entrp">     -0.02620577 </i>
    <i name="e_0_energy">     -0.02620577 </i>
   </energy>
  </scstep>
  <scstep>
   <time name="dav">    0.31    0.31</time>
   <time name="total">    0.36    0.36</time>
   <energy>
    <i name="e_fr_energy">     -0.02620608 </i>
    <i name="e_wo_entrp">     -0.02620608 </i>
    <i name="e_0_energy">     -0.02620608 </i>
   </energy>
  </scstep>
  <scstep>
   <time name="dav">    0.25    0.25</time>
   <time name="total">    0.26    0.26</time>
   <energy>
    <i name="alphaZ">      3.83229515 </i>
    <i name="ewald">   -393.92325419 </i>
    <i name="hartreedc">   -143.06254109 </i>
    <i name="XCdc">     29.19937814 </i>
    <i name="pawpsdc">    464.61666475 </i>
    <i name="pawaedc">   -469.11183999 </i>
    <i name="eentropy">     -0.00000000 </i>
    <i name="bandstr">    -70.62132309 </i>
    <i name="atom">    579.04441424 </i>
    <i name="e_fr_energy">     -0.02620608 </i>
    <i name="e_wo_entrp">     -0.02620608 </i>
    <i name="e_0_energy">     -0.02620608 </i>
   </energy>
  </scstep>
  <structure>
   <crystal>
    <varray name="basis" >
     <v>      -2.68157972       0.00000000       2.68157972 </v>
     <v>       0.00000000       2.68157972       2.68157972 </v>
     <v>      -2.68157972       2.68157972       0.00000000 </v>
    </varray>
    <i name="volume">     38.56578112 </i>
    <varray name="rec_basis" >
     <v>      -0.18645726      -0.18645726       0.18645726 </v>
     <v>       0.18645726       0.18645726       0.18645726 </v>
     <v>      -0.18645726       0.18645726      -0.18645726 </v>
    </varray>
   </crystal>
   <varray name="positions" >
    <v>       0.00000000       0.00000000       0.00000000 </v>
   </varray>
  </structure>
  <varray name="forces" >
   <v>       0.00000000      -0.00000000       0.00000000 </v>
  </varray>
  <varray name="stress" >
   <v>       6.06715659       0.00000000      -0.00000000 </v>
   <v>       0.00000000       6.06715659       0.00000000 </v>
   <v>      -0.00000000      -0.00000000       6.06715659 </v>
  </varray>
  <energy>
   <i name="e_fr_energy">     -0.02620608 </i>
   <i name="e_wo_entrp">     -0.02620608 </i>
   <i name="e_0_energy">     -0.00000000 </i>
  </energy>
  <scstep>
   <time name="total">    0.31    0.31</time>
   <energy>
    <i name="e_fr_energy">     -0.09858595 </i>
    <i name="e_wo_entrp">     -0.09858595 </i>
    <i name="e_0_energy">     -0.09858595 </i>
   </energy>
  </scstep>
  <scstep>
   <time name="total">    0.31    0.31</time>
   <energy>
    <i name="e_fr_energy">     -0.10069363 </i>
    <i name="e_wo_entrp">     -0.10069363 </i>
    <i name="e_0_energy">     -0.10069363 </i>
   </energy>
  </scstep>
  <scstep>
   <time name="total">    0.31    0.31</time>
   <energy>
    <i name="e_fr_energy">     -0.10070552 </i>
    <i name="e_wo_entrp">     -0.10070552 </i>
    <i name="e_0_energy">     -0.10070552 </i>
   </energy>
  </scstep>
  <scstep>
   <time name="total">    0.31    0.31</time>
   <energy>
    <i name="e_fr_energy">     -0.10070570 </i>
    <i name="e_wo_entrp">     -0.10070570 </i>
    <i name="e_0_energy">     -0.10070570 </i>
   </energy>
  </scstep>
  <scstep>
   <time name="total">    0.31    0.31</time>
   <energy>
    <i name="e_fr_energy">     -0.10070570 </i>
    <i name="e_wo_entrp">     -0.10070570 </i>
    <i name="e_0_energy">     -0.10070570 </i>
   </energy>
  </scstep>
  <scstep>
   <time name="total">    0.31    0.31</time>
   <energy>
    <i name="e_fr_energy">     -0.09689987 </i>
    <i name="e_wo_entrp">     -0.09689987 </i>
    <i name="e_0_energy">     -0.09689987 </i>
   </energy>
  </scstep>
  <scstep>
   <time name="total">    0.31    0.31</time>
   <energy>
    <i name="e_fr_energy">     -0.09895242 </i>
    <i name="e_wo_entrp">     -0.09895242 </i>
    <i name="e_0_energy">     -0.09895242 </i>
   </energy>
  </scstep>
  <scstep>
   <time name="total">    0.31    0.31</time>
   <energy>
    <i name="e_fr_energy">     -0.09896454 </i>
    <i name="e_wo_entrp">     -0.09896454 </i>
    <i name="e_0_energy">     -0.09896454 </i>
   </energy>
  </scstep>
  <scstep>
   <time name="total">    0.31    0.31</time>
   <energy>
    <i name="e_fr_energy">     -0.09896474 </i>
    <i name="e_wo_entrp">     -0.09896474 </i>
    <i name="e_0_energy">     -0.09896474 </i>
   </energy>
  </scstep>
  <scstep>
   <time name="total">    0.31    0.31</time>
   <energy>
    <i name="e_fr_energy">     -0.09896474 </i>
    <i name="e_wo_entrp">     -0.09896474 </i>
    <i name="e_0_energy">     -0.09896474 </i>
   </energy>
  </scstep>
  <scstep>
   <time name="total">    0.31    0.31</time>
   <energy>
    <i name="e_fr_energy">     -0.08170327 </i>
    <i name="e_wo_entrp">     -0.08170327 </i>
    <i name="e_0_energy">     -0.08170327 </i>
   </energy>
  </scstep>
  <scstep>
   <time name="total">    0.31    0.31</time>
   <energy>
    <i name="e_fr_energy">     -0.08349588 </i>
    <i name="e_wo_entrp">     -0.08349588 </i>
    <i name="e_0_energy">     -0.08349588 </i>
   </energy>
  </scstep>
  <scstep>
   <time name="total">    0.31    0.31</time>
   <energy>
    <i name="e_fr_energy">     -0.08350520 </i>
    <i name="e_wo_entrp">     -0.08350520 </i>
    <i name="e_0_energy">     -0.08350520 </i>
   </energy>
  </scstep>
  <scstep>
   <time name="total">    0.31    0.31</time>
   <energy>
    <i name="e_fr_energy">     -0.08350535 </i>
    <i name="e_wo_entrp">     -0.08350535 </i>
    <i name="e_0_energy">     -0.08350535 </i>
   </energy>
  </scstep>
  <scstep>
   <time name="total">    0.31    0.31</time>
   <energy>
    <i name="e_fr_energy">     -0.08350535 </i>
    <i name="e_wo_entrp">     -0.08350535 </i>
    <i name="e_0_energy">     -0.08350535 </i>
   </energy>
  </scstep>
  <varray name="epsilon_rpa" >
   <v>       1.88578557      -0.00000000       0.00000000 </v>
   <v>      -0.00000000       1.88578557      -0.00000000 </v>
   <v>       0.00000000      -0.00000000       1.88578557 </v>
  </varray>
  <kpoints>
   <generation param="Gamma">
    <v type="int" name="divisions">      14       14       14 </v>
    <v name="usershift">      0.00000000       0.00000000       0.00000000 </v>
    <v name="genvec1">      0.07142857      -0.00000000      -0.00000000 </v>
    <v name="genvec2">     -0.00000000       0.07142857       0.00000000 </v>
    <v name="genvec3">      0.00000000       0.00000000       0.07142857 </v>
    <v name="shift">      0.00000000       0.00000000       0.00000000 </v>
   </generation>
   <varray name="kpointlist" >
    <v>       0.00000000       0.00000000       0.00000000 </v>
    <v>       0.07142857       0.00000000       0.00000000 </v>
    <v>       0.14285714      -0.00000000      -0.00000000 </v>
    <v>       0.21428571       0.00000000       0.00000000 </v>
    <v>       0.28571429       0.00000000       0.00000000 </v>
    <v>       0.35714286       0.00000000       0.00000000 </v>
    <v>       0.42857143       0.00000000       0.00000000 </v>
    <v>       0.50000000       0.00000000       0.00000000 </v>
    <v>       0.07142857       0.07142857       0.00000000 </v>
    <v>       0.14285714       0.07142857       0.00000000 </v>
    <v>       0.21428571       0.07142857       0.00000000 </v>
    <v>       0.28571429       0.07142857       0.00000000 </v>
    <v>       0.35714286       0.07142857      -0.00000000 </v>
    <v>       0.42857143       0.07142857       0.00000000 </v>
    <v>       0.50000000       0.07142857       0.00000000 </v>
    <v>      -0.42857143       0.07142857       0.00000000 </v>
    <v>      -0.35714286       0.07142857      -0.00000000 </v>
    <v>      -0.28571429       0.07142857       0.00000000 </v>
    <v>      -0.21428571       0.07142857      -0.00000000 </v>
    <v>      -0.14285714       0.07142857      -0.00000000 </v>
    <v>      -0.07142857       0.07142857      -0.00000000 </v>
    <v>       0.14285714       0.14285714       0.00000000 </v>
    <v>       0.21428571       0.14285714       0.00000000 </v>
    <v>       0.28571429       0.14285714       0.00000000 </v>
    <v>       0.35714286       0.14285714      -0.00000000 </v>
    <v>       0.42857143       0.14285714       0.00000000 </v>
    <v>       0.50000000       0.14285714      -0.00000000 </v>
    <v>      -0.42857143       0.14285714       0.00000000 </v>
    <v>      -0.35714286       0.14285714      -0.00000000 </v>
    <v>      -0.28571429       0.14285714      -0.00000000 </v>
    <v>      -0.21428571       0.14285714      -0.00000000 </v>
    <v>      -0.14285714       0.14285714      -0.00000000 </v>
    <v>       0.21428571       0.21428571       0.00000000 </v>
    <v>       0.28571429       0.21428571       0.00000000 </v>
    <v>       0.35714286       0.21428571       0.00000000 </v>
    <v>       0.42857143       0.21428571       0.00000000 </v>
    <v>       0.50000000       0.21428571       0.00000000 </v>
    <v>      -0.42857143       0.21428571      -0.00000000 </v>
    <v>      -0.35714286       0.21428571      -0.00000000 </v>
    <v>      -0.28571429       0.21428571      -0.00000000 </v>
    <v>      -0.21428571       0.21428571      -0.00000000 </v>
    <v>       0.28571429       0.28571429       0.00000000 </v>
    <v>       0.35714286       0.28571429       0.00000000 </v>
    <v>       0.42857143       0.28571429       0.00000000 </v>
    <v>       0.50000000       0.28571429       0.00000000 </v>
    <v>      -0.42857143       0.28571429       0.00000000 </v>
    <v>      -0.35714286       0.28571429      -0.00000000 </v>
    <v>      -0.28571429       0.28571429      -0.00000000 </v>
    <v>       0.35714286       0.35714286       0.00000000 </v>
    <v>       0.42857143       0.35714286       0.00000000 </v>
    <v>       0.50000000       0.35714286       0.00000000 </v>
    <v>      -0.42857143       0.35714286      -0.00000000 </v>
    <v>      -0.35714286       0.35714286       0.00000000 </v>
    <v>       0.42857143       0.42857143       0.00000000 </v>
    <v>       0.50000000       0.42857143       0.00000000 </v>
    <v>      -0.42857143       0.42857143      -0.00000000 </v>
    <v>       0.50000000       0.50000000       0.00000000 </v>
    <v>       0.07142857       0.00000000       0.07142857 </v>
    <v>       0.14285714      -0.00000000       0.07142857 </v>
    <v>       0.21428571      -0.00000000       0.07142857 </v>
    <v>       0.28571429       0.00000000       0.07142857 </v>
    <v>       0.35714286      -0.00000000       0.07142857 </v>
    <v>       0.42857143      -0.00000000       0.07142857 </v>
    <v>       0.50000000       0.00000000       0.07142857 </v>
    <v>      -0.42857143      -0.00000000       0.07142857 </v>
    <v>      -0.35714286      -0.00000000       0.07142857 </v>
    <v>      -0.28571429       0.00000000       0.07142857 </v>
    <v>      -0.21428571       0.00000000       0.07142857 </v>
    <v>      -0.14285714       0.00000000       0.07142857 </v>
    <v>      -0.07142857      -0.00000000       0.07142857 </v>
    <v>       0.21428571       0.14285714       0.07142857 </v>
    <v>       0.28571429       0.14285714       0.07142857 </v>
    <v>       0.35714286       0.14285714       0.07142857 </v>
    <v>       0.42857143       0.14285714       0.07142857 </v>
    <v>       0.50000000       0.14285714       0.07142857 </v>
    <v>      -0.42857143       0.14285714       0.07142857 </v>
    <v>       0.14285714       0.21428571       0.07142857 </v>
    <v>       0.28571429       0.21428571       0.07142857 </v>
    <v>       0.35714286       0.21428571       0.07142857 </v>
    <v>       0.42857143       0.21428571       0.07142857 </v>
    <v>       0.50000000       0.21428571       0.07142857 </v>
    <v>      -0.42857143       0.21428571       0.07142857 </v>
    <v>      -0.35714286       0.21428571       0.07142857 </v>
    <v>      -0.28571429       0.21428571       0.07142857 </v>
    <v>      -0.21428571       0.21428571       0.07142857 </v>
    <v>      -0.14285714       0.21428571       0.07142857 </v>
    <v>       0.14285714       0.28571429       0.07142857 </v>
    <v>       0.21428571       0.28571429       0.07142857 </v>
    <v>       0.35714286       0.28571429       0.07142857 </v>
    <v>       0.42857143       0.28571429       0.07142857 </v>
    <v>       0.50000000       0.28571429       0.07142857 </v>
    <v>      -0.42857143       0.28571429       0.07142857 </v>
    <v>      -0.35714286       0.28571429       0.07142857 </v>
    <v>      -0.28571429       0.28571429       0.07142857 </v>
    <v>      -0.21428571       0.28571429       0.07142857 </v>
    <v>       0.14285714       0.35714286       0.07142857 </v>
    <v>       0.21428571       0.35714286       0.07142857 </v>
    <v>       0.28571429       0.35714286       0.07142857 </v>
    <v>       0.42857143       0.35714286       0.07142857 </v>
    <v>       0.50000000       0.35714286       0.07142857 </v>
    <v>      -0.42857143       0.35714286       0.07142857 </v>
    <v>      -0.35714286       0.35714286       0.07142857 </v>
    <v>      -0.28571429       0.35714286       0.07142857 </v>
    <v>       0.14285714       0.42857143       0.07142857 </v>
    <v>       0.21428571       0.42857143       0.07142857 </v>
    <v>       0.28571429       0.42857143       0.07142857 </v>
    <v>       0.35714286       0.42857143       0.07142857 </v>
    <v>       0.50000000       0.42857143       0.07142857 </v>
    <v>      -0.42857143       0.42857143       0.07142857 </v>
    <v>      -0.35714286       0.42857143       0.07142857 </v>
    <v>       0.14285714       0.50000000       0.07142857 </v>
    <v>       0.21428571       0.50000000       0.07142857 </v>
    <v>       0.28571429       0.50000000       0.07142857 </v>
    <v>       0.35714286       0.50000000       0.07142857 </v>
    <v>       0.42857143       0.50000000       0.07142857 </v>
    <v>      -0.42857143       0.50000000       0.07142857 </v>
    <v>       0.14285714      -0.42857143       0.07142857 </v>
    <v>       0.21428571      -0.42857143       0.07142857 </v>
    <v>       0.28571429      -0.42857143       0.07142857 </v>
    <v>       0.35714286      -0.42857143       0.07142857 </v>
    <v>       0.42857143      -0.42857143       0.07142857 </v>
    <v>       0.50000000      -0.42857143       0.07142857 </v>
    <v>       0.14285714      -0.35714286       0.07142857 </v>
    <v>       0.21428571      -0.35714286       0.07142857 </v>
    <v>       0.28571429      -0.35714286       0.07142857 </v>
    <v>       0.35714286      -0.35714286       0.07142857 </v>
    <v>       0.42857143      -0.35714286       0.07142857 </v>
    <v>       0.14285714      -0.28571429       0.07142857 </v>
    <v>       0.21428571      -0.28571429       0.07142857 </v>
    <v>       0.28571429      -0.28571429       0.07142857 </v>
    <v>       0.35714286      -0.28571429       0.07142857 </v>
    <v>       0.14285714      -0.21428571       0.07142857 </v>
    <v>       0.21428571      -0.21428571       0.07142857 </v>
    <v>       0.28571429      -0.21428571       0.07142857 </v>
    <v>       0.14285714      -0.14285714       0.07142857 </v>
    <v>       0.21428571      -0.14285714       0.07142857 </v>
    <v>       0.14285714      -0.07142857       0.07142857 </v>
    <v>       0.14285714      -0.00000000       0.14285714 </v>
    <v>       0.21428571      -0.00000000       0.14285714 </v>
    <v>       0.28571429       0.00000000       0.14285714 </v>
    <v>       0.35714286       0.00000000       0.14285714 </v>
    <v>       0.42857143      -0.00000000       0.14285714 </v>
    <v>       0.50000000      -0.00000000       0.14285714 </v>
    <v>      -0.42857143       0.00000000       0.14285714 </v>
    <v>      -0.35714286       0.00000000       0.14285714 </v>
    <v>      -0.28571429      -0.00000000       0.14285714 </v>
    <v>      -0.21428571       0.00000000       0.14285714 </v>
    <v>      -0.14285714      -0.00000000       0.14285714 </v>
    <v>       0.42857143       0.28571429       0.14285714 </v>
    <v>       0.50000000       0.28571429       0.14285714 </v>
    <v>      -0.42857143       0.28571429       0.14285714 </v>
    <v>      -0.35714286       0.28571429       0.14285714 </v>
    <v>       0.21428571       0.35714286       0.14285714 </v>
    <v>       0.50000000       0.35714286       0.14285714 </v>
    <v>      -0.42857143       0.35714286       0.14285714 </v>
    <v>      -0.35714286       0.35714286       0.14285714 </v>
    <v>      -0.28571429       0.35714286       0.14285714 </v>
    <v>      -0.21428571       0.35714286       0.14285714 </v>
    <v>       0.21428571       0.42857143       0.14285714 </v>
    <v>       0.28571429       0.42857143       0.14285714 </v>
    <v>      -0.42857143       0.42857143       0.14285714 </v>
    <v>      -0.35714286       0.42857143       0.14285714 </v>
    <v>      -0.28571429       0.42857143       0.14285714 </v>
    <v>       0.21428571       0.50000000       0.14285714 </v>
    <v>       0.28571429       0.50000000       0.14285714 </v>
    <v>       0.35714286       0.50000000       0.14285714 </v>
    <v>      -0.35714286       0.50000000       0.14285714 </v>
    <v>       0.21428571      -0.42857143       0.14285714 </v>
    <v>       0.28571429      -0.42857143       0.14285714 </v>
    <v>       0.35714286      -0.42857143       0.14285714 </v>
    <v>       0.42857143      -0.42857143       0.14285714 </v>
    <v>       0.21428571      -0.35714286       0.14285714 </v>
    <v>       0.28571429      -0.35714286       0.14285714 </v>
    <v>       0.35714286      -0.35714286       0.14285714 </v>
    <v>       0.42857143      -0.35714286       0.14285714 </v>
    <v>       0.50000000      -0.35714286       0.14285714 </v>
    <v>       0.21428571      -0.28571429       0.14285714 </v>
    <v>       0.28571429      -0.28571429       0.14285714 </v>
    <v>       0.35714286      -0.28571429       0.14285714 </v>
    <v>       0.42857143      -0.28571429       0.14285714 </v>
    <v>       0.21428571      -0.21428571       0.14285714 </v>
    <v>       0.28571429      -0.21428571       0.14285714 </v>
    <v>       0.35714286      -0.21428571       0.14285714 </v>
    <v>       0.21428571      -0.14285714       0.14285714 </v>
    <v>       0.28571429      -0.14285714       0.14285714 </v>
    <v>       0.21428571      -0.07142857       0.14285714 </v>
    <v>       0.21428571      -0.00000000       0.21428571 </v>
    <v>       0.28571429       0.00000000       0.21428571 </v>
    <v>       0.35714286       0.00000000       0.21428571 </v>
    <v>       0.42857143       0.00000000       0.21428571 </v>
    <v>       0.50000000       0.00000000       0.21428571 </v>
    <v>      -0.42857143      -0.00000000       0.21428571 </v>
    <v>      -0.35714286      -0.00000000       0.21428571 </v>
    <v>      -0.28571429       0.00000000       0.21428571 </v>
    <v>      -0.21428571      -0.00000000       0.21428571 </v>
    <v>      -0.35714286       0.42857143       0.21428571 </v>
    <v>      -0.28571429       0.42857143       0.21428571 </v>
    <v>       0.28571429       0.50000000       0.21428571 </v>
    <v>      -0.28571429       0.50000000       0.21428571 </v>
    <v>       0.28571429      -0.42857143       0.21428571 </v>
    <v>       0.35714286      -0.42857143       0.21428571 </v>
    <v>       0.28571429      -0.35714286       0.21428571 </v>
    <v>       0.35714286      -0.35714286       0.21428571 </v>
    <v>       0.42857143      -0.35714286       0.21428571 </v>
    <v>       0.28571429      -0.28571429       0.21428571 </v>
    <v>       0.35714286      -0.28571429       0.21428571 </v>
    <v>       0.42857143      -0.28571429       0.21428571 </v>
    <v>       0.50000000      -0.28571429       0.21428571 </v>
    <v>       0.28571429      -0.21428571       0.21428571 </v>
    <v>       0.35714286      -0.21428571       0.21428571 </v>
    <v>       0.42857143      -0.21428571       0.21428571 </v>
    <v>       0.28571429      -0.14285714       0.21428571 </v>
    <v>       0.35714286      -0.14285714       0.21428571 </v>
    <v>       0.28571429      -0.07142857       0.21428571 </v>
    <v>       0.28571429       0.00000000       0.28571429 </v>
    <v>       0.35714286      -0.00000000       0.28571429 </v>
    <v>       0.42857143      -0.00000000       0.28571429 </v>
    <v>       0.50000000       0.00000000       0.28571429 </v>
    <v>      -0.42857143       0.00000000       0.28571429 </v>
    <v>      -0.35714286       0.00000000       0.28571429 </v>
    <v>      -0.28571429      -0.00000000       0.28571429 </v>
    <v>       0.35714286      -0.35714286       0.28571429 </v>
    <v>       0.35714286      -0.28571429       0.28571429 </v>
    <v>       0.42857143      -0.28571429       0.28571429 </v>
    <v>       0.35714286      -0.21428571       0.28571429 </v>
    <v>       0.42857143      -0.21428571       0.28571429 </v>
    <v>       0.50000000      -0.21428571       0.28571429 </v>
    <v>       0.35714286      -0.14285714       0.28571429 </v>
    <v>       0.42857143      -0.14285714       0.28571429 </v>
    <v>       0.35714286      -0.07142857       0.28571429 </v>
    <v>       0.35714286      -0.00000000       0.35714286 </v>
    <v>       0.42857143       0.00000000       0.35714286 </v>
    <v>       0.50000000       0.00000000       0.35714286 </v>
    <v>      -0.42857143       0.00000000       0.35714286 </v>
    <v>      -0.35714286      -0.00000000       0.35714286 </v>
    <v>       0.42857143      -0.21428571       0.35714286 </v>
    <v>       0.42857143      -0.14285714       0.35714286 </v>
    <v>       0.50000000      -0.14285714       0.35714286 </v>
    <v>       0.42857143      -0.07142857       0.35714286 </v>
    <v>       0.42857143      -0.00000000       0.42857143 </v>
    <v>       0.50000000       0.00000000       0.42857143 </v>
    <v>      -0.42857143      -0.00000000       0.42857143 </v>
    <v>       0.50000000      -0.07142857       0.42857143 </v>
    <v>       0.50000000       0.00000000       0.50000000 </v>
   </varray>
   <varray name="weights" >
    <v>       0.00036443 </v>
    <v>       0.00291545 </v>
    <v>       0.00291545 </v>
    <v>       0.00291545 </v>
    <v>       0.00291545 </v>
    <v>       0.00291545 </v>
    <v>       0.00291545 </v>
    <v>       0.00145773 </v>
    <v>       0.00145773 </v>
    <v>       0.00583090 </v>
    <v>       0.00583090 </v>
    <v>       0.00583090 </v>
    <v>       0.00583090 </v>
    <v>       0.00583090 </v>
    <v>       0.00583090 </v>
    <v>       0.00583090 </v>
    <v>       0.00583090 </v>
    <v>       0.00583090 </v>
    <v>       0.00583090 </v>
    <v>       0.00583090 </v>
    <v>       0.00291545 </v>
    <v>       0.00145773 </v>
    <v>       0.00583090 </v>
    <v>       0.00583090 </v>
    <v>       0.00583090 </v>
    <v>       0.00583090 </v>
    <v>       0.00583090 </v>
    <v>       0.00583090 </v>
    <v>       0.00583090 </v>
    <v>       0.00583090 </v>
    <v>       0.00583090 </v>
    <v>       0.00291545 </v>
    <v>       0.00145773 </v>
    <v>       0.00583090 </v>
    <v>       0.00583090 </v>
    <v>       0.00583090 </v>
    <v>       0.00583090 </v>
    <v>       0.00583090 </v>
    <v>       0.00583090 </v>
    <v>       0.00583090 </v>
    <v>       0.00291545 </v>
    <v>       0.00145773 </v>
    <v>       0.00583090 </v>
    <v>       0.00583090 </v>
    <v>       0.00583090 </v>
    <v>       0.00583090 </v>
    <v>       0.00583090 </v>
    <v>       0.00291545 </v>
    <v>       0.00145773 </v>
    <v>       0.00583090 </v>
    <v>       0.00583090 </v>
    <v>       0.00583090 </v>
    <v>       0.00291545 </v>
    <v>       0.00145773 </v>
    <v>       0.00583090 </v>
    <v>       0.00291545 </v>
    <v>       0.00072886 </v>
    <v>       0.00072886 </v>
    <v>       0.00291545 </v>
    <v>       0.00291545 </v>
    <v>       0.00291545 </v>
    <v>       0.00291545 </v>
    <v>       0.00291545 </v>
    <v>       0.00291545 </v>
    <v>       0.00291545 </v>
    <v>       0.00291545 </v>
    <v>       0.00291545 </v>
    <v>       0.00291545 </v>
    <v>       0.00291545 </v>
    <v>       0.00145773 </v>
    <v>       0.00291545 </v>
    <v>       0.00583090 </v>
    <v>       0.00583090 </v>
    <v>       0.00583090 </v>
    <v>       0.00583090 </v>
    <v>       0.00291545 </v>
    <v>       0.00291545 </v>
    <v>       0.00291545 </v>
    <v>       0.00583090 </v>
    <v>       0.00583090 </v>
    <v>       0.00583090 </v>
    <v>       0.00583090 </v>
    <v>       0.00583090 </v>
    <v>       0.00583090 </v>
    <v>       0.00583090 </v>
    <v>       0.00291545 </v>
    <v>       0.00583090 </v>
    <v>       0.00291545 </v>
    <v>       0.00291545 </v>
    <v>       0.00583090 </v>
    <v>       0.00583090 </v>
    <v>       0.00583090 </v>
    <v>       0.00583090 </v>
    <v>       0.00583090 </v>
    <v>       0.00291545 </v>
    <v>       0.00583090 </v>
    <v>       0.00583090 </v>
    <v>       0.00291545 </v>
    <v>       0.00291545 </v>
    <v>       0.00583090 </v>
    <v>       0.00583090 </v>
    <v>       0.00583090 </v>
    <v>       0.00291545 </v>
    <v>       0.00583090 </v>
    <v>       0.00583090 </v>
    <v>       0.00583090 </v>
    <v>       0.00291545 </v>
    <v>       0.00291545 </v>
    <v>       0.00583090 </v>
    <v>       0.00291545 </v>
    <v>       0.00583090 </v>
    <v>       0.00583090 </v>
    <v>       0.00583090 </v>
    <v>       0.00583090 </v>
    <v>       0.00291545 </v>
    <v>       0.00145773 </v>
    <v>       0.00583090 </v>
    <v>       0.00583090 </v>
    <v>       0.00583090 </v>
    <v>       0.00583090 </v>
    <v>       0.00583090 </v>
    <v>       0.00145773 </v>
    <v>       0.00583090 </v>
    <v>       0.00583090 </v>
    <v>       0.00583090 </v>
    <v>       0.00583090 </v>
    <v>       0.00291545 </v>
    <v>       0.00583090 </v>
    <v>       0.00583090 </v>
    <v>       0.00583090 </v>
    <v>       0.00291545 </v>
    <v>       0.00583090 </v>
    <v>       0.00583090 </v>
    <v>       0.00291545 </v>
    <v>       0.00583090 </v>
    <v>       0.00291545 </v>
    <v>       0.00291545 </v>
    <v>       0.00072886 </v>
    <v>       0.00291545 </v>
    <v>       0.00291545 </v>
    <v>       0.00291545 </v>
    <v>       0.00291545 </v>
    <v>       0.00291545 </v>
    <v>       0.00291545 </v>
    <v>       0.00291545 </v>
    <v>       0.00291545 </v>
    <v>       0.00291545 </v>
    <v>       0.00145773 </v>
    <v>       0.00291545 </v>
    <v>       0.00583090 </v>
    <v>       0.00583090 </v>
    <v>       0.00291545 </v>
    <v>       0.00291545 </v>
    <v>       0.00291545 </v>
    <v>       0.00583090 </v>
    <v>       0.00583090 </v>
    <v>       0.00583090 </v>
    <v>       0.00291545 </v>
    <v>       0.00583090 </v>
    <v>       0.00291545 </v>
    <v>       0.00291545 </v>
    <v>       0.00583090 </v>
    <v>       0.00291545 </v>
    <v>       0.00583090 </v>
    <v>       0.00583090 </v>
    <v>       0.00291545 </v>
    <v>       0.00145773 </v>
    <v>       0.00583090 </v>
    <v>       0.00583090 </v>
    <v>       0.00583090 </v>
    <v>       0.00291545 </v>
    <v>       0.00583090 </v>
    <v>       0.00583090 </v>
    <v>       0.00583090 </v>
    <v>       0.00583090 </v>
    <v>       0.00145773 </v>
    <v>       0.00583090 </v>
    <v>       0.00583090 </v>
    <v>       0.00583090 </v>
    <v>       0.00291545 </v>
    <v>       0.00583090 </v>
    <v>       0.00583090 </v>
    <v>       0.00291545 </v>
    <v>       0.00583090 </v>
    <v>       0.00291545 </v>
    <v>       0.00291545 </v>
    <v>       0.00072886 </v>
    <v>       0.00291545 </v>
    <v>       0.00291545 </v>
    <v>       0.00291545 </v>
    <v>       0.00291545 </v>
    <v>       0.00291545 </v>
    <v>       0.00291545 </v>
    <v>       0.00291545 </v>
    <v>       0.00145773 </v>
    <v>       0.00291545 </v>
    <v>       0.00291545 </v>
    <v>       0.00291545 </v>
    <v>       0.00145773 </v>
    <v>       0.00583090 </v>
    <v>       0.00291545 </v>
    <v>       0.00583090 </v>
    <v>       0.00583090 </v>
    <v>       0.00291545 </v>
    <v>       0.00583090 </v>
    <v>       0.00583090 </v>
    <v>       0.00583090 </v>
    <v>       0.00145773 </v>
    <v>       0.00583090 </v>
    <v>       0.00583090 </v>
    <v>       0.00291545 </v>
    <v>       0.00583090 </v>
    <v>       0.00291545 </v>
    <v>       0.00291545 </v>
    <v>       0.00072886 </v>
    <v>       0.00291545 </v>
    <v>       0.00291545 </v>
    <v>       0.00291545 </v>
    <v>       0.00291545 </v>
    <v>       0.00291545 </v>
    <v>       0.00145773 </v>
    <v>       0.00291545 </v>
    <v>       0.00583090 </v>
    <v>       0.00291545 </v>
    <v>       0.00583090 </v>
    <v>       0.00583090 </v>
    <v>       0.00145773 </v>
    <v>       0.00583090 </v>
    <v>       0.00291545 </v>
    <v>       0.00291545 </v>
    <v>       0.00072886 </v>
    <v>       0.00291545 </v>
    <v>       0.00291545 </v>
    <v>       0.00291545 </v>
    <v>       0.00145773 </v>
    <v>       0.00291545 </v>
    <v>       0.00583090 </v>
    <v>       0.00145773 </v>
    <v>       0.00291545 </v>
    <v>       0.00072886 </v>
    <v>       0.00291545 </v>
    <v>       0.00145773 </v>
    <v>       0.00145773 </v>
    <v>       0.00036443 </v>
   </varray>
  </kpoints>
  <scstep>
   <time name="total">    0.70    0.70</time>
   <energy>
    <i name="e_fr_energy">     -0.09239491 </i>
    <i name="e_wo_entrp">     -0.09239491 </i>
    <i name="e_0_energy">     -0.09239491 </i>
   </energy>
  </scstep>
  <scstep>
   <time name="total">    0.84    0.84</time>
   <energy>
    <i name="e_fr_energy">     -0.09438070 </i>
    <i name="e_wo_entrp">     -0.09438070 </i>
    <i name="e_0_energy">     -0.09438070 </i>
   </energy>
  </scstep>
  <scstep>
   <time name="total">    0.86    0.86</time>
   <energy>
    <i name="e_fr_energy">     -0.07805637 </i>
    <i name="e_wo_entrp">     -0.07805637 </i>
    <i name="e_0_energy">     -0.07805637 </i>
   </energy>
  </scstep>
  <scstep>
   <time name="total">    1.17    1.17</time>
   <energy>
    <i name="e_fr_energy">     -0.07986143 </i>
    <i name="e_wo_entrp">     -0.07986143 </i>
    <i name="e_0_energy">     -0.07986143 </i>
   </energy>
  </scstep>
  <scstep>
   <time name="total">    0.86    0.86</time>
   <energy>
    <i name="e_fr_energy">     -0.08379425 </i>
    <i name="e_wo_entrp">     -0.08379425 </i>
    <i name="e_0_energy">     -0.08379425 </i>
   </energy>
  </scstep>
  <scstep>
   <time name="total">    1.20    1.20</time>
   <energy>
    <i name="e_fr_energy">     -0.08365377 </i>
    <i name="e_wo_entrp">     -0.08365377 </i>
    <i name="e_0_energy">     -0.08365377 </i>
   </energy>
  </scstep>
  <scstep>
   <time name="total">    1.10    1.10</time>
   <energy>
    <i name="e_fr_energy">     -0.08379574 </i>
    <i name="e_wo_entrp">     -0.08379574 </i>
    <i name="e_0_energy">     -0.08379574 </i>
   </energy>
  </scstep>
  <scstep>
   <time name="total">    1.12    1.12</time>
   <energy>
    <i name="e_fr_energy">     -0.08379250 </i>
    <i name="e_wo_entrp">     -0.08379250 </i>
    <i name="e_0_energy">     -0.08379250 </i>
   </energy>
  </scstep>
  <scstep>
   <time name="total">    1.15    1.15</time>
   <energy>
    <i name="e_fr_energy">     -0.08379117 </i>
    <i name="e_wo_entrp">     -0.08379117 </i>
    <i name="e_0_energy">     -0.08379117 </i>
   </energy>
  </scstep>
  <scstep>
   <time name="total">    1.19    1.19</time>
   <energy>
    <i name="e_fr_energy">     -0.08379222 </i>
    <i name="e_wo_entrp">     -0.08379222 </i>
    <i name="e_0_energy">     -0.08379222 </i>
   </energy>
  </scstep>
  <scstep>
   <time name="total">    1.19    1.19</time>
   <energy>
    <i name="e_fr_energy">     -0.08379198 </i>
    <i name="e_wo_entrp">     -0.08379198 </i>
    <i name="e_0_energy">     -0.08379198 </i>
   </energy>
  </scstep>
  <kpoints>
   <generation param="Gamma">
    <v type="int" name="divisions">      14       14       14 </v>
    <v name="usershift">      0.00000000       0.00000000       0.00000000 </v>
    <v name="genvec1">      0.07142857      -0.00000000      -0.00000000 </v>
    <v name="genvec2">     -0.00000000       0.07142857       0.00000000 </v>
    <v name="genvec3">      0.00000000       0.00000000       0.07142857 </v>
    <v name="shift">      0.00000000       0.00000000       0.00000000 </v>
   </generation>
   <varray name="kpointlist" >
    <v>       0.00000000       0.00000000       0.00000000 </v>
    <v>       0.07142857       0.00000000       0.00000000 </v>
    <v>       0.14285714      -0.00000000      -0.00000000 </v>
    <v>       0.21428571       0.00000000       0.00000000 </v>
    <v>       0.28571429       0.00000000       0.00000000 </v>
    <v>       0.35714286       0.00000000       0.00000000 </v>
    <v>       0.42857143       0.00000000       0.00000000 </v>
    <v>       0.50000000       0.00000000       0.00000000 </v>
    <v>       0.07142857       0.07142857       0.00000000 </v>
    <v>       0.14285714       0.07142857       0.00000000 </v>
    <v>       0.21428571       0.07142857       0.00000000 </v>
    <v>       0.28571429       0.07142857       0.00000000 </v>
    <v>       0.35714286       0.07142857      -0.00000000 </v>
    <v>       0.42857143       0.07142857       0.00000000 </v>
    <v>       0.50000000       0.07142857       0.00000000 </v>
    <v>      -0.42857143       0.07142857       0.00000000 </v>
    <v>      -0.35714286       0.07142857      -0.00000000 </v>
    <v>      -0.28571429       0.07142857       0.00000000 </v>
    <v>      -0.21428571       0.07142857      -0.00000000 </v>
    <v>      -0.14285714       0.07142857      -0.00000000 </v>
    <v>      -0.07142857       0.07142857      -0.00000000 </v>
    <v>       0.14285714       0.14285714       0.00000000 </v>
    <v>       0.21428571       0.14285714       0.00000000 </v>
    <v>       0.28571429       0.14285714       0.00000000 </v>
    <v>       0.35714286       0.14285714      -0.00000000 </v>
    <v>       0.42857143       0.14285714       0.00000000 </v>
    <v>       0.50000000       0.14285714      -0.00000000 </v>
    <v>      -0.42857143       0.14285714       0.00000000 </v>
    <v>      -0.35714286       0.14285714      -0.00000000 </v>
    <v>      -0.28571429       0.14285714      -0.00000000 </v>
    <v>      -0.21428571       0.14285714      -0.00000000 </v>
    <v>      -0.14285714       0.14285714      -0.00000000 </v>
    <v>       0.21428571       0.21428571       0.00000000 </v>
    <v>       0.28571429       0.21428571       0.00000000 </v>
    <v>       0.35714286       0.21428571       0.00000000 </v>
    <v>       0.42857143       0.21428571       0.00000000 </v>
    <v>       0.50000000       0.21428571       0.00000000 </v>
    <v>      -0.42857143       0.21428571      -0.00000000 </v>
    <v>      -0.35714286       0.21428571      -0.00000000 </v>
    <v>      -0.28571429       0.21428571      -0.00000000 </v>
    <v>      -0.21428571       0.21428571      -0.00000000 </v>
    <v>       0.28571429       0.28571429       0.00000000 </v>
    <v>       0.35714286       0.28571429       0.00000000 </v>
    <v>       0.42857143       0.28571429       0.00000000 </v>
    <v>       0.50000000       0.28571429       0.00000000 </v>
    <v>      -0.42857143       0.28571429       0.00000000 </v>
    <v>      -0.35714286       0.28571429      -0.00000000 </v>
    <v>      -0.28571429       0.28571429      -0.00000000 </v>
    <v>       0.35714286       0.35714286       0.00000000 </v>
    <v>       0.42857143       0.35714286       0.00000000 </v>
    <v>       0.50000000       0.35714286       0.00000000 </v>
    <v>      -0.42857143       0.35714286      -0.00000000 </v>
    <v>      -0.35714286       0.35714286       0.00000000 </v>
    <v>       0.42857143       0.42857143       0.00000000 </v>
    <v>       0.50000000       0.42857143       0.00000000 </v>
    <v>      -0.42857143       0.42857143      -0.00000000 </v>
    <v>       0.50000000       0.50000000       0.00000000 </v>
    <v>      -0.00000000       0.07142857       0.07142857 </v>
    <v>       0.14285714       0.07142857       0.07142857 </v>
    <v>       0.21428571       0.07142857       0.07142857 </v>
    <v>       0.28571429       0.07142857       0.07142857 </v>
    <v>       0.35714286       0.07142857       0.07142857 </v>
    <v>       0.42857143       0.07142857       0.07142857 </v>
    <v>       0.50000000       0.07142857       0.07142857 </v>
    <v>      -0.42857143       0.07142857       0.07142857 </v>
    <v>      -0.35714286       0.07142857       0.07142857 </v>
    <v>      -0.28571429       0.07142857       0.07142857 </v>
    <v>      -0.21428571       0.07142857       0.07142857 </v>
    <v>      -0.14285714       0.07142857       0.07142857 </v>
    <v>      -0.07142857       0.07142857       0.07142857 </v>
    <v>       0.21428571       0.14285714       0.07142857 </v>
    <v>       0.28571429       0.14285714       0.07142857 </v>
    <v>       0.35714286       0.14285714       0.07142857 </v>
    <v>       0.42857143       0.14285714       0.07142857 </v>
    <v>       0.50000000       0.14285714       0.07142857 </v>
    <v>      -0.42857143       0.14285714       0.07142857 </v>
    <v>      -0.35714286       0.14285714       0.07142857 </v>
    <v>      -0.28571429       0.14285714       0.07142857 </v>
    <v>      -0.21428571       0.14285714       0.07142857 </v>
    <v>      -0.14285714       0.14285714       0.07142857 </v>
    <v>      -0.07142857       0.14285714       0.07142857 </v>
    <v>       0.14285714       0.21428571       0.07142857 </v>
    <v>       0.28571429       0.21428571       0.07142857 </v>
    <v>       0.35714286       0.21428571       0.07142857 </v>
    <v>       0.42857143       0.21428571       0.07142857 </v>
    <v>       0.50000000       0.21428571       0.07142857 </v>
    <v>      -0.42857143       0.21428571       0.07142857 </v>
    <v>      -0.35714286       0.21428571       0.07142857 </v>
    <v>      -0.28571429       0.21428571       0.07142857 </v>
    <v>      -0.21428571       0.21428571       0.07142857 </v>
    <v>      -0.14285714       0.21428571       0.07142857 </v>
    <v>       0.14285714       0.28571429       0.07142857 </v>
    <v>       0.21428571       0.28571429       0.07142857 </v>
    <v>       0.35714286       0.28571429       0.07142857 </v>
    <v>       0.42857143       0.28571429       0.07142857 </v>
    <v>       0.50000000       0.28571429       0.07142857 </v>
    <v>      -0.42857143       0.28571429       0.07142857 </v>
    <v>      -0.35714286       0.28571429       0.07142857 </v>
    <v>      -0.28571429       0.28571429       0.07142857 </v>
    <v>      -0.21428571       0.28571429       0.07142857 </v>
    <v>       0.14285714       0.35714286       0.07142857 </v>
    <v>       0.21428571       0.35714286       0.07142857 </v>
    <v>       0.28571429       0.35714286       0.07142857 </v>
    <v>       0.42857143       0.35714286       0.07142857 </v>
    <v>       0.50000000       0.35714286       0.07142857 </v>
    <v>      -0.42857143       0.35714286       0.07142857 </v>
    <v>      -0.35714286       0.35714286       0.07142857 </v>
    <v>      -0.28571429       0.35714286       0.07142857 </v>
    <v>       0.14285714       0.42857143       0.07142857 </v>
    <v>       0.21428571       0.42857143       0.07142857 </v>
    <v>       0.28571429       0.42857143       0.07142857 </v>
    <v>       0.35714286       0.42857143       0.07142857 </v>
    <v>       0.50000000       0.42857143       0.07142857 </v>
    <v>      -0.42857143       0.42857143       0.07142857 </v>
    <v>      -0.35714286       0.42857143       0.07142857 </v>
    <v>       0.14285714       0.50000000       0.07142857 </v>
    <v>       0.21428571       0.50000000       0.07142857 </v>
    <v>       0.28571429       0.50000000       0.07142857 </v>
    <v>       0.35714286       0.50000000       0.07142857 </v>
    <v>       0.42857143       0.50000000       0.07142857 </v>
    <v>      -0.42857143       0.50000000       0.07142857 </v>
    <v>       0.14285714      -0.42857143       0.07142857 </v>
    <v>       0.21428571      -0.42857143       0.07142857 </v>
    <v>       0.28571429      -0.42857143       0.07142857 </v>
    <v>       0.35714286      -0.42857143       0.07142857 </v>
    <v>       0.42857143      -0.42857143       0.07142857 </v>
    <v>       0.50000000      -0.42857143       0.07142857 </v>
    <v>       0.21428571      -0.35714286       0.07142857 </v>
    <v>       0.28571429      -0.35714286       0.07142857 </v>
    <v>       0.35714286      -0.35714286       0.07142857 </v>
    <v>       0.42857143      -0.35714286       0.07142857 </v>
    <v>       0.21428571      -0.28571429       0.07142857 </v>
    <v>       0.28571429      -0.28571429       0.07142857 </v>
    <v>       0.35714286      -0.28571429       0.07142857 </v>
    <v>       0.21428571      -0.21428571       0.07142857 </v>
    <v>       0.28571429      -0.21428571       0.07142857 </v>
    <v>       0.21428571      -0.14285714       0.07142857 </v>
    <v>      -0.00000000       0.14285714       0.14285714 </v>
    <v>       0.28571429       0.14285714       0.14285714 </v>
    <v>       0.35714286       0.14285714       0.14285714 </v>
    <v>       0.42857143       0.14285714       0.14285714 </v>
    <v>       0.50000000       0.14285714       0.14285714 </v>
    <v>      -0.42857143       0.14285714       0.14285714 </v>
    <v>      -0.35714286       0.14285714       0.14285714 </v>
    <v>      -0.28571429       0.14285714       0.14285714 </v>
    <v>      -0.21428571       0.14285714       0.14285714 </v>
    <v>      -0.14285714       0.14285714       0.14285714 </v>
    <v>      -0.07142857       0.14285714       0.14285714 </v>
    <v>       0.35714286       0.21428571       0.14285714 </v>
    <v>       0.42857143       0.21428571       0.14285714 </v>
    <v>       0.50000000       0.21428571       0.14285714 </v>
    <v>      -0.42857143       0.21428571       0.14285714 </v>
    <v>      -0.35714286       0.21428571       0.14285714 </v>
    <v>      -0.28571429       0.21428571       0.14285714 </v>
    <v>      -0.21428571       0.21428571       0.14285714 </v>
    <v>      -0.14285714       0.21428571       0.14285714 </v>
    <v>      -0.07142857       0.21428571       0.14285714 </v>
    <v>       0.42857143       0.28571429       0.14285714 </v>
    <v>       0.50000000       0.28571429       0.14285714 </v>
    <v>      -0.42857143       0.28571429       0.14285714 </v>
    <v>      -0.35714286       0.28571429       0.14285714 </v>
    <v>      -0.28571429       0.28571429       0.14285714 </v>
    <v>      -0.21428571       0.28571429       0.14285714 </v>
    <v>      -0.14285714       0.28571429       0.14285714 </v>
    <v>       0.50000000       0.35714286       0.14285714 </v>
    <v>      -0.42857143       0.35714286       0.14285714 </v>
    <v>      -0.35714286       0.35714286       0.14285714 </v>
    <v>      -0.28571429       0.35714286       0.14285714 </v>
    <v>      -0.21428571       0.35714286       0.14285714 </v>
    <v>       0.28571429       0.42857143       0.14285714 </v>
    <v>      -0.42857143       0.42857143       0.14285714 </v>
    <v>      -0.35714286       0.42857143       0.14285714 </v>
    <v>      -0.28571429       0.42857143       0.14285714 </v>
    <v>       0.28571429       0.50000000       0.14285714 </v>
    <v>       0.35714286       0.50000000       0.14285714 </v>
    <v>      -0.35714286       0.50000000       0.14285714 </v>
    <v>       0.28571429      -0.42857143       0.14285714 </v>
    <v>       0.35714286      -0.42857143       0.14285714 </v>
    <v>       0.42857143      -0.42857143       0.14285714 </v>
    <v>       0.28571429      -0.35714286       0.14285714 </v>
    <v>       0.35714286      -0.35714286       0.14285714 </v>
    <v>       0.42857143      -0.35714286       0.14285714 </v>
    <v>       0.50000000      -0.35714286       0.14285714 </v>
    <v>       0.35714286      -0.28571429       0.14285714 </v>
    <v>       0.42857143      -0.28571429       0.14285714 </v>
    <v>       0.35714286      -0.21428571       0.14285714 </v>
    <v>      -0.00000000       0.21428571       0.21428571 </v>
    <v>       0.42857143       0.21428571       0.21428571 </v>
    <v>       0.50000000       0.21428571       0.21428571 </v>
    <v>      -0.42857143       0.21428571       0.21428571 </v>
    <v>      -0.35714286       0.21428571       0.21428571 </v>
    <v>      -0.28571429       0.21428571       0.21428571 </v>
    <v>      -0.21428571       0.21428571       0.21428571 </v>
    <v>      -0.14285714       0.21428571       0.21428571 </v>
    <v>      -0.07142857       0.21428571       0.21428571 </v>
    <v>       0.50000000       0.28571429       0.21428571 </v>
    <v>      -0.42857143       0.28571429       0.21428571 </v>
    <v>      -0.35714286       0.28571429       0.21428571 </v>
    <v>      -0.28571429       0.28571429       0.21428571 </v>
    <v>      -0.21428571       0.28571429       0.21428571 </v>
    <v>      -0.14285714       0.28571429       0.21428571 </v>
    <v>      -0.07142857       0.28571429       0.21428571 </v>
    <v>      -0.42857143       0.35714286       0.21428571 </v>
    <v>      -0.35714286       0.35714286       0.21428571 </v>
    <v>      -0.28571429       0.35714286       0.21428571 </v>
    <v>      -0.21428571       0.35714286       0.21428571 </v>
    <v>      -0.14285714       0.35714286       0.21428571 </v>
    <v>      -0.35714286       0.42857143       0.21428571 </v>
    <v>      -0.28571429       0.42857143       0.21428571 </v>
    <v>      -0.21428571       0.42857143       0.21428571 </v>
    <v>      -0.28571429       0.50000000       0.21428571 </v>
    <v>       0.42857143      -0.35714286       0.21428571 </v>
    <v>       0.42857143      -0.28571429       0.21428571 </v>
    <v>       0.50000000      -0.28571429       0.21428571 </v>
    <v>      -0.00000000       0.28571429       0.28571429 </v>
    <v>      -0.42857143       0.28571429       0.28571429 </v>
    <v>      -0.35714286       0.28571429       0.28571429 </v>
    <v>      -0.28571429       0.28571429       0.28571429 </v>
    <v>      -0.21428571       0.28571429       0.28571429 </v>
    <v>      -0.14285714       0.28571429       0.28571429 </v>
    <v>      -0.07142857       0.28571429       0.28571429 </v>
    <v>      -0.35714286       0.35714286       0.28571429 </v>
    <v>      -0.28571429       0.35714286       0.28571429 </v>
    <v>      -0.21428571       0.35714286       0.28571429 </v>
    <v>      -0.14285714       0.35714286       0.28571429 </v>
    <v>      -0.07142857       0.35714286       0.28571429 </v>
    <v>      -0.28571429       0.42857143       0.28571429 </v>
    <v>      -0.21428571       0.42857143       0.28571429 </v>
    <v>      -0.14285714       0.42857143       0.28571429 </v>
    <v>      -0.21428571       0.50000000       0.28571429 </v>
    <v>      -0.00000000       0.35714286       0.35714286 </v>
    <v>      -0.28571429       0.35714286       0.35714286 </v>
    <v>      -0.21428571       0.35714286       0.35714286 </v>
    <v>      -0.14285714       0.35714286       0.35714286 </v>
    <v>      -0.07142857       0.35714286       0.35714286 </v>
    <v>      -0.21428571       0.42857143       0.35714286 </v>
    <v>      -0.14285714       0.42857143       0.35714286 </v>
    <v>      -0.07142857       0.42857143       0.35714286 </v>
    <v>      -0.14285714       0.50000000       0.35714286 </v>
    <v>      -0.00000000       0.42857143       0.42857143 </v>
    <v>      -0.14285714       0.42857143       0.42857143 </v>
    <v>      -0.07142857       0.42857143       0.42857143 </v>
    <v>      -0.07142857       0.50000000       0.42857143 </v>
    <v>      -0.00000000       0.50000000       0.50000000 </v>
   </varray>
   <varray name="weights" >
    <v>       0.00036443 </v>
    <v>       0.00291545 </v>
    <v>       0.00291545 </v>
    <v>       0.00291545 </v>
    <v>       0.00291545 </v>
    <v>       0.00291545 </v>
    <v>       0.00291545 </v>
    <v>       0.00145773 </v>
    <v>       0.00145773 </v>
    <v>       0.00583090 </v>
    <v>       0.00583090 </v>
    <v>       0.00583090 </v>
    <v>       0.00583090 </v>
    <v>       0.00583090 </v>
    <v>       0.00583090 </v>
    <v>       0.00583090 </v>
    <v>       0.00583090 </v>
    <v>       0.00583090 </v>
    <v>       0.00583090 </v>
    <v>       0.00583090 </v>
    <v>       0.00291545 </v>
    <v>       0.00145773 </v>
    <v>       0.00583090 </v>
    <v>       0.00583090 </v>
    <v>       0.00583090 </v>
    <v>       0.00583090 </v>
    <v>       0.00583090 </v>
    <v>       0.00583090 </v>
    <v>       0.00583090 </v>
    <v>       0.00583090 </v>
    <v>       0.00583090 </v>
    <v>       0.00291545 </v>
    <v>       0.00145773 </v>
    <v>       0.00583090 </v>
    <v>       0.00583090 </v>
    <v>       0.00583090 </v>
    <v>       0.00583090 </v>
    <v>       0.00583090 </v>
    <v>       0.00583090 </v>
    <v>       0.00583090 </v>
    <v>       0.00291545 </v>
    <v>       0.00145773 </v>
    <v>       0.00583090 </v>
    <v>       0.00583090 </v>
    <v>       0.00583090 </v>
    <v>       0.00583090 </v>
    <v>       0.00583090 </v>
    <v>       0.00291545 </v>
    <v>       0.00145773 </v>
    <v>       0.00583090 </v>
    <v>       0.00583090 </v>
    <v>       0.00583090 </v>
    <v>       0.00291545 </v>
    <v>       0.00145773 </v>
    <v>       0.00583090 </v>
    <v>       0.00291545 </v>
    <v>       0.00072886 </v>
    <v>       0.00072886 </v>
    <v>       0.00145773 </v>
    <v>       0.00291545 </v>
    <v>       0.00291545 </v>
    <v>       0.00291545 </v>
    <v>       0.00291545 </v>
    <v>       0.00291545 </v>
    <v>       0.00291545 </v>
    <v>       0.00291545 </v>
    <v>       0.00291545 </v>
    <v>       0.00291545 </v>
    <v>       0.00291545 </v>
    <v>       0.00291545 </v>
    <v>       0.00291545 </v>
    <v>       0.00583090 </v>
    <v>       0.00583090 </v>
    <v>       0.00583090 </v>
    <v>       0.00583090 </v>
    <v>       0.00583090 </v>
    <v>       0.00583090 </v>
    <v>       0.00583090 </v>
    <v>       0.00583090 </v>
    <v>       0.00583090 </v>
    <v>       0.00291545 </v>
    <v>       0.00291545 </v>
    <v>       0.00291545 </v>
    <v>       0.00583090 </v>
    <v>       0.00583090 </v>
    <v>       0.00583090 </v>
    <v>       0.00583090 </v>
    <v>       0.00583090 </v>
    <v>       0.00583090 </v>
    <v>       0.00583090 </v>
    <v>       0.00291545 </v>
    <v>       0.00583090 </v>
    <v>       0.00291545 </v>
    <v>       0.00291545 </v>
    <v>       0.00583090 </v>
    <v>       0.00583090 </v>
    <v>       0.00583090 </v>
[...]
      <set comment="kpoint 93">
       <r>  -19.3151    1.0000 </r>
       <r>   -5.7394    1.0000 </r>
       <r>   -5.2849    1.0000 </r>
       <r>   -5.1258    1.0000 </r>
       <r>    6.9258    0.0000 </r>
       <r>    8.6259    0.0000 </r>
       <r>    9.2755    0.0000 </r>
       <r>   12.1604    0.0000 </r>
      </set>
      <set comment="kpoint 94">
       <r>  -19.2981    1.0000 </r>
       <r>   -5.7454    1.0000 </r>
       <r>   -5.3797    1.0000 </r>
       <r>   -5.1591    1.0000 </r>
       <r>    7.3137    0.0000 </r>
       <r>    8.5735    0.0000 </r>
       <r>    9.1648    0.0000 </r>
       <r>   11.8832    0.0000 </r>
      </set>
      <set comment="kpoint 95">
       <r>  -19.2902    1.0000 </r>
       <r>   -5.7189    1.0000 </r>
       <r>   -5.4635    1.0000 </r>
       <r>   -5.1670    1.0000 </r>
       <r>    7.6345    0.0000 </r>
       <r>    8.4039    0.0000 </r>
       <r>    9.2475    0.0000 </r>
       <r>   11.5996    0.0000 </r>
      </set>
      <set comment="kpoint 96">
       <r>  -19.2930    1.0000 </r>
       <r>   -5.6954    1.0000 </r>
       <r>   -5.4913    1.0000 </r>
       <r>   -5.1444    1.0000 </r>
       <r>    7.7288    0.0000 </r>
       <r>    8.4124    0.0000 </r>
       <r>    9.1340    0.0000 </r>
       <r>   11.5756    0.0000 </r>
      </set>
      <set comment="kpoint 97">
       <r>  -19.3059    1.0000 </r>
       <r>   -5.7147    1.0000 </r>
       <r>   -5.4158    1.0000 </r>
       <r>   -5.1017    1.0000 </r>
       <r>    7.4398    0.0000 </r>
       <r>    8.7438    0.0000 </r>
       <r>    8.9045    0.0000 </r>
       <r>   11.7153    0.0000 </r>
      </set>
      <set comment="kpoint 98">
       <r>  -19.2891    1.0000 </r>
       <r>   -5.7791    1.0000 </r>
       <r>   -5.3445    1.0000 </r>
       <r>   -5.2155    1.0000 </r>
       <r>    7.0686    0.0000 </r>
       <r>    8.4330    0.0000 </r>
       <r>    9.4876    0.0000 </r>
       <r>   12.2530    0.0000 </r>
      </set>
      <set comment="kpoint 99">
       <r>  -19.2824    1.0000 </r>
       <r>   -5.7255    1.0000 </r>
       <r>   -5.4471    1.0000 </r>
       <r>   -5.2270    1.0000 </r>
       <r>    7.3207    0.0000 </r>
       <r>    8.5335    0.0000 </r>
       <r>    9.4168    0.0000 </r>
       <r>   11.7369    0.0000 </r>
      </set>
      <set comment="kpoint 100">
       <r>  -19.2838    1.0000 </r>
       <r>   -5.6312    1.0000 </r>
       <r>   -5.5694    1.0000 </r>
       <r>   -5.1973    1.0000 </r>
       <r>    7.5771    0.0000 </r>
       <r>    8.5684    0.0000 </r>
       <r>    9.2407    0.0000 </r>
       <r>   11.5016    0.0000 </r>
      </set>
      <set comment="kpoint 101">
       <r>  -19.2798    1.0000 </r>
       <r>   -5.7885    1.0000 </r>
       <r>   -5.3656    1.0000 </r>
       <r>   -5.2514    1.0000 </r>
       <r>    7.0566    0.0000 </r>
       <r>    8.3668    0.0000 </r>
       <r>    9.7140    0.0000 </r>
       <r>   12.1729    0.0000 </r>
      </set>
      <set comment="kpoint 102">
       <r>  -19.2864    1.0000 </r>
       <r>   -5.6836    1.0000 </r>
       <r>   -5.4833    1.0000 </r>
       <r>   -5.2112    1.0000 </r>
       <r>    7.5164    0.0000 </r>
       <r>    8.8083    0.0000 </r>
       <r>    8.9745    0.0000 </r>
       <r>   11.5149    0.0000 </r>
      </set>
      <set comment="kpoint 103">
       <r>  -19.2823    1.0000 </r>
       <r>   -5.6228    1.0000 </r>
       <r>   -5.5553    1.0000 </r>
       <r>   -5.2339    1.0000 </r>
       <r>    7.5820    0.0000 </r>
       <r>    8.8175    0.0000 </r>
       <r>    9.0586    0.0000 </r>
       <r>   11.2779    0.0000 </r>
      </set>
      <set comment="kpoint 104">
       <r>  -19.2795    1.0000 </r>
       <r>   -5.6578    1.0000 </r>
       <r>   -5.5071    1.0000 </r>
       <r>   -5.2646    1.0000 </r>
       <r>    7.4590    0.0000 </r>
       <r>    8.7734    0.0000 </r>
       <r>    9.2499    0.0000 </r>
       <r>   11.2663    0.0000 </r>
      </set>
     </set>
    </set>
   </array>
  </eigenvalues>
  <separator name="orbital magnetization" >
   <v name="MAGDIPOLOUT">      0.00000000      0.00000000      0.00000000</v>
  </separator>
  <dos>
   <i name="efermi">     -4.71180846 </i>
   <total>
    <array>
     <dimension dim="1">gridpoints</dimension>
     <dimension dim="2">spin</dimension>
     <field>energy</field>
     <field>total</field>
     <field>integrated</field>
     <set>
      <set comment="spin 1">
       <r>   -21.2240     0.0000     0.0000 </r>
       <r>   -21.0982     0.0000     0.0000 </r>
       <r>   -20.9724     0.0000     0.0000 </r>
       <r>   -20.8466     0.0000     0.0000 </r>
       <r>   -20.7208     0.0000     0.0000 </r>
       <r>   -20.5950     0.0000     0.0000 </r>
       <r>   -20.4692     0.0000     0.0000 </r>
       <r>   -20.3434     0.0000     0.0000 </r>
       <r>   -20.2176     0.0000     0.0000 </r>
       <r>   -20.0918     0.0000     0.0000 </r>
       <r>   -19.9660     0.0000     0.0000 </r>
       <r>   -19.8401     0.0000     0.0000 </r>
       <r>   -19.7143     0.0000     0.0000 </r>
       <r>   -19.5885     0.0000     0.0000 </r>
       <r>   -19.4627     0.4426     0.0557 </r>
       <r>   -19.3369     4.6422     0.7728 </r>
       <r>   -19.2111     2.8678     2.0000 </r>
       <r>   -19.0853     0.0000     2.0000 </r>
       <r>   -18.9595     0.0000     2.0000 </r>
       <r>   -18.8337     0.0000     2.0000 </r>
       <r>   -18.7079     0.0000     2.0000 </r>
       <r>   -18.5821     0.0000     2.0000 </r>
       <r>   -18.4563     0.0000     2.0000 </r>
       <r>   -18.3305     0.0000     2.0000 </r>
       <r>   -18.2046     0.0000     2.0000 </r>
       <r>   -18.0788     0.0000     2.0000 </r>
       <r>   -17.9530     0.0000     2.0000 </r>
       <r>   -17.8272     0.0000     2.0000 </r>
       <r>   -17.7014     0.0000     2.0000 </r>
       <r>   -17.5756     0.0000     2.0000 </r>
       <r>   -17.4498     0.0000     2.0000 </r>
       <r>   -17.3240     0.0000     2.0000 </r>
       <r>   -17.1982     0.0000     2.0000 </r>
       <r>   -17.0724     0.0000     2.0000 </r>
       <r>   -16.9466     0.0000     2.0000 </r>
       <r>   -16.8208     0.0000     2.0000 </r>
       <r>   -16.6950     0.0000     2.0000 </r>
       <r>   -16.5692     0.0000     2.0000 </r>
       <r>   -16.4433     0.0000     2.0000 </r>
       <r>   -16.3175     0.0000     2.0000 </r>
       <r>   -16.1917     0.0000     2.0000 </r>
       <r>   -16.0659     0.0000     2.0000 </r>
       <r>   -15.9401     0.0000     2.0000 </r>
       <r>   -15.8143     0.0000     2.0000 </r>
       <r>   -15.6885     0.0000     2.0000 </r>
       <r>   -15.5627     0.0000     2.0000 </r>
       <r>   -15.4369     0.0000     2.0000 </r>
       <r>   -15.3111     0.0000     2.0000 </r>
       <r>   -15.1853     0.0000     2.0000 </r>
       <r>   -15.0595     0.0000     2.0000 </r>
       <r>   -14.9337     0.0000     2.0000 </r>
       <r>   -14.8079     0.0000     2.0000 </r>
       <r>   -14.6820     0.0000     2.0000 </r>
       <r>   -14.5562     0.0000     2.0000 </r>
       <r>   -14.4304     0.0000     2.0000 </r>
       <r>   -14.3046     0.0000     2.0000 </r>
       <r>   -14.1788     0.0000     2.0000 </r>
       <r>   -14.0530     0.0000     2.0000 </r>
       <r>   -13.9272     0.0000     2.0000 </r>
       <r>   -13.8014     0.0000     2.0000 </r>
       <r>   -13.6756     0.0000     2.0000 </r>
       <r>   -13.5498     0.0000     2.0000 </r>
       <r>   -13.4240     0.0000     2.0000 </r>
       <r>   -13.2982     0.0000     2.0000 </r>
       <r>   -13.1724     0.0000     2.0000 </r>
       <r>   -13.0465     0.0000     2.0000 </r>
       <r>   -12.9207     0.0000     2.0000 </r>
       <r>   -12.7949     0.0000     2.0000 </r>
       <r>   -12.6691     0.0000     2.0000 </r>
       <r>   -12.5433     0.0000     2.0000 </r>
       <r>   -12.4175     0.0000     2.0000 </r>
       <r>   -12.2917     0.0000     2.0000 </r>
       <r>   -12.1659     0.0000     2.0000 </r>
       <r>   -12.0401     0.0000     2.0000 </r>
       <r>   -11.9143     0.0000     2.0000 </r>
       <r>   -11.7885     0.0000     2.0000 </r>
       <r>   -11.6627     0.0000     2.0000 </r>
       <r>   -11.5369     0.0000     2.0000 </r>
       <r>   -11.4111     0.0000     2.0000 </r>
       <r>   -11.2852     0.0000     2.0000 </r>
       <r>   -11.1594     0.0000     2.0000 </r>
       <r>   -11.0336     0.0000     2.0000 </r>
       <r>   -10.9078     0.0000     2.0000 </r>
       <r>   -10.7820     0.0000     2.0000 </r>
       <r>   -10.6562     0.0000     2.0000 </r>
       <r>   -10.5304     0.0000     2.0000 </r>
       <r>   -10.4046     0.0000     2.0000 </r>
       <r>   -10.2788     0.0000     2.0000 </r>
       <r>   -10.1530     0.0000     2.0000 </r>
       <r>   -10.0272     0.0000     2.0000 </r>
       <r>    -9.9014     0.0000     2.0000 </r>
       <r>    -9.7756     0.0000     2.0000 </r>
       <r>    -9.6497     0.0000     2.0000 </r>
       <r>    -9.5239     0.0000     2.0000 </r>
       <r>    -9.3981     0.0000     2.0000 </r>
       <r>    -9.2723     0.0000     2.0000 </r>
       <r>    -9.1465     0.0000     2.0000 </r>
       <r>    -9.0207     0.0000     2.0000 </r>
       <r>    -8.8949     0.0000     2.0000 </r>
       <r>    -8.7691     0.0000     2.0000 </r>
       <r>    -8.6433     0.0000     2.0000 </r>
       <r>    -8.5175     0.0000     2.0000 </r>
       <r>    -8.3917     0.0000     2.0000 </r>
       <r>    -8.2659     0.0000     2.0000 </r>
       <r>    -8.1401     0.0000     2.0000 </r>
       <r>    -8.0143     0.0000     2.0000 </r>
       <r>    -7.8884     0.0000     2.0000 </r>
       <r>    -7.7626     0.0000     2.0000 </r>
       <r>    -7.6368     0.0000     2.0000 </r>
       <r>    -7.5110     0.0000     2.0000 </r>
       <r>    -7.3852     0.0000     2.0000 </r>
       <r>    -7.2594     0.0000     2.0000 </r>
       <r>    -7.1336     0.0000     2.0000 </r>
       <r>    -7.0078     0.0000     2.0000 </r>
       <r>    -6.8820     0.0000     2.0000 </r>
       <r>    -6.7562     0.0000     2.0000 </r>
       <r>    -6.6304     0.0000     2.0000 </r>
       <r>    -6.5046     0.0000     2.0000 </r>
       <r>    -6.3788     0.0000     2.0000 </r>
       <r>    -6.2529     0.0000     2.0000 </r>
       <r>    -6.1271     0.0000     2.0000 </r>
       <r>    -6.0013     0.0311     2.0039 </r>
       <r>    -5.8755     1.1441     2.2052 </r>
       <r>    -5.7497     4.2684     2.9371 </r>
       <r>    -5.6239     2.5794     3.5920 </r>
       <r>    -5.4981     1.6931     3.8799 </r>
       <r>    -5.3723     2.5101     4.3194 </r>
       <r>    -5.2465     2.5382     4.8186 </r>
       <r>    -5.1207     5.4989     5.8645 </r>
       <r>    -4.9949     6.0655     7.1180 </r>
       <r>    -4.8691     3.2510     7.9476 </r>
       <r>    -4.7433     0.0000     8.0000 </r>
       <r>    -4.6175     0.0000     8.0000 </r>
       <r>    -4.4916     0.0000     8.0000 </r>
       <r>    -4.3658     0.0000     8.0000 </r>
       <r>    -4.2400     0.0000     8.0000 </r>
       <r>    -4.1142     0.0000     8.0000 </r>
       <r>    -3.9884     0.0000     8.0000 </r>
       <r>    -3.8626     0.0000     8.0000 </r>
       <r>    -3.7368     0.0000     8.0000 </r>
       <r>    -3.6110     0.0000     8.0000 </r>
       <r>    -3.4852     0.0000     8.0000 </r>
       <r>    -3.3594     0.0000     8.0000 </r>
       <r>    -3.2336     0.0000     8.0000 </r>
       <r>    -3.1078     0.0000     8.0000 </r>
       <r>    -2.9820     0.0000     8.0000 </r>
       <r>    -2.8561     0.0000     8.0000 </r>
       <r>    -2.7303     0.0000     8.0000 </r>
       <r>    -2.6045     0.0000     8.0000 </r>
       <r>    -2.4787     0.0000     8.0000 </r>
       <r>    -2.3529     0.0000     8.0000 </r>
       <r>    -2.2271     0.0000     8.0000 </r>
       <r>    -2.1013     0.0000     8.0000 </r>
       <r>    -1.9755     0.0000     8.0000 </r>
       <r>    -1.8497     0.0000     8.0000 </r>
       <r>    -1.7239     0.0000     8.0000 </r>
       <r>    -1.5981     0.0000     8.0000 </r>
       <r>    -1.4723     0.0000     8.0000 </r>
       <r>    -1.3465     0.0000     8.0000 </r>
       <r>    -1.2207     0.0000     8.0000 </r>
       <r>    -1.0948     0.0000     8.0000 </r>
       <r>    -0.9690     0.0000     8.0000 </r>
       <r>    -0.8432     0.0000     8.0000 </r>
       <r>    -0.7174     0.0000     8.0000 </r>
       <r>    -0.5916     0.0000     8.0000 </r>
       <r>    -0.4658     0.0000     8.0000 </r>
       <r>    -0.3400     0.0000     8.0000 </r>
       <r>    -0.2142     0.0000     8.0000 </r>
       <r>    -0.0884     0.0000     8.0000 </r>
       <r>     0.0374     0.0000     8.0000 </r>
       <r>     0.1632     0.0000     8.0000 </r>
       <r>     0.2890     0.0000     8.0000 </r>
       <r>     0.4148     0.0000     8.0000 </r>
       <r>     0.5406     0.0000     8.0000 </r>
       <r>     0.6665     0.0000     8.0000 </r>
       <r>     0.7923     0.0000     8.0000 </r>
       <r>     0.9181     0.0000     8.0000 </r>
       <r>     1.0439     0.0000     8.0000 </r>
       <r>     1.1697     0.0000     8.0000 </r>
       <r>     1.2955     0.0000     8.0000 </r>
       <r>     1.4213     0.0000     8.0000 </r>
       <r>     1.5471     0.0000     8.0000 </r>
       <r>     1.6729     0.0000     8.0000 </r>
       <r>     1.7987     0.0000     8.0000 </r>
       <r>     1.9245     0.0000     8.0000 </r>
       <r>     2.0503     0.0000     8.0000 </r>
       <r>     2.1761     0.0000     8.0000 </r>
       <r>     2.3020     0.0000     8.0000 </r>
       <r>     2.4278     0.0000     8.0000 </r>
       <r>     2.5536     0.0000     8.0000 </r>
       <r>     2.6794     0.0000     8.0000 </r>
       <r>     2.8052     0.0000     8.0000 </r>
       <r>     2.9310     0.0000     8.0000 </r>
       <r>     3.0568     0.0000     8.0000 </r>
       <r>     3.1826     0.0000     8.0000 </r>
       <r>     3.3084     0.0000     8.0000 </r>
       <r>     3.4342     0.0000     8.0000 </r>
       <r>     3.5600     0.0000     8.0000 </r>
       <r>     3.6858     0.0000     8.0000 </r>
       <r>     3.8116     0.0058     8.0007 </r>
       <r>     3.9374     0.0430     8.0061 </r>
       <r>     4.0633     0.0000     8.0109 </r>
       <r>     4.1891     0.0695     8.0197 </r>
       <r>     4.3149     0.1790     8.0422 </r>
       <r>     4.4407     0.0000     8.0430 </r>
       <r>     4.5665     0.0013     8.0475 </r>
       <r>     4.6923     0.1390     8.0824 </r>
       <r>     4.8181     0.1390     8.0999 </r>
       <r>     4.9439     0.1390     8.1232 </r>
       <r>     5.0697     0.0668     8.1316 </r>
       <r>     5.1955     0.4514     8.1887 </r>
       <r>     5.3213     0.1192     8.2038 </r>
       <r>     5.4471     0.2756     8.2409 </r>
       <r>     5.5729     0.0463     8.2471 </r>
       <r>     5.6988     0.3813     8.2951 </r>
       <r>     5.8246     0.4171     8.3520 </r>
       <r>     5.9504     0.0348     8.3914 </r>
       <r>     6.0762     0.2863     8.4449 </r>
       <r>     6.2020     0.1390     8.4672 </r>
       <r>     6.3278     0.6246     8.5458 </r>
       <r>     6.4536     0.2933     8.6353 </r>
       <r>     6.5794     0.6019     8.7543 </r>
       <r>     6.7052     0.6176     8.8678 </r>
       <r>     6.8310     0.6011     8.9648 </r>
       <r>     6.9568     1.0867     9.1396 </r>
       <r>     7.0826     0.7528     9.3075 </r>
       <r>     7.2084     0.6815     9.4123 </r>
       <r>     7.3342     0.8146     9.5165 </r>
       <r>     7.4601     0.4517     9.6108 </r>
       <r>     7.5859     0.9865     9.8355 </r>
       <r>     7.7117     0.2802     9.8778 </r>
       <r>     7.8375     0.1390     9.9300 </r>
       <r>     7.9633     0.5684    10.0365 </r>
       <r>     8.0891     0.3327    10.0965 </r>
       <r>     8.2149     0.4162    10.1726 </r>
       <r>     8.3407     0.9634    10.4514 </r>
       <r>     8.4665     1.3792    10.7792 </r>
       <r>     8.5923     1.2716    11.0455 </r>
       <r>     8.7181     0.8946    11.2168 </r>
       <r>     8.8439     1.3309    11.4553 </r>
       <r>     8.9697     0.6805    11.5441 </r>
       <r>     9.0956     0.9729    11.7091 </r>
       <r>     9.2214     1.0187    11.9161 </r>
       <r>     9.3472     1.0341    12.1162 </r>
       <r>     9.4730     1.5304    12.3755 </r>
       <r>     9.5988     1.3008    12.6527 </r>
       <r>     9.7246     1.4799    12.8852 </r>
       <r>     9.8504     1.4244    13.1377 </r>
       <r>     9.9762     0.4893    13.2168 </r>
       <r>    10.1020     0.8342    13.3608 </r>
       <r>    10.2278     0.4708    13.4900 </r>
       <r>    10.3536     0.3101    13.5594 </r>
       <r>    10.4794     0.5788    13.6515 </r>
       <r>    10.6052     0.1624    13.6954 </r>
       <r>    10.7310     0.6074    13.8097 </r>
       <r>    10.8569     0.7627    13.9152 </r>
       <r>    10.9827     0.6677    14.0213 </r>
       <r>    11.1085     0.8906    14.1565 </r>
       <r>    11.2343     1.3969    14.4010 </r>
       <r>    11.3601     0.9622    14.5970 </r>
       <r>    11.4859     0.6049    14.7357 </r>
       <r>    11.6117     2.0133    15.1403 </r>
       <r>    11.7375     0.8602    15.2664 </r>
       <r>    11.8633     0.2789    15.4075 </r>
       <r>    11.9891     0.7630    15.5734 </r>
       <r>    12.1149     0.0000    15.5824 </r>
       <r>    12.2407     0.4962    15.6973 </r>
       <r>    12.3665     0.1737    15.7616 </r>
       <r>    12.4923     0.1390    15.7792 </r>
       <r>    12.6182     0.2780    15.8316 </r>
       <r>    12.7440     0.1390    15.8491 </r>
       <r>    12.8698     0.2781    15.9016 </r>
       <r>    12.9956     0.0000    15.9016 </r>
       <r>    13.1214     0.0339    15.9234 </r>
       <r>    13.2472     0.0022    15.9237 </r>
       <r>    13.3730     0.2076    15.9671 </r>
       <r>    13.4988     0.0012    15.9674 </r>
       <r>    13.6246     0.0000    15.9759 </r>
       <r>    13.7504     0.0000    15.9759 </r>
       <r>    13.8762     0.0000    15.9759 </r>
       <r>    14.0020     0.1403    15.9936 </r>
       <r>    14.1278     0.0000    15.9978 </r>
       <r>    14.2537     0.0000    15.9978 </r>
       <r>    14.3795     0.0000    15.9978 </r>
       <r>    14.5053     0.0000    15.9978 </r>
       <r>    14.6311     0.0000    15.9978 </r>
       <r>    14.7569     0.0000    15.9978 </r>
       <r>    14.8827     0.0000    16.0000 </r>
       <r>    15.0085     0.0000    16.0000 </r>
       <r>    15.1343     0.0000    16.0000 </r>
       <r>    15.2601     0.0000    16.0000 </r>
       <r>    15.3859     0.0000    16.0000 </r>
       <r>    15.5117     0.0000    16.0000 </r>
       <r>    15.6375     0.0000    16.0000 </r>
       <r>    15.7633     0.0000    16.0000 </r>
       <r>    15.8891     0.0000    16.0000 </r>
       <r>    16.0150     0.0000    16.0000 </r>
       <r>    16.1408     0.0000    16.0000 </r>
       <r>    16.2666     0.0000    16.0000 </r>
       <r>    16.3924     0.0000    16.0000 </r>
       <r>    16.5182     0.0000    16.0000 </r>
      </set>
     </set>
    </array>
   </total>
  </dos>
 </calculation>
 <structure name="finalpos" >
  <crystal>
   <varray name="basis" >
    <v>      -2.68157972       0.00000000       2.68157972 </v>
    <v>       0.00000000       2.68157972       2.68157972 </v>
    <v>      -2.68157972       2.68157972       0.00000000 </v>
   </varray>
   <i name="volume">     38.56578112 </i>
   <varray name="rec_basis" >
    <v>      -0.18645726      -0.18645726       0.18645726 </v>
    <v>       0.18645726       0.18645726       0.18645726 </v>
    <v>      -0.18645726       0.18645726      -0.18645726 </v>
   </varray>
  </crystal>
  <varray name="positions" >
   <v>       0.00000000       0.00000000       0.00000000 </v>
  </varray>
 </structure>
</modeling>
