
     Program PWSCF v.7.1 starts on  3Jan2024 at 14:31:20 

     This program is part of the open-source Quantum ESPRESSO suite
     for quantum simulation of materials; please cite
         "P. Giannozzi et al., J. Phys.:Condens. Matter 21 395502 (2009);
         "P. Giannozzi et al., J. Phys.:Condens. Matter 29 465901 (2017);
         "P. Giannozzi et al., J. Chem. Phys. 152 154105 (2020);
          URL http://www.quantum-espresso.org", 
     in publications or presentations arising from this work. More details at
     http://www.quantum-espresso.org/quote

     Parallel version (MPI), running on     8 processors

     MPI processes distributed on     1 nodes
     122269 MiB available memory on the printing compute node when the environment starts
 
     Reading input from pw_mp-22916_scf_k3000_E65.in
Warning: card &CELL ignored
Warning: card / ignored

     Current dimensions of program PWSCF are:
     Max number of different atomic species (ntypx) = 10
     Max number of k-points (npk) =  40000
     Max angular momentum in pseudopotentials (lmaxx) =  4
 
     R & G space division:  proc/nbgrp/npool/nimage =       8
     Subspace diagonalization in iterative solution of the eigenvalue problem:
     a serial algorithm will be used

 
     Parallelization info
     --------------------
     sticks:   dense  smooth     PW     G-vecs:    dense   smooth      PW
     Min         141     141     42                 3116     3116     501
     Max         143     143     43                 3117     3117     503
     Sum        1135    1135    337                24933    24933    4015
 
     Using Slab Decomposition
 


     bravais-lattice index     =            2
     lattice parameter (alat)  =      11.1930  a.u.
     unit-cell volume          =     350.5745 (a.u.)^3
     number of atoms/cell      =            2
     number of atomic types    =            2
     number of electrons       =        16.00
     number of Kohn-Sham states=           16
     kinetic-energy cutoff     =      65.0000  Ry
     charge density cutoff     =     260.0000  Ry
     scf convergence threshold =      1.0E-10
     mixing beta               =       0.7000
     number of iterations used =            8  plain     mixing
     Exchange-correlation= PBE
                           (   1   4   3   4   0   0   0)

     celldm(1)=  11.193007  celldm(2)=   0.000000  celldm(3)=   0.000000
     celldm(4)=   0.000000  celldm(5)=   0.000000  celldm(6)=   0.000000

     crystal axes: (cart. coord. in units of alat)
               a(1) = (  -0.500000   0.000000   0.500000 )  
               a(2) = (   0.000000   0.500000   0.500000 )  
               a(3) = (  -0.500000   0.500000   0.000000 )  

     reciprocal axes: (cart. coord. in units 2 pi/alat)
               b(1) = ( -1.000000 -1.000000  1.000000 )  
               b(2) = (  1.000000  1.000000  1.000000 )  
               b(3) = ( -1.000000  1.000000 -1.000000 )  


     PseudoPot. # 1 for Br read from file:
     /usr/scratch4/magr4985/MG/devEb/pseudo/SG15/Br.upf
     MD5 check sum: d26c51d81abb03042b648ee3fecf55db
     Pseudo is Norm-conserving, Zval =  7.0
     Generated using ONCVPSP code by D. R. Hamann
     Using radial grid of  602 points,  6 beta functions with: 
                l(1) =   0
                l(2) =   0
                l(3) =   1
                l(4) =   1
                l(5) =   2
                l(6) =   2

     PseudoPot. # 2 for Na read from file:
     /usr/scratch4/magr4985/MG/devEb/pseudo/SG15/Na.upf
     MD5 check sum: b5675fcfec0094e74c3198b687cdd8c0
     Pseudo is Norm-conserving, Zval =  9.0
     Generated using ONCVPSP code by D. R. Hamann
     Using radial grid of  602 points,  4 beta functions with: 
                l(1) =   0
                l(2) =   0
                l(3) =   1
                l(4) =   1

     atomic species   valence    mass     pseudopotential
        Br             7.00    79.90400     Br( 1.00)
        Na             9.00    22.98980     Na( 1.00)

     48 Sym. Ops., with inversion, found



   Cartesian axes

     site n.     atom                  positions (alat units)
         1           Na  tau(   1) = (   0.0000000   0.0000000   0.0000000  )
         2           Br  tau(   2) = (  -0.5000000   0.5000000   0.5000000  )

     number of k points=    72  Gaussian smearing, width (Ry)=  0.0005
                       cart. coord. in units 2pi/alat
        k(    1) = (   0.0000000   0.0000000   0.0000000), wk =   0.0011574
        k(    2) = (  -0.0833333   0.0833333  -0.0833333), wk =   0.0092593
        k(    3) = (  -0.1666667   0.1666667  -0.1666667), wk =   0.0092593
        k(    4) = (  -0.2500000   0.2500000  -0.2500000), wk =   0.0092593
        k(    5) = (  -0.3333333   0.3333333  -0.3333333), wk =   0.0092593
        k(    6) = (  -0.4166667   0.4166667  -0.4166667), wk =   0.0092593
        k(    7) = (   0.5000000  -0.5000000   0.5000000), wk =   0.0046296
        k(    8) = (   0.0000000   0.1666667   0.0000000), wk =   0.0069444
        k(    9) = (  -0.0833333   0.2500000  -0.0833333), wk =   0.0277778
        k(   10) = (  -0.1666667   0.3333333  -0.1666667), wk =   0.0277778
        k(   11) = (  -0.2500000   0.4166667  -0.2500000), wk =   0.0277778
        k(   12) = (  -0.3333333   0.5000000  -0.3333333), wk =   0.0277778
        k(   13) = (   0.5833333  -0.4166667   0.5833333), wk =   0.0277778
        k(   14) = (   0.5000000  -0.3333333   0.5000000), wk =   0.0277778
        k(   15) = (   0.4166667  -0.2500000   0.4166667), wk =   0.0277778
        k(   16) = (   0.3333333  -0.1666667   0.3333333), wk =   0.0277778
        k(   17) = (   0.2500000  -0.0833333   0.2500000), wk =   0.0277778
        k(   18) = (   0.1666667  -0.0000000   0.1666667), wk =   0.0138889
        k(   19) = (   0.0000000   0.3333333   0.0000000), wk =   0.0069444
        k(   20) = (  -0.0833333   0.4166667  -0.0833333), wk =   0.0277778
        k(   21) = (  -0.1666667   0.5000000  -0.1666667), wk =   0.0277778
        k(   22) = (  -0.2500000   0.5833333  -0.2500000), wk =   0.0277778
        k(   23) = (   0.6666667  -0.3333333   0.6666667), wk =   0.0277778
        k(   24) = (   0.5833333  -0.2500000   0.5833333), wk =   0.0277778
        k(   25) = (   0.5000000  -0.1666667   0.5000000), wk =   0.0277778
        k(   26) = (   0.4166667  -0.0833333   0.4166667), wk =   0.0277778
        k(   27) = (   0.3333333   0.0000000   0.3333333), wk =   0.0138889
        k(   28) = (   0.0000000   0.5000000   0.0000000), wk =   0.0069444
        k(   29) = (  -0.0833333   0.5833333  -0.0833333), wk =   0.0277778
        k(   30) = (  -0.1666667   0.6666667  -0.1666667), wk =   0.0277778
        k(   31) = (   0.7500000  -0.2500000   0.7500000), wk =   0.0277778
        k(   32) = (   0.6666667  -0.1666667   0.6666667), wk =   0.0277778
        k(   33) = (   0.5833333  -0.0833333   0.5833333), wk =   0.0277778
        k(   34) = (   0.5000000   0.0000000   0.5000000), wk =   0.0138889
        k(   35) = (   0.0000000   0.6666667   0.0000000), wk =   0.0069444
        k(   36) = (  -0.0833333   0.7500000  -0.0833333), wk =   0.0277778
        k(   37) = (   0.8333333  -0.1666667   0.8333333), wk =   0.0277778
        k(   38) = (   0.7500000  -0.0833333   0.7500000), wk =   0.0277778
        k(   39) = (   0.6666667  -0.0000000   0.6666667), wk =   0.0138889
        k(   40) = (   0.0000000   0.8333333   0.0000000), wk =   0.0069444
        k(   41) = (   0.9166667  -0.0833333   0.9166667), wk =   0.0277778
        k(   42) = (   0.8333333   0.0000000   0.8333333), wk =   0.0138889
        k(   43) = (   0.0000000  -1.0000000   0.0000000), wk =   0.0034722
        k(   44) = (  -0.1666667   0.3333333   0.0000000), wk =   0.0277778
        k(   45) = (  -0.2500000   0.4166667  -0.0833333), wk =   0.0555556
        k(   46) = (  -0.3333333   0.5000000  -0.1666667), wk =   0.0555556
        k(   47) = (   0.5833333  -0.4166667   0.7500000), wk =   0.0555556
        k(   48) = (   0.5000000  -0.3333333   0.6666667), wk =   0.0277778
        k(   49) = (  -0.1666667   0.5000000   0.0000000), wk =   0.0277778
        k(   50) = (  -0.2500000   0.5833333  -0.0833333), wk =   0.0555556
        k(   51) = (   0.6666667  -0.3333333   0.8333333), wk =   0.0555556
        k(   52) = (   0.5833333  -0.2500000   0.7500000), wk =   0.0555556
        k(   53) = (   0.5000000  -0.1666667   0.6666667), wk =   0.0555556
        k(   54) = (   0.4166667  -0.0833333   0.5833333), wk =   0.0555556
        k(   55) = (   0.3333333   0.0000000   0.5000000), wk =   0.0277778
        k(   56) = (  -0.1666667   0.6666667  -0.0000000), wk =   0.0277778
        k(   57) = (   0.7500000  -0.2500000   0.9166667), wk =   0.0555556
        k(   58) = (   0.6666667  -0.1666667   0.8333333), wk =   0.0555556
        k(   59) = (   0.5833333  -0.0833333   0.7500000), wk =   0.0555556
        k(   60) = (   0.5000000   0.0000000   0.6666667), wk =   0.0277778
        k(   61) = (   0.8333333  -0.1666667   1.0000000), wk =   0.0277778
        k(   62) = (   0.7500000  -0.0833333   0.9166667), wk =   0.0555556
        k(   63) = (   0.6666667   0.0000000   0.8333333), wk =   0.0277778
        k(   64) = (  -0.1666667  -1.0000000  -0.0000000), wk =   0.0138889
        k(   65) = (   0.6666667  -0.3333333   1.0000000), wk =   0.0277778
        k(   66) = (   0.5833333  -0.2500000   0.9166667), wk =   0.0555556
        k(   67) = (   0.5000000  -0.1666667   0.8333333), wk =   0.0277778
        k(   68) = (   0.6666667  -0.1666667   1.0000000), wk =   0.0277778
        k(   69) = (   0.5833333  -0.0833333   0.9166667), wk =   0.0555556
        k(   70) = (   0.5000000   0.0000000   0.8333333), wk =   0.0277778
        k(   71) = (  -0.3333333  -1.0000000   0.0000000), wk =   0.0138889
        k(   72) = (  -0.5000000  -1.0000000   0.0000000), wk =   0.0069444

     Dense  grid:    24933 G-vectors     FFT dimensions: (  45,  45,  45)

     Estimated max dynamical RAM per process >      12.06 MB

     Estimated total dynamical RAM >      96.48 MB

     Initial potential from superposition of free atoms

     starting charge      15.8534, renormalised to      16.0000
     Starting wfcs are random

     total cpu time spent up to now is        0.5 secs

     Self-consistent Calculation

     iteration #  1     ecut=    65.00 Ry     beta= 0.70
     ParO style diagonalization
     ethr =  5.00E-06,  avg # of iterations = 23.9

     total cpu time spent up to now is       10.1 secs

     total energy              =    -112.39226165 Ry
     estimated scf accuracy    <       0.03657476 Ry

     iteration #  2     ecut=    65.00 Ry     beta= 0.70
     ParO style diagonalization
     ethr =  2.29E-04,  avg # of iterations =  5.5

     total cpu time spent up to now is       12.7 secs

     total energy              =    -112.40105497 Ry
     estimated scf accuracy    <       0.00476605 Ry

     iteration #  3     ecut=    65.00 Ry     beta= 0.70
     ParO style diagonalization
     ethr =  2.98E-05,  avg # of iterations =  5.5

     total cpu time spent up to now is       15.3 secs

     total energy              =    -112.40194061 Ry
     estimated scf accuracy    <       0.00017034 Ry

     iteration #  4     ecut=    65.00 Ry     beta= 0.70
     ParO style diagonalization
     ethr =  1.06E-06,  avg # of iterations =  6.2

     total cpu time spent up to now is       18.1 secs

     total energy              =    -112.40196361 Ry
     estimated scf accuracy    <       0.00000316 Ry

     iteration #  5     ecut=    65.00 Ry     beta= 0.70
     ParO style diagonalization
     ethr =  1.97E-08,  avg # of iterations =  7.0

     total cpu time spent up to now is       21.2 secs

     total energy              =    -112.40196463 Ry
     estimated scf accuracy    <       0.00000018 Ry

     iteration #  6     ecut=    65.00 Ry     beta= 0.70
     ParO style diagonalization
     ethr =  1.15E-09,  avg # of iterations =  7.6

     total cpu time spent up to now is       24.5 secs

     total energy              =    -112.40196471 Ry
     estimated scf accuracy    <          1.3E-09 Ry

     iteration #  7     ecut=    65.00 Ry     beta= 0.70
     ParO style diagonalization
     ethr =  8.35E-12,  avg # of iterations =  6.5

     total cpu time spent up to now is       27.4 secs

     total energy              =    -112.40196471 Ry
     estimated scf accuracy    <          1.4E-10 Ry

     iteration #  8     ecut=    65.00 Ry     beta= 0.70
     ParO style diagonalization
     ethr =  8.57E-13,  avg # of iterations =  5.8

     total cpu time spent up to now is       31.5 secs

     End of self-consistent calculation

          k = 0.0000 0.0000 0.0000 (  3119 PWs)   bands (ev):

   -47.8916 -19.8251 -19.8251 -19.8251 -11.1118   1.7466   1.7466   1.7466
     5.9536  11.6221  11.6221  11.6221  13.8207  13.8207  14.7633  16.5844

          k =-0.0833 0.0833-0.0833 (  3098 PWs)   bands (ev):

   -47.8914 -19.8262 -19.8251 -19.8251 -11.0928   1.5329   1.7260   1.7260
     6.2191  11.3508  11.7144  11.7144  13.6069  13.6069  15.2441  16.4756

          k =-0.1667 0.1667-0.1667 (  3101 PWs)   bands (ev):

   -47.8914 -19.8293 -19.8254 -19.8254 -11.0402   1.0393   1.6709   1.6709
     6.8356  10.9189  11.8781  11.8781  13.3573  13.3573  15.6110  16.9933

          k =-0.2500 0.2500-0.2500 (  3104 PWs)   bands (ev):

   -47.8913 -19.8336 -19.8256 -19.8256 -10.9666   0.4898   1.5981   1.5981
     7.4634  10.7621  11.8090  11.8090  13.6421  13.6421  15.2266  18.6348

          k =-0.3333 0.3333-0.3333 (  3100 PWs)   bands (ev):

   -47.8912 -19.8378 -19.8259 -19.8259 -10.8908   0.0226   1.5279   1.5279
     7.8255  11.0644  11.5676  11.5676  14.4722  14.4722  14.8660  19.7861

          k =-0.4167 0.4167-0.4167 (  3094 PWs)   bands (ev):

   -47.8911 -19.8409 -19.8262 -19.8262 -10.8338  -0.2855   1.4781   1.4781
     7.9291  11.3750  11.3750  11.6035  14.7021  15.6282  15.6282  18.4322

          k = 0.5000-0.5000 0.5000 (  3100 PWs)   bands (ev):

   -47.8911 -19.8421 -19.8262 -19.8262 -10.8126  -0.3927   1.4602   1.4602
     7.9410  11.3058  11.3058  11.8722  14.6983  16.8031  16.8031  17.3248

          k = 0.0000 0.1667 0.0000 (  3099 PWs)   bands (ev):

   -47.8914 -19.8261 -19.8254 -19.8254 -11.0866   1.5176   1.6931   1.6931
     6.3070  11.1934  11.7934  11.7934  13.1791  13.9168  15.4241  16.7683

          k =-0.0833 0.2500-0.0833 (  3098 PWs)   bands (ev):

   -47.8913 -19.8284 -19.8257 -19.8255 -11.0457   1.1495   1.6281   1.6495
     6.8078  10.8016  11.9346  11.9907  12.7517  13.8904  16.0575  16.9026

          k =-0.1667 0.3333-0.1667 (  3098 PWs)   bands (ev):

   -47.8913 -19.8322 -19.8261 -19.8257 -10.9797   0.6452   1.5505   1.5813
     7.4519  10.5581  11.6979  12.0410  13.0019  14.0750  15.8309  18.2029

          k =-0.2500 0.4167-0.2500 (  3093 PWs)   bands (ev):

   -47.8911 -19.8363 -19.8264 -19.8260 -10.9052   0.1744   1.4816   1.4938
     7.9281  10.7170  11.3302  11.8466  13.7604  14.7878  15.4631  19.7983

          k =-0.3333 0.5000-0.3333 (  3091 PWs)   bands (ev):

   -47.8910 -19.8397 -19.8265 -19.8264 -10.8422  -0.1704   1.4111   1.4382
     8.1101  11.0045  11.3413  11.6115  14.6595  15.3366  15.8770  18.3085

          k = 0.5833-0.4167 0.5833 (  3103 PWs)   bands (ev):

   -47.8911 -19.8414 -19.8268 -19.8265 -10.8091  -0.3369   1.3542   1.4302
     8.1458  10.9271  11.4635  11.8010  15.0578  15.9347  16.7847  17.4057

          k = 0.5000-0.3333 0.5000 (  3096 PWs)   bands (ev):

   -47.8911 -19.8410 -19.8270 -19.8262 -10.8160  -0.3022   1.3366   1.4592
     8.1476  10.9879  11.4472  11.6999  15.1463  15.4708  16.5987  17.0252

          k = 0.4167-0.2500 0.4167 (  3096 PWs)   bands (ev):

   -47.8911 -19.8387 -19.8269 -19.8259 -10.8607  -0.0716   1.3633   1.5187
     8.0887  11.0822  11.2550  11.5738  14.2552  15.2743  15.6278  18.2294

          k = 0.3333-0.1667 0.3333 (  3103 PWs)   bands (ev):

   -47.8912 -19.8350 -19.8267 -19.8255 -10.9298   0.3207   1.4303   1.5948
     7.8125  10.6731  11.5319  11.8242  13.3034  14.6023  15.5972  18.9051

          k = 0.2500-0.0833 0.2500 (  3090 PWs)   bands (ev):

   -47.8912 -19.8310 -19.8263 -19.8252 -11.0036   0.8073   1.5260   1.6677
     7.2388  10.6802  11.8193  12.0291  12.8032  13.9135  15.9923  17.4256

          k = 0.1667-0.0000 0.1667 (  3098 PWs)   bands (ev):

   -47.8914 -19.8277 -19.8257 -19.8251 -11.0628   1.2688   1.6353   1.7165
     6.6013  11.0179  11.8469  11.8585  13.0830  13.7001  15.8379  16.7043

          k = 0.0000 0.3333 0.0000 (  3103 PWs)   bands (ev):

   -47.8913 -19.8289 -19.8262 -19.8262 -11.0188   1.0263   1.5528   1.5528
     7.1359  10.4175  12.0617  12.2762  12.2762  14.1988  16.8954  17.3240

          k =-0.0833 0.4167-0.0833 (  3103 PWs)   bands (ev):

   -47.8913 -19.8314 -19.8268 -19.8266 -10.9660   0.6848   1.4676   1.4680
     7.6758  10.1088  11.4753  12.4918  12.7847  14.4304  17.0298  18.0338

          k =-0.1667 0.5000-0.1667 (  3082 PWs)   bands (ev):

   -47.8910 -19.8348 -19.8271 -19.8270 -10.9002   0.3023   1.3534   1.3952
     8.2065  10.0960  10.9954  12.3964  13.5151  15.0691  16.7099  19.1936

          k =-0.2500 0.5833-0.2500 (  3089 PWs)   bands (ev):

   -47.8910 -19.8378 -19.8276 -19.8273 -10.8389  -0.0085   1.2197   1.3530
     8.4982  10.4033  10.8086  12.1429  14.3059  16.1109  16.5366  18.2616

          k = 0.6667-0.3333 0.6667 (  3101 PWs)   bands (ev):

   -47.8911 -19.8396 -19.8282 -19.8271 -10.7994  -0.1875   1.1030   1.3503
     8.6086  10.3603  11.3430  11.9205  14.8078  16.5112  16.8030  17.5290

          k = 0.5833-0.2500 0.5833 (  3111 PWs)   bands (ev):

   -47.8912 -19.8399 -19.8287 -19.8268 -10.7934  -0.2070   1.0356   1.3878
     8.6725  10.3745  11.5452  11.8066  15.2140  15.4649  16.3173  17.8890

          k = 0.5000-0.1667 0.5000 (  3104 PWs)   bands (ev):

   -47.8911 -19.8386 -19.8289 -19.8262 -10.8227  -0.0692   1.0408   1.4571
     8.6745  10.5756  11.0470  11.8305  14.2267  16.1517  16.3845  17.3131

          k = 0.4167-0.0833 0.4167 (  3096 PWs)   bands (ev):

   -47.8911 -19.8361 -19.8285 -19.8257 -10.8784   0.1907   1.1321   1.5417
     8.4444  10.5236  10.9533  12.0026  13.2259  15.7726  16.6738  18.0490

          k = 0.3333 0.0000 0.3333 (  3094 PWs)   bands (ev):

   -47.8912 -19.8333 -19.8276 -19.8253 -10.9447   0.5074   1.3085   1.6195
     7.8726  10.4486  11.4306  12.2998  12.5177  14.7286  16.9104  17.2822

          k = 0.0000 0.5000 0.0000 (  3122 PWs)   bands (ev):

   -47.8914 -19.8321 -19.8274 -19.8274 -10.9286   0.5356   1.3741   1.3741
     7.9938   9.7080  11.2250  12.9953  12.9953  14.6438  18.2437  18.2437

          k =-0.0833 0.5833-0.0833 (  3102 PWs)   bands (ev):

   -47.8912 -19.8341 -19.8280 -19.8280 -10.8769   0.2963   1.2581   1.2950
     8.3350   9.5206  11.0010  13.1517  13.5578  15.1540  18.2047  19.0045

          k =-0.1667 0.6667-0.1667 (  3096 PWs)   bands (ev):

   -47.8910 -19.8362 -19.8289 -19.8282 -10.8245   0.0911   1.0764   1.2490
     8.6041   9.6734  10.8565  12.9278  14.2498  16.1622  17.9621  18.4260

          k = 0.7500-0.2500 0.7500 (  3116 PWs)   bands (ev):

   -47.8912 -19.8375 -19.8300 -19.8280 -10.7858  -0.0193   0.8667   1.2462
     8.7805   9.9945  10.9670  12.6320  14.5022  16.9084  17.5260  17.7897

          k = 0.6667-0.1667 0.6667 (  3125 PWs)   bands (ev):

   -47.8913 -19.8378 -19.8310 -19.8276 -10.7718  -0.0224   0.7018   1.2872
     8.9894  10.1061  11.2607  12.3942  14.2666  15.6565  17.5442  18.7007

          k = 0.5833-0.0833 0.5833 (  3109 PWs)   bands (ev):

   -47.8911 -19.8374 -19.8313 -19.8269 -10.7867   0.0416   0.6690   1.3630
     9.2105  10.1746  10.9745  12.2440  14.4797  14.7918  17.7253  18.5925

          k = 0.5000 0.0000 0.5000 (  3102 PWs)   bands (ev):

   -47.8911 -19.8368 -19.8304 -19.8262 -10.8260   0.1086   0.8331   1.4560
     9.0846  10.4293  10.5392  12.1486  13.6190  16.0242  17.3986  17.8928

          k = 0.0000 0.6667 0.0000 (  3090 PWs)   bands (ev):

   -47.8910 -19.8347 -19.8286 -19.8286 -10.8414   0.1674   1.2080   1.2080
     8.2876   9.1737  11.2890  13.8622  13.8622  15.1948  19.2193  19.2193

          k =-0.0833 0.7500-0.0833 (  3104 PWs)   bands (ev):

   -47.8911 -19.8358 -19.8294 -19.8290 -10.8028   0.0447   1.0797   1.1549
     8.3153   9.1071  11.5042  13.8939  14.3932  15.9308  18.2111  18.7394

          k = 0.8333-0.1667 0.8333 (  3114 PWs)   bands (ev):

   -47.8911 -19.8362 -19.8308 -19.8289 -10.7719   0.0144   0.8390   1.1471
     8.4606   9.3787  11.5707  13.5298  14.5252  16.9884  17.6240  17.6558

          k = 0.7500-0.0833 0.7500 (  3109 PWs)   bands (ev):

   -47.8911 -19.8357 -19.8328 -19.8285 -10.7571   0.1098   0.5419   1.1864
     8.6998   9.8655  11.5294  13.1153  13.9346  16.0932  18.2040  18.6968

          k = 0.6667-0.0000 0.6667 (  3106 PWs)   bands (ev):

   -47.8911 -19.8356 -19.8334 -19.8277 -10.7626   0.2422   0.3524   1.2643
     9.0346  10.2105  11.2068  12.6910  13.8716  15.1044  18.8742  18.9474

          k = 0.0000 0.8333 0.0000 (  3098 PWs)   bands (ev):

   -47.8910 -19.8363 -19.8295 -19.8295 -10.7797  -0.0476   1.0933   1.0933
     8.0689   8.8460  12.1059  14.7518  14.7518  15.7165  18.0968  18.4411

          k = 0.9167-0.0833 0.9167 (  3105 PWs)   bands (ev):

   -47.8910 -19.8365 -19.8303 -19.8296 -10.7614  -0.0714   0.9771   1.0775
     8.0943   8.8954  12.3211  14.5161  14.8701  16.5519  17.5949  17.7059

          k = 0.8333 0.0000 0.8333 (  3102 PWs)   bands (ev):

   -47.8910 -19.8359 -19.8319 -19.8292 -10.7532   0.0074   0.7392   1.1108
     8.3420   9.2806  12.1205  13.8566  14.2578  16.7981  17.7329  18.3616

          k = 0.0000-1.0000 0.0000 (  3138 PWs)   bands (ev):

   -47.8913 -19.8368 -19.8299 -19.8299 -10.7576  -0.1166   1.0526   1.0526
     7.9354   8.7359  12.6152  15.2458  15.2458  15.9509  17.3646  17.8216

          k =-0.1667 0.3333 0.0000 (  3104 PWs)   bands (ev):

   -47.8913 -19.8306 -19.8266 -19.8256 -10.9986   0.8373   1.4847   1.6152
     7.3346  10.4653  11.7587  12.2855  12.5351  14.1466  16.7112  17.1072

          k =-0.2500 0.4167-0.0833 (  3096 PWs)   bands (ev):

   -47.8912 -19.8338 -19.8274 -19.8258 -10.9328   0.4404   1.3410   1.5522
     7.9543  10.3267  11.2780  12.2523  12.9649  14.7867  16.5183  18.1502

          k =-0.3333 0.5000-0.1667 (  3093 PWs)   bands (ev):

   -47.8911 -19.8371 -19.8278 -19.8262 -10.8654   0.0764   1.2332   1.4729
     8.3690  10.5988  10.8858  11.9882  13.7987  15.7645  16.2042  18.1720

          k = 0.5833-0.4167 0.7500 (  3102 PWs)   bands (ev):

   -47.8911 -19.8396 -19.8280 -19.8266 -10.8149  -0.1728   1.1688   1.4077
     8.5000  10.5639  11.2848  11.7904  14.7254  16.0280  16.5531  17.1533

          k = 0.5000-0.3333 0.6667 (  3108 PWs)   bands (ev):

   -47.8911 -19.8405 -19.8280 -19.8268 -10.7961  -0.2609   1.1479   1.3824
     8.5189  10.4748  11.6564  11.7112  15.3085  15.6411  16.6714  17.1718

          k =-0.1667 0.5000 0.0000 (  3094 PWs)   bands (ev):

   -47.8911 -19.8334 -19.8278 -19.8268 -10.9136   0.4315   1.2936   1.4258
     8.1674   9.8652  11.0492  12.8422  13.0212  14.9580  17.7763  17.9360

          k =-0.2500 0.5833-0.0833 (  3098 PWs)   bands (ev):

   -47.8911 -19.8357 -19.8287 -19.8271 -10.8550   0.1770   1.1266   1.3514
     8.6376   9.9191  10.6707  12.6803  13.7085  15.8976  17.5635  18.2351

          k = 0.6667-0.3333 0.8333 (  3097 PWs)   bands (ev):

   -47.8910 -19.8376 -19.8293 -19.8275 -10.8059  -0.0114   0.9783   1.2901
     8.8854  10.1436  10.6740  12.4210  14.4200  16.6821  17.0273  17.5860

          k = 0.5833-0.2500 0.7500 (  3105 PWs)   bands (ev):

   -47.8911 -19.8386 -19.8298 -19.8276 -10.7803  -0.0951   0.8686   1.2785
     9.0212  10.0378  11.2228  12.2045  14.5518  16.1015  17.2324  17.6629

          k = 0.5000-0.1667 0.6667 (  3104 PWs)   bands (ev):

   -47.8911 -19.8384 -19.8301 -19.8272 -10.7857  -0.0645   0.8324   1.3205
     9.1174  10.0540  11.1445  12.1534  14.6303  15.4190  17.1648  18.1978

          k = 0.4167-0.0833 0.5833 (  3098 PWs)   bands (ev):

   -47.8911 -19.8372 -19.8299 -19.8266 -10.8206   0.0596   0.9025   1.3994
     9.0480  10.3038  10.5340  12.2536  13.9211  16.1745  17.2118  17.5660

          k = 0.3333 0.0000 0.5000 (  3095 PWs)   bands (ev):

   -47.8911 -19.8355 -19.8289 -19.8261 -10.8747   0.2380   1.0874   1.4874
     8.5998  10.2290  10.7537  12.3763  13.1680  15.8432  17.5880  17.8559

          k =-0.1667 0.6667-0.0000 (  3102 PWs)   bands (ev):

   -47.8911 -19.8353 -19.8291 -19.8283 -10.8322   0.1438   1.1166   1.2226
     8.5264   9.3882  10.9932  13.4226  13.9146  15.8550  18.2990  18.9466

          k = 0.7500-0.2500 0.9167 (  3104 PWs)   bands (ev):

   -47.8911 -19.8362 -19.8301 -19.8287 -10.7913   0.0547   0.9187   1.1593
     8.7331   9.5739  10.9624  13.1863  14.4854  16.7178  17.2062  18.6275

          k = 0.6667-0.1667 0.8333 (  3110 PWs)   bands (ev):

   -47.8911 -19.8365 -19.8314 -19.8286 -10.7657   0.0629   0.6797   1.1549
     8.9337   9.9347  11.0454  12.7631  14.4331  16.4558  17.2988  18.8003

          k = 0.5833-0.0833 0.7500 (  3116 PWs)   bands (ev):

   -47.8912 -19.8363 -19.8325 -19.8281 -10.7626   0.1383   0.5063   1.2078
     9.2155  10.0816  11.0796  12.4279  14.2682  15.4116  18.0343  19.2312

          k = 0.5000 0.0000 0.6667 (  3101 PWs)   bands (ev):

   -47.8911 -19.8366 -19.8318 -19.8273 -10.7828   0.1172   0.6035   1.2990
     9.5039  10.0057  10.6444  12.4233  14.4479  14.9244  18.3120  18.5886

          k = 0.8333-0.1667 1.0000 (  3108 PWs)   bands (ev):

   -47.8911 -19.8362 -19.8300 -19.8296 -10.7750  -0.0094   0.9947   1.0665
     8.3259   9.0893  11.7696  13.8903  14.8292  16.4928  17.3761  18.4623

          k = 0.7500-0.0833 0.9167 (  3116 PWs)   bands (ev):

   -47.8911 -19.8358 -19.8314 -19.8296 -10.7562   0.0358   0.7689   1.0504
     8.5322   9.3919  11.7749  13.2449  14.9127  16.8681  17.1154  18.2319

          k = 0.6667 0.0000 0.8333 (  3115 PWs)   bands (ev):

   -47.8911 -19.8346 -19.8336 -19.8290 -10.7517   0.1839   0.4795   1.1079
     8.8428   9.9024  11.5061  12.6015  14.4684  16.0421  18.0368  18.5752

          k =-0.1667-1.0000-0.0000 (  3106 PWs)   bands (ev):

   -47.8910 -19.8363 -19.8303 -19.8301 -10.7546  -0.0542   0.9516   1.0072
     8.1935   8.9880  12.3347  13.9123  15.3397  16.5458  17.4847  17.8457

          k = 0.6667-0.3333 1.0000 (  3099 PWs)   bands (ev):

   -47.8911 -19.8363 -19.8302 -19.8276 -10.8092   0.1035   0.8851   1.2633
     9.1541   9.9503  10.3225  12.8029  14.0877  16.3903  17.2819  18.6024

          k = 0.5833-0.2500 0.9167 (  3106 PWs)   bands (ev):

   -47.8911 -19.8366 -19.8312 -19.8283 -10.7751   0.0838   0.6971   1.1739
     9.4587   9.9285  10.5168  12.5644  14.6187  15.6461  17.7210  18.8642

          k = 0.5000-0.1667 0.8333 (  3102 PWs)   bands (ev):

   -47.8910 -19.8367 -19.8315 -19.8286 -10.7626   0.0867   0.6223   1.1370
     9.6304   9.7005  10.9640  12.2812  14.4918  16.0080  17.2946  18.9669

          k = 0.6667-0.1667 1.0000 (  3110 PWs)   bands (ev):

   -47.8911 -19.8358 -19.8312 -19.8296 -10.7643   0.0974   0.7469   1.0304
     8.9953   9.7460  10.9222  12.8636  15.0630  16.0267  17.5896  18.5045

          k = 0.5833-0.0833 0.9167 (  3108 PWs)   bands (ev):

   -47.8911 -19.8348 -19.8326 -19.8299 -10.7509   0.2213   0.5252   0.9844
     9.2354  10.1109  10.9255  12.1367  15.1756  16.2068  17.2196  18.4394

          k = 0.5000 0.0000 0.8333 (  3102 PWs)   bands (ev):

   -47.8910 -19.8350 -19.8329 -19.8293 -10.7549   0.2607   0.4482   1.0496
     9.4784  10.1951  10.6328  12.1435  15.1126  15.4616  17.9239  18.5450

          k =-0.3333-1.0000 0.0000 (  3104 PWs)   bands (ev):

   -47.8910 -19.8350 -19.8316 -19.8307 -10.7486   0.1250   0.6982   0.9199
     8.8522   9.6729  11.5907  12.4035  15.6253  16.7184  16.7780  17.8962

          k =-0.5000-1.0000 0.0000 (  3112 PWs)   bands (ev):

   -47.8911 -19.8333 -19.8333 -19.8310 -10.7455   0.3937   0.3937   0.8778
     9.3563  10.6164  10.6164  11.6181  16.1100  16.1100  16.7653  17.9226

     the Fermi energy is     2.9071 ev

!    total energy              =    -112.40196471 Ry
     estimated scf accuracy    <          9.9E-13 Ry
     smearing contrib. (-TS)   =      -0.00000000 Ry
     internal energy E=F+TS    =    -112.40196471 Ry

     The total energy is F=E-TS. E is the sum of the following terms:
     one-electron contribution =     -64.21464346 Ry
     hartree contribution      =      35.20673197 Ry
     xc contribution           =     -17.87650006 Ry
     ewald contribution        =     -65.51755315 Ry

     convergence has been achieved in   8 iterations

     Writing all to output data dir out/mp-22916.save/
 
     init_run     :      0.44s CPU      0.48s WALL (       1 calls)
     electrons    :     28.19s CPU     31.04s WALL (       1 calls)

     Called by init_run:
     wfcinit      :      0.39s CPU      0.42s WALL (       1 calls)
     potinit      :      0.02s CPU      0.02s WALL (       1 calls)
     hinit0       :      0.01s CPU      0.02s WALL (       1 calls)

     Called by electrons:
     c_bands      :     26.63s CPU     29.40s WALL (       8 calls)
     sum_band     :      1.50s CPU      1.58s WALL (       8 calls)
     v_of_rho     :      0.05s CPU      0.06s WALL (       9 calls)
     mix_rho      :      0.01s CPU      0.01s WALL (       8 calls)

     Called by c_bands:
     init_us_2    :      0.14s CPU      0.15s WALL (    1224 calls)
     init_us_2:cp :      0.13s CPU      0.15s WALL (    1224 calls)
     paro_k       :     26.19s CPU     27.53s WALL (     576 calls)

     Called by paro_*:
     h_psi        :     22.25s CPU     23.34s WALL (   14086 calls)
     g_psi        :      0.30s CPU      0.32s WALL (   87810 calls)

     Called by h_psi:
     h_psi:calbec :      0.64s CPU      0.66s WALL (   14086 calls)
     vloc_psi     :     21.07s CPU     22.12s WALL (   14086 calls)
     add_vuspsi   :      0.40s CPU      0.42s WALL (   14086 calls)

     General routines
     calbec       :      0.60s CPU      0.63s WALL (   14086 calls)
     fft          :      0.02s CPU      0.03s WALL (      89 calls)
     ffts         :      0.00s CPU      0.00s WALL (       8 calls)
     fftw         :     20.31s CPU     21.29s WALL (  162650 calls)
 
     Parallel routines
 
     PWSCF        :     28.75s CPU     31.73s WALL

 
   This run was terminated on:  14:31:52   3Jan2024            

=------------------------------------------------------------------------------=
   JOB DONE.
=------------------------------------------------------------------------------=
