 
             +---------------------------------------------------+
             |                                                   |
             |                   WANNIER90                       |
             |                                                   |
             +---------------------------------------------------+
             |                                                   |
             |        Welcome to the Maximally-Localized         |
             |        Generalized Wannier Functions code         |
             |            http://www.wannier.org                 |
             |                                                   |
             |                                                   |
             |  Wannier90 Developer Group:                       |
             |    Giovanni Pizzi    (EPFL)                       |
             |    Valerio Vitale    (Cambridge)                  |
             |    David Vanderbilt  (Rutgers University)         |
             |    Nicola Marzari    (EPFL)                       |
             |    Ivo Souza         (Universidad del Pais Vasco) |
             |    Arash A. Mostofi  (Imperial College London)    |
             |    Jonathan R. Yates (University of Oxford)       |
             |                                                   |
             |  For the full list of Wannier90 3.x authors,      |
             |  please check the code documentation and the      |
             |  README on the GitHub page of the code            |
             |                                                   |
             |                                                   |
             |  Please cite                                      |
             |                                                   |
             |  [ref] "Wannier90 as a community code:            |
             |        new features and applications",            |
             |        G. Pizzi et al., J. Phys. Cond. Matt. 32,  |
             |        165902 (2020).                             |
             |        http://doi.org/10.1088/1361-648X/ab51ff    |
             |                                                   |
             |  in any publications arising from the use of      |
             |  this code. For the method please cite            |
             |                                                   |
             |  [ref] "Maximally Localized Generalised Wannier   |
             |         Functions for Composite Energy Bands"     |
             |         N. Marzari and D. Vanderbilt              |
             |         Phys. Rev. B 56 12847 (1997)              |
             |                                                   |
             |  [ref] "Maximally Localized Wannier Functions     |
             |         for Entangled Energy Bands"               |
             |         I. Souza, N. Marzari and D. Vanderbilt    |
             |         Phys. Rev. B 65 035109 (2001)             |
             |                                                   |
             |                                                   |
             | Copyright (c) 1996-2020                           |
             |        The Wannier90 Developer Group and          |
             |        individual contributors                    |
             |                                                   |
             |      Release: 3.1.0        5th March    2020      |
             |                                                   |
             | This program is free software; you can            |
             | redistribute it and/or modify it under the terms  |
             | of the GNU General Public License as published by |
             | the Free Software Foundation; either version 2 of |
             | the License, or (at your option) any later version|
             |                                                   |
             | This program is distributed in the hope that it   |
             | will be useful, but WITHOUT ANY WARRANTY; without |
             | even the implied warranty of MERCHANTABILITY or   |
             | FITNESS FOR A PARTICULAR PURPOSE. See the GNU     |
             | General Public License for more details.          |
             |                                                   |
             | You should have received a copy of the GNU General|
             | Public License along with this program; if not,   |
             | write to the Free Software Foundation, Inc.,      |
             | 675 Mass Ave, Cambridge, MA 02139, USA.           |
             |                                                   |
             +---------------------------------------------------+
             |    Execution started on  3Jan2024 at 15:00:55     |
             +---------------------------------------------------+
 
 ******************************************************************************
 * -> Using CODATA 2006 constant values                                       *
 *    (http://physics.nist.gov/cuu/Constants/index.html)                      *
 * -> Using Bohr value from CODATA                                            *
 ******************************************************************************
 

 Running in parallel on   8 CPUs

 
                                    ------
                                    SYSTEM
                                    ------
 
                              Lattice Vectors (Ang)
                    a_1     2.294375   6.159627   0.000000
                    a_2    -2.294375   6.159627   0.000000
                    a_3     0.000000   0.000000   4.602419
 
                   Unit Cell Volume:     130.08732  (Ang^3)
 
                        Reciprocal-Space Vectors (Ang^-1)
                    b_1     1.369259   0.510030   0.000000
                    b_2    -1.369259   0.510030   0.000000
                    b_3     0.000000   0.000000   1.365192
  
 *----------------------------------------------------------------------------*
 |   Site       Fractional Coordinate          Cartesian Coordinate (Ang)     |
 +----------------------------------------------------------------------------+
 | In   1   0.39345   0.39345   0.25000   |    0.00000   4.84697   1.15060    |
 | In   2   0.60655   0.60655   0.75000   |    0.00000   7.47229   3.45181    |
 | Br   1   0.15127   0.15127   0.25000   |    0.00000   1.86358   1.15060    |
 | Br   2   0.84873   0.84873   0.75000   |    0.00000  10.45567   3.45181    |
 *----------------------------------------------------------------------------*
                                ------------
                                K-POINT GRID
                                ------------
  
             Grid size =  8 x  8 x 12      Total points =  768
  
  
 *---------------------------------- MAIN ------------------------------------*
 |  Number of Wannier Functions               :                 8             |
 |  Number of Objective Wannier Functions     :                 8             |
 |  Number of input Bloch states              :                 8             |
 |  Output verbosity (1=low, 5=high)          :                 1             |
 |  Timing Level (1=low, 5=high)              :                 1             |
 |  Optimisation (0=memory, 3=speed)          :                 3             |
 |  Length Unit                               :               Ang             |
 |  Post-processing setup (write *.nnkp)      :                 F             |
 |  Using Gamma-only branch of algorithms     :                 F             |
 *----------------------------------------------------------------------------*
 *------------------------------- WANNIERISE ---------------------------------*
 |  Total number of iterations                :               500             |
 |  Number of CG steps before reset           :                 5             |
 |  Trial step length for line search         :             2.000             |
 |  Convergence tolerence                     :         0.100E-09             |
 |  Convergence window                        :                -1             |
 |  Iterations between writing output         :                 1             |
 |  Iterations between backing up to disk     :               100             |
 |  Write r^2_nm to file                      :                 F             |
 |  Write xyz WF centres to file              :                 F             |
 |  Write on-site energies <0n|H|0n> to file  :                 F             |
 |  Use guiding centre to control phases      :                 F             |
 |  Use phases for initial projections        :                 F             |
 *----------------------------------------------------------------------------*
 Time to read parameters        0.061 (sec)

 *---------------------------------- K-MESH ----------------------------------*
 +----------------------------------------------------------------------------+
 |                    Distance to Nearest-Neighbour Shells                    |
 |                    ------------------------------------                    |
 |          Shell             Distance (Ang^-1)          Multiplicity         |
 |          -----             -----------------          ------------         |
 |             1                   0.113766                      2            |
 |             2                   0.127507                      2            |
 |             3                   0.170883                      4            |
 |             4                   0.182645                      4            |
 |             5                   0.215179                      8            |
 |             6                   0.227532                      2            |
 |             7                   0.255015                      2            |
 |             8                   0.256663                      4            |
 |             9                   0.260824                      4            |
 |            10                   0.279241                      4            |
 |            11                   0.280746                      8            |
 |            12                   0.291771                      8            |
 |            13                   0.341298                      2            |
 |            14                   0.341765                      4            |
 |            15                   0.342315                      2            |
 |            16                   0.342996                      8            |
 |            17                   0.360724                      4            |
 |            18                   0.361812                      4            |
 |            19                   0.364338                      4            |
 |            20                   0.365291                      4            |
 |            21                   0.379277                      8            |
 |            22                   0.382522                      2            |
 |            23                   0.382597                      8            |
 |            24                   0.387096                      8            |
 |            25                   0.399081                      4            |
 |            26                   0.411035                      4            |
 |            27                   0.426048                      4            |
 |            28                   0.426863                      4            |
 |            29                   0.427036                      8            |
 |            30                   0.427410                      8            |
 |            31                   0.430358                      8            |
 |            32                   0.441763                      8            |
 |            33                   0.445078                      4            |
 |            34                   0.455064                      2            |
 |            35                   0.472590                      4            |
 |            36                   0.477972                      4            |
 +----------------------------------------------------------------------------+
 | The b-vectors are chosen automatically                                     |
 | SVD found small singular value, Rejecting this shell and trying the next   |
 | The following shells are used:   1,  2,  4                                 |
 +----------------------------------------------------------------------------+
 |                        Shell   # Nearest-Neighbours                        |
 |                        -----   --------------------                        |
 |                          1               2                                 |
 |                          2               2                                 |
 |                          4               4                                 |
 +----------------------------------------------------------------------------+
 | Completeness relation is fully satisfied [Eq. (B1), PRB 56, 12847 (1997)]  |
 +----------------------------------------------------------------------------+
 |                  b_k Vectors (Ang^-1) and Weights (Ang^2)                  |
 |                  ----------------------------------------                  |
 |            No.         b_k(x)      b_k(y)      b_k(z)        w_b           |
 |            ---        --------------------------------     --------        |
 |             1         0.000000    0.000000    0.113766    38.631814        |
 |             2         0.000000    0.000000   -0.113766    38.631814        |
 |             3         0.000000    0.127507    0.000000    26.486855        |
 |             4         0.000000   -0.127507    0.000000    26.486855        |
 |             5        -0.171157    0.063754    0.000000     8.533929        |
 |             6         0.171157    0.063754    0.000000     8.533929        |
 |             7         0.171157   -0.063754    0.000000     8.533929        |
 |             8        -0.171157   -0.063754    0.000000     8.533929        |
 +----------------------------------------------------------------------------+
 |                           b_k Directions (Ang^-1)                          |
 |                           -----------------------                          |
 |            No.           x           y           z                         |
 |            ---        --------------------------------                     |
 |             1         0.000000    0.000000    0.113766                     |
 |             2         0.000000    0.127507    0.000000                     |
 |             3        -0.171157    0.063754    0.000000                     |
 |             4         0.171157    0.063754    0.000000                     |
 +----------------------------------------------------------------------------+
  
 Time to get kmesh              0.487 (sec)
 *============================================================================*
 |                              MEMORY ESTIMATE                               |
 |         Maximum RAM allocated during each phase of the calculation         |
 *============================================================================*
 |                            Wannierise:           17.21 Mb                  |
 |                          plot_wannier:           17.21 Mb                  |
 *----------------------------------------------------------------------------*
  
 Starting a new Wannier90 calculation ...


 Reading overlaps from mp-22870.mmn    :  Created on  3Jan2024 at 15: 0:39

 Reading projections from mp-22870.amn :  Created on  3Jan2024 at 15: 0:36  with SCDM

 Time to read overlaps          0.418 (sec)

 Writing checkpoint file mp-22870.chk... done

 
 *------------------------------- WANNIERISE ---------------------------------*
 +--------------------------------------------------------------------+<-- CONV
 | Iter  Delta Spread     RMS Gradient      Spread (Ang^2)      Time  |<-- CONV
 +--------------------------------------------------------------------+<-- CONV
 
 ------------------------------------------------------------------------------
 Initial State
  WF centre and spread    1  (  0.265293,  1.860998,  1.156607 )    18.17586999
  WF centre and spread    2  (  0.206294, -1.900497, -1.143831 )    13.55423663
  WF centre and spread    3  (  0.004758, -1.882489, -1.101873 )     7.13069859
  WF centre and spread    4  (  0.020589, -1.887985, -1.209477 )     7.85200031
  WF centre and spread    5  (  0.011815,  1.866720,  1.193748 )     6.17563207
  WF centre and spread    6  (  0.001055,  1.863544,  1.125621 )     5.33921373
  WF centre and spread    7  (  0.217138, -2.181916, -1.144323 )    20.02857715
  WF centre and spread    8  (  0.269489,  2.014019,  1.165046 )    20.83585516
  Sum of centres and spreads (  0.996430, -0.247604,  0.041518 )    99.09208363
 
      0     0.991E+02     0.0000000000       99.0920844845       0.00  <-- CONV
        O_D=      6.5665472 O_OD=     73.1899149 O_TOT=     99.0920845 <-- SPRD
 ------------------------------------------------------------------------------
 Cycle:      1
  WF centre and spread    1  (  0.265312,  1.860310,  1.156583 )    18.17301894
  WF centre and spread    2  (  0.206399, -1.900548, -1.143831 )    13.55166825
  WF centre and spread    3  (  0.004841, -1.882517, -1.101910 )     7.12771234
  WF centre and spread    4  (  0.020677, -1.888013, -1.209426 )     7.84883967
  WF centre and spread    5  (  0.011869,  1.866655,  1.193717 )     6.17377300
  WF centre and spread    6  (  0.001101,  1.863496,  1.125642 )     5.33772314
  WF centre and spread    7  (  0.217456, -2.181672, -1.144325 )    20.01455579
  WF centre and spread    8  (  0.269741,  2.001854,  1.165040 )    20.76007126
  Sum of centres and spreads (  0.997395, -0.260435,  0.041491 )    98.98736240
 
      1    -0.105E+00     4.5985828923       98.9873632573       0.01  <-- CONV
        O_D=      6.4752604 O_OD=     73.1764805 O_TOT=     98.9873633 <-- SPRD
 Delta: O_D= -0.9128683E-01 O_OD= -0.1343440E-01 O_TOT= -0.1047212E+00 <-- DLTA
 ------------------------------------------------------------------------------
 Cycle:      2
  WF centre and spread    1  (  0.267478,  1.858743,  1.156680 )    18.09743449
  WF centre and spread    2  (  0.208525, -1.901588, -1.143778 )    13.50300177
  WF centre and spread    3  (  0.006532, -1.883030, -1.102474 )     7.06794925
  WF centre and spread    4  (  0.022459, -1.888559, -1.208584 )     7.78602827
  WF centre and spread    5  (  0.013093,  1.866572,  1.193101 )     6.11553508
  WF centre and spread    6  (  0.002132,  1.863488,  1.126137 )     5.28994871
  WF centre and spread    7  (  0.223693, -2.176958, -1.144288 )    19.77167060
  WF centre and spread    8  (  0.272034,  1.993162,  1.164931 )    20.64069513
  Sum of centres and spreads (  1.015947, -0.268169,  0.041727 )    98.27226330
 
      2    -0.715E+00     2.1347641682       98.2722641499       0.02  <-- CONV
        O_D=      6.0513933 O_OD=     72.8852484 O_TOT=     98.2722641 <-- SPRD
 Delta: O_D= -0.4238670E+00 O_OD= -0.2912321E+00 O_TOT= -0.7150991E+00 <-- DLTA
 ------------------------------------------------------------------------------
 Cycle:      3
  WF centre and spread    1  (  0.275778,  1.871313,  1.157468 )    17.99748609
  WF centre and spread    2  (  0.216071, -1.904668, -1.143581 )    13.36197329
  WF centre and spread    3  (  0.012238, -1.884592, -1.104234 )     6.87354651
  WF centre and spread    4  (  0.028478, -1.890223, -1.205913 )     7.58179448
  WF centre and spread    5  (  0.017195,  1.867284,  1.191083 )     5.93345051
  WF centre and spread    6  (  0.005595,  1.864238,  1.127815 )     5.14012132
  WF centre and spread    7  (  0.241258, -2.165058, -1.143777 )    19.42040117
  WF centre and spread    8  (  0.281765,  2.011172,  1.165041 )    20.25223321
  Sum of centres and spreads (  1.078378, -0.230534,  0.043904 )    96.56100657
 
      3    -0.171E+01     2.1310575460       96.5610074269       0.04  <-- CONV
        O_D=      5.1570444 O_OD=     72.0683406 O_TOT=     96.5610074 <-- SPRD
 Delta: O_D= -0.8943489E+00 O_OD= -0.8169078E+00 O_TOT= -0.1711257E+01 <-- DLTA
 ------------------------------------------------------------------------------
 Cycle:      4
  WF centre and spread    1  (  0.298606,  1.846219,  1.159763 )    18.26581880
  WF centre and spread    2  (  0.231039, -1.907690, -1.143638 )    13.07960345
  WF centre and spread    3  (  0.021808, -1.886898, -1.107133 )     6.53929412
  WF centre and spread    4  (  0.038674, -1.892615, -1.201666 )     7.22531747
  WF centre and spread    5  (  0.024007,  1.866710,  1.188232 )     5.64297777
  WF centre and spread    6  (  0.011286,  1.864112,  1.130170 )     4.90295654
  WF centre and spread    7  (  0.270391, -2.154865, -1.143273 )    19.44565687
  WF centre and spread    8  (  0.306396,  2.009449,  1.166920 )    20.25954240
  Sum of centres and spreads (  1.202206, -0.255577,  0.049374 )    95.36116742
 
      4    -0.120E+01     1.6659533805       95.3611682749       0.05  <-- CONV
        O_D=      5.3014833 O_OD=     70.7240626 O_TOT=     95.3611683 <-- SPRD
 Delta: O_D=  0.1444389E+00 O_OD= -0.1344278E+01 O_TOT= -0.1199839E+01 <-- DLTA
 ------------------------------------------------------------------------------
 Cycle:      5
  WF centre and spread    1  (  0.322974,  1.857300,  1.162300 )    18.05116843
  WF centre and spread    2  (  0.244473, -1.909744, -1.143803 )    12.84302730
  WF centre and spread    3  (  0.029673, -1.888701, -1.109466 )     6.27414132
  WF centre and spread    4  (  0.047074, -1.894484, -1.198296 )     6.93995238
  WF centre and spread    5  (  0.029531,  1.865855,  1.186075 )     5.43600282
  WF centre and spread    6  (  0.015902,  1.863729,  1.131944 )     4.73476517
  WF centre and spread    7  (  0.296813, -2.149173, -1.143109 )    19.61261803
  WF centre and spread    8  (  0.330915,  2.004521,  1.169626 )    20.43704023
  Sum of centres and spreads (  1.317353, -0.250697,  0.055271 )    94.32871568
 
      5    -0.103E+01     2.6414604296       94.3287165369       0.06  <-- CONV
        O_D=      5.2935841 O_OD=     69.6995100 O_TOT=     94.3287165 <-- SPRD
 Delta: O_D= -0.7899180E-02 O_OD= -0.1024553E+01 O_TOT= -0.1032452E+01 <-- DLTA
 ------------------------------------------------------------------------------
 Cycle:      6
  WF centre and spread    1  (  0.395052,  1.864437,  1.170828 )    17.87119558
  WF centre and spread    2  (  0.280166, -1.915288, -1.144704 )    12.14096600
  WF centre and spread    3  (  0.048299, -1.892633, -1.114909 )     5.65623090
  WF centre and spread    4  (  0.066993, -1.898590, -1.190736 )     6.26181981
  WF centre and spread    5  (  0.042759,  1.863726,  1.181434 )     4.99603123
  WF centre and spread    6  (  0.026963,  1.862735,  1.135654 )     4.38061817
  WF centre and spread    7  (  0.366473, -2.153166, -1.144735 )    20.01655130
  WF centre and spread    8  (  0.406370,  1.965351,  1.181383 )    21.05919146
  Sum of centres and spreads (  1.633074, -0.303429,  0.074214 )    92.38260446
 
      6    -0.195E+01     2.1839355339       92.3826053164       0.07  <-- CONV
        O_D=      6.0462511 O_OD=     67.0007318 O_TOT=     92.3826053 <-- SPRD
 Delta: O_D=  0.7526670E+00 O_OD= -0.2698778E+01 O_TOT= -0.1946111E+01 <-- DLTA
 ------------------------------------------------------------------------------
 Cycle:      7
  WF centre and spread    1  (  0.416943,  1.869717,  1.168936 )    17.33376052
  WF centre and spread    2  (  0.297826, -1.917539, -1.145615 )    11.54231711
  WF centre and spread    3  (  0.054199, -1.893265, -1.115148 )     5.45087114
  WF centre and spread    4  (  0.073718, -1.899131, -1.190427 )     6.01996056
  WF centre and spread    5  (  0.047120,  1.864527,  1.181194 )     4.84925470
  WF centre and spread    6  (  0.030546,  1.863291,  1.135598 )     4.26219096
  WF centre and spread    7  (  0.399448, -2.174414, -1.146235 )    19.41990864
  WF centre and spread    8  (  0.436865,  1.992269,  1.173552 )    20.25917725
  Sum of centres and spreads (  1.756664, -0.294546,  0.061854 )    89.13744089
 
      7    -0.325E+01     2.5167105044       89.1374417447       0.08  <-- CONV
        O_D=      5.7582121 O_OD=     64.0436072 O_TOT=     89.1374417 <-- SPRD
 Delta: O_D= -0.2880390E+00 O_OD= -0.2957125E+01 O_TOT= -0.3245164E+01 <-- DLTA
 ------------------------------------------------------------------------------
 Cycle:      8
  WF centre and spread    1  (  0.466068,  1.852754,  1.178626 )    17.10372253
  WF centre and spread    2  (  0.321302, -1.917725, -1.144559 )    11.16253549
  WF centre and spread    3  (  0.062196, -1.893755, -1.114936 )     5.30000793
  WF centre and spread    4  (  0.082786, -1.899883, -1.189301 )     5.84215253
  WF centre and spread    5  (  0.053292,  1.864992,  1.181456 )     4.73156246
  WF centre and spread    6  (  0.035370,  1.863911,  1.136066 )     4.16592031
  WF centre and spread    7  (  0.447622, -2.153149, -1.140628 )    19.17685368
  WF centre and spread    8  (  0.495730,  1.953931,  1.186972 )    19.90004533
  Sum of centres and spreads (  1.964365, -0.328925,  0.093695 )    87.38280025
 
      8    -0.175E+01     2.0221274555       87.3828011151       0.08  <-- CONV
        O_D=      6.1568454 O_OD=     61.8903333 O_TOT=     87.3828011 <-- SPRD
 Delta: O_D=  0.3986333E+00 O_OD= -0.2153274E+01 O_TOT= -0.1754641E+01 <-- DLTA
 ------------------------------------------------------------------------------
 Cycle:      9
  WF centre and spread    1  (  0.582165,  1.849384,  1.190925 )    16.80860558
  WF centre and spread    2  (  0.378167, -1.921665, -1.142303 )    10.47330436
  WF centre and spread    3  (  0.082944, -1.895873, -1.115251 )     4.98422909
  WF centre and spread    4  (  0.106077, -1.902677, -1.185694 )     5.47657479
  WF centre and spread    5  (  0.069022,  1.863396,  1.180853 )     4.51224442
  WF centre and spread    6  (  0.047835,  1.863366,  1.137377 )     3.98086658
  WF centre and spread    7  (  0.569604, -2.165165, -1.125254 )    19.19605800
  WF centre and spread    8  (  0.623800,  1.915972,  1.201576 )    19.95276538
  Sum of centres and spreads (  2.459614, -0.393263,  0.142228 )    85.38464820
 
      9    -0.200E+01     1.8796102936       85.3846490637       0.09  <-- CONV
        O_D=      7.6617768 O_OD=     58.3872499 O_TOT=     85.3846491 <-- SPRD
 Delta: O_D=  0.1504931E+01 O_OD= -0.3503083E+01 O_TOT= -0.1998152E+01 <-- DLTA
 ------------------------------------------------------------------------------
 Cycle:     10
  WF centre and spread    1  (  0.583995,  1.859928,  1.190691 )    16.60263077
  WF centre and spread    2  (  0.378015, -1.920675, -1.142373 )    10.46890524
  WF centre and spread    3  (  0.083149, -1.895667, -1.115307 )     4.97854383
  WF centre and spread    4  (  0.106264, -1.902403, -1.185612 )     5.47055732
  WF centre and spread    5  (  0.069421,  1.863422,  1.180666 )     4.49738830
  WF centre and spread    6  (  0.048159,  1.863392,  1.137531 )     3.96799665
  WF centre and spread    7  (  0.578476, -2.164885, -1.130097 )    18.71552027
  WF centre and spread    8  (  0.624076,  1.908273,  1.201056 )    19.68328330
  Sum of centres and spreads (  2.471555, -0.388615,  0.136555 )    84.38482567
 
     10    -0.100E+01     4.5865784040       84.3848265350       0.10  <-- CONV
        O_D=      6.8922945 O_OD=     58.1569096 O_TOT=     84.3848265 <-- SPRD
 Delta: O_D= -0.7694823E+00 O_OD= -0.2303402E+00 O_TOT= -0.9998225E+00 <-- DLTA
 ------------------------------------------------------------------------------
 Cycle:     11
  WF centre and spread    1  (  0.594324,  1.850349,  1.189795 )    16.16613944
  WF centre and spread    2  (  0.382254, -1.918053, -1.142575 )    10.39161772
  WF centre and spread    3  (  0.085533, -1.895486, -1.115616 )     4.92712751
  WF centre and spread    4  (  0.108825, -1.902062, -1.184953 )     5.41431979
  WF centre and spread    5  (  0.071776,  1.862890,  1.180109 )     4.43821779
  WF centre and spread    6  (  0.050038,  1.863084,  1.138013 )     3.91674310
  WF centre and spread    7  (  0.583998, -2.146857, -1.136843 )    18.25284883
  WF centre and spread    8  (  0.632026,  1.915048,  1.199467 )    19.14202840
  Sum of centres and spreads (  2.508774, -0.371088,  0.127396 )    82.64904258
 
     11    -0.174E+01     2.9936362249       82.6490434425       0.11  <-- CONV
        O_D=      6.1909464 O_OD=     57.1224746 O_TOT=     82.6490434 <-- SPRD
 Delta: O_D= -0.7013480E+00 O_OD= -0.1034435E+01 O_TOT= -0.1735783E+01 <-- DLTA
 ------------------------------------------------------------------------------
 Cycle:     12
  WF centre and spread    1  (  0.599926,  1.838065,  1.189988 )    16.02787151
  WF centre and spread    2  (  0.384461, -1.917727, -1.142473 )    10.35692671
  WF centre and spread    3  (  0.086512, -1.895568, -1.115714 )     4.90811308
  WF centre and spread    4  (  0.109899, -1.902143, -1.184631 )     5.39305195
  WF centre and spread    5  (  0.072687,  1.862304,  1.180000 )     4.42642329
  WF centre and spread    6  (  0.050751,  1.862712,  1.138127 )     3.90618004
  WF centre and spread    7  (  0.587972, -2.145205, -1.136141 )    18.19812791
  WF centre and spread    8  (  0.636915,  1.912460,  1.199827 )    19.05445939
  Sum of centres and spreads (  2.529123, -0.385104,  0.128981 )    82.27115387
 
     12    -0.378E+00     2.9461604325       82.2711547374       0.12  <-- CONV
        O_D=      6.1263337 O_OD=     56.8091987 O_TOT=     82.2711547 <-- SPRD
 Delta: O_D= -0.6461278E-01 O_OD= -0.3132759E+00 O_TOT= -0.3778887E+00 <-- DLTA
 ------------------------------------------------------------------------------
 Cycle:     13
  WF centre and spread    1  (  0.654986,  1.829454,  1.196249 )    15.46470719
  WF centre and spread    2  (  0.410728, -1.918997, -1.139633 )     9.97517645
  WF centre and spread    3  (  0.096639, -1.897118, -1.116399 )     4.71929767
  WF centre and spread    4  (  0.121076, -1.904090, -1.181006 )     5.17985200
  WF centre and spread    5  (  0.081117,  1.857397,  1.179404 )     4.35127057
  WF centre and spread    6  (  0.057359,  1.859833,  1.139126 )     3.83422662
  WF centre and spread    7  (  0.642560, -2.162517, -1.121917 )    17.78723010
  WF centre and spread    8  (  0.699120,  1.874459,  1.213776 )    18.69051082
  Sum of centres and spreads (  2.763585, -0.461580,  0.169600 )    80.00227142
 
     13    -0.227E+01     1.9809633771       80.0022722795       0.13  <-- CONV
        O_D=      6.2310968 O_OD=     54.4355531 O_TOT=     80.0022723 <-- SPRD
 Delta: O_D=  0.1047631E+00 O_OD= -0.2373646E+01 O_TOT= -0.2268882E+01 <-- DLTA
 ------------------------------------------------------------------------------
 Cycle:     14
  WF centre and spread    1  (  0.734901,  1.823592,  1.216302 )    15.11934418
  WF centre and spread    2  (  0.446959, -1.915023, -1.136691 )     9.56609661
  WF centre and spread    3  (  0.111135, -1.897351, -1.117931 )     4.47566011
  WF centre and spread    4  (  0.136816, -1.904370, -1.176034 )     4.91596685
  WF centre and spread    5  (  0.093879,  1.852293,  1.177639 )     4.27616254
  WF centre and spread    6  (  0.067335,  1.856551,  1.141365 )     3.75375670
  WF centre and spread    7  (  0.716492, -2.125466, -1.112535 )    17.43910128
  WF centre and spread    8  (  0.781972,  1.849545,  1.236913 )    18.60277676
  Sum of centres and spreads (  3.089489, -0.460228,  0.229027 )    78.14886502
 
     14    -0.185E+01     2.3891138336       78.1488658873       0.14  <-- CONV
        O_D=      6.8381907 O_OD=     51.9750528 O_TOT=     78.1488659 <-- SPRD
 Delta: O_D=  0.6070939E+00 O_OD= -0.2460500E+01 O_TOT= -0.1853406E+01 <-- DLTA
 ------------------------------------------------------------------------------
 Cycle:     15
  WF centre and spread    1  (  0.764270,  1.822722,  1.227183 )    15.01922841
  WF centre and spread    2  (  0.457414, -1.911441, -1.136472 )     9.32288745
  WF centre and spread    3  (  0.116053, -1.896366, -1.119115 )     4.34406796
  WF centre and spread    4  (  0.141918, -1.903125, -1.173600 )     4.77869879
  WF centre and spread    5  (  0.099224,  1.851430,  1.176194 )     4.19885209
  WF centre and spread    6  (  0.071450,  1.855737,  1.142980 )     3.67980634
  WF centre and spread    7  (  0.752757, -2.093873, -1.105950 )    17.29798612
  WF centre and spread    8  (  0.822708,  1.840552,  1.254560 )    18.54098730
  Sum of centres and spreads (  3.225794, -0.434365,  0.265781 )    77.18251446
 
     15    -0.966E+00     3.3891227672       77.1825153310       0.14  <-- CONV
        O_D=      7.1360205 O_OD=     50.7108724 O_TOT=     77.1825153 <-- SPRD
 Delta: O_D=  0.2978298E+00 O_OD= -0.1264180E+01 O_TOT= -0.9663506E+00 <-- DLTA
 ------------------------------------------------------------------------------
 Cycle:     16
  WF centre and spread    1  (  0.778172,  1.822442,  1.223703 )    13.24915292
  WF centre and spread    2  (  0.457739, -1.912687, -1.138784 )     8.62767191
  WF centre and spread    3  (  0.117245, -1.896743, -1.119459 )     4.11064229
  WF centre and spread    4  (  0.143062, -1.903381, -1.173562 )     4.48991060
  WF centre and spread    5  (  0.101497,  1.850897,  1.176435 )     3.84913048
  WF centre and spread    6  (  0.073238,  1.855006,  1.143002 )     3.41091636
  WF centre and spread    7  (  0.760265, -2.115083, -1.139543 )    15.96127744
  WF centre and spread    8  (  0.850845,  1.814374,  1.231153 )    16.57047279
  Sum of centres and spreads (  3.282064, -0.485175,  0.202945 )    70.26917479
 
     16    -0.691E+01     3.8139296973       70.2691756676       0.15  <-- CONV
        O_D=      5.9278415 O_OD=     45.0057117 O_TOT=     70.2691757 <-- SPRD
 Delta: O_D= -0.1208179E+01 O_OD= -0.5705161E+01 O_TOT= -0.6913340E+01 <-- DLTA
 ------------------------------------------------------------------------------
 Cycle:     17
  WF centre and spread    1  (  0.783234,  1.823067,  1.233645 )    12.87319870
  WF centre and spread    2  (  0.459079, -1.909888, -1.134974 )     8.49906556
  WF centre and spread    3  (  0.118035, -1.895864, -1.118607 )     4.06101452
  WF centre and spread    4  (  0.143837, -1.902643, -1.172396 )     4.42228915
  WF centre and spread    5  (  0.102284,  1.850886,  1.176783 )     3.77553976
  WF centre and spread    6  (  0.073818,  1.855104,  1.143672 )     3.35529565
  WF centre and spread    7  (  0.772683, -2.095163, -1.108502 )    15.27116551
  WF centre and spread    8  (  0.855361,  1.826395,  1.273466 )    15.75739960
  Sum of centres and spreads (  3.308331, -0.448105,  0.293088 )    68.01496846
 
     17    -0.225E+01     2.7625095065       68.0149693350       0.16  <-- CONV
        O_D=      5.2010279 O_OD=     43.4783191 O_TOT=     68.0149693 <-- SPRD
 Delta: O_D= -0.7268137E+00 O_OD= -0.1527393E+01 O_TOT= -0.2254206E+01 <-- DLTA
 ------------------------------------------------------------------------------
 Cycle:     18
  WF centre and spread    1  (  0.788466,  1.822048,  1.236008 )    12.63371524
  WF centre and spread    2  (  0.462522, -1.907376, -1.131799 )     8.32474756
  WF centre and spread    3  (  0.119253, -1.894856, -1.118449 )     3.98695514
  WF centre and spread    4  (  0.145049, -1.901665, -1.171358 )     4.33160497
  WF centre and spread    5  (  0.103174,  1.851910,  1.177021 )     3.67308289
  WF centre and spread    6  (  0.074515,  1.855790,  1.144809 )     3.27665705
  WF centre and spread    7  (  0.783980, -2.076793, -1.102990 )    14.99563015
  WF centre and spread    8  (  0.862964,  1.825619,  1.259643 )    15.36326377
  Sum of centres and spreads (  3.339924, -0.425323,  0.292884 )    66.58565677
 
     18    -0.143E+01     1.6418355408       66.5856576411       0.17  <-- CONV
        O_D=      5.4096497 O_OD=     41.8403856 O_TOT=     66.5856576 <-- SPRD
 Delta: O_D=  0.2086218E+00 O_OD= -0.1637933E+01 O_TOT= -0.1429312E+01 <-- DLTA
 ------------------------------------------------------------------------------
 Cycle:     19
  WF centre and spread    1  (  0.799499,  1.820230,  1.249820 )    12.48545607
  WF centre and spread    2  (  0.463865, -1.905190, -1.127420 )     8.18027538
  WF centre and spread    3  (  0.120016, -1.893743, -1.118013 )     3.90309386
  WF centre and spread    4  (  0.145645, -1.900647, -1.169305 )     4.22961310
  WF centre and spread    5  (  0.104145,  1.853105,  1.177259 )     3.59808148
  WF centre and spread    6  (  0.075135,  1.856613,  1.146505 )     3.21325757
  WF centre and spread    7  (  0.808351, -2.068681, -1.081019 )    14.84743054
  WF centre and spread    8  (  0.884565,  1.822525,  1.277283 )    14.96443399
  Sum of centres and spreads (  3.401221, -0.415787,  0.355109 )    65.42164199
 
     19    -0.116E+01     1.9452924817       65.4216428681       0.18  <-- CONV
        O_D=      5.6077296 O_OD=     40.4782909 O_TOT=     65.4216429 <-- SPRD
 Delta: O_D=  0.1980799E+00 O_OD= -0.1362095E+01 O_TOT= -0.1164015E+01 <-- DLTA
 ------------------------------------------------------------------------------
 Cycle:     20
  WF centre and spread    1  (  0.814923,  1.824915,  1.261210 )    12.25903469
  WF centre and spread    2  (  0.459175, -1.900921, -1.124278 )     8.09832339
  WF centre and spread    3  (  0.119374, -1.892085, -1.118141 )     3.82204657
  WF centre and spread    4  (  0.144504, -1.898958, -1.166942 )     4.13448407
  WF centre and spread    5  (  0.104306,  1.854069,  1.176646 )     3.51934425
  WF centre and spread    6  (  0.075088,  1.857254,  1.148461 )     3.14041109
  WF centre and spread    7  (  0.809379, -2.039692, -1.093585 )    14.48174912
  WF centre and spread    8  (  0.908302,  1.818249,  1.296596 )    14.82455679
  Sum of centres and spreads (  3.435051, -0.377170,  0.379968 )    64.27994997
 
     20    -0.114E+01     2.0374608809       64.2799508506       0.19  <-- CONV
        O_D=      5.5529608 O_OD=     39.3913676 O_TOT=     64.2799509 <-- SPRD
 Delta: O_D= -0.5476873E-01 O_OD= -0.1086923E+01 O_TOT= -0.1141692E+01 <-- DLTA
 ------------------------------------------------------------------------------
 Cycle:     21
  WF centre and spread    1  (  0.818884,  1.829380,  1.270142 )    12.07440725
  WF centre and spread    2  (  0.454027, -1.899516, -1.121303 )     8.05230527
  WF centre and spread    3  (  0.118145, -1.891057, -1.118408 )     3.75772169
  WF centre and spread    4  (  0.142789, -1.898075, -1.164988 )     4.05793538
  WF centre and spread    5  (  0.103603,  1.854635,  1.175827 )     3.46161124
  WF centre and spread    6  (  0.074398,  1.857647,  1.149873 )     3.08550747
  WF centre and spread    7  (  0.818112, -2.045520, -1.084522 )    14.29797647
  WF centre and spread    8  (  0.920783,  1.810251,  1.325180 )    14.78262852
  Sum of centres and spreads (  3.450741, -0.382254,  0.431801 )    63.57009331
 
     21    -0.710E+00     2.4391436969       63.5700941970       0.20  <-- CONV
        O_D=      5.6156350 O_OD=     38.6188367 O_TOT=     63.5700942 <-- SPRD
 Delta: O_D=  0.6267419E-01 O_OD= -0.7725308E+00 O_TOT= -0.7098567E+00 <-- DLTA
 ------------------------------------------------------------------------------
 Cycle:     22
  WF centre and spread    1  (  0.819701,  1.834182,  1.269585 )    11.60553090
  WF centre and spread    2  (  0.454305, -1.899598, -1.123327 )     7.86807667
  WF centre and spread    3  (  0.117962, -1.890714, -1.119260 )     3.69257560
  WF centre and spread    4  (  0.142543, -1.897737, -1.165016 )     3.97808336
  WF centre and spread    5  (  0.103423,  1.854538,  1.175395 )     3.38667824
  WF centre and spread    6  (  0.074213,  1.857646,  1.150315 )     3.02692286
  WF centre and spread    7  (  0.835220, -2.050720, -1.083848 )    14.05236643
  WF centre and spread    8  (  0.921380,  1.826634,  1.299475 )    14.09137559
  Sum of centres and spreads (  3.468748, -0.365770,  0.403320 )    61.70160965
 
     22    -0.187E+01     2.2169203764       61.7016105330       0.21  <-- CONV
        O_D=      5.4366906 O_OD=     36.9292975 O_TOT=     61.7016105 <-- SPRD
 Delta: O_D= -0.1789444E+00 O_OD= -0.1689539E+01 O_TOT= -0.1868484E+01 <-- DLTA
 ------------------------------------------------------------------------------
 Cycle:     23
  WF centre and spread    1  (  0.819558,  1.836187,  1.271031 )    11.51529905
  WF centre and spread    2  (  0.453445, -1.898823, -1.123785 )     7.86168625
  WF centre and spread    3  (  0.117754, -1.890440, -1.119494 )     3.68529464
  WF centre and spread    4  (  0.142286, -1.897442, -1.164879 )     3.96944757
  WF centre and spread    5  (  0.103274,  1.854497,  1.175279 )     3.37295521
  WF centre and spread    6  (  0.074071,  1.857645,  1.150546 )     3.01480330
  WF centre and spread    7  (  0.834323, -2.033265, -1.086630 )    13.84562241
  WF centre and spread    8  (  0.923130,  1.828654,  1.303426 )    13.95971493
  Sum of centres and spreads (  3.467841, -0.342986,  0.405494 )    61.22482336
 
     23    -0.477E+00     1.9690695986       61.2248242478       0.21  <-- CONV
        O_D=      5.2716367 O_OD=     36.6175651 O_TOT=     61.2248242 <-- SPRD
 Delta: O_D= -0.1650539E+00 O_OD= -0.3117324E+00 O_TOT= -0.4767863E+00 <-- DLTA
 ------------------------------------------------------------------------------
 Cycle:     24
  WF centre and spread    1  (  0.818900,  1.839376,  1.276692 )    11.38656334
  WF centre and spread    2  (  0.451279, -1.898293, -1.123226 )     7.86207270
  WF centre and spread    3  (  0.117254, -1.890052, -1.119683 )     3.67532904
  WF centre and spread    4  (  0.141651, -1.897108, -1.164282 )     3.95711651
  WF centre and spread    5  (  0.102933,  1.854332,  1.175230 )     3.35596619
  WF centre and spread    6  (  0.073725,  1.857631,  1.151088 )     2.99863063
  WF centre and spread    7  (  0.830553, -2.032824, -1.079830 )    13.60926457
  WF centre and spread    8  (  0.926181,  1.826081,  1.322239 )    13.67338955
  Sum of centres and spreads (  3.462476, -0.340857,  0.438230 )    60.51833252
 
     24    -0.706E+00     1.6326972178       60.5183334068       0.22  <-- CONV
        O_D=      5.0258159 O_OD=     36.1568951 O_TOT=     60.5183334 <-- SPRD
 Delta: O_D= -0.2458209E+00 O_OD= -0.4606700E+00 O_TOT= -0.7064908E+00 <-- DLTA
 ------------------------------------------------------------------------------
 Cycle:     25
  WF centre and spread    1  (  0.819054,  1.853274,  1.290448 )    11.15942080
  WF centre and spread    2  (  0.447859, -1.898494, -1.121455 )     7.84327593
  WF centre and spread    3  (  0.116018, -1.889171, -1.120198 )     3.64224168
  WF centre and spread    4  (  0.140057, -1.896396, -1.162886 )     3.91480205
  WF centre and spread    5  (  0.101834,  1.854293,  1.175070 )     3.32834841
  WF centre and spread    6  (  0.072647,  1.857864,  1.152527 )     2.97040976
  WF centre and spread    7  (  0.834277, -2.032193, -1.070849 )    13.49701506
  WF centre and spread    8  (  0.934317,  1.831035,  1.356364 )    13.45191814
  Sum of centres and spreads (  3.466061, -0.319787,  0.499022 )    59.80743184
 
     25    -0.711E+00     0.9351632215       59.8074327367       0.23  <-- CONV
        O_D=      5.1089604 O_OD=     35.3628499 O_TOT=     59.8074327 <-- SPRD
 Delta: O_D=  0.8314459E-01 O_OD= -0.7940453E+00 O_TOT= -0.7109007E+00 <-- DLTA
 ------------------------------------------------------------------------------
 Cycle:     26
  WF centre and spread    1  (  0.819839,  1.885580,  1.303880 )    11.09597593
  WF centre and spread    2  (  0.443291, -1.901181, -1.120561 )     7.90480617
  WF centre and spread    3  (  0.113967, -1.888296, -1.121517 )     3.61941237
  WF centre and spread    4  (  0.137436, -1.895779, -1.161784 )     3.88362091
  WF centre and spread    5  (  0.100083,  1.855102,  1.174553 )     3.31778396
  WF centre and spread    6  (  0.070951,  1.858690,  1.154297 )     2.95098897
  WF centre and spread    7  (  0.848701, -2.031511, -1.068099 )    13.42113272
  WF centre and spread    8  (  0.945404,  1.865279,  1.377703 )    13.18553694
  Sum of centres and spreads (  3.479673, -0.252117,  0.538471 )    59.37925797
 
     26    -0.428E+00     1.4421552375       59.3792588794       0.24  <-- CONV
        O_D=      5.0824566 O_OD=     34.9611798 O_TOT=     59.3792589 <-- SPRD
 Delta: O_D= -0.2650380E-01 O_OD= -0.4016701E+00 O_TOT= -0.4281739E+00 <-- DLTA
 ------------------------------------------------------------------------------
 Cycle:     27
  WF centre and spread    1  (  0.820016,  1.899107,  1.309876 )    11.09795147
  WF centre and spread    2  (  0.440238, -1.903828, -1.121530 )     7.95868249
  WF centre and spread    3  (  0.112614, -1.888041, -1.122552 )     3.61082777
  WF centre and spread    4  (  0.135732, -1.895671, -1.161622 )     3.87144591
  WF centre and spread    5  (  0.098960,  1.855674,  1.174150 )     3.31136332
  WF centre and spread    6  (  0.069909,  1.859178,  1.155137 )     2.93954776
  WF centre and spread    7  (  0.854755, -2.030626, -1.072394 )    13.38236268
  WF centre and spread    8  (  0.951754,  1.879365,  1.384642 )    13.03474534
  Sum of centres and spreads (  3.483978, -0.224843,  0.545707 )    59.20692674
 
     27    -0.172E+00     1.7373312514       59.2069276539       0.25  <-- CONV
        O_D=      4.9745848 O_OD=     34.8967204 O_TOT=     59.2069277 <-- SPRD
 Delta: O_D= -0.1078718E+00 O_OD= -0.6445940E-01 O_TOT= -0.1723312E+00 <-- DLTA
 ------------------------------------------------------------------------------
 Cycle:     28
  WF centre and spread    1  (  0.820388,  1.882568,  1.313739 )    10.77874680
  WF centre and spread    2  (  0.438925, -1.905547, -1.125512 )     7.86639003
  WF centre and spread    3  (  0.112031, -1.888234, -1.123151 )     3.57406700
  WF centre and spread    4  (  0.134988, -1.895912, -1.161890 )     3.82608111
  WF centre and spread    5  (  0.098368,  1.855906,  1.174144 )     3.25078481
  WF centre and spread    6  (  0.069395,  1.859503,  1.155696 )     2.89166713
  WF centre and spread    7  (  0.859171, -2.031304, -1.087848 )    13.05106884
  WF centre and spread    8  (  0.955940,  1.866516,  1.383095 )    12.65703157
  Sum of centres and spreads (  3.489206, -0.256503,  0.528274 )    57.89583728
 
     28    -0.131E+01     1.7256493416       57.8958381946       0.26  <-- CONV
        O_D=      4.6982502 O_OD=     33.8619655 O_TOT=     57.8958382 <-- SPRD
 Delta: O_D= -0.2763346E+00 O_OD= -0.1034755E+01 O_TOT= -0.1311089E+01 <-- DLTA
 ------------------------------------------------------------------------------
 Cycle:     29
  WF centre and spread    1  (  0.822779,  1.893655,  1.319562 )    10.62720289
  WF centre and spread    2  (  0.438979, -1.909635, -1.119937 )     7.79790686
  WF centre and spread    3  (  0.111597, -1.888647, -1.123210 )     3.54614025
  WF centre and spread    4  (  0.134365, -1.896489, -1.161559 )     3.78974183
  WF centre and spread    5  (  0.097998,  1.857174,  1.174317 )     3.22020574
  WF centre and spread    6  (  0.068984,  1.860465,  1.156261 )     2.86703227
  WF centre and spread    7  (  0.864499, -2.036879, -1.071011 )    12.98303570
  WF centre and spread    8  (  0.959629,  1.881396,  1.391576 )    12.47401404
  Sum of centres and spreads (  3.498830, -0.238959,  0.565998 )    57.30527959
 
     29    -0.591E+00     1.4886979976       57.3052805032       0.27  <-- CONV
        O_D=      4.5832980 O_OD=     33.3863601 O_TOT=     57.3052805 <-- SPRD
 Delta: O_D= -0.1149523E+00 O_OD= -0.4756054E+00 O_TOT= -0.5905577E+00 <-- DLTA
 ------------------------------------------------------------------------------
 Cycle:     30
  WF centre and spread    1  (  0.824814,  1.916283,  1.326410 )    10.58326849
  WF centre and spread    2  (  0.438292, -1.913297, -1.117268 )     7.78026325
  WF centre and spread    3  (  0.110994, -1.889104, -1.123388 )     3.53003601
  WF centre and spread    4  (  0.133551, -1.897113, -1.161209 )     3.76830124
  WF centre and spread    5  (  0.097425,  1.858622,  1.174462 )     3.18158972
  WF centre and spread    6  (  0.068396,  1.861539,  1.156887 )     2.83607379
  WF centre and spread    7  (  0.867757, -2.041518, -1.069812 )    12.82833361
  WF centre and spread    8  (  0.964101,  1.908168,  1.404530 )    12.43150244
  Sum of centres and spreads (  3.505331, -0.196421,  0.590612 )    56.93936855
 
     30    -0.366E+00     1.0537670270       56.9393694642       0.27  <-- CONV
        O_D=      4.5818838 O_OD=     33.0218632 O_TOT=     56.9393695 <-- SPRD
 Delta: O_D= -0.1414132E-02 O_OD= -0.3644969E+00 O_TOT= -0.3659110E+00 <-- DLTA
 ------------------------------------------------------------------------------
 Cycle:     31
  WF centre and spread    1  (  0.827289,  1.941033,  1.347680 )    10.44224600
  WF centre and spread    2  (  0.434080, -1.924258, -1.117727 )     7.71521815
  WF centre and spread    3  (  0.108935, -1.890633, -1.124206 )     3.50509969
  WF centre and spread    4  (  0.130860, -1.899203, -1.160219 )     3.73428104
  WF centre and spread    5  (  0.095042,  1.860305,  1.174945 )     3.11995545
  WF centre and spread    6  (  0.066233,  1.862934,  1.158814 )     2.78249872
  WF centre and spread    7  (  0.874761, -2.056685, -1.073494 )    12.70360919
  WF centre and spread    8  (  0.975600,  1.932447,  1.440376 )    12.35341602
  Sum of centres and spreads (  3.512801, -0.174059,  0.646169 )    56.35632425
 
     31    -0.583E+00     0.8547859427       56.3563251784       0.28  <-- CONV
        O_D=      4.5832794 O_OD=     32.4374234 O_TOT=     56.3563252 <-- SPRD
 Delta: O_D=  0.1395574E-02 O_OD= -0.5844399E+00 O_TOT= -0.5830443E+00 <-- DLTA
 ------------------------------------------------------------------------------
 Cycle:     32
  WF centre and spread    1  (  0.828917,  1.979441,  1.390945 )    10.30561634
  WF centre and spread    2  (  0.423075, -1.953014, -1.131148 )     7.61793296
  WF centre and spread    3  (  0.103335, -1.894225, -1.128099 )     3.44299263
  WF centre and spread    4  (  0.123880, -1.904041, -1.160511 )     3.65353397
  WF centre and spread    5  (  0.088457,  1.861209,  1.175254 )     3.05952239
  WF centre and spread    6  (  0.060767,  1.863429,  1.162319 )     2.71893276
  WF centre and spread    7  (  0.891045, -2.096311, -1.085423 )    12.65006587
  WF centre and spread    8  (  1.000090,  1.990199,  1.503342 )    12.42259841
  Sum of centres and spreads (  3.519565, -0.153313,  0.726678 )    55.87119534
 
     32    -0.485E+00     1.1205252910       55.8711962991       0.29  <-- CONV
        O_D=      4.8745787 O_OD=     31.6609951 O_TOT=     55.8711963 <-- SPRD
 Delta: O_D=  0.2912993E+00 O_OD= -0.7764282E+00 O_TOT= -0.4851289E+00 <-- DLTA
 ------------------------------------------------------------------------------
 Cycle:     33
  WF centre and spread    1  (  0.828990,  1.986541,  1.399061 )    10.30739815
  WF centre and spread    2  (  0.420728, -1.958778, -1.134093 )     7.61291301
  WF centre and spread    3  (  0.102039, -1.894836, -1.129239 )     3.43224856
  WF centre and spread    4  (  0.122311, -1.904871, -1.160976 )     3.64049406
  WF centre and spread    5  (  0.086985,  1.861176,  1.175156 )     3.05679137
  WF centre and spread    6  (  0.059599,  1.863288,  1.162884 )     2.71260529
  WF centre and spread    7  (  0.894055, -2.103495, -1.094519 )    12.58949076
  WF centre and spread    8  (  1.005343,  2.000498,  1.515447 )    12.46779766
  Sum of centres and spreads (  3.520051, -0.150478,  0.733720 )    55.81973886
 
     33    -0.515E-01     1.8278235095       55.8197398309       0.30  <-- CONV
        O_D=      4.8952883 O_OD=     31.5888291 O_TOT=     55.8197398 <-- SPRD
 Delta: O_D=  0.2070952E-01 O_OD= -0.7216599E-01 O_TOT= -0.5145647E-01 <-- DLTA
 ------------------------------------------------------------------------------
 Cycle:     34
  WF centre and spread    1  (  0.829125,  1.990689,  1.406529 )     9.95605298
  WF centre and spread    2  (  0.420511, -1.961423, -1.134543 )     7.41161644
  WF centre and spread    3  (  0.101479, -1.894936, -1.130252 )     3.38985766
  WF centre and spread    4  (  0.121683, -1.905006, -1.161614 )     3.58868748
  WF centre and spread    5  (  0.086443,  1.861577,  1.175031 )     2.99999664
  WF centre and spread    6  (  0.059143,  1.863583,  1.163167 )     2.66929088
  WF centre and spread    7  (  0.897204, -2.105714, -1.100968 )    12.37181099
  WF centre and spread    8  (  1.008851,  2.003944,  1.525328 )    11.94152211
  Sum of centres and spreads (  3.524439, -0.147287,  0.742678 )    54.32883518
 
     34    -0.149E+01     1.7326657419       54.3288361515       0.31  <-- CONV
        O_D=      4.3741060 O_OD=     30.6191077 O_TOT=     54.3288362 <-- SPRD
 Delta: O_D= -0.5211822E+00 O_OD= -0.9697214E+00 O_TOT= -0.1490904E+01 <-- DLTA
 ------------------------------------------------------------------------------
 Cycle:     35
  WF centre and spread    1  (  0.829207,  1.994529,  1.414687 )     9.87299814
  WF centre and spread    2  (  0.420152, -1.964341, -1.134870 )     7.38337889
  WF centre and spread    3  (  0.100901, -1.895125, -1.130985 )     3.37178703
  WF centre and spread    4  (  0.121008, -1.905274, -1.161864 )     3.56717274
  WF centre and spread    5  (  0.085776,  1.861765,  1.175029 )     2.98080365
  WF centre and spread    6  (  0.058604,  1.863690,  1.163500 )     2.65255416
  WF centre and spread    7  (  0.900249, -2.108542, -1.098403 )    12.17360037
  WF centre and spread    8  (  1.012481,  2.007668,  1.537356 )    11.80303634
  Sum of centres and spreads (  3.528377, -0.145630,  0.764450 )    53.80533132
 
     35    -0.524E+00     1.1367605153       53.8053323022       0.32  <-- CONV
        O_D=      4.2969949 O_OD=     30.1727149 O_TOT=     53.8053323 <-- SPRD
 Delta: O_D= -0.7711108E-01 O_OD= -0.4463928E+00 O_TOT= -0.5235038E+00 <-- DLTA
 ------------------------------------------------------------------------------
 Cycle:     36
  WF centre and spread    1  (  0.829150,  2.006021,  1.437988 )     9.75984530
  WF centre and spread    2  (  0.417647, -1.972602, -1.139138 )     7.32800009
  WF centre and spread    3  (  0.098886, -1.895762, -1.133025 )     3.33830096
  WF centre and spread    4  (  0.118636, -1.906106, -1.162584 )     3.52637743
  WF centre and spread    5  (  0.083519,  1.862087,  1.175215 )     2.96082447
  WF centre and spread    6  (  0.056795,  1.863744,  1.164548 )     2.63027639
  WF centre and spread    7  (  0.907574, -2.120824, -1.099518 )    12.11421447
  WF centre and spread    8  (  1.022747,  2.020461,  1.567835 )    11.60053939
  Sum of centres and spreads (  3.534955, -0.142980,  0.811320 )    53.25837849
 
     36    -0.547E+00     0.7268756686       53.2583794778       0.33  <-- CONV
        O_D=      4.3449039 O_OD=     29.5778531 O_TOT=     53.2583795 <-- SPRD
 Delta: O_D=  0.4790898E-01 O_OD= -0.5948618E+00 O_TOT= -0.5469528E+00 <-- DLTA
 ------------------------------------------------------------------------------
 Cycle:     37
  WF centre and spread    1  (  0.823192,  2.032356,  1.480707 )     9.58955948
  WF centre and spread    2  (  0.407803, -1.990900, -1.151189 )     7.31911414
  WF centre and spread    3  (  0.093411, -1.896889, -1.137707 )     3.29455248
  WF centre and spread    4  (  0.112198, -1.907572, -1.164568 )     3.47558322
  WF centre and spread    5  (  0.077603,  1.862702,  1.175267 )     2.92619784
  WF centre and spread    6  (  0.052156,  1.863593,  1.166497 )     2.58910135
  WF centre and spread    7  (  0.913232, -2.149477, -1.124658 )    12.20773642
  WF centre and spread    8  (  1.039270,  2.051153,  1.625700 )    11.40365622
  Sum of centres and spreads (  3.518865, -0.135033,  0.870049 )    52.80550114
 
     37    -0.453E+00     0.7430174749       52.8055021649       0.33  <-- CONV
        O_D=      4.3503076 O_OD=     29.1195721 O_TOT=     52.8055022 <-- SPRD
 Delta: O_D=  0.5403689E-02 O_OD= -0.4582810E+00 O_TOT= -0.4528773E+00 <-- DLTA
 ------------------------------------------------------------------------------
 Cycle:     38
  WF centre and spread    1  (  0.819211,  2.045171,  1.497405 )     9.50574253
  WF centre and spread    2  (  0.401862, -1.999078, -1.159678 )     7.32068372
  WF centre and spread    3  (  0.090374, -1.897152, -1.140387 )     3.27534612
  WF centre and spread    4  (  0.108677, -1.907935, -1.166052 )     3.45450726
  WF centre and spread    5  (  0.074416,  1.862955,  1.174848 )     2.90255672
  WF centre and spread    6  (  0.049714,  1.863400,  1.167079 )     2.56480662
  WF centre and spread    7  (  0.914609, -2.162068, -1.140158 )    12.27598037
  WF centre and spread    8  (  1.047321,  2.065535,  1.652315 )    11.36395997
  Sum of centres and spreads (  3.506183, -0.129172,  0.885373 )    52.66358331
 
     38    -0.142E+00     1.1523969280       52.6635843511       0.34  <-- CONV
        O_D=      4.3075781 O_OD=     29.0203838 O_TOT=     52.6635844 <-- SPRD
 Delta: O_D= -0.4272952E-01 O_OD= -0.9918829E-01 O_TOT= -0.1419178E+00 <-- DLTA
 ------------------------------------------------------------------------------
 Cycle:     39
  WF centre and spread    1  (  0.814346,  2.060476,  1.516807 )     9.36993235
  WF centre and spread    2  (  0.393508, -2.008824, -1.172422 )     7.29975626
  WF centre and spread    3  (  0.086223, -1.897167, -1.144095 )     3.24742910
  WF centre and spread    4  (  0.103908, -1.908025, -1.168308 )     3.42319092
  WF centre and spread    5  (  0.070181,  1.863142,  1.173927 )     2.86396505
  WF centre and spread    6  (  0.046518,  1.862986,  1.167524 )     2.52857966
  WF centre and spread    7  (  0.916662, -2.176270, -1.161346 )    12.32759346
  WF centre and spread    8  (  1.059388,  2.081675,  1.687175 )    11.28795941
  Sum of centres and spreads (  3.490735, -0.122008,  0.899262 )    52.34840620
 
     39    -0.315E+00     1.2308353405       52.3484072623       0.35  <-- CONV
        O_D=      4.1835937 O_OD=     28.8291912 O_TOT=     52.3484073 <-- SPRD
 Delta: O_D= -0.1239844E+00 O_OD= -0.1911927E+00 O_TOT= -0.3151771E+00 <-- DLTA
 ------------------------------------------------------------------------------
 Cycle:     40
  WF centre and spread    1  (  0.817784,  2.059805,  1.525939 )     9.01812708
  WF centre and spread    2  (  0.392373, -2.009696, -1.177737 )     7.15856119
  WF centre and spread    3  (  0.085062, -1.896675, -1.145278 )     3.20920832
  WF centre and spread    4  (  0.102737, -1.907399, -1.169126 )     3.37859769
  WF centre and spread    5  (  0.069103,  1.862798,  1.173727 )     2.82087327
  WF centre and spread    6  (  0.045719,  1.862541,  1.167757 )     2.49707272
  WF centre and spread    7  (  0.925260, -2.175634, -1.170114 )    12.18707572
  WF centre and spread    8  (  1.071534,  2.079449,  1.707935 )    10.92743324
  Sum of centres and spreads (  3.509572, -0.124810,  0.913103 )    51.19694922
 
     40    -0.115E+01     1.1795276291       51.1969502986       0.36  <-- CONV
        O_D=      4.1243972 O_OD=     27.7369306 O_TOT=     51.1969503 <-- SPRD
 Delta: O_D= -0.5919642E-01 O_OD= -0.1092261E+01 O_TOT= -0.1151457E+01 <-- DLTA
 ------------------------------------------------------------------------------
 Cycle:     41
  WF centre and spread    1  (  0.816358,  2.059821,  1.534326 )     8.90693012
  WF centre and spread    2  (  0.389855, -2.009977, -1.183685 )     7.13704206
  WF centre and spread    3  (  0.083719, -1.896052, -1.146564 )     3.19601359
  WF centre and spread    4  (  0.101301, -1.906614, -1.170049 )     3.36551000
  WF centre and spread    5  (  0.067797,  1.862317,  1.173540 )     2.80143673
  WF centre and spread    6  (  0.044760,  1.861992,  1.167931 )     2.48333194
  WF centre and spread    7  (  0.927737, -2.174100, -1.182643 )    12.16850505
  WF centre and spread    8  (  1.079230,  2.077857,  1.726367 )    10.87039712
  Sum of centres and spreads (  3.510757, -0.124756,  0.919223 )    50.92916661
 
     41    -0.268E+00     0.6137279610       50.9291676920       0.37  <-- CONV
        O_D=      4.0594187 O_OD=     27.5341265 O_TOT=     50.9291677 <-- SPRD
 Delta: O_D= -0.6497849E-01 O_OD= -0.2028041E+00 O_TOT= -0.2677826E+00 <-- DLTA
 ------------------------------------------------------------------------------
 Cycle:     42
  WF centre and spread    1  (  0.812986,  2.058968,  1.555002 )     8.74763268
  WF centre and spread    2  (  0.384818, -2.009894, -1.194837 )     7.13159145
  WF centre and spread    3  (  0.080929, -1.894474, -1.149178 )     3.17535146
  WF centre and spread    4  (  0.098262, -1.904675, -1.171892 )     3.34613545
  WF centre and spread    5  (  0.064986,  1.861264,  1.173274 )     2.76830323
  WF centre and spread    6  (  0.042697,  1.860843,  1.168304 )     2.45889130
  WF centre and spread    7  (  0.931508, -2.170230, -1.206940 )    12.30167238
  WF centre and spread    8  (  1.096859,  2.072442,  1.770250 )    10.79705916
  Sum of centres and spreads (  3.513045, -0.125757,  0.943984 )    50.72663711
 
     42    -0.203E+00     0.4085252753       50.7266382202       0.38  <-- CONV
        O_D=      4.0652816 O_OD=     27.3257342 O_TOT=     50.7266382 <-- SPRD
 Delta: O_D=  0.5862837E-02 O_OD= -0.2083923E+00 O_TOT= -0.2025295E+00 <-- DLTA
 ------------------------------------------------------------------------------
 Cycle:     43
  WF centre and spread    1  (  0.803949,  2.054541,  1.602985 )     8.37980520
  WF centre and spread    2  (  0.372417, -2.006925, -1.222882 )     7.14298423
  WF centre and spread    3  (  0.074257, -1.890061, -1.155334 )     3.12788596
  WF centre and spread    4  (  0.090889, -1.899431, -1.176390 )     3.30130217
  WF centre and spread    5  (  0.058045,  1.858693,  1.172328 )     2.69333230
  WF centre and spread    6  (  0.037675,  1.858053,  1.168749 )     2.40401119
  WF centre and spread    7  (  0.947074, -2.155968, -1.278959 )    12.98024071
  WF centre and spread    8  (  1.143716,  2.052978,  1.873425 )    10.62695226
  Sum of centres and spreads (  3.528022, -0.128120,  0.983922 )    50.65651402
 
     43    -0.701E-01     0.5051082416       50.6565151959       0.39  <-- CONV
        O_D=      4.4401782 O_OD=     26.8807146 O_TOT=     50.6565152 <-- SPRD
 Delta: O_D=  0.3748966E+00 O_OD= -0.4450196E+00 O_TOT= -0.7012302E-01 <-- DLTA
 ------------------------------------------------------------------------------
 Cycle:     44
  WF centre and spread    1  (  0.803858,  2.054512,  1.603112 )     8.37921962
  WF centre and spread    2  (  0.372417, -2.006926, -1.223035 )     7.15457764
  WF centre and spread    3  (  0.074223, -1.890019, -1.155402 )     3.12942577
  WF centre and spread    4  (  0.090847, -1.899391, -1.176425 )     3.30363676
  WF centre and spread    5  (  0.057983,  1.858670,  1.172307 )     2.69264360
  WF centre and spread    6  (  0.037632,  1.858030,  1.168741 )     2.40341346
  WF centre and spread    7  (  0.947063, -2.155604, -1.270699 )    12.67066908
  WF centre and spread    8  (  1.144320,  2.052656,  1.873949 )    10.62782133
  Sum of centres and spreads (  3.528344, -0.128072,  0.992549 )    50.36140727
 
     44    -0.295E+00     2.6969854134       50.3614084388       0.39  <-- CONV
        O_D=      4.1503221 O_OD=     26.8754639 O_TOT=     50.3614084 <-- SPRD
 Delta: O_D= -0.2898561E+00 O_OD= -0.5250658E-02 O_TOT= -0.2951068E+00 <-- DLTA
 ------------------------------------------------------------------------------
 Cycle:     45
  WF centre and spread    1  (  0.803563,  2.054003,  1.604860 )     8.34396309
  WF centre and spread    2  (  0.372084, -2.006472, -1.224426 )     7.15540391
  WF centre and spread    3  (  0.074010, -1.889784, -1.155744 )     3.12671582
  WF centre and spread    4  (  0.090606, -1.899114, -1.176731 )     3.30101336
  WF centre and spread    5  (  0.057741,  1.858562,  1.172275 )     2.68855336
  WF centre and spread    6  (  0.037458,  1.857928,  1.168732 )     2.40038861
  WF centre and spread    7  (  0.948029, -2.154125, -1.278662 )    12.60584567
  WF centre and spread    8  (  1.146820,  2.050901,  1.877971 )    10.58946973
  Sum of centres and spreads (  3.530311, -0.128102,  0.988276 )    50.21135357
 
     45    -0.150E+00     0.8460655866       50.2113547411       0.40  <-- CONV
        O_D=      4.0862878 O_OD=     26.7894445 O_TOT=     50.2113547 <-- SPRD
 Delta: O_D= -0.6403432E-01 O_OD= -0.8601938E-01 O_TOT= -0.1500537E+00 <-- DLTA
 ------------------------------------------------------------------------------
 Cycle:     46
  WF centre and spread    1  (  0.802068,  2.050814,  1.614518 )     8.23988843
  WF centre and spread    2  (  0.370568, -2.004047, -1.230361 )     7.17095759
  WF centre and spread    3  (  0.073006, -1.888633, -1.157126 )     3.11664776
  WF centre and spread    4  (  0.089476, -1.897756, -1.177955 )     3.29091191
  WF centre and spread    5  (  0.056566,  1.858015,  1.172173 )     2.67377403
  WF centre and spread    6  (  0.036616,  1.857416,  1.168713 )     2.38961457
  WF centre and spread    7  (  0.953262, -2.146464, -1.289420 )    12.63472845
  WF centre and spread    8  (  1.158749,  2.041722,  1.900662 )    10.49805158
  Sum of centres and spreads (  3.540312, -0.128933,  1.001205 )    50.01457432
 
     46    -0.197E+00     0.5212646895       50.0145755134       0.41  <-- CONV
        O_D=      4.1151513 O_OD=     26.5638018 O_TOT=     50.0145755 <-- SPRD
 Delta: O_D=  0.2886354E-01 O_OD= -0.2256428E+00 O_TOT= -0.1967792E+00 <-- DLTA
 ------------------------------------------------------------------------------
 Cycle:     47
  WF centre and spread    1  (  0.800139,  2.047651,  1.622594 )     8.17158018
  WF centre and spread    2  (  0.368950, -2.001527, -1.237434 )     7.19816949
  WF centre and spread    3  (  0.072022, -1.887525, -1.158505 )     3.11064576
  WF centre and spread    4  (  0.088368, -1.896444, -1.179251 )     3.28602616
  WF centre and spread    5  (  0.055422,  1.857488,  1.172046 )     2.66236141
  WF centre and spread    6  (  0.035797,  1.856922,  1.168661 )     2.38146869
  WF centre and spread    7  (  0.957060, -2.139041, -1.311414 )    12.66654869
  WF centre and spread    8  (  1.169764,  2.032984,  1.920245 )    10.45007816
  Sum of centres and spreads (  3.547520, -0.129493,  0.996944 )    49.92687854
 
     47    -0.877E-01     0.6373064293       49.9268797448       0.42  <-- CONV
        O_D=      4.1294680 O_OD=     26.4617893 O_TOT=     49.9268797 <-- SPRD
 Delta: O_D=  0.1431669E-01 O_OD= -0.1020125E+00 O_TOT= -0.8769577E-01 <-- DLTA
 ------------------------------------------------------------------------------
 Cycle:     48
  WF centre and spread    1  (  0.798056,  2.044391,  1.630272 )     8.11415920
  WF centre and spread    2  (  0.367427, -1.999021, -1.243754 )     7.23034073
  WF centre and spread    3  (  0.071077, -1.886461, -1.159713 )     3.10641411
  WF centre and spread    4  (  0.087303, -1.895188, -1.180372 )     3.28314954
  WF centre and spread    5  (  0.054319,  1.856974,  1.171920 )     2.65247805
  WF centre and spread    6  (  0.035007,  1.856443,  1.168600 )     2.37455306
  WF centre and spread    7  (  0.960048, -2.131502, -1.318842 )    12.69296453
  WF centre and spread    8  (  1.180287,  2.024335,  1.939226 )    10.41172800
  Sum of centres and spreads (  3.553525, -0.130028,  1.007337 )    49.86578721
 
     48    -0.611E-01     0.8533859759       49.8657884274       0.43  <-- CONV
        O_D=      4.1371655 O_OD=     26.3930005 O_TOT=     49.8657884 <-- SPRD
 Delta: O_D=  0.7697530E-02 O_OD= -0.6878885E-01 O_TOT= -0.6109132E-01 <-- DLTA
 ------------------------------------------------------------------------------
 Cycle:     49
  WF centre and spread    1  (  0.797184,  2.043164,  1.632948 )     8.09163129
  WF centre and spread    2  (  0.366825, -1.998030, -1.246470 )     7.24308407
  WF centre and spread    3  (  0.070721, -1.886057, -1.160195 )     3.10490694
  WF centre and spread    4  (  0.086900, -1.894710, -1.180837 )     3.28228220
  WF centre and spread    5  (  0.053902,  1.856782,  1.171864 )     2.64876694
  WF centre and spread    6  (  0.034709,  1.856264,  1.168570 )     2.37198127
  WF centre and spread    7  (  0.961083, -2.128635, -1.331390 )    12.71464586
  WF centre and spread    8  (  1.184190,  2.021071,  1.946093 )    10.39541624
  Sum of centres and spreads (  3.555513, -0.130150,  1.000584 )    49.85271481
 
     49    -0.131E-01     1.0980091437       49.8527160305       0.44  <-- CONV
        O_D=      4.1488999 O_OD=     26.3681938 O_TOT=     49.8527160 <-- SPRD
 Delta: O_D=  0.1173430E-01 O_OD= -0.2480670E-01 O_TOT= -0.1307240E-01 <-- DLTA
 ------------------------------------------------------------------------------
 Cycle:     50
  WF centre and spread    1  (  0.797158,  2.043109,  1.633083 )     8.08988684
  WF centre and spread    2  (  0.366812, -1.997999, -1.246401 )     7.24292162
  WF centre and spread    3  (  0.070710, -1.886044, -1.160195 )     3.10480152
  WF centre and spread    4  (  0.086888, -1.894695, -1.180831 )     3.28217467
  WF centre and spread    5  (  0.053890,  1.856775,  1.171865 )     2.64859109
  WF centre and spread    6  (  0.034700,  1.856258,  1.168571 )     2.37185053
  WF centre and spread    7  (  0.961090, -2.128517, -1.327254 )    12.69937050
  WF centre and spread    8  (  1.184328,  2.020953,  1.946381 )    10.39331771
  Sum of centres and spreads (  3.555576, -0.130161,  1.005219 )    49.83291448
 
     50    -0.198E-01     1.4697030370       49.8329156953       0.45  <-- CONV
        O_D=      4.1336648 O_OD=     26.3636284 O_TOT=     49.8329157 <-- SPRD
 Delta: O_D= -0.1523502E-01 O_OD= -0.4565313E-02 O_TOT= -0.1980034E-01 <-- DLTA
 ------------------------------------------------------------------------------
 Cycle:     51
  WF centre and spread    1  (  0.796022,  2.041796,  1.635458 )     8.03479251
  WF centre and spread    2  (  0.366103, -1.996856, -1.248872 )     7.23510805
  WF centre and spread    3  (  0.070366, -1.885653, -1.160663 )     3.10002132
  WF centre and spread    4  (  0.086506, -1.894212, -1.181302 )     3.27755475
  WF centre and spread    5  (  0.053525,  1.856581,  1.171826 )     2.64288370
  WF centre and spread    6  (  0.034432,  1.856085,  1.168551 )     2.36789425
  WF centre and spread    7  (  0.961373, -2.125513, -1.343572 )    12.72883448
  WF centre and spread    8  (  1.188035,  2.017805,  1.952697 )    10.33091503
  Sum of centres and spreads (  3.556362, -0.129967,  0.994122 )    49.71800410
 
     51    -0.115E+00     0.7248240876       49.7180053281       0.45  <-- CONV
        O_D=      4.1357898 O_OD=     26.2465931 O_TOT=     49.7180053 <-- SPRD
 Delta: O_D=  0.2124993E-02 O_OD= -0.1170354E+00 O_TOT= -0.1149104E+00 <-- DLTA
 ------------------------------------------------------------------------------
 Cycle:     52
  WF centre and spread    1  (  0.795269,  2.040937,  1.636967 )     8.01047410
  WF centre and spread    2  (  0.365717, -1.996168, -1.250438 )     7.23781745
  WF centre and spread    3  (  0.070158, -1.885408, -1.160937 )     3.09826396
  WF centre and spread    4  (  0.086273, -1.893914, -1.181582 )     3.27614970
  WF centre and spread    5  (  0.053289,  1.856460,  1.171799 )     2.63991907
  WF centre and spread    6  (  0.034261,  1.855975,  1.168538 )     2.36592498
  WF centre and spread    7  (  0.961492, -2.123532, -1.350701 )    12.72984768
  WF centre and spread    8  (  1.190370,  2.015768,  1.957179 )    10.30792690
  Sum of centres and spreads (  3.556828, -0.129881,  0.990825 )    49.66632385
 
     52    -0.517E-01     0.8751966289       49.6663250790       0.46  <-- CONV
        O_D=      4.1313384 O_OD=     26.1993643 O_TOT=     49.6663251 <-- SPRD
 Delta: O_D= -0.4451443E-02 O_OD= -0.4722881E-01 O_TOT= -0.5168025E-01 <-- DLTA
 ------------------------------------------------------------------------------
 Cycle:     53
  WF centre and spread    1  (  0.793888,  2.039163,  1.640303 )     7.97492192
  WF centre and spread    2  (  0.365081, -1.994891, -1.252399 )     7.24679523
  WF centre and spread    3  (  0.069773, -1.884945, -1.161333 )     3.09595903
  WF centre and spread    4  (  0.085841, -1.893355, -1.181954 )     3.27450556
  WF centre and spread    5  (  0.052842,  1.856225,  1.171767 )     2.63503048
  WF centre and spread    6  (  0.033936,  1.855764,  1.168521 )     2.36273196
  WF centre and spread    7  (  0.961901, -2.119527, -1.347349 )    12.72085114
  WF centre and spread    8  (  1.194887,  2.011675,  1.966878 )    10.27871342
  Sum of centres and spreads (  3.558150, -0.129891,  1.004433 )    49.58950872
 
     53    -0.768E-01     0.7277593985       49.5895099590       0.47  <-- CONV
        O_D=      4.1221417 O_OD=     26.1317458 O_TOT=     49.5895100 <-- SPRD
 Delta: O_D= -0.9196666E-02 O_OD= -0.6761845E-01 O_TOT= -0.7681512E-01 <-- DLTA
 ------------------------------------------------------------------------------
 Cycle:     54
  WF centre and spread    1  (  0.790984,  2.035526,  1.646491 )     7.91151108
  WF centre and spread    2  (  0.363730, -1.992165, -1.257899 )     7.27120126
  WF centre and spread    3  (  0.068970, -1.883985, -1.162273 )     3.09256863
  WF centre and spread    4  (  0.084945, -1.892193, -1.182890 )     3.27299792
  WF centre and spread    5  (  0.051917,  1.855748,  1.171673 )     2.62567719
  WF centre and spread    6  (  0.033267,  1.855334,  1.168460 )     2.35671045
  WF centre and spread    7  (  0.963174, -2.111211, -1.360000 )    12.73121536
  WF centre and spread    8  (  1.204172,  2.003105,  1.985597 )    10.23162699
  Sum of centres and spreads (  3.561159, -0.129842,  1.009159 )    49.49350887
 
     54    -0.960E-01     0.6115636607       49.4935101176       0.48  <-- CONV
        O_D=      4.1205937 O_OD=     26.0372940 O_TOT=     49.4935101 <-- SPRD
 Delta: O_D= -0.1547996E-02 O_OD= -0.9445185E-01 O_TOT= -0.9599984E-01 <-- DLTA
 ------------------------------------------------------------------------------
 Cycle:     55
  WF centre and spread    1  (  0.787674,  2.031421,  1.652767 )     7.83817664
  WF centre and spread    2  (  0.362161, -1.988938, -1.265445 )     7.29856806
  WF centre and spread    3  (  0.068079, -1.882901, -1.163441 )     3.08871060
  WF centre and spread    4  (  0.083946, -1.890878, -1.184097 )     3.27152422
  WF centre and spread    5  (  0.050885,  1.855226,  1.171545 )     2.61538202
  WF centre and spread    6  (  0.032522,  1.854862,  1.168369 )     2.35010903
  WF centre and spread    7  (  0.965219, -2.101746, -1.389188 )    12.79397548
  WF centre and spread    8  (  1.214463,  1.993262,  2.005278 )    10.17622499
  Sum of centres and spreads (  3.564950, -0.129692,  0.995788 )    49.43267105
 
     55    -0.608E-01     0.5630892346       49.4326723160       0.49  <-- CONV
        O_D=      4.1589342 O_OD=     25.9381157 O_TOT=     49.4326723 <-- SPRD
 Delta: O_D=  0.3834052E-01 O_OD= -0.9917832E-01 O_TOT= -0.6083780E-01 <-- DLTA
 ------------------------------------------------------------------------------
 Cycle:     56
  WF centre and spread    1  (  0.787457,  2.030977,  1.653607 )     7.82948017
  WF centre and spread    2  (  0.362086, -1.988648, -1.265077 )     7.29886071
  WF centre and spread    3  (  0.068009, -1.882806, -1.163466 )     3.08805866
  WF centre and spread    4  (  0.083868, -1.890765, -1.184094 )     3.27087946
  WF centre and spread    5  (  0.050804,  1.855177,  1.171547 )     2.61441915
  WF centre and spread    6  (  0.032462,  1.854821,  1.168368 )     2.34943924
  WF centre and spread    7  (  0.965427, -2.100790, -1.381619 )    12.76367003
  WF centre and spread    8  (  1.215458,  1.992248,  2.007402 )    10.16727151
  Sum of centres and spreads (  3.565571, -0.129786,  1.006668 )    49.38207894
 
     56    -0.506E-01     0.9093034429       49.3820801978       0.50  <-- CONV
        O_D=      4.1309445 O_OD=     25.9155133 O_TOT=     49.3820802 <-- SPRD
 Delta: O_D= -0.2798972E-01 O_OD= -0.2260240E-01 O_TOT= -0.5059212E-01 <-- DLTA
 ------------------------------------------------------------------------------
 Cycle:     57
  WF centre and spread    1  (  0.786375,  2.029393,  1.655947 )     7.79496897
  WF centre and spread    2  (  0.361617, -1.987420, -1.267147 )     7.30501333
  WF centre and spread    3  (  0.067724, -1.882422, -1.163831 )     3.08589913
  WF centre and spread    4  (  0.083546, -1.890300, -1.184452 )     3.26939661
  WF centre and spread    5  (  0.050464,  1.854996,  1.171520 )     2.61054731
  WF centre and spread    6  (  0.032217,  1.854663,  1.168342 )     2.34685255
  WF centre and spread    7  (  0.966337, -2.097258, -1.386272 )    12.77001479
  WF centre and spread    8  (  1.219137,  1.988439,  2.014418 )    10.13466450
  Sum of centres and spreads (  3.567417, -0.129910,  1.008525 )    49.31735720
 
     57    -0.647E-01     0.6293453827       49.3173584614       0.51  <-- CONV
        O_D=      4.1328806 O_OD=     25.8488554 O_TOT=     49.3173585 <-- SPRD
 Delta: O_D=  0.1936074E-02 O_OD= -0.6665781E-01 O_TOT= -0.6472174E-01 <-- DLTA
 ------------------------------------------------------------------------------
 Cycle:     58
  WF centre and spread    1  (  0.784132,  2.026405,  1.659821 )     7.73694094
  WF centre and spread    2  (  0.360660, -1.984992, -1.272835 )     7.32470659
  WF centre and spread    3  (  0.067170, -1.881675, -1.164670 )     3.08320737
  WF centre and spread    4  (  0.082921, -1.889393, -1.185334 )     3.26870096
  WF centre and spread    5  (  0.049799,  1.854655,  1.171440 )     2.60353372
  WF centre and spread    6  (  0.031740,  1.854360,  1.168276 )     2.34226574
  WF centre and spread    7  (  0.968188, -2.090445, -1.409749 )    12.80816763
  WF centre and spread    8  (  1.226185,  1.981096,  2.027273 )    10.08492790
  Sum of centres and spreads (  3.570795, -0.129990,  0.994220 )    49.25245085
 
     58    -0.649E-01     0.6732487026       49.2524521253       0.51  <-- CONV
        O_D=      4.1610869 O_OD=     25.7557428 O_TOT=     49.2524521 <-- SPRD
 Delta: O_D=  0.2820628E-01 O_OD= -0.9311261E-01 O_TOT= -0.6490634E-01 <-- DLTA
 ------------------------------------------------------------------------------
 Cycle:     59
  WF centre and spread    1  (  0.780224,  2.021045,  1.666660 )     7.65201453
  WF centre and spread    2  (  0.359151, -1.980788, -1.281082 )     7.36370503
  WF centre and spread    3  (  0.066213, -1.880385, -1.165986 )     3.07976918
  WF centre and spread    4  (  0.081842, -1.887830, -1.186694 )     3.26864591
  WF centre and spread    5  (  0.048651,  1.854063,  1.171299 )     2.59240127
  WF centre and spread    6  (  0.030914,  1.853836,  1.168146 )     2.33513076
  WF centre and spread    7  (  0.971270, -2.078152, -1.446100 )    12.91826736
  WF centre and spread    8  (  1.238746,  1.967975,  2.050238 )    10.01754976
  Sum of centres and spreads (  3.577010, -0.130235,  0.976482 )    49.22748380
 
     59    -0.250E-01     0.7586160012       49.2274851004       0.52  <-- CONV
        O_D=      4.2665442 O_OD=     25.6253185 O_TOT=     49.2274851 <-- SPRD
 Delta: O_D=  0.1054573E+00 O_OD= -0.1304243E+00 O_TOT= -0.2496702E-01 <-- DLTA
 ------------------------------------------------------------------------------
 Cycle:     60
  WF centre and spread    1  (  0.779905,  2.020512,  1.667462 )     7.64988263
  WF centre and spread    2  (  0.359240, -1.980574, -1.280243 )     7.37459876
  WF centre and spread    3  (  0.066147, -1.880290, -1.165958 )     3.08097823
[...]
  WF centre and spread    3  (  0.012767, -1.846057, -1.148444 )     2.97552915
  WF centre and spread    4  (  0.013592, -1.838950, -1.159274 )     3.52442538
  WF centre and spread    5  (  0.001392,  1.842351,  1.154838 )     2.27266533
  WF centre and spread    6  ( -0.001255,  1.841943,  1.150366 )     2.22675684
  WF centre and spread    7  (  1.354158, -1.363576, -2.398045 )    11.13035947
  WF centre and spread    8  (  2.172418,  1.114178,  3.327730 )     3.62508405
  Sum of centres and spreads (  3.847959, -0.089431,  0.941920 )    37.27572235
 
    484    -0.530E-02     0.8518113094       37.2757243695       4.18  <-- CONV
        O_D=      5.1750910 O_OD=     12.7650110 O_TOT=     37.2757244 <-- SPRD
 Delta: O_D=  0.3756416E-02 O_OD= -0.9051464E-02 O_TOT= -0.5295047E-02 <-- DLTA
 ------------------------------------------------------------------------------
 Cycle:    485
  WF centre and spread    1  (  0.118050,  1.971113,  1.264394 )     2.86922440
  WF centre and spread    2  (  0.176457, -1.810447, -1.249236 )     8.64822015
  WF centre and spread    3  (  0.012736, -1.846066, -1.148411 )     2.97511953
  WF centre and spread    4  (  0.013552, -1.838958, -1.159227 )     3.52400818
  WF centre and spread    5  (  0.001381,  1.842352,  1.154834 )     2.27262185
  WF centre and spread    6  ( -0.001262,  1.841942,  1.150361 )     2.22679098
  WF centre and spread    7  (  1.356545, -1.363044, -2.397480 )    11.13387078
  WF centre and spread    8  (  2.172728,  1.114029,  3.328052 )     3.62343833
  Sum of centres and spreads (  3.850189, -0.089078,  0.943287 )    37.27329421
 
    485    -0.243E-02     0.9562519635       37.2732962352       4.19  <-- CONV
        O_D=      5.1777492 O_OD=     12.7599247 O_TOT=     37.2732962 <-- SPRD
 Delta: O_D=  0.2658187E-02 O_OD= -0.5086321E-02 O_TOT= -0.2428134E-02 <-- DLTA
 ------------------------------------------------------------------------------
 Cycle:    486
  WF centre and spread    1  (  0.118037,  1.971117,  1.264381 )     2.86915870
  WF centre and spread    2  (  0.176391, -1.810397, -1.249262 )     8.64816924
  WF centre and spread    3  (  0.012734, -1.846067, -1.148410 )     2.97510860
  WF centre and spread    4  (  0.013548, -1.838958, -1.159226 )     3.52400022
  WF centre and spread    5  (  0.001380,  1.842352,  1.154834 )     2.27261972
  WF centre and spread    6  ( -0.001262,  1.841942,  1.150361 )     2.22679243
  WF centre and spread    7  (  1.355546, -1.363245, -2.398660 )    11.13139615
  WF centre and spread    8  (  2.172742,  1.114023,  3.328067 )     3.62336588
  Sum of centres and spreads (  3.849116, -0.089231,  0.942084 )    37.27061093
 
    486    -0.268E-02     1.5255988924       37.2706129594       4.20  <-- CONV
        O_D=      5.1753588 O_OD=     12.7596317 O_TOT=     37.2706130 <-- SPRD
 Delta: O_D= -0.2390312E-02 O_OD= -0.2929634E-03 O_TOT= -0.2683276E-02 <-- DLTA
 ------------------------------------------------------------------------------
 Cycle:    487
  WF centre and spread    1  (  0.117993,  1.971132,  1.264336 )     2.86892526
  WF centre and spread    2  (  0.176301, -1.810412, -1.248979 )     8.64814186
  WF centre and spread    3  (  0.012726, -1.846068, -1.148401 )     2.97510320
  WF centre and spread    4  (  0.013537, -1.838960, -1.159209 )     3.52402749
  WF centre and spread    5  (  0.001379,  1.842352,  1.154833 )     2.27261301
  WF centre and spread    6  ( -0.001263,  1.841942,  1.150360 )     2.22679804
  WF centre and spread    7  (  1.354706, -1.363493, -2.396517 )    11.12900401
  WF centre and spread    8  (  2.172791,  1.114000,  3.328117 )     3.62311232
  Sum of centres and spreads (  3.848169, -0.089506,  0.944540 )    37.26772519
 
    487    -0.289E-02     1.0033170690       37.2677272167       4.21  <-- CONV
        O_D=      5.1729345 O_OD=     12.7591703 O_TOT=     37.2677272 <-- SPRD
 Delta: O_D= -0.2424379E-02 O_OD= -0.4613636E-03 O_TOT= -0.2885743E-02 <-- DLTA
 ------------------------------------------------------------------------------
 Cycle:    488
  WF centre and spread    1  (  0.117937,  1.971151,  1.264279 )     2.86863556
  WF centre and spread    2  (  0.176322, -1.810603, -1.248813 )     8.64778123
  WF centre and spread    3  (  0.012721, -1.846072, -1.148393 )     2.97503273
  WF centre and spread    4  (  0.013529, -1.838965, -1.159197 )     3.52396310
  WF centre and spread    5  (  0.001377,  1.842353,  1.154832 )     2.27260455
  WF centre and spread    6  ( -0.001264,  1.841942,  1.150359 )     2.22680476
  WF centre and spread    7  (  1.355942, -1.363421, -2.396166 )    11.12801930
  WF centre and spread    8  (  2.172851,  1.113971,  3.328180 )     3.62279120
  Sum of centres and spreads (  3.849414, -0.089645,  0.945082 )    37.26563243
 
    488    -0.209E-02     0.9853086897       37.2656344560       4.21  <-- CONV
        O_D=      5.1720355 O_OD=     12.7579766 O_TOT=     37.2656345 <-- SPRD
 Delta: O_D= -0.8989857E-03 O_OD= -0.1193775E-02 O_TOT= -0.2092761E-02 <-- DLTA
 ------------------------------------------------------------------------------
 Cycle:    489
  WF centre and spread    1  (  0.117749,  1.971213,  1.264089 )     2.86765370
  WF centre and spread    2  (  0.176167, -1.810875, -1.248699 )     8.64648656
  WF centre and spread    3  (  0.012697, -1.846081, -1.148375 )     2.97469870
  WF centre and spread    4  (  0.013497, -1.838974, -1.159174 )     3.52356212
  WF centre and spread    5  (  0.001369,  1.842353,  1.154829 )     2.27257522
  WF centre and spread    6  ( -0.001268,  1.841941,  1.150356 )     2.22682647
  WF centre and spread    7  (  1.356506, -1.363578, -2.397051 )    11.12883412
  WF centre and spread    8  (  2.173055,  1.113873,  3.328392 )     3.62170104
  Sum of centres and spreads (  3.849773, -0.090127,  0.944366 )    37.26233794
 
    489    -0.329E-02     0.6043295028       37.2623399602       4.22  <-- CONV
        O_D=      5.1734309 O_OD=     12.7532866 O_TOT=     37.2623400 <-- SPRD
 Delta: O_D=  0.1395440E-02 O_OD= -0.4689936E-02 O_TOT= -0.3294496E-02 <-- DLTA
 ------------------------------------------------------------------------------
 Cycle:    490
  WF centre and spread    1  (  0.117693,  1.971232,  1.264032 )     2.86735769
  WF centre and spread    2  (  0.176083, -1.810910, -1.248687 )     8.64613133
  WF centre and spread    3  (  0.012690, -1.846083, -1.148370 )     2.97460100
  WF centre and spread    4  (  0.013485, -1.838976, -1.159168 )     3.52344391
  WF centre and spread    5  (  0.001367,  1.842354,  1.154828 )     2.27256631
  WF centre and spread    6  ( -0.001270,  1.841941,  1.150355 )     2.22683303
  WF centre and spread    7  (  1.356036, -1.363703, -2.397905 )    11.12924705
  WF centre and spread    8  (  2.173117,  1.113843,  3.328456 )     3.62137265
  Sum of centres and spreads (  3.849200, -0.090303,  0.943541 )    37.26155299
 
    490    -0.785E-03     0.8832343679       37.2615550100       4.23  <-- CONV
        O_D=      5.1739967 O_OD=     12.7519359 O_TOT=     37.2615550 <-- SPRD
 Delta: O_D=  0.5657445E-03 O_OD= -0.1350695E-02 O_TOT= -0.7849502E-03 <-- DLTA
 ------------------------------------------------------------------------------
 Cycle:    491
  WF centre and spread    1  (  0.117582,  1.971268,  1.263920 )     2.86678056
  WF centre and spread    2  (  0.175881, -1.810895, -1.248485 )     8.64570675
  WF centre and spread    3  (  0.012674, -1.846087, -1.148357 )     2.97446085
  WF centre and spread    4  (  0.013461, -1.838979, -1.159149 )     3.52329432
  WF centre and spread    5  (  0.001363,  1.842354,  1.154827 )     2.27254941
  WF centre and spread    6  ( -0.001272,  1.841941,  1.150353 )     2.22684629
  WF centre and spread    7  (  1.354471, -1.363951, -2.397151 )    11.13021652
  WF centre and spread    8  (  2.173236,  1.113786,  3.328581 )     3.62073741
  Sum of centres and spreads (  3.847396, -0.090564,  0.944538 )    37.26059212
 
    491    -0.961E-03     0.5151743513       37.2605941400       4.24  <-- CONV
        O_D=      5.1749393 O_OD=     12.7500324 O_TOT=     37.2605941 <-- SPRD
 Delta: O_D=  0.9426465E-03 O_OD= -0.1903516E-02 O_TOT= -0.9608700E-03 <-- DLTA
 ------------------------------------------------------------------------------
 Cycle:    492
  WF centre and spread    1  (  0.117569,  1.971272,  1.263907 )     2.86671230
  WF centre and spread    2  (  0.175924, -1.810931, -1.248523 )     8.64557141
  WF centre and spread    3  (  0.012674, -1.846088, -1.148357 )     2.97443201
  WF centre and spread    4  (  0.013462, -1.838980, -1.159149 )     3.52326468
  WF centre and spread    5  (  0.001362,  1.842354,  1.154826 )     2.27254742
  WF centre and spread    6  ( -0.001273,  1.841941,  1.150353 )     2.22684789
  WF centre and spread    7  (  1.355525, -1.363736, -2.398169 )    11.12964467
  WF centre and spread    8  (  2.173251,  1.113779,  3.328595 )     3.62066070
  Sum of centres and spreads (  3.848495, -0.090387,  0.943483 )    37.25968108
 
    492    -0.911E-03     0.8726333894       37.2596831060       4.25  <-- CONV
        O_D=      5.1743618 O_OD=     12.7496989 O_TOT=     37.2596831 <-- SPRD
 Delta: O_D= -0.5775300E-03 O_OD= -0.3335041E-03 O_TOT= -0.9110341E-03 <-- DLTA
 ------------------------------------------------------------------------------
 Cycle:    493
  WF centre and spread    1  (  0.117537,  1.971283,  1.263874 )     2.86654358
  WF centre and spread    2  (  0.175930, -1.810931, -1.248405 )     8.64553283
  WF centre and spread    3  (  0.012671, -1.846089, -1.148352 )     2.97440289
  WF centre and spread    4  (  0.013459, -1.838980, -1.159141 )     3.52324839
  WF centre and spread    5  (  0.001361,  1.842354,  1.154826 )     2.27254266
  WF centre and spread    6  ( -0.001273,  1.841941,  1.150352 )     2.22685202
  WF centre and spread    7  (  1.356266, -1.363540, -2.397190 )    11.12946359
  WF centre and spread    8  (  2.173286,  1.113762,  3.328632 )     3.62047557
  Sum of centres and spreads (  3.849236, -0.090200,  0.944596 )    37.25906154
 
    493    -0.620E-03     0.5395616554       37.2590635669       4.26  <-- CONV
        O_D=      5.1740627 O_OD=     12.7493784 O_TOT=     37.2590636 <-- SPRD
 Delta: O_D= -0.2990678E-03 O_OD= -0.3204714E-03 O_TOT= -0.6195391E-03 <-- DLTA
 ------------------------------------------------------------------------------
 Cycle:    494
  WF centre and spread    1  (  0.117396,  1.971330,  1.263731 )     2.86580508
  WF centre and spread    2  (  0.175791, -1.810802, -1.248120 )     8.64519158
  WF centre and spread    3  (  0.012654, -1.846092, -1.148335 )     2.97424859
  WF centre and spread    4  (  0.013437, -1.838981, -1.159116 )     3.52311948
  WF centre and spread    5  (  0.001356,  1.842355,  1.154824 )     2.27252128
  WF centre and spread    6  ( -0.001277,  1.841940,  1.150350 )     2.22686961
  WF centre and spread    7  (  1.356336, -1.363270, -2.396709 )    11.12977991
  WF centre and spread    8  (  2.173440,  1.113689,  3.328791 )     3.61966399
  Sum of centres and spreads (  3.849133, -0.089831,  0.945416 )    37.25719951
 
    494    -0.186E-02     0.7246681023       37.2572015387       4.26  <-- CONV
        O_D=      5.1739902 O_OD=     12.7475889 O_TOT=     37.2572015 <-- SPRD
 Delta: O_D= -0.7252721E-04 O_OD= -0.1789501E-02 O_TOT= -0.1862028E-02 <-- DLTA
 ------------------------------------------------------------------------------
 Cycle:    495
  WF centre and spread    1  (  0.117238,  1.971382,  1.263572 )     2.86498179
  WF centre and spread    2  (  0.175594, -1.810636, -1.247907 )     8.64483840
  WF centre and spread    3  (  0.012635, -1.846095, -1.148317 )     2.97407047
  WF centre and spread    4  (  0.013410, -1.838982, -1.159092 )     3.52296336
  WF centre and spread    5  (  0.001350,  1.842356,  1.154821 )     2.27249748
  WF centre and spread    6  ( -0.001280,  1.841940,  1.150347 )     2.22688910
  WF centre and spread    7  (  1.355304, -1.363202, -2.396963 )    11.13037160
  WF centre and spread    8  (  2.173611,  1.113607,  3.328969 )     3.61876040
  Sum of centres and spreads (  3.847861, -0.089629,  0.945430 )    37.25537259
 
    495    -0.183E-02     1.1095648477       37.2553746172       4.27  <-- CONV
        O_D=      5.1742673 O_OD=     12.7454849 O_TOT=     37.2553746 <-- SPRD
 Delta: O_D=  0.2770691E-03 O_OD= -0.2103991E-02 O_TOT= -0.1826922E-02 <-- DLTA
 ------------------------------------------------------------------------------
 Cycle:    496
  WF centre and spread    1  (  0.117022,  1.971454,  1.263353 )     2.86385012
  WF centre and spread    2  (  0.175444, -1.810595, -1.247772 )     8.64403540
  WF centre and spread    3  (  0.012610, -1.846101, -1.148296 )     2.97376892
  WF centre and spread    4  (  0.013378, -1.838985, -1.159065 )     3.52266275
  WF centre and spread    5  (  0.001341,  1.842357,  1.154818 )     2.27246452
  WF centre and spread    6  ( -0.001285,  1.841939,  1.150343 )     2.22691547
  WF centre and spread    7  (  1.355733, -1.362913, -2.398429 )    11.13220729
  WF centre and spread    8  (  2.173846,  1.113495,  3.329213 )     3.61751402
  Sum of centres and spreads (  3.848091, -0.089349,  0.944164 )    37.25341851
 
    496    -0.195E-02     0.7011179268       37.2534205332       4.28  <-- CONV
        O_D=      5.1759030 O_OD=     12.7418951 O_TOT=     37.2534205 <-- SPRD
 Delta: O_D=  0.1635769E-02 O_OD= -0.3589853E-02 O_TOT= -0.1954084E-02 <-- DLTA
 ------------------------------------------------------------------------------
 Cycle:    497
  WF centre and spread    1  (  0.116813,  1.971523,  1.263140 )     2.86275389
  WF centre and spread    2  (  0.175315, -1.810550, -1.247577 )     8.64326687
  WF centre and spread    3  (  0.012587, -1.846107, -1.148275 )     2.97347327
  WF centre and spread    4  (  0.013348, -1.838988, -1.159037 )     3.52236474
  WF centre and spread    5  (  0.001333,  1.842358,  1.154814 )     2.27243235
  WF centre and spread    6  ( -0.001290,  1.841939,  1.150339 )     2.22694091
  WF centre and spread    7  (  1.356257, -1.362707, -2.399084 )    11.13418970
  WF centre and spread    8  (  2.174074,  1.113386,  3.329450 )     3.61630564
  Sum of centres and spreads (  3.848438, -0.089148,  0.943771 )    37.25172739
 
    497    -0.169E-02     1.0309704678       37.2517294122       4.29  <-- CONV
        O_D=      5.1778536 O_OD=     12.7382534 O_TOT=     37.2517294 <-- SPRD
 Delta: O_D=  0.1950530E-02 O_OD= -0.3641651E-02 O_TOT= -0.1691121E-02 <-- DLTA
 ------------------------------------------------------------------------------
 Cycle:    498
  WF centre and spread    1  (  0.116806,  1.971525,  1.263133 )     2.86271674
  WF centre and spread    2  (  0.175319, -1.810562, -1.247546 )     8.64322425
  WF centre and spread    3  (  0.012587, -1.846108, -1.148274 )     2.97346532
  WF centre and spread    4  (  0.013347, -1.838989, -1.159035 )     3.52235781
  WF centre and spread    5  (  0.001333,  1.842358,  1.154814 )     2.27243127
  WF centre and spread    6  ( -0.001290,  1.841939,  1.150339 )     2.22694176
  WF centre and spread    7  (  1.356378, -1.362721, -2.398549 )    11.13332528
  WF centre and spread    8  (  2.174082,  1.113382,  3.329458 )     3.61626480
  Sum of centres and spreads (  3.848562, -0.089176,  0.944341 )    37.25072723
 
    498    -0.100E-02     1.2384310385       37.2507292533       4.30  <-- CONV
        O_D=      5.1770174 O_OD=     12.7380895 O_TOT=     37.2507293 <-- SPRD
 Delta: O_D= -0.8361892E-03 O_OD= -0.1639697E-03 O_TOT= -0.1000159E-02 <-- DLTA
 ------------------------------------------------------------------------------
 Cycle:    499
  WF centre and spread    1  (  0.116787,  1.971532,  1.263114 )     2.86261648
  WF centre and spread    2  (  0.175329, -1.810600, -1.247534 )     8.64299464
  WF centre and spread    3  (  0.012585, -1.846109, -1.148272 )     2.97342715
  WF centre and spread    4  (  0.013345, -1.838990, -1.159032 )     3.52231177
  WF centre and spread    5  (  0.001332,  1.842358,  1.154814 )     2.27242814
  WF centre and spread    6  ( -0.001290,  1.841939,  1.150339 )     2.22694390
  WF centre and spread    7  (  1.356745, -1.362739, -2.399386 )    11.13271347
  WF centre and spread    8  (  2.174103,  1.113372,  3.329479 )     3.61615268
  Sum of centres and spreads (  3.848935, -0.089238,  0.943522 )    37.24958822
 
    499    -0.114E-02     1.0583515129       37.2495902498       4.31  <-- CONV
        O_D=      5.1764934 O_OD=     12.7374745 O_TOT=     37.2495902 <-- SPRD
 Delta: O_D= -0.5240104E-03 O_OD= -0.6149932E-03 O_TOT= -0.1139004E-02 <-- DLTA
 ------------------------------------------------------------------------------
 Cycle:    500
  WF centre and spread    1  (  0.116743,  1.971546,  1.263070 )     2.86238972
  WF centre and spread    2  (  0.175334, -1.810701, -1.247340 )     8.64282229
  WF centre and spread    3  (  0.012580, -1.846111, -1.148264 )     2.97337720
  WF centre and spread    4  (  0.013339, -1.838993, -1.159020 )     3.52226628
  WF centre and spread    5  (  0.001331,  1.842358,  1.154813 )     2.27242140
  WF centre and spread    6  ( -0.001291,  1.841939,  1.150338 )     2.22694908
  WF centre and spread    7  (  1.357459, -1.362747, -2.397560 )    11.13195147
  WF centre and spread    8  (  2.174150,  1.113350,  3.329529 )     3.61590260
  Sum of centres and spreads (  3.849644, -0.089360,  0.945567 )    37.24808003
 
    500    -0.151E-02     0.9498670818       37.2480820579       4.32  <-- CONV
        O_D=      5.1758486 O_OD=     12.7366111 O_TOT=     37.2480821 <-- SPRD
 Delta: O_D= -0.6447813E-03 O_OD= -0.8634106E-03 O_TOT= -0.1508192E-02 <-- DLTA
 ------------------------------------------------------------------------------

 Writing checkpoint file mp-22870.chk... done

 Final State
  WF centre and spread    1  (  0.116743,  1.971546,  1.263070 )     2.86238972
  WF centre and spread    2  (  0.175334, -1.810701, -1.247340 )     8.64282229
  WF centre and spread    3  (  0.012580, -1.846111, -1.148264 )     2.97337720
  WF centre and spread    4  (  0.013339, -1.838993, -1.159020 )     3.52226628
  WF centre and spread    5  (  0.001331,  1.842358,  1.154813 )     2.27242140
  WF centre and spread    6  ( -0.001291,  1.841939,  1.150338 )     2.22694908
  WF centre and spread    7  (  1.357459, -1.362747, -2.397560 )    11.13195147
  WF centre and spread    8  (  2.174150,  1.113350,  3.329529 )     3.61590260
  Sum of centres and spreads (  3.849644, -0.089360,  0.945567 )    37.24808003
 
         Spreads (Ang^2)       Omega I      =    19.335622421
        ================       Omega D      =     5.175848572
                               Omega OD     =    12.736611065
    Final Spread (Ang^2)       Omega Total  =    37.248082058
 ------------------------------------------------------------------------------
 Time for wannierise            4.312 (sec)

 Writing checkpoint file mp-22870.chk... done

 Time for plotting              0.000 (sec)
 Total Execution Time           5.282 (sec)

 *===========================================================================*
 |                             TIMING INFORMATION                            |
 *===========================================================================*
 |    Tag                                                Ncalls      Time (s)|
 |---------------------------------------------------------------------------|
 |kmesh: get                                        :         1         0.487|
 |overlap: allocate                                 :         1         0.004|
 |overlap: read                                     :         1         0.412|
 |wann: main                                        :         1         4.312|
 |plot: main                                        :         1         0.000|
 *---------------------------------------------------------------------------*
 
 All done: wannier90 exiting
