 
             +---------------------------------------------------+
             |                                                   |
             |                   WANNIER90                       |
             |                                                   |
             +---------------------------------------------------+
             |                                                   |
             |        Welcome to the Maximally-Localized         |
             |        Generalized Wannier Functions code         |
             |            http://www.wannier.org                 |
             |                                                   |
             |                                                   |
             |  Wannier90 Developer Group:                       |
             |    Giovanni Pizzi    (EPFL)                       |
             |    Valerio Vitale    (Cambridge)                  |
             |    David Vanderbilt  (Rutgers University)         |
             |    Nicola Marzari    (EPFL)                       |
             |    Ivo Souza         (Universidad del Pais Vasco) |
             |    Arash A. Mostofi  (Imperial College London)    |
             |    Jonathan R. Yates (University of Oxford)       |
             |                                                   |
             |  For the full list of Wannier90 3.x authors,      |
             |  please check the code documentation and the      |
             |  README on the GitHub page of the code            |
             |                                                   |
             |                                                   |
             |  Please cite                                      |
             |                                                   |
             |  [ref] "Wannier90 as a community code:            |
             |        new features and applications",            |
             |        G. Pizzi et al., J. Phys. Cond. Matt. 32,  |
             |        165902 (2020).                             |
             |        http://doi.org/10.1088/1361-648X/ab51ff    |
             |                                                   |
             |  in any publications arising from the use of      |
             |  this code. For the method please cite            |
             |                                                   |
             |  [ref] "Maximally Localized Generalised Wannier   |
             |         Functions for Composite Energy Bands"     |
             |         N. Marzari and D. Vanderbilt              |
             |         Phys. Rev. B 56 12847 (1997)              |
             |                                                   |
             |  [ref] "Maximally Localized Wannier Functions     |
             |         for Entangled Energy Bands"               |
             |         I. Souza, N. Marzari and D. Vanderbilt    |
             |         Phys. Rev. B 65 035109 (2001)             |
             |                                                   |
             |                                                   |
             | Copyright (c) 1996-2020                           |
             |        The Wannier90 Developer Group and          |
             |        individual contributors                    |
             |                                                   |
             |      Release: 3.1.0        5th March    2020      |
             |                                                   |
             | This program is free software; you can            |
             | redistribute it and/or modify it under the terms  |
             | of the GNU General Public License as published by |
             | the Free Software Foundation; either version 2 of |
             | the License, or (at your option) any later version|
             |                                                   |
             | This program is distributed in the hope that it   |
             | will be useful, but WITHOUT ANY WARRANTY; without |
             | even the implied warranty of MERCHANTABILITY or   |
             | FITNESS FOR A PARTICULAR PURPOSE. See the GNU     |
             | General Public License for more details.          |
             |                                                   |
             | You should have received a copy of the GNU General|
             | Public License along with this program; if not,   |
             | write to the Free Software Foundation, Inc.,      |
             | 675 Mass Ave, Cambridge, MA 02139, USA.           |
             |                                                   |
             +---------------------------------------------------+
             |    Execution started on  8Apr2024 at 15:21:27     |
             +---------------------------------------------------+
 
 ******************************************************************************
 * -> Using CODATA 2006 constant values                                       *
 *    (http://physics.nist.gov/cuu/Constants/index.html)                      *
 * -> Using Bohr value from CODATA                                            *
 ******************************************************************************
 

 Running in parallel on  16 CPUs

 
                                    ------
                                    SYSTEM
                                    ------
 
                              Lattice Vectors (Ang)
                    a_1     2.294375   6.159627   0.000000
                    a_2    -2.294375   6.159627   0.000000
                    a_3     0.000000   0.000000   4.602419
 
                   Unit Cell Volume:     130.08732  (Ang^3)
 
                        Reciprocal-Space Vectors (Ang^-1)
                    b_1     1.369259   0.510030   0.000000
                    b_2    -1.369259   0.510030   0.000000
                    b_3     0.000000   0.000000   1.365192
  
 *----------------------------------------------------------------------------*
 |   Site       Fractional Coordinate          Cartesian Coordinate (Ang)     |
 +----------------------------------------------------------------------------+
 | In   1   0.39345   0.39345   0.25000   |    0.00000   4.84697   1.15060    |
 | In   2   0.60655   0.60655   0.75000   |   -0.00000   7.47229   3.45181    |
 | Br   1   0.15127   0.15127   0.25000   |    0.00000   1.86358   1.15060    |
 | Br   2   0.84873   0.84873   0.75000   |   -0.00000  10.45567   3.45181    |
 *----------------------------------------------------------------------------*
                                ------------
                                K-POINT GRID
                                ------------
  
             Grid size =  8 x  8 x 12      Total points =  768
  
  
 *---------------------------------- MAIN ------------------------------------*
 |  Number of Wannier Functions               :                 8             |
 |  Number of Objective Wannier Functions     :                 8             |
 |  Number of input Bloch states              :                 8             |
 |  Output verbosity (1=low, 5=high)          :                 1             |
 |  Timing Level (1=low, 5=high)              :                 1             |
 |  Optimisation (0=memory, 3=speed)          :                 3             |
 |  Length Unit                               :               Ang             |
 |  Post-processing setup (write *.nnkp)      :                 F             |
 |  Using Gamma-only branch of algorithms     :                 F             |
 *----------------------------------------------------------------------------*
 *------------------------------- WANNIERISE ---------------------------------*
 |  Total number of iterations                :               500             |
 |  Number of CG steps before reset           :                 5             |
 |  Trial step length for line search         :             2.000             |
 |  Convergence tolerence                     :         0.100E-09             |
 |  Convergence window                        :                -1             |
 |  Iterations between writing output         :                 1             |
 |  Iterations between backing up to disk     :               100             |
 |  Write r^2_nm to file                      :                 F             |
 |  Write xyz WF centres to file              :                 F             |
 |  Write on-site energies <0n|H|0n> to file  :                 F             |
 |  Use guiding centre to control phases      :                 F             |
 |  Use phases for initial projections        :                 F             |
 *----------------------------------------------------------------------------*
 Time to read parameters        0.116 (sec)

 *---------------------------------- K-MESH ----------------------------------*
 +----------------------------------------------------------------------------+
 |                    Distance to Nearest-Neighbour Shells                    |
 |                    ------------------------------------                    |
 |          Shell             Distance (Ang^-1)          Multiplicity         |
 |          -----             -----------------          ------------         |
 |             1                   0.113766                      2            |
 |             2                   0.127507                      2            |
 |             3                   0.170883                      4            |
 |             4                   0.182645                      4            |
 |             5                   0.215179                      8            |
 |             6                   0.227532                      2            |
 |             7                   0.255015                      2            |
 |             8                   0.256663                      4            |
 |             9                   0.260824                      4            |
 |            10                   0.279241                      4            |
 |            11                   0.280746                      8            |
 |            12                   0.291771                      8            |
 |            13                   0.341298                      2            |
 |            14                   0.341765                      4            |
 |            15                   0.342315                      2            |
 |            16                   0.342996                      8            |
 |            17                   0.360724                      4            |
 |            18                   0.361812                      4            |
 |            19                   0.364338                      4            |
 |            20                   0.365291                      4            |
 |            21                   0.379277                      8            |
 |            22                   0.382522                      2            |
 |            23                   0.382597                      8            |
 |            24                   0.387096                      8            |
 |            25                   0.399081                      4            |
 |            26                   0.411035                      4            |
 |            27                   0.426048                      4            |
 |            28                   0.426863                      4            |
 |            29                   0.427036                      8            |
 |            30                   0.427410                      8            |
 |            31                   0.430358                      8            |
 |            32                   0.441763                      8            |
 |            33                   0.445078                      4            |
 |            34                   0.455064                      2            |
 |            35                   0.472590                      4            |
 |            36                   0.477972                      4            |
 +----------------------------------------------------------------------------+
 | The b-vectors are chosen automatically                                     |
 | SVD found small singular value, Rejecting this shell and trying the next   |
 | The following shells are used:   1,  2,  4                                 |
 +----------------------------------------------------------------------------+
 |                        Shell   # Nearest-Neighbours                        |
 |                        -----   --------------------                        |
 |                          1               2                                 |
 |                          2               2                                 |
 |                          4               4                                 |
 +----------------------------------------------------------------------------+
 | Completeness relation is fully satisfied [Eq. (B1), PRB 56, 12847 (1997)]  |
 +----------------------------------------------------------------------------+
 |                  b_k Vectors (Ang^-1) and Weights (Ang^2)                  |
 |                  ----------------------------------------                  |
 |            No.         b_k(x)      b_k(y)      b_k(z)        w_b           |
 |            ---        --------------------------------     --------        |
 |             1         0.000000    0.000000    0.113766    38.631814        |
 |             2         0.000000    0.000000   -0.113766    38.631814        |
 |             3         0.000000    0.127507    0.000000    26.486855        |
 |             4         0.000000   -0.127507    0.000000    26.486855        |
 |             5        -0.171157    0.063754    0.000000     8.533929        |
 |             6         0.171157    0.063754    0.000000     8.533929        |
 |             7         0.171157   -0.063754    0.000000     8.533929        |
 |             8        -0.171157   -0.063754    0.000000     8.533929        |
 +----------------------------------------------------------------------------+
 |                           b_k Directions (Ang^-1)                          |
 |                           -----------------------                          |
 |            No.           x           y           z                         |
 |            ---        --------------------------------                     |
 |             1         0.000000    0.000000    0.113766                     |
 |             2         0.000000    0.127507    0.000000                     |
 |             3        -0.171157    0.063754    0.000000                     |
 |             4         0.171157    0.063754    0.000000                     |
 +----------------------------------------------------------------------------+
  
 Time to get kmesh              0.376 (sec)
 *============================================================================*
 |                              MEMORY ESTIMATE                               |
 |         Maximum RAM allocated during each phase of the calculation         |
 *============================================================================*
 |                            Wannierise:           17.21 Mb                  |
 |                          plot_wannier:           17.21 Mb                  |
 *----------------------------------------------------------------------------*
  
 Starting a new Wannier90 calculation ...


 Reading overlaps from mp-22870.mmn    :  Created on  8Apr2024 at 15:21:17

 Reading projections from mp-22870.amn :  Created on  8Apr2024 at 15:21:14  with SCDM

 Time to read overlaps          0.262 (sec)

 Writing checkpoint file mp-22870.chk... done

 
 *------------------------------- WANNIERISE ---------------------------------*
 +--------------------------------------------------------------------+<-- CONV
 | Iter  Delta Spread     RMS Gradient      Spread (Ang^2)      Time  |<-- CONV
 +--------------------------------------------------------------------+<-- CONV
 
 ------------------------------------------------------------------------------
 Initial State
  WF centre and spread    1  (  0.265088, -1.860648, -1.155979 )    18.17661855
  WF centre and spread    2  (  0.206178,  1.900520,  1.144289 )    13.55455321
  WF centre and spread    3  (  0.004707,  1.882513,  1.102023 )     7.13082600
  WF centre and spread    4  (  0.020550,  1.887969,  1.209666 )     7.85240431
  WF centre and spread    5  (  0.011788, -1.866702, -1.193641 )     6.17565981
  WF centre and spread    6  (  0.001044, -1.863496, -1.125557 )     5.33940973
  WF centre and spread    7  (  0.216969,  2.181988,  1.145102 )    20.02984484
  WF centre and spread    8  (  0.269268, -2.011177, -1.164358 )    20.81172578
  Sum of centres and spreads (  0.995591,  0.250968, -0.038456 )    99.07104223
 
      0     0.991E+02     0.0000000000       99.0710430888       0.00  <-- CONV
        O_D=      6.5445742 O_OD=     73.1908514 O_TOT=     99.0710431 <-- SPRD
 ------------------------------------------------------------------------------
 Cycle:      1
  WF centre and spread    1  (  0.265133, -1.860032, -1.155961 )    18.17305148
  WF centre and spread    2  (  0.206270,  1.900565,  1.144291 )    13.55229352
  WF centre and spread    3  (  0.004780,  1.882537,  1.102055 )     7.12819356
  WF centre and spread    4  (  0.020627,  1.887994,  1.209623 )     7.84962499
  WF centre and spread    5  (  0.011838, -1.866645, -1.193615 )     6.17365574
  WF centre and spread    6  (  0.001085, -1.863454, -1.125575 )     5.33779573
  WF centre and spread    7  (  0.217245,  2.181773,  1.145107 )    20.01753266
  WF centre and spread    8  (  0.269443, -2.000459, -1.164349 )    20.76568608
  Sum of centres and spreads (  0.996421,  0.262278, -0.038424 )    98.99783376
 
      1    -0.732E-01     4.1166575753       98.9978346157       0.01  <-- CONV
        O_D=      6.4840499 O_OD=     73.1781672 O_TOT=     98.9978346 <-- SPRD
 Delta: O_D= -0.6052425E-01 O_OD= -0.1268423E-01 O_TOT= -0.7320847E-01 <-- DLTA
 ------------------------------------------------------------------------------
 Cycle:      2
  WF centre and spread    1  (  0.269075, -1.859638, -1.156145 )    18.05363719
  WF centre and spread    2  (  0.210071,  1.902474,  1.144220 )    13.47025935
  WF centre and spread    3  (  0.007822,  1.883458,  1.103060 )     7.02231577
  WF centre and spread    4  (  0.023833,  1.888973,  1.208148 )     7.73864073
  WF centre and spread    5  (  0.014044, -1.866707, -1.192489 )     6.06943605
  WF centre and spread    6  (  0.002946, -1.863602, -1.126478 )     5.25224144
  WF centre and spread    7  (  0.228072,  2.173448,  1.145004 )    19.62751202
  WF centre and spread    8  (  0.273489, -1.998168, -1.164123 )    20.50864892
  Sum of centres and spreads (  1.029353,  0.260238, -0.038803 )    97.74269148
 
      2    -0.126E+01     2.2062342918       97.7426923311       0.02  <-- CONV
        O_D=      5.7326324 O_OD=     72.6744425 O_TOT=     97.7426923 <-- SPRD
 Delta: O_D= -0.7514176E+00 O_OD= -0.5037247E+00 O_TOT= -0.1255142E+01 <-- DLTA
 ------------------------------------------------------------------------------
 Cycle:      3
  WF centre and spread    1  (  0.287075, -1.891872, -1.157781 )    18.21237467
  WF centre and spread    2  (  0.224059,  1.906711,  1.144139 )    13.22206573
  WF centre and spread    3  (  0.017748,  1.885927,  1.106089 )     6.68240809
  WF centre and spread    4  (  0.034347,  1.891568,  1.203712 )     7.38043900
  WF centre and spread    5  (  0.021176, -1.867896, -1.189121 )     5.75343239
  WF centre and spread    6  (  0.008958, -1.864846, -1.129250 )     4.99288023
  WF centre and spread    7  (  0.256958,  2.157121,  1.144212 )    19.41740909
  WF centre and spread    8  (  0.292805, -2.020375, -1.164834 )    20.26607035
  Sum of centres and spreads (  1.143126,  0.196338, -0.042833 )    95.92707957
 
      3    -0.182E+01     1.7725092979       95.9270804261       0.02  <-- CONV
        O_D=      5.2585296 O_OD=     71.3329334 O_TOT=     95.9270804 <-- SPRD
 Delta: O_D= -0.4741028E+00 O_OD= -0.1341509E+01 O_TOT= -0.1815612E+01 <-- DLTA
 ------------------------------------------------------------------------------
 Cycle:      4
  WF centre and spread    1  (  0.291552, -1.876104, -1.158229 )    17.89360128
  WF centre and spread    2  (  0.225873,  1.906780,  1.144123 )    13.16628000
  WF centre and spread    3  (  0.018575,  1.886136,  1.106285 )     6.64791332
  WF centre and spread    4  (  0.035245,  1.891789,  1.203366 )     7.34185111
  WF centre and spread    5  (  0.021710, -1.867992, -1.188975 )     5.73866393
  WF centre and spread    6  (  0.009403, -1.864951, -1.129390 )     4.98129860
  WF centre and spread    7  (  0.260111,  2.158343,  1.144254 )    19.40487538
  WF centre and spread    8  (  0.296380, -2.016998, -1.165493 )    20.25866625
  Sum of centres and spreads (  1.158849,  0.217003, -0.044059 )    95.43314986
 
      4    -0.494E+00     3.2844567996       95.4331507165       0.03  <-- CONV
        O_D=      4.9890014 O_OD=     71.1085318 O_TOT=     95.4331507 <-- SPRD
 Delta: O_D= -0.2695282E+00 O_OD= -0.2244015E+00 O_TOT= -0.4939297E+00 <-- DLTA
 ------------------------------------------------------------------------------
 Cycle:      5
  WF centre and spread    1  (  0.322752, -1.860829, -1.161665 )    17.65173841
  WF centre and spread    2  (  0.241803,  1.907661,  1.144430 )    12.70225062
  WF centre and spread    3  (  0.025953,  1.887814,  1.108060 )     6.34532979
  WF centre and spread    4  (  0.043284,  1.893508,  1.200602 )     7.00460443
  WF centre and spread    5  (  0.026938, -1.866985, -1.187804 )     5.52326454
  WF centre and spread    6  (  0.013669, -1.864465, -1.130445 )     4.80936688
  WF centre and spread    7  (  0.286924,  2.168922,  1.145109 )    19.48624854
  WF centre and spread    8  (  0.332597, -1.958955, -1.170792 )    20.92182054
  Sum of centres and spreads (  1.293920,  0.306671, -0.052505 )    94.44462374
 
      5    -0.989E+00     1.6210943803       94.4446245937       0.03  <-- CONV
        O_D=      5.9115968 O_OD=     69.1974103 O_TOT=     94.4446246 <-- SPRD
 Delta: O_D=  0.9225954E+00 O_OD= -0.1911122E+01 O_TOT= -0.9885261E+00 <-- DLTA
 ------------------------------------------------------------------------------
 Cycle:      6
  WF centre and spread    1  (  0.328638, -1.864040, -1.161800 )    17.62242953
  WF centre and spread    2  (  0.245844,  1.907850,  1.144550 )    12.64574592
  WF centre and spread    3  (  0.027747,  1.888064,  1.108400 )     6.30202668
  WF centre and spread    4  (  0.045265,  1.893732,  1.200155 )     6.95629385
  WF centre and spread    5  (  0.028154, -1.865605, -1.187526 )     5.52027954
  WF centre and spread    6  (  0.014659, -1.863560, -1.130612 )     4.80635458
  WF centre and spread    7  (  0.294756,  2.167973,  1.144975 )    19.45178540
  WF centre and spread    8  (  0.340808, -1.980007, -1.170890 )    20.38011013
  Sum of centres and spreads (  1.325871,  0.284407, -0.052748 )    93.68502563
 
      6    -0.760E+00     2.8936376909       93.6850264859       0.04  <-- CONV
        O_D=      5.3825819 O_OD=     68.9668271 O_TOT=     93.6850265 <-- SPRD
 Delta: O_D= -0.5290149E+00 O_OD= -0.2305832E+00 O_TOT= -0.7595981E+00 <-- DLTA
 ------------------------------------------------------------------------------
 Cycle:      7
  WF centre and spread    1  (  0.370580, -1.877801, -1.164292 )    17.69894157
  WF centre and spread    2  (  0.272366,  1.909189,  1.145010 )    12.23604045
  WF centre and spread    3  (  0.039524,  1.889505,  1.110041 )     6.00030735
  WF centre and spread    4  (  0.058234,  1.895144,  1.197694 )     6.62224760
  WF centre and spread    5  (  0.036625, -1.866198, -1.185730 )     5.30435681
  WF centre and spread    6  (  0.021552, -1.864275, -1.132114 )     4.63204699
  WF centre and spread    7  (  0.346250,  2.162291,  1.143944 )    19.34286285
  WF centre and spread    8  (  0.390503, -2.010490, -1.172650 )    20.21686475
  Sum of centres and spreads (  1.535635,  0.237364, -0.058096 )    92.05366837
 
      7    -0.163E+01     1.4473367801       92.0536692275       0.04  <-- CONV
        O_D=      5.6494393 O_OD=     67.0686124 O_TOT=     92.0536692 <-- SPRD
 Delta: O_D=  0.2668574E+00 O_OD= -0.1898215E+01 O_TOT= -0.1631357E+01 <-- DLTA
 ------------------------------------------------------------------------------
 Cycle:      8
  WF centre and spread    1  (  0.610494, -1.872510, -1.195089 )    19.56985750
  WF centre and spread    2  (  0.376856,  1.917356,  1.147811 )    10.78006583
  WF centre and spread    3  (  0.085954,  1.892945,  1.121268 )     4.80700903
  WF centre and spread    4  (  0.108376,  1.898086,  1.181956 )     5.29777911
  WF centre and spread    5  (  0.070552, -1.868002, -1.173816 )     4.67176972
  WF centre and spread    6  (  0.050193, -1.866103, -1.140754 )     4.08031930
  WF centre and spread    7  (  0.551860,  2.067547,  1.172397 )    24.15197167
  WF centre and spread    8  (  0.632840, -1.916734, -1.218929 )    24.69350230
  Sum of centres and spreads (  2.487126,  0.252585, -0.105155 )    98.05227446
 
      8     0.600E+01     1.8966686917       98.0522753385       0.05  <-- CONV
        O_D=     13.8262290 O_OD=     64.8904289 O_TOT=     98.0522753 <-- SPRD
 Delta: O_D=  0.8176790E+01 O_OD= -0.2178184E+01 O_TOT=  0.5998606E+01 <-- DLTA
 ------------------------------------------------------------------------------
 Cycle:      9
  WF centre and spread    1  (  0.613052, -1.869912, -1.192947 )    19.16002557
  WF centre and spread    2  (  0.378049,  1.917281,  1.148626 )    10.73939468
  WF centre and spread    3  (  0.086552,  1.892895,  1.121510 )     4.77777933
  WF centre and spread    4  (  0.109082,  1.897949,  1.182103 )     5.26733274
  WF centre and spread    5  (  0.071409, -1.867805, -1.173712 )     4.63560351
  WF centre and spread    6  (  0.050854, -1.865959, -1.140730 )     4.05389948
  WF centre and spread    7  (  0.576316,  2.114842,  1.156214 )    21.51756270
  WF centre and spread    8  (  0.631267, -1.924494, -1.205841 )    23.84021403
  Sum of centres and spreads (  2.516582,  0.294796, -0.104778 )    93.99181204
 
      9    -0.406E+01     9.9774268957       93.9918129072       0.06  <-- CONV
        O_D=     10.4435438 O_OD=     64.2126516 O_TOT=     93.9918129 <-- SPRD
 Delta: O_D= -0.3382685E+01 O_OD= -0.6777773E+00 O_TOT= -0.4060462E+01 <-- DLTA
 ------------------------------------------------------------------------------
 Cycle:     10
  WF centre and spread    1  (  0.620529, -1.862685, -1.188571 )    17.77456540
  WF centre and spread    2  (  0.385098,  1.921878,  1.148323 )    10.41192026
  WF centre and spread    3  (  0.089904,  1.893806,  1.121718 )     4.62545117
  WF centre and spread    4  (  0.112930,  1.898978,  1.181570 )     5.09859298
  WF centre and spread    5  (  0.075427, -1.866659, -1.173563 )     4.45753141
  WF centre and spread    6  (  0.053897, -1.865290, -1.140691 )     3.92098061
  WF centre and spread    7  (  0.611247,  2.140328,  1.142691 )    19.63755626
  WF centre and spread    8  (  0.663439, -1.908151, -1.200242 )    21.41277009
  Sum of centres and spreads (  2.612470,  0.352205, -0.108764 )    87.33936817
 
     10    -0.665E+01     5.2020141465       87.3393690364       0.06  <-- CONV
        O_D=      7.5395526 O_OD=     60.4641990 O_TOT=     87.3393690 <-- SPRD
 Delta: O_D= -0.2903991E+01 O_OD= -0.3748453E+01 O_TOT= -0.6652444E+01 <-- DLTA
 ------------------------------------------------------------------------------
 Cycle:     11
  WF centre and spread    1  (  0.629582, -1.851585, -1.188167 )    17.16476326
  WF centre and spread    2  (  0.388943,  1.920766,  1.148271 )    10.28268434
  WF centre and spread    3  (  0.091560,  1.893847,  1.121735 )     4.56582600
  WF centre and spread    4  (  0.114831,  1.898946,  1.181314 )     5.03291124
  WF centre and spread    5  (  0.077574, -1.865669, -1.173380 )     4.38652058
  WF centre and spread    6  (  0.055496, -1.864630, -1.140725 )     3.86418850
  WF centre and spread    7  (  0.621076,  2.133900,  1.136449 )    18.95880148
  WF centre and spread    8  (  0.664142, -1.938586, -1.202372 )    20.19302306
  Sum of centres and spreads (  2.643204,  0.326989, -0.116874 )    84.44871844
 
     11    -0.289E+01     5.2565736502       84.4487193081       0.07  <-- CONV
        O_D=      6.4914373 O_OD=     58.6216645 O_TOT=     84.4487193 <-- SPRD
 Delta: O_D= -0.1048115E+01 O_OD= -0.1842534E+01 O_TOT= -0.2890650E+01 <-- DLTA
 ------------------------------------------------------------------------------
 Cycle:     12
  WF centre and spread    1  (  0.654715, -1.862241, -1.189619 )    16.34795328
  WF centre and spread    2  (  0.399438,  1.916137,  1.150057 )    10.02459991
  WF centre and spread    3  (  0.094877,  1.893768,  1.122135 )     4.48091380
  WF centre and spread    4  (  0.118655,  1.898564,  1.181322 )     4.93864856
  WF centre and spread    5  (  0.081165, -1.863950, -1.173015 )     4.27154096
  WF centre and spread    6  (  0.058211, -1.863378, -1.140835 )     3.76659402
  WF centre and spread    7  (  0.644278,  2.113125,  1.144127 )    18.13896942
  WF centre and spread    8  (  0.686739, -1.951203, -1.195497 )    19.24200883
  Sum of centres and spreads (  2.738079,  0.280822, -0.101324 )    81.21122878
 
     12    -0.324E+01     2.9234182183       81.2112296424       0.07  <-- CONV
        O_D=      6.2008257 O_OD=     55.6747864 O_TOT=     81.2112296 <-- SPRD
 Delta: O_D= -0.2906116E+00 O_OD= -0.2946878E+01 O_TOT= -0.3237490E+01 <-- DLTA
 ------------------------------------------------------------------------------
 Cycle:     13
  WF centre and spread    1  (  0.687420, -1.855028, -1.196499 )    15.86490081
  WF centre and spread    2  (  0.413785,  1.914421,  1.150022 )     9.83551591
  WF centre and spread    3  (  0.099030,  1.894080,  1.122465 )     4.44280662
  WF centre and spread    4  (  0.123471,  1.898944,  1.180404 )     4.89497479
  WF centre and spread    5  (  0.084657, -1.861321, -1.173170 )     4.16720497
  WF centre and spread    6  (  0.060946, -1.861576, -1.141342 )     3.67356922
  WF centre and spread    7  (  0.672091,  2.116132,  1.132095 )    17.62058334
  WF centre and spread    8  (  0.721765, -1.917310, -1.206119 )    18.43954471
  Sum of centres and spreads (  2.863165,  0.328342, -0.132143 )    78.93910038
 
     13    -0.227E+01     2.3953103914       78.9391012428       0.07  <-- CONV
        O_D=      6.0464154 O_OD=     53.5570683 O_TOT=     78.9391012 <-- SPRD
 Delta: O_D= -0.1544103E+00 O_OD= -0.2117718E+01 O_TOT= -0.2272128E+01 <-- DLTA
 ------------------------------------------------------------------------------
 Cycle:     14
  WF centre and spread    1  (  0.731179, -1.831695, -1.205845 )    15.18424181
  WF centre and spread    2  (  0.437945,  1.912382,  1.149229 )     9.58735292
  WF centre and spread    3  (  0.106624,  1.894276,  1.122756 )     4.40194281
  WF centre and spread    4  (  0.132194,  1.899313,  1.179015 )     4.84666106
  WF centre and spread    5  (  0.090013, -1.859391, -1.173183 )     4.06979458
  WF centre and spread    6  (  0.065328, -1.860267, -1.142317 )     3.59011553
  WF centre and spread    7  (  0.716034,  2.117046,  1.144123 )    17.16833107
  WF centre and spread    8  (  0.767929, -1.850401, -1.213354 )    18.30269909
  Sum of centres and spreads (  3.047246,  0.421263, -0.139575 )    77.15113887
 
     14    -0.179E+01     2.3614184114       77.1511397398       0.08  <-- CONV
        O_D=      6.6640595 O_OD=     51.1514627 O_TOT=     77.1511397 <-- SPRD
 Delta: O_D=  0.6176441E+00 O_OD= -0.2405606E+01 O_TOT= -0.1787962E+01 <-- DLTA
 ------------------------------------------------------------------------------
 Cycle:     15
  WF centre and spread    1  (  0.744131, -1.821015, -1.211905 )    14.33122952
  WF centre and spread    2  (  0.445014,  1.906628,  1.148641 )     9.04799257
  WF centre and spread    3  (  0.110547,  1.893811,  1.122766 )     4.16692785
  WF centre and spread    4  (  0.136477,  1.898900,  1.177662 )     4.57292315
  WF centre and spread    5  (  0.093086, -1.856578, -1.173388 )     3.90683740
  WF centre and spread    6  (  0.067707, -1.858534, -1.143596 )     3.45628023
  WF centre and spread    7  (  0.751851,  2.076874,  1.126882 )    16.16924452
  WF centre and spread    8  (  0.800671, -1.869462, -1.243078 )    16.73863756
  Sum of centres and spreads (  3.149483,  0.370623, -0.196017 )    72.39007281
 
     15    -0.476E+01     3.1723643293       72.3900736808       0.08  <-- CONV
        O_D=      6.1851375 O_OD=     46.8693187 O_TOT=     72.3900737 <-- SPRD
 Delta: O_D= -0.4789221E+00 O_OD= -0.4282144E+01 O_TOT= -0.4761066E+01 <-- DLTA
 ------------------------------------------------------------------------------
 Cycle:     16
  WF centre and spread    1  (  0.769779, -1.824681, -1.224070 )    13.74531114
  WF centre and spread    2  (  0.452505,  1.904913,  1.146334 )     8.80845508
  WF centre and spread    3  (  0.113440,  1.893259,  1.122827 )     4.05429837
  WF centre and spread    4  (  0.139556,  1.898376,  1.175998 )     4.43761252
  WF centre and spread    5  (  0.095059, -1.855035, -1.173593 )     3.86579985
  WF centre and spread    6  (  0.069354, -1.857547, -1.144605 )     3.42217591
  WF centre and spread    7  (  0.774145,  2.080612,  1.134802 )    15.59461772
  WF centre and spread    8  (  0.824390, -1.858484, -1.235755 )    15.86317881
  Sum of centres and spreads (  3.238228,  0.381413, -0.198061 )    69.79144941
 
     16    -0.260E+01     2.4606814449       69.7914502901       0.09  <-- CONV
        O_D=      5.5890820 O_OD=     44.8667508 O_TOT=     69.7914503 <-- SPRD
 Delta: O_D= -0.5960554E+00 O_OD= -0.2002568E+01 O_TOT= -0.2598623E+01 <-- DLTA
 ------------------------------------------------------------------------------
 Cycle:     17
  WF centre and spread    1  (  0.790578, -1.823013, -1.231439 )    13.10904603
  WF centre and spread    2  (  0.458251,  1.899265,  1.141626 )     8.45031407
  WF centre and spread    3  (  0.116042,  1.891574,  1.122867 )     3.89237287
  WF centre and spread    4  (  0.142138,  1.896608,  1.173326 )     4.24370527
  WF centre and spread    5  (  0.099058, -1.854583, -1.173559 )     3.69888767
  WF centre and spread    6  (  0.072071, -1.857123, -1.146485 )     3.28662838
  WF centre and spread    7  (  0.781221,  2.048524,  1.139226 )    15.42620256
  WF centre and spread    8  (  0.857249, -1.841710, -1.258181 )    15.25477352
  Sum of centres and spreads (  3.316609,  0.359542, -0.232619 )    67.36193038
 
     17    -0.243E+01     2.0542994673       67.3619312583       0.09  <-- CONV
        O_D=      5.9250665 O_OD=     42.1012472 O_TOT=     67.3619313 <-- SPRD
 Delta: O_D=  0.3359845E+00 O_OD= -0.2765504E+01 O_TOT= -0.2429519E+01 <-- DLTA
 ------------------------------------------------------------------------------
 Cycle:     18
  WF centre and spread    1  (  0.798057, -1.822780, -1.247679 )    12.82581678
  WF centre and spread    2  (  0.457005,  1.896466,  1.137895 )     8.34534495
  WF centre and spread    3  (  0.116396,  1.890550,  1.122869 )     3.82037543
  WF centre and spread    4  (  0.142334,  1.895659,  1.171409 )     4.15743524
  WF centre and spread    5  (  0.100457, -1.854614, -1.173498 )     3.61428399
  WF centre and spread    6  (  0.072991, -1.857126, -1.147777 )     3.21459463
  WF centre and spread    7  (  0.804082,  2.062222,  1.115099 )    15.12889167
  WF centre and spread    8  (  0.887135, -1.832447, -1.279790 )    15.29297940
  Sum of centres and spreads (  3.378458,  0.377930, -0.301471 )    66.39972209
 
     18    -0.962E+00     2.7246831874       66.3997229706       0.10  <-- CONV
        O_D=      6.0947594 O_OD=     40.9693461 O_TOT=     66.3997230 <-- SPRD
 Delta: O_D=  0.1696928E+00 O_OD= -0.1131901E+01 O_TOT= -0.9622083E+00 <-- DLTA
 ------------------------------------------------------------------------------
 Cycle:     19
  WF centre and spread    1  (  0.798213, -1.822671, -1.247657 )    12.82311420
  WF centre and spread    2  (  0.457002,  1.896445,  1.137925 )     8.34436817
  WF centre and spread    3  (  0.116396,  1.890546,  1.122874 )     3.82009554
  WF centre and spread    4  (  0.142335,  1.895654,  1.171412 )     4.15711387
  WF centre and spread    5  (  0.100494, -1.854589, -1.173491 )     3.61383303
  WF centre and spread    6  (  0.073015, -1.857110, -1.147774 )     3.21426280
  WF centre and spread    7  (  0.804033,  2.061969,  1.115360 )    15.11960193
  WF centre and spread    8  (  0.883112, -1.834115, -1.279705 )    15.19560807
  Sum of centres and spreads (  3.374600,  0.376129, -0.301055 )    66.28799760
 
     19    -0.112E+00     7.6651848411       66.2879984895       0.10  <-- CONV
        O_D=      5.9939409 O_OD=     40.9584401 O_TOT=     66.2879985 <-- SPRD
 Delta: O_D= -0.1008185E+00 O_OD= -0.1090596E-01 O_TOT= -0.1117245E+00 <-- DLTA
 ------------------------------------------------------------------------------
 Cycle:     20
  WF centre and spread    1  (  0.798439, -1.822446, -1.247607 )    12.80191265
  WF centre and spread    2  (  0.456976,  1.896313,  1.138082 )     8.33825614
  WF centre and spread    3  (  0.116398,  1.890522,  1.122902 )     3.81834073
  WF centre and spread    4  (  0.142339,  1.895620,  1.171424 )     4.15509317
  WF centre and spread    5  (  0.100550, -1.854549, -1.173473 )     3.61228088
  WF centre and spread    6  (  0.073053, -1.857085, -1.147782 )     3.21300703
  WF centre and spread    7  (  0.803654,  2.060312,  1.116850 )    15.06330479
  WF centre and spread    8  (  0.880192, -1.835935, -1.279091 )    15.10242887
  Sum of centres and spreads (  3.371601,  0.372752, -0.298694 )    66.10462426
 
     20    -0.183E+00     3.2630844934       66.1046251463       0.11  <-- CONV
        O_D=      5.8695536 O_OD=     40.8994540 O_TOT=     66.1046251 <-- SPRD
 Delta: O_D= -0.1243872E+00 O_OD= -0.5898613E-01 O_TOT= -0.1833733E+00 <-- DLTA
 ------------------------------------------------------------------------------
 Cycle:     21
  WF centre and spread    1  (  0.801087, -1.821055, -1.246954 )    12.53526981
  WF centre and spread    2  (  0.456625,  1.894218,  1.140451 )     8.26531709
  WF centre and spread    3  (  0.116428,  1.890142,  1.123323 )     3.79504186
  WF centre and spread    4  (  0.142378,  1.895094,  1.171604 )     4.12869171
  WF centre and spread    5  (  0.100996, -1.854335, -1.173268 )     3.58716469
  WF centre and spread    6  (  0.073355, -1.856947, -1.147952 )     3.19272581
  WF centre and spread    7  (  0.801536,  2.036684,  1.131717 )    14.64603573
  WF centre and spread    8  (  0.876607, -1.844585, -1.267695 )    14.49653996
  Sum of centres and spreads (  3.369012,  0.339217, -0.268775 )    64.64678666
 
     21    -0.146E+01     2.5199614383       64.6467875437       0.11  <-- CONV
        O_D=      5.1644835 O_OD=     40.1466866 O_TOT=     64.6467875 <-- SPRD
 Delta: O_D= -0.7050702E+00 O_OD= -0.7527674E+00 O_TOT= -0.1457838E+01 <-- DLTA
 ------------------------------------------------------------------------------
 Cycle:     22
  WF centre and spread    1  (  0.807479, -1.820341, -1.248708 )    12.33950674
  WF centre and spread    2  (  0.457157,  1.892107,  1.141518 )     8.20767823
  WF centre and spread    3  (  0.116586,  1.889596,  1.123657 )     3.76903343
  WF centre and spread    4  (  0.142532,  1.894479,  1.171312 )     4.09833331
  WF centre and spread    5  (  0.101389, -1.854242, -1.173097 )     3.55189514
  WF centre and spread    6  (  0.073595, -1.856909, -1.148410 )     3.16344838
  WF centre and spread    7  (  0.813438,  2.028900,  1.131038 )    14.27185893
  WF centre and spread    8  (  0.876247, -1.848157, -1.261571 )    14.21720969
  Sum of centres and spreads (  3.388425,  0.325433, -0.264261 )    63.61896385
 
     22    -0.103E+01     1.6984726394       63.6189647342       0.11  <-- CONV
        O_D=      5.0748869 O_OD=     39.2084604 O_TOT=     63.6189647 <-- SPRD
 Delta: O_D= -0.8959657E-01 O_OD= -0.9382262E+00 O_TOT= -0.1027823E+01 <-- DLTA
 ------------------------------------------------------------------------------
 Cycle:     23
  WF centre and spread    1  (  0.808149, -1.824802, -1.252536 )    12.19643948
  WF centre and spread    2  (  0.456956,  1.891386,  1.141370 )     8.17922773
  WF centre and spread    3  (  0.116553,  1.889169,  1.123847 )     3.75382812
  WF centre and spread    4  (  0.142463,  1.894089,  1.170836 )     4.08086149
  WF centre and spread    5  (  0.101875, -1.854173, -1.173005 )     3.54172965
  WF centre and spread    6  (  0.073836, -1.856911, -1.148886 )     3.15178778
  WF centre and spread    7  (  0.820879,  2.032183,  1.124005 )    14.18692849
  WF centre and spread    8  (  0.879807, -1.846648, -1.269568 )    14.09766248
  Sum of centres and spreads (  3.400517,  0.324294, -0.283935 )    63.18846522
 
     23    -0.430E+00     1.6893732053       63.1884661070       0.12  <-- CONV
        O_D=      5.1607771 O_OD=     38.6920715 O_TOT=     63.1884661 <-- SPRD
 Delta: O_D=  0.8589019E-01 O_OD= -0.5163888E+00 O_TOT= -0.4304986E+00 <-- DLTA
 ------------------------------------------------------------------------------
 Cycle:     24
  WF centre and spread    1  (  0.811758, -1.832207, -1.258342 )    12.04255186
  WF centre and spread    2  (  0.455398,  1.890042,  1.141767 )     8.15279427
  WF centre and spread    3  (  0.116166,  1.888350,  1.124314 )     3.73508174
  WF centre and spread    4  (  0.141951,  1.893285,  1.170249 )     4.05940757
  WF centre and spread    5  (  0.102328, -1.854561, -1.172736 )     3.51645281
  WF centre and spread    6  (  0.073994, -1.857204, -1.149650 )     3.12654000
  WF centre and spread    7  (  0.828606,  2.015044,  1.121927 )    14.08837171
  WF centre and spread    8  (  0.887898, -1.846477, -1.288095 )    13.97126990
  Sum of centres and spreads (  3.418099,  0.296271, -0.310565 )    62.69246985
 
     24    -0.496E+00     1.7458669831       62.6924707453       0.12  <-- CONV
        O_D=      5.2170728 O_OD=     38.1397804 O_TOT=     62.6924707 <-- SPRD
 Delta: O_D=  0.5629576E-01 O_OD= -0.5522911E+00 O_TOT= -0.4959954E+00 <-- DLTA
 ------------------------------------------------------------------------------
 Cycle:     25
  WF centre and spread    1  (  0.811326, -1.835436, -1.261507 )    11.71787316
  WF centre and spread    2  (  0.454322,  1.890064,  1.141087 )     8.08892743
  WF centre and spread    3  (  0.115976,  1.888103,  1.124422 )     3.70917986
  WF centre and spread    4  (  0.141678,  1.893108,  1.169876 )     4.02726430
  WF centre and spread    5  (  0.102186, -1.854857, -1.172791 )     3.45746814
  WF centre and spread    6  (  0.073873, -1.857450, -1.150039 )     3.08269465
  WF centre and spread    7  (  0.828727,  2.023741,  1.116880 )    13.88795444
  WF centre and spread    8  (  0.893554, -1.844462, -1.296080 )    13.69867772
  Sum of centres and spreads (  3.421641,  0.302812, -0.328152 )    61.67003970
 
     25    -0.102E+01     1.8202416135       61.6700405873       0.13  <-- CONV
        O_D=      4.9173996 O_OD=     37.4170235 O_TOT=     61.6700406 <-- SPRD
 Delta: O_D= -0.2996733E+00 O_OD= -0.7227569E+00 O_TOT= -0.1022430E+01 <-- DLTA
 ------------------------------------------------------------------------------
 Cycle:     26
  WF centre and spread    1  (  0.813743, -1.841776, -1.265832 )    11.55572773
  WF centre and spread    2  (  0.452871,  1.888443,  1.142294 )     8.03200372
  WF centre and spread    3  (  0.115620,  1.887427,  1.124905 )     3.67846828
  WF centre and spread    4  (  0.141196,  1.892368,  1.169672 )     3.99002714
  WF centre and spread    5  (  0.101891, -1.855575, -1.172665 )     3.39941006
  WF centre and spread    6  (  0.073608, -1.857962, -1.150629 )     3.03780615
  WF centre and spread    7  (  0.829228,  2.011974,  1.128032 )    13.73582066
  WF centre and spread    8  (  0.901050, -1.850103, -1.300707 )    13.54687639
  Sum of centres and spreads (  3.429207,  0.274797, -0.324929 )    60.97614013
 
     26    -0.694E+00     1.2379909618       60.9761410276       0.13  <-- CONV
        O_D=      4.9081458 O_OD=     36.7323778 O_TOT=     60.9761410 <-- SPRD
 Delta: O_D= -0.9253810E-02 O_OD= -0.6846458E+00 O_TOT= -0.6938996E+00 <-- DLTA
 ------------------------------------------------------------------------------
 Cycle:     27
  WF centre and spread    1  (  0.822155, -1.880729, -1.286553 )    11.55665683
  WF centre and spread    2  (  0.451906,  1.889259,  1.136675 )     7.99524369
  WF centre and spread    3  (  0.114064,  1.885528,  1.125820 )     3.60711998
  WF centre and spread    4  (  0.139086,  1.890610,  1.167644 )     3.89992377
  WF centre and spread    5  (  0.100132, -1.858798, -1.172395 )     3.30381740
  WF centre and spread    6  (  0.071890, -1.860341, -1.153097 )     2.95407579
  WF centre and spread    7  (  0.863524,  2.019648,  1.099768 )    14.41088260
  WF centre and spread    8  (  0.931049, -1.879840, -1.333899 )    13.57963029
  Sum of centres and spreads (  3.493805,  0.205336, -0.416036 )    61.30735035
 
     27     0.331E+00     1.0871866354       61.3073512557       0.13  <-- CONV
        O_D=      6.3852762 O_OD=     35.5864576 O_TOT=     61.3073513 <-- SPRD
 Delta: O_D=  0.1477130E+01 O_OD= -0.1145920E+01 O_TOT=  0.3312102E+00 <-- DLTA
 ------------------------------------------------------------------------------
 Cycle:     28
  WF centre and spread    1  (  0.825070, -1.879673, -1.287403 )    11.43017106
  WF centre and spread    2  (  0.452191,  1.889063,  1.135912 )     8.00261817
  WF centre and spread    3  (  0.114085,  1.885479,  1.125734 )     3.60545479
  WF centre and spread    4  (  0.139104,  1.890600,  1.167395 )     3.89737060
  WF centre and spread    5  (  0.100157, -1.858991, -1.172410 )     3.29068309
  WF centre and spread    6  (  0.071874, -1.860494, -1.153198 )     2.94385713
  WF centre and spread    7  (  0.860814,  2.011982,  1.109976 )    13.63301654
  WF centre and spread    8  (  0.928010, -1.880638, -1.334886 )    13.35404819
  Sum of centres and spreads (  3.491306,  0.197327, -0.408879 )    60.15721956
 
     28    -0.115E+01     3.4536258717       60.1572204654       0.14  <-- CONV
        O_D=      5.4483741 O_OD=     35.3732289 O_TOT=     60.1572205 <-- SPRD
 Delta: O_D= -0.9369021E+00 O_OD= -0.2132287E+00 O_TOT= -0.1150131E+01 <-- DLTA
 ------------------------------------------------------------------------------
 Cycle:     29
  WF centre and spread    1  (  0.826490, -1.877471, -1.290529 )    11.09036914
  WF centre and spread    2  (  0.451517,  1.888292,  1.136737 )     8.01826504
  WF centre and spread    3  (  0.113878,  1.885339,  1.125800 )     3.60002725
  WF centre and spread    4  (  0.138801,  1.890526,  1.167004 )     3.89037169
  WF centre and spread    5  (  0.100009, -1.859367, -1.172511 )     3.26528270
  WF centre and spread    6  (  0.071676, -1.860828, -1.153645 )     2.92275075
  WF centre and spread    7  (  0.857742,  2.002041,  1.112836 )    13.15877373
  WF centre and spread    8  (  0.929536, -1.884748, -1.335731 )    13.03785971
  Sum of centres and spreads (  3.489650,  0.183784, -0.410038 )    58.98370001
 
     29    -0.117E+01     1.8749706219       58.9837009196       0.14  <-- CONV
        O_D=      4.8184324 O_OD=     34.8296510 O_TOT=     58.9837009 <-- SPRD
 Delta: O_D= -0.6299416E+00 O_OD= -0.5435779E+00 O_TOT= -0.1173520E+01 <-- DLTA
 ------------------------------------------------------------------------------
 Cycle:     30
  WF centre and spread    1  (  0.826036, -1.884827, -1.299262 )    10.88745479
  WF centre and spread    2  (  0.448546,  1.889831,  1.138426 )     7.99462248
  WF centre and spread    3  (  0.113187,  1.885282,  1.126021 )     3.58593522
  WF centre and spread    4  (  0.137874,  1.890658,  1.166405 )     3.87244289
  WF centre and spread    5  (  0.099579, -1.859669, -1.172807 )     3.25685470
  WF centre and spread    6  (  0.071184, -1.861218, -1.154537 )     2.91199391
  WF centre and spread    7  (  0.860399,  2.004458,  1.108727 )    13.05562299
  WF centre and spread    8  (  0.934550, -1.886827, -1.351417 )    12.86717433
  Sum of centres and spreads (  3.491355,  0.177689, -0.438444 )    58.43210131
 
     30    -0.552E+00     1.0698305702       58.4321022170       0.15  <-- CONV
        O_D=      4.6721492 O_OD=     34.4243356 O_TOT=     58.4321022 <-- SPRD
 Delta: O_D= -0.1462833E+00 O_OD= -0.4053154E+00 O_TOT= -0.5515987E+00 <-- DLTA
 ------------------------------------------------------------------------------
 Cycle:     31
  WF centre and spread    1  (  0.828097, -1.897560, -1.307559 )    10.85510384
  WF centre and spread    2  (  0.446601,  1.892978,  1.137928 )     7.96307942
  WF centre and spread    3  (  0.112286,  1.885319,  1.126453 )     3.56530600
  WF centre and spread    4  (  0.136681,  1.890913,  1.165945 )     3.84557303
  WF centre and spread    5  (  0.098920, -1.860448, -1.173017 )     3.24357915
  WF centre and spread    6  (  0.070486, -1.861912, -1.155519 )     2.89694142
  WF centre and spread    7  (  0.866698,  2.005777,  1.111340 )    12.97415123
  WF centre and spread    8  (  0.939750, -1.902477, -1.360736 )    12.81597261
  Sum of centres and spreads (  3.499519,  0.152589, -0.455164 )    58.15970670
 
     31    -0.272E+00     1.0496495299       58.1597076172       0.15  <-- CONV
        O_D=      4.6774949 O_OD=     34.1465953 O_TOT=     58.1597076 <-- SPRD
 Delta: O_D=  0.5345698E-02 O_OD= -0.2777403E+00 O_TOT= -0.2723946E+00 <-- DLTA
 ------------------------------------------------------------------------------
 Cycle:     32
  WF centre and spread    1  (  0.830959, -1.913005, -1.321669 )    10.75985595
  WF centre and spread    2  (  0.443544,  1.899645,  1.137983 )     7.92376278
  WF centre and spread    3  (  0.110558,  1.885598,  1.127517 )     3.52792806
  WF centre and spread    4  (  0.134433,  1.891582,  1.165547 )     3.79630041
  WF centre and spread    5  (  0.097377, -1.861392, -1.173271 )     3.20686266
  WF centre and spread    6  (  0.069026, -1.862771, -1.157110 )     2.86136692
  WF centre and spread    7  (  0.876727,  1.992389,  1.145550 )    13.79497656
  WF centre and spread    8  (  0.949443, -1.918727, -1.379381 )    12.63259223
  Sum of centres and spreads (  3.512067,  0.113318, -0.454832 )    58.50364558
 
     32     0.344E+00     1.2260033446       58.5036465083       0.15  <-- CONV
        O_D=      5.4732091 O_OD=     33.6948199 O_TOT=     58.5036465 <-- SPRD
 Delta: O_D=  0.7957142E+00 O_OD= -0.4517753E+00 O_TOT=  0.3439389E+00 <-- DLTA
 ------------------------------------------------------------------------------
 Cycle:     33
  WF centre and spread    1  (  0.830919, -1.912999, -1.321602 )    10.75863372
  WF centre and spread    2  (  0.443566,  1.899255,  1.138283 )     7.93272955
  WF centre and spread    3  (  0.110554,  1.885562,  1.127536 )     3.52943335
  WF centre and spread    4  (  0.134432,  1.891534,  1.165562 )     3.79834454
  WF centre and spread    5  (  0.097367, -1.861389, -1.173258 )     3.20656059
  WF centre and spread    6  (  0.069020, -1.862768, -1.157107 )     2.86105680
  WF centre and spread    7  (  0.875913,  1.993670,  1.133449 )    13.35848478
  WF centre and spread    8  (  0.949406, -1.918695, -1.379283 )    12.63174435
  Sum of centres and spreads (  3.511178,  0.114171, -0.466420 )    58.07698768
 
     33    -0.427E+00    11.2227677281       58.0769886078       0.16  <-- CONV
        O_D=      5.0385586 O_OD=     33.7028125 O_TOT=     58.0769886 <-- SPRD
 Delta: O_D= -0.4346505E+00 O_OD=  0.7992601E-02 O_TOT= -0.4266579E+00 <-- DLTA
 ------------------------------------------------------------------------------
 Cycle:     34
  WF centre and spread    1  (  0.830942, -1.913184, -1.321711 )    10.75371468
  WF centre and spread    2  (  0.443792,  1.899126,  1.137787 )     7.94358812
  WF centre and spread    3  (  0.110559,  1.885556,  1.127521 )     3.53067936
  WF centre and spread    4  (  0.134441,  1.891534,  1.165520 )     3.80000144
  WF centre and spread    5  (  0.097354, -1.861396, -1.173254 )     3.20537766
  WF centre and spread    6  (  0.069006, -1.862775, -1.157115 )     2.86003461
  WF centre and spread    7  (  0.875221,  1.996402,  1.125436 )    13.13348933
  WF centre and spread    8  (  0.949514, -1.918802, -1.379557 )    12.62479394
  Sum of centres and spreads (  3.510827,  0.116461, -0.475374 )    57.85167914
 
     34    -0.225E+00     4.0932073811       57.8516800622       0.16  <-- CONV
        O_D=      4.8181757 O_OD=     33.6978869 O_TOT=     57.8516801 <-- SPRD
 Delta: O_D= -0.2203829E+00 O_OD= -0.4925645E-02 O_TOT= -0.2253085E+00 <-- DLTA
 ------------------------------------------------------------------------------
 Cycle:     35
  WF centre and spread    1  (  0.831100, -1.913832, -1.322419 )    10.73469574
  WF centre and spread    2  (  0.444206,  1.899536,  1.136136 )     7.95864612
  WF centre and spread    3  (  0.110547,  1.885607,  1.127497 )     3.53065439
  WF centre and spread    4  (  0.134426,  1.891621,  1.165418 )     3.80013290
  WF centre and spread    5  (  0.097302, -1.861416, -1.173272 )     3.20080683
  WF centre and spread    6  (  0.068955, -1.862802, -1.157165 )     2.85632793
  WF centre and spread    7  (  0.874896,  2.002125,  1.118399 )    12.93551947
  WF centre and spread    8  (  0.949979, -1.919074, -1.381000 )    12.59581925
  Sum of centres and spreads (  3.511411,  0.121765, -0.486408 )    57.61260264
 
     35    -0.239E+00     2.0596505738       57.6126035618       0.16  <-- CONV
        O_D=      4.6322362 O_OD=     33.6447499 O_TOT=     57.6126036 <-- SPRD
 Delta: O_D= -0.1859395E+00 O_OD= -0.5313701E-01 O_TOT= -0.2390765E+00 <-- DLTA
 ------------------------------------------------------------------------------
 Cycle:     36
  WF centre and spread    1  (  0.831601, -1.915728, -1.325397 )    10.67078768
  WF centre and spread    2  (  0.444387,  1.901344,  1.133881 )     7.97547831
  WF centre and spread    3  (  0.110393,  1.885790,  1.127588 )     3.52586290
  WF centre and spread    4  (  0.134234,  1.891908,  1.165268 )     3.79464144
  WF centre and spread    5  (  0.097071, -1.861432, -1.173355 )     3.18437187
  WF centre and spread    6  (  0.068746, -1.862868, -1.157379 )     2.84329653
  WF centre and spread    7  (  0.875147,  2.009740,  1.113628 )    12.78304510
  WF centre and spread    8  (  0.951556, -1.920040, -1.386749 )    12.50314675
  Sum of centres and spreads (  3.513136,  0.128714, -0.502514 )    57.28063059
 
     36    -0.332E+00     1.2533915283       57.2806315093       0.17  <-- CONV
        O_D=      4.5060681 O_OD=     33.4389459 O_TOT=     57.2806315 <-- SPRD
 Delta: O_D= -0.1261680E+00 O_OD= -0.2058040E+00 O_TOT= -0.3319721E+00 <-- DLTA
 ------------------------------------------------------------------------------
 Cycle:     37
  WF centre and spread    1  (  0.832694, -1.920801, -1.333859 )    10.57559965
  WF centre and spread    2  (  0.442743,  1.903954,  1.139219 )     7.94119636
  WF centre and spread    3  (  0.109761,  1.886170,  1.128196 )     3.51565604
  WF centre and spread    4  (  0.133463,  1.892489,  1.165256 )     3.78276062
  WF centre and spread    5  (  0.096269, -1.861418, -1.173547 )     3.15036192
  WF centre and spread    6  (  0.068056, -1.862993, -1.158019 )     2.81546564
  WF centre and spread    7  (  0.876666,  2.014601,  1.114826 )    12.72607648
  WF centre and spread    8  (  0.955898, -1.925964, -1.401902 )    12.39690279
  Sum of centres and spreads (  3.515549,  0.126037, -0.519831 )    56.90401948
 
     37    -0.377E+00     0.9147009305       56.9040204137       0.17  <-- CONV
        O_D=      4.4733782 O_OD=     33.0950247 O_TOT=     56.9040204 <-- SPRD
 Delta: O_D= -0.3268994E-01 O_OD= -0.3439212E+00 O_TOT= -0.3766111E+00 <-- DLTA
 ------------------------------------------------------------------------------
 Cycle:     38
  WF centre and spread    1  (  0.834340, -1.930353, -1.347075 )    10.54877934
  WF centre and spread    2  (  0.440703,  1.910195,  1.142732 )     7.93980305
  WF centre and spread    3  (  0.108545,  1.886938,  1.129348 )     3.49716815
  WF centre and spread    4  (  0.131969,  1.893582,  1.165500 )     3.75968968
  WF centre and spread    5  (  0.094836, -1.861516, -1.173857 )     3.12380064
  WF centre and spread    6  (  0.066824, -1.863245, -1.159086 )     2.79123099
  WF centre and spread    7  (  0.881332,  2.023251,  1.122157 )    12.67180664
  WF centre and spread    8  (  0.962775, -1.936702, -1.420433 )    12.33147160
  Sum of centres and spreads (  3.521324,  0.122150, -0.540714 )    56.66375009
 
     38    -0.240E+00     0.8087732188       56.6637510319       0.17  <-- CONV
        O_D=      4.4745659 O_OD=     32.8535676 O_TOT=     56.6637510 <-- SPRD
 Delta: O_D=  0.1187702E-02 O_OD= -0.2414571E+00 O_TOT= -0.2402694E+00 <-- DLTA
 ------------------------------------------------------------------------------
 Cycle:     39
  WF centre and spread    1  (  0.834754, -1.932502, -1.349509 )    10.50422104
  WF centre and spread    2  (  0.440809,  1.913326,  1.134188 )     7.95602970
  WF centre and spread    3  (  0.108379,  1.887176,  1.129428 )     3.48623985
  WF centre and spread    4  (  0.131754,  1.893917,  1.165429 )     3.74571558
  WF centre and spread    5  (  0.094641, -1.861558, -1.173945 )     3.11378502
  WF centre and spread    6  (  0.066643, -1.863308, -1.159266 )     2.78367294
  WF centre and spread    7  (  0.882458,  2.026129,  1.121787 )    12.61700815
  WF centre and spread    8  (  0.963950, -1.938085, -1.423286 )    12.26341501
  Sum of centres and spreads (  3.523389,  0.125095, -0.555174 )    56.47008729
 
     39    -0.194E+00     1.0620660718       56.4700882274       0.18  <-- CONV
        O_D=      4.4581611 O_OD=     32.6763096 O_TOT=     56.4700882 <-- SPRD
 Delta: O_D= -0.1640481E-01 O_OD= -0.1772580E+00 O_TOT= -0.1936628E+00 <-- DLTA
 ------------------------------------------------------------------------------
 Cycle:     40
  WF centre and spread    1  (  0.835482, -1.937151, -1.354902 )    10.43853746
  WF centre and spread    2  (  0.439374,  1.915514,  1.140291 )     7.83759925
  WF centre and spread    3  (  0.107972,  1.887543,  1.129769 )     3.47620717
  WF centre and spread    4  (  0.131264,  1.894429,  1.165439 )     3.73325843
  WF centre and spread    5  (  0.094160, -1.861648, -1.174103 )     3.09677052
  WF centre and spread    6  (  0.066211, -1.863427, -1.159661 )     2.76995009
  WF centre and spread    7  (  0.885042,  2.030746,  1.120408 )    12.60204778
  WF centre and spread    8  (  0.966584, -1.942718, -1.430016 )    12.17938446
  Sum of centres and spreads (  3.526088,  0.123288, -0.562774 )    56.13375515
 
     40    -0.336E+00     1.0837485894       56.1337560962       0.18  <-- CONV
        O_D=      4.3975260 O_OD=     32.4006126 O_TOT=     56.1337561 <-- SPRD
 Delta: O_D= -0.6063508E-01 O_OD= -0.2756971E+00 O_TOT= -0.3363321E+00 <-- DLTA
 ------------------------------------------------------------------------------
 Cycle:     41
  WF centre and spread    1  (  0.837695, -1.954960, -1.381208 )    10.29577113
  WF centre and spread    2  (  0.435016,  1.928232,  1.150307 )     7.73729911
  WF centre and spread    3  (  0.105814,  1.889280,  1.131895 )     3.45174172
  WF centre and spread    4  (  0.128694,  1.896782,  1.166226 )     3.70381979
  WF centre and spread    5  (  0.091610, -1.861999, -1.174751 )     3.05738614
  WF centre and spread    6  (  0.064004, -1.863862, -1.161438 )     2.73271914
  WF centre and spread    7  (  0.894785,  2.040565,  1.116147 )    13.04336715
  WF centre and spread    8  (  0.978729, -1.967643, -1.466546 )    12.05555179
  Sum of centres and spreads (  3.536348,  0.106395, -0.619370 )    56.07765597
 
     41    -0.561E-01     0.6061101766       56.0776569275       0.18  <-- CONV
        O_D=      4.9146306 O_OD=     31.8274089 O_TOT=     56.0776569 <-- SPRD
 Delta: O_D=  0.5171045E+00 O_OD= -0.5732037E+00 O_TOT= -0.5609917E-01 <-- DLTA
 ------------------------------------------------------------------------------
 Cycle:     42
  WF centre and spread    1  (  0.837725, -1.955055, -1.381290 )    10.29405929
  WF centre and spread    2  (  0.435172,  1.928583,  1.149389 )     7.73244629
  WF centre and spread    3  (  0.105835,  1.889318,  1.131776 )     3.45249972
  WF centre and spread    4  (  0.128717,  1.896847,  1.166048 )     3.70472523
  WF centre and spread    5  (  0.091610, -1.862003, -1.174756 )     3.05705416
  WF centre and spread    6  (  0.063998, -1.863866, -1.161442 )     2.73250062
  WF centre and spread    7  (  0.894671,  2.043278,  1.126702 )    12.71110458
  WF centre and spread    8  (  0.978815, -1.967781, -1.466688 )    12.05284884
  Sum of centres and spreads (  3.536543,  0.109321, -0.610261 )    55.73723874
 
     42    -0.340E+00     9.1757454961       55.7372397000       0.19  <-- CONV
        O_D=      4.5826763 O_OD=     31.8189459 O_TOT=     55.7372397 <-- SPRD
 Delta: O_D= -0.3319543E+00 O_OD= -0.8462938E-02 O_TOT= -0.3404172E+00 <-- DLTA
 ------------------------------------------------------------------------------
 Cycle:     43
  WF centre and spread    1  (  0.837762, -1.955184, -1.381500 )    10.28972634
  WF centre and spread    2  (  0.435325,  1.928927,  1.148584 )     7.73199018
  WF centre and spread    3  (  0.105841,  1.889347,  1.131702 )     3.45428958
  WF centre and spread    4  (  0.128723,  1.896899,  1.165920 )     3.70713372
  WF centre and spread    5  (  0.091597, -1.862005, -1.174763 )     3.05623304
  WF centre and spread    6  (  0.063983, -1.863870, -1.161453 )     2.73186185
  WF centre and spread    7  (  0.894461,  2.046030,  1.131969 )    12.58776536
  WF centre and spread    8  (  0.978950, -1.967932, -1.467031 )    12.04698681
  Sum of centres and spreads (  3.536642,  0.112213, -0.606574 )    55.60598688
 
     43    -0.131E+00     2.9710650637       55.6059878441       0.19  <-- CONV
        O_D=      4.4622853 O_OD=     31.8080851 O_TOT=     55.6059878 <-- SPRD
 Delta: O_D= -0.1203910E+00 O_OD= -0.1086084E-01 O_TOT= -0.1312519E+00 <-- DLTA
 ------------------------------------------------------------------------------
 Cycle:     44
  WF centre and spread    1  (  0.837860, -1.955633, -1.382383 )    10.27307866
  WF centre and spread    2  (  0.435525,  1.929883,  1.147257 )     7.73028923
  WF centre and spread    3  (  0.105805,  1.889433,  1.131658 )     3.45556596
  WF centre and spread    4  (  0.128679,  1.897031,  1.165781 )     3.70914155
  WF centre and spread    5  (  0.091532, -1.862008, -1.174788 )     3.05305037
  WF centre and spread    6  (  0.063922, -1.863881, -1.161499 )     2.72934067
  WF centre and spread    7  (  0.894253,  2.050447,  1.135206 )    12.49717958
  WF centre and spread    8  (  0.979362, -1.968404, -1.468409 )    12.02542374
  Sum of centres and spreads (  3.536940,  0.116866, -0.607177 )    55.47306976
 
     44    -0.133E+00     1.3945705323       55.4730707272       0.19  <-- CONV
        O_D=      4.3787904 O_OD=     31.7586628 O_TOT=     55.4730707 <-- SPRD
 Delta: O_D= -0.8349487E-01 O_OD= -0.4942225E-01 O_TOT= -0.1329171E+00 <-- DLTA
 ------------------------------------------------------------------------------
 Cycle:     45
  WF centre and spread    1  (  0.838319, -1.958224, -1.387212 )    10.20329872
  WF centre and spread    2  (  0.435809,  1.934043,  1.143674 )     7.73679802
  WF centre and spread    3  (  0.105538,  1.889851,  1.131800 )     3.44860952
  WF centre and spread    4  (  0.128351,  1.897627,  1.165629 )     3.70157125
  WF centre and spread    5  (  0.091156, -1.862053, -1.174913 )     3.03925376
  WF centre and spread    6  (  0.063590, -1.863945, -1.161754 )     2.71806821
  WF centre and spread    7  (  0.894881,  2.058730,  1.135193 )    12.39694106
  WF centre and spread    8  (  0.981395, -1.971271, -1.475732 )    11.93653233
  Sum of centres and spreads (  3.539039,  0.124758, -0.623315 )    55.18107288
 
     45    -0.292E+00     0.9499718352       55.1810738493       0.20  <-- CONV
        O_D=      4.3266095 O_OD=     31.5188469 O_TOT=     55.1810738 <-- SPRD
 Delta: O_D= -0.5218093E-01 O_OD= -0.2398159E+00 O_TOT= -0.2919969E+00 <-- DLTA
 ------------------------------------------------------------------------------
 Cycle:     46
  WF centre and spread    1  (  0.839392, -1.966215, -1.400370 )    10.12627880
  WF centre and spread    2  (  0.435351,  1.942173,  1.145067 )     7.71070991
  WF centre and spread    3  (  0.104671,  1.890897,  1.132734 )     3.43070759
  WF centre and spread    4  (  0.127316,  1.899042,  1.165997 )     3.68152287
  WF centre and spread    5  (  0.090012, -1.862251, -1.175233 )     3.02187336
  WF centre and spread    6  (  0.062610, -1.864129, -1.162469 )     2.70097472
  WF centre and spread    7  (  0.898885,  2.069747,  1.136565 )    12.35841487
  WF centre and spread    8  (  0.987055, -1.981007, -1.494915 )    11.84216706
  Sum of centres and spreads (  3.545292,  0.128257, -0.652624 )    54.87264917
 
     46    -0.308E+00     0.7468356257       54.8726501487       0.20  <-- CONV
        O_D=      4.3715039 O_OD=     31.1655287 O_TOT=     54.8726501 <-- SPRD
 Delta: O_D=  0.4489446E-01 O_OD= -0.3533182E+00 O_TOT= -0.3084237E+00 <-- DLTA
 ------------------------------------------------------------------------------
 Cycle:     47
  WF centre and spread    1  (  0.840362, -1.975912, -1.415282 )    10.09288571
  WF centre and spread    2  (  0.434137,  1.950180,  1.152583 )     7.63073894
  WF centre and spread    3  (  0.103517,  1.892084,  1.134019 )     3.41721964
  WF centre and spread    4  (  0.125962,  1.900632,  1.166639 )     3.66744139
  WF centre and spread    5  (  0.088550, -1.862478, -1.175544 )     3.01352839
  WF centre and spread    6  (  0.061377, -1.864290, -1.163274 )     2.68923875
  WF centre and spread    7  (  0.904102,  2.082117,  1.142429 )    12.37991061
  WF centre and spread    8  (  0.993784, -1.993619, -1.515867 )    11.81687661
  Sum of centres and spreads (  3.551790,  0.128713, -0.674296 )    54.70784004
 
     47    -0.165E+00     0.8543665171       54.7078410301       0.20  <-- CONV
        O_D=      4.4024261 O_OD=     30.9697975 O_TOT=     54.7078410 <-- SPRD
 Delta: O_D=  0.3092215E-01 O_OD= -0.1957313E+00 O_TOT= -0.1648091E+00 <-- DLTA
 ------------------------------------------------------------------------------
 Cycle:     48
  WF centre and spread    1  (  0.840663, -1.982078, -1.425494 )     9.94015994
  WF centre and spread    2  (  0.432936,  1.954246,  1.155877 )     7.57042668
  WF centre and spread    3  (  0.102664,  1.892711,  1.135066 )     3.39466417
  WF centre and spread    4  (  0.124982,  1.901434,  1.167378 )     3.64062946
  WF centre and spread    5  (  0.087602, -1.862610, -1.175739 )     2.98566405
  WF centre and spread    6  (  0.060577, -1.864355, -1.163779 )     2.66663104
  WF centre and spread    7  (  0.905441,  2.088385,  1.156452 )    12.24681572
  WF centre and spread    8  (  0.997315, -2.002122, -1.529125 )    11.64717947
  Sum of centres and spreads (  3.552181,  0.125611, -0.679364 )    54.09217054
 
     48    -0.616E+00     1.0575784875       54.0921715392       0.21  <-- CONV
        O_D=      4.2525760 O_OD=     30.5039781 O_TOT=     54.0921715 <-- SPRD
 Delta: O_D= -0.1498501E+00 O_OD= -0.4658194E+00 O_TOT= -0.6156695E+00 <-- DLTA
 ------------------------------------------------------------------------------
 Cycle:     49
  WF centre and spread    1  (  0.840836, -1.995365, -1.450169 )     9.79686447
  WF centre and spread    2  (  0.429273,  1.963257,  1.166116 )     7.47139375
  WF centre and spread    3  (  0.100531,  1.893910,  1.137376 )     3.34808649
  WF centre and spread    4  (  0.122502,  1.902979,  1.168926 )     3.58263168
  WF centre and spread    5  (  0.085336, -1.862866, -1.176246 )     2.96202646
  WF centre and spread    6  (  0.058689, -1.864431, -1.164948 )     2.64159630
  WF centre and spread    7  (  0.910265,  2.106851,  1.148249 )    12.48173057
  WF centre and spread    8  (  1.005647, -2.019177, -1.563060 )    11.52182346
  Sum of centres and spreads (  3.553078,  0.125158, -0.733754 )    53.80615317
 
     49    -0.286E+00     0.6558345991       53.8061541810       0.21  <-- CONV
        O_D=      4.4910656 O_OD=     29.9794710 O_TOT=     53.8061542 <-- SPRD
 Delta: O_D=  0.2384897E+00 O_OD= -0.5245070E+00 O_TOT= -0.2860174E+00 <-- DLTA
 ------------------------------------------------------------------------------
 Cycle:     50
  WF centre and spread    1  (  0.840693, -1.997522, -1.453530 )     9.75409464
  WF centre and spread    2  (  0.429319,  1.965894,  1.161945 )     7.50865149
  WF centre and spread    3  (  0.100270,  1.894138,  1.137347 )     3.35214566
  WF centre and spread    4  (  0.122187,  1.903336,  1.168572 )     3.58951430
  WF centre and spread    5  (  0.084972, -1.862917, -1.176294 )     2.95491671
  WF centre and spread    6  (  0.058382, -1.864442, -1.165114 )     2.63577407
  WF centre and spread    7  (  0.910202,  2.107407,  1.164975 )    12.16971942
  WF centre and spread    8  (  1.006909, -2.021908, -1.567718 )    11.47402328
  Sum of centres and spreads (  3.552934,  0.123987, -0.729818 )    53.43883956
 
     50    -0.367E+00     1.3261134687       53.4388405734       0.21  <-- CONV
        O_D=      4.2386828 O_OD=     29.8645403 O_TOT=     53.4388406 <-- SPRD
 Delta: O_D= -0.2523828E+00 O_OD= -0.1149308E+00 O_TOT= -0.3673136E+00 <-- DLTA
 ------------------------------------------------------------------------------
 Cycle:     51
  WF centre and spread    1  (  0.839789, -2.008636, -1.475122 )     9.59703613
  WF centre and spread    2  (  0.425950,  1.973692,  1.169535 )     7.46619555
  WF centre and spread    3  (  0.098265,  1.894864,  1.138897 )     3.33987291
  WF centre and spread    4  (  0.119862,  1.904344,  1.169186 )     3.57665136
  WF centre and spread    5  (  0.082766, -1.863103, -1.176725 )     2.93413535
  WF centre and spread    6  (  0.056558, -1.864409, -1.166144 )     2.61448034
  WF centre and spread    7  (  0.912418,  2.119332,  1.181853 )    12.17549612
  WF centre and spread    8  (  1.014484, -2.035177, -1.598329 )    11.33336219
  Sum of centres and spreads (  3.550093,  0.120906, -0.756849 )    53.03722996
 
     51    -0.402E+00     0.5880860829       53.0372309891       0.22  <-- CONV
        O_D=      4.2847301 O_OD=     29.4168834 O_TOT=     53.0372310 <-- SPRD
 Delta: O_D=  0.4604733E-01 O_OD= -0.4476569E+00 O_TOT= -0.4016096E+00 <-- DLTA
 ------------------------------------------------------------------------------
 Cycle:     52
  WF centre and spread    1  (  0.831170, -2.047368, -1.535504 )     9.42743928
  WF centre and spread    2  (  0.408325,  2.000659,  1.207056 )     7.50246043
  WF centre and spread    3  (  0.089015,  1.896171,  1.147748 )     3.29474497
  WF centre and spread    4  (  0.109116,  1.906375,  1.175391 )     3.52835621
  WF centre and spread    5  (  0.073340, -1.863379, -1.176551 )     2.89651904
  WF centre and spread    6  (  0.049060, -1.863559, -1.168553 )     2.56390623
  WF centre and spread    7  (  0.914277,  2.161127,  1.241147 )    12.46009929
  WF centre and spread    8  (  1.040558, -2.079206, -1.692674 )    11.31665078
  Sum of centres and spreads (  3.514861,  0.110820, -0.801938 )    52.99017624
 
     52    -0.471E-01     0.8880224058       52.9901773360       0.22  <-- CONV
        O_D=      4.2455749 O_OD=     29.4089849 O_TOT=     52.9901773 <-- SPRD
 Delta: O_D= -0.3915524E-01 O_OD= -0.7898415E-02 O_TOT= -0.4705365E-01 <-- DLTA
 ------------------------------------------------------------------------------
 Cycle:     53
  WF centre and spread    1  (  0.832936, -2.048632, -1.539624 )     9.05556000
  WF centre and spread    2  (  0.407670,  2.000630,  1.209934 )     7.32575612
  WF centre and spread    3  (  0.088559,  1.895886,  1.148810 )     3.25125099
  WF centre and spread    4  (  0.108659,  1.906026,  1.176317 )     3.47613873
  WF centre and spread    5  (  0.072760, -1.863293, -1.176437 )     2.84316363
  WF centre and spread    6  (  0.048625, -1.863427, -1.168660 )     2.52389634
  WF centre and spread    7  (  0.918219,  2.159523,  1.265189 )    12.06248144
  WF centre and spread    8  (  1.045307, -2.079894, -1.700680 )    10.87052733
  Sum of centres and spreads (  3.522736,  0.106818, -0.785151 )    51.40877458
 
     53    -0.158E+01     1.8786868502       51.4087756821       0.22  <-- CONV
        O_D=      3.8772321 O_OD=     28.1959261 O_TOT=     51.4087757 <-- SPRD
 Delta: O_D= -0.3683428E+00 O_OD= -0.1213059E+01 O_TOT= -0.1581402E+01 <-- DLTA
 ------------------------------------------------------------------------------
 Cycle:     54
  WF centre and spread    1  (  0.834017, -2.050044, -1.545945 )     8.96139177
  WF centre and spread    2  (  0.406744,  2.000594,  1.214028 )     7.28930220
  WF centre and spread    3  (  0.087803,  1.895518,  1.150062 )     3.23024384
  WF centre and spread    4  (  0.107890,  1.905546,  1.177443 )     3.45185488
  WF centre and spread    5  (  0.071963, -1.863136, -1.176318 )     2.82705571
  WF centre and spread    6  (  0.048022, -1.863195, -1.168762 )     2.51096068
  WF centre and spread    7  (  0.921345,  2.158570,  1.267909 )    11.99750507
  WF centre and spread    8  (  1.051001, -2.080778, -1.711672 )    10.78418956
  Sum of centres and spreads (  3.528785,  0.103075, -0.793254 )    51.05250371
 
     54    -0.356E+00     0.8227948919       51.0525048151       0.23  <-- CONV
        O_D=      3.8220170 O_OD=     27.8948703 O_TOT=     51.0525048 <-- SPRD
 Delta: O_D= -0.5521507E-01 O_OD= -0.3010558E+00 O_TOT= -0.3562709E+00 <-- DLTA
 ------------------------------------------------------------------------------
 Cycle:     55
  WF centre and spread    1  (  0.833947, -2.055580, -1.562038 )     8.83373091
  WF centre and spread    2  (  0.402745,  2.000616,  1.234616 )     7.26269108
  WF centre and spread    3  (  0.085186,  1.894336,  1.154218 )     3.18940371
  WF centre and spread    4  (  0.105155,  1.903986,  1.181339 )     3.40767887
  WF centre and spread    5  (  0.069260, -1.862640, -1.175754 )     2.79195125
  WF centre and spread    6  (  0.046005, -1.862431, -1.168920 )     2.48253532
  WF centre and spread    7  (  0.928550,  2.156732,  1.306486 )    12.08402490
  WF centre and spread    8  (  1.067040, -2.085376, -1.742053 )    10.74288494
  Sum of centres and spreads (  3.537888,  0.089643, -0.772106 )    50.79490096
 
     55    -0.258E+00     0.4853828827       50.7949020973       0.23  <-- CONV
        O_D=      3.8298070 O_OD=     27.6294776 O_TOT=     50.7949021 <-- SPRD
 Delta: O_D=  0.7789998E-02 O_OD= -0.2653927E+00 O_TOT= -0.2576027E+00 <-- DLTA
 ------------------------------------------------------------------------------
 Cycle:     56
  WF centre and spread    1  (  0.829729, -2.061242, -1.598635 )     8.57917535
  WF centre and spread    2  (  0.391874,  2.001251,  1.269102 )     7.21996603
  WF centre and spread    3  (  0.079556,  1.891751,  1.161210 )     3.13092381
  WF centre and spread    4  (  0.099009,  1.900769,  1.187521 )     3.34999236
  WF centre and spread    5  (  0.063695, -1.861362, -1.174760 )     2.72919194
  WF centre and spread    6  (  0.041900, -1.860685, -1.169234 )     2.43328817
  WF centre and spread    7  (  0.940427,  2.150254,  1.387059 )    12.45683691
  WF centre and spread    8  (  1.096792, -2.082513, -1.811834 )    10.62543579
  Sum of centres and spreads (  3.542982,  0.078223, -0.749571 )    50.52481035
 
     56    -0.270E+00     0.6709888051       50.5248115439       0.23  <-- CONV
        O_D=      4.0241117 O_OD=     27.1650824 O_TOT=     50.5248115 <-- SPRD
 Delta: O_D=  0.1943047E+00 O_OD= -0.4643952E+00 O_TOT= -0.2700906E+00 <-- DLTA
 ------------------------------------------------------------------------------
 Cycle:     57
  WF centre and spread    1  (  0.829728, -2.061258, -1.598595 )     8.57894454
  WF centre and spread    2  (  0.391873,  2.001260,  1.269143 )     7.22044890
  WF centre and spread    3  (  0.079553,  1.891752,  1.161216 )     3.13099421
  WF centre and spread    4  (  0.099006,  1.900770,  1.187528 )     3.35009467
  WF centre and spread    5  (  0.063694, -1.861362, -1.174758 )     2.72916418
  WF centre and spread    6  (  0.041899, -1.860685, -1.169233 )     2.43327479
  WF centre and spread    7  (  0.940377,  2.150268,  1.394005 )    12.41725904
  WF centre and spread    8  (  1.096807, -2.082540, -1.811739 )    10.62511586
  Sum of centres and spreads (  3.542937,  0.078204, -0.742433 )    50.48529618
 
     57    -0.395E-01     6.3168285710       50.4852973690       0.23  <-- CONV
        O_D=      3.9846635 O_OD=     27.1650164 O_TOT=     50.4852974 <-- SPRD
 Delta: O_D= -0.3944814E-01 O_OD= -0.6603361E-04 O_TOT= -0.3951417E-01 <-- DLTA
 ------------------------------------------------------------------------------
 Cycle:     58
  WF centre and spread    1  (  0.829453, -2.061654, -1.599837 )     8.53703703
  WF centre and spread    2  (  0.391515,  2.001268,  1.270290 )     7.21100011
  WF centre and spread    3  (  0.079363,  1.891657,  1.161443 )     3.12691903
  WF centre and spread    4  (  0.098799,  1.900646,  1.187741 )     3.34559478
  WF centre and spread    5  (  0.063525, -1.861323, -1.174770 )     2.72588189
  WF centre and spread    6  (  0.041771, -1.860634, -1.169260 )     2.43090494
  WF centre and spread    7  (  0.939376,  2.150565,  1.396412 )    12.34295464
  WF centre and spread    8  (  1.097803, -2.083479, -1.813291 )    10.56674866
  Sum of centres and spreads (  3.541606,  0.077045, -0.741273 )    50.28704108
 
     58    -0.198E+00     1.1067965866       50.2870422727       0.24  <-- CONV
        O_D=      3.8981857 O_OD=     27.0532391 O_TOT=     50.2870423 <-- SPRD
 Delta: O_D= -0.8647779E-01 O_OD= -0.1117773E+00 O_TOT= -0.1982551E+00 <-- DLTA
 ------------------------------------------------------------------------------
 Cycle:     59
  WF centre and spread    1  (  0.829433, -2.061654, -1.599980 )     8.53547041
  WF centre and spread    2  (  0.391499,  2.001267,  1.270267 )     7.21044085
  WF centre and spread    3  (  0.079353,  1.891650,  1.161444 )     3.12671585
  WF centre and spread    4  (  0.098788,  1.900638,  1.187737 )     3.34535620
  WF centre and spread    5  (  0.063513, -1.861320, -1.174772 )     2.72574102
  WF centre and spread    6  (  0.041763, -1.860630, -1.169263 )     2.43080647
  WF centre and spread    7  (  0.939325,  2.150531,  1.390968 )    12.31814765
  WF centre and spread    8  (  1.097869, -2.083474, -1.813591 )    10.56505582
  Sum of centres and spreads (  3.541543,  0.077010, -0.747190 )    50.25773427
 
     59    -0.293E-01     2.0042861406       50.2577354665       0.24  <-- CONV
        O_D=      3.8749761 O_OD=     27.0471419 O_TOT=     50.2577355 <-- SPRD
 Delta: O_D= -0.2320966E-01 O_OD= -0.6097151E-02 O_TOT= -0.2930681E-01 <-- DLTA
 ------------------------------------------------------------------------------
 Cycle:     60
  WF centre and spread    1  (  0.828688, -2.062049, -1.602950 )     8.47206418
  WF centre and spread    2  (  0.390595,  2.001114,  1.272796 )     7.19793308
  WF centre and spread    3  (  0.078943,  1.891426,  1.161943 )     3.12121250
[...]
  WF centre and spread    3  (  0.016946,  1.857620,  1.164329 )     2.26001259
  WF centre and spread    4  (  0.015199,  1.862205,  1.133172 )     2.25847570
  WF centre and spread    5  (  0.008567, -1.846534, -1.142165 )     2.25637217
  WF centre and spread    6  (  0.006796, -1.842978, -1.155712 )     2.25767139
  WF centre and spread    7  (  2.294357,  1.065806,  3.451816 )     3.03945938
  WF centre and spread    8  ( -0.015173, -1.998802, -1.153917 )     2.26567525
  Sum of centres and spreads (  4.589153, -0.000362, -0.000001 )    19.64583648
 
    484    -0.764E-05     0.0023594137       19.6458390176       1.56  <-- CONV
        O_D=      0.0333611 O_OD=      0.2768604 O_TOT=     19.6458390 <-- SPRD
 Delta: O_D=  0.3251202E-05 O_OD= -0.1088789E-04 O_TOT= -0.7636687E-05 <-- DLTA
 ------------------------------------------------------------------------------
 Cycle:    485
  WF centre and spread    1  (  2.294364, -1.065791, -3.451816 )     3.03916698
  WF centre and spread    2  ( -0.031888,  1.968161,  1.154292 )     2.26900533
  WF centre and spread    3  (  0.016938,  1.857598,  1.164320 )     2.26000582
  WF centre and spread    4  (  0.015192,  1.862179,  1.133183 )     2.25847108
  WF centre and spread    5  (  0.008558, -1.846524, -1.142175 )     2.25636996
  WF centre and spread    6  (  0.006789, -1.842973, -1.155706 )     2.25767009
  WF centre and spread    7  (  2.294357,  1.065806,  3.451816 )     3.03946183
  WF centre and spread    8  ( -0.015157, -1.998817, -1.153914 )     2.26567685
  Sum of centres and spreads (  4.589153, -0.000361, -0.000001 )    19.64582794
 
    485    -0.853E-05     0.0025026018       19.6458304850       1.57  <-- CONV
        O_D=      0.0333639 O_OD=      0.2768491 O_TOT=     19.6458305 <-- SPRD
 Delta: O_D=  0.2799241E-05 O_OD= -0.1133181E-04 O_TOT= -0.8532570E-05 <-- DLTA
 ------------------------------------------------------------------------------
 Cycle:    486
  WF centre and spread    1  (  2.294364, -1.065791, -3.451816 )     3.03916634
  WF centre and spread    2  ( -0.031887,  1.968165,  1.154292 )     2.26900012
  WF centre and spread    3  (  0.016937,  1.857596,  1.164319 )     2.26000872
  WF centre and spread    4  (  0.015192,  1.862177,  1.133183 )     2.25847120
  WF centre and spread    5  (  0.008557, -1.846523, -1.142175 )     2.25637003
  WF centre and spread    6  (  0.006788, -1.842972, -1.155706 )     2.25767038
  WF centre and spread    7  (  2.294357,  1.065806,  3.451816 )     3.03945879
  WF centre and spread    8  ( -0.015156, -1.998818, -1.153914 )     2.26567387
  Sum of centres and spreads (  4.589153, -0.000361, -0.000001 )    19.64581946
 
    486    -0.848E-05     0.0035273014       19.6458220046       1.57  <-- CONV
        O_D=      0.0333610 O_OD=      0.2768435 O_TOT=     19.6458220 <-- SPRD
 Delta: O_D= -0.2889454E-05 O_OD= -0.5590971E-05 O_TOT= -0.8480425E-05 <-- DLTA
 ------------------------------------------------------------------------------
 Cycle:    487
  WF centre and spread    1  (  2.294364, -1.065791, -3.451816 )     3.03916561
  WF centre and spread    2  ( -0.031884,  1.968175,  1.154292 )     2.26899025
  WF centre and spread    3  (  0.016935,  1.857591,  1.164317 )     2.26001771
  WF centre and spread    4  (  0.015190,  1.862171,  1.133185 )     2.25847320
  WF centre and spread    5  (  0.008555, -1.846521, -1.142177 )     2.25637013
  WF centre and spread    6  (  0.006786, -1.842971, -1.155705 )     2.25767106
  WF centre and spread    7  (  2.294357,  1.065806,  3.451817 )     3.03945554
  WF centre and spread    8  ( -0.015152, -1.998821, -1.153913 )     2.26566833
  Sum of centres and spreads (  4.589152, -0.000361, -0.000001 )    19.64581183
 
    487    -0.764E-05     0.0025004297       19.6458143688       1.57  <-- CONV
        O_D=      0.0333577 O_OD=      0.2768392 O_TOT=     19.6458144 <-- SPRD
 Delta: O_D= -0.3314689E-05 O_OD= -0.4321096E-05 O_TOT= -0.7635784E-05 <-- DLTA
 ------------------------------------------------------------------------------
 Cycle:    488
  WF centre and spread    1  (  2.294365, -1.065791, -3.451816 )     3.03916502
  WF centre and spread    2  ( -0.031879,  1.968192,  1.154293 )     2.26897705
  WF centre and spread    3  (  0.016932,  1.857583,  1.164313 )     2.26002923
  WF centre and spread    4  (  0.015188,  1.862162,  1.133188 )     2.25847650
  WF centre and spread    5  (  0.008552, -1.846517, -1.142181 )     2.25637009
  WF centre and spread    6  (  0.006784, -1.842969, -1.155702 )     2.25767184
  WF centre and spread    7  (  2.294357,  1.065806,  3.451817 )     3.03945346
  WF centre and spread    8  ( -0.015146, -1.998826, -1.153912 )     2.26566137
  Sum of centres and spreads (  4.589151, -0.000361, -0.000001 )    19.64580454
 
    488    -0.728E-05     0.0023596524       19.6458070842       1.57  <-- CONV
        O_D=      0.0333562 O_OD=      0.2768334 O_TOT=     19.6458071 <-- SPRD
 Delta: O_D= -0.1472737E-05 O_OD= -0.5811898E-05 O_TOT= -0.7284635E-05 <-- DLTA
 ------------------------------------------------------------------------------
 Cycle:    489
  WF centre and spread    1  (  2.294365, -1.065791, -3.451816 )     3.03916470
  WF centre and spread    2  ( -0.031871,  1.968216,  1.154293 )     2.26896370
  WF centre and spread    3  (  0.016927,  1.857572,  1.164308 )     2.26004005
  WF centre and spread    4  (  0.015184,  1.862148,  1.133193 )     2.25847975
  WF centre and spread    5  (  0.008547, -1.846511, -1.142186 )     2.25636971
  WF centre and spread    6  (  0.006780, -1.842967, -1.155699 )     2.25767245
  WF centre and spread    7  (  2.294357,  1.065806,  3.451817 )     3.03945253
  WF centre and spread    8  ( -0.015138, -1.998833, -1.153910 )     2.26565453
  Sum of centres and spreads (  4.589151, -0.000361, -0.000001 )    19.64579740
 
    489    -0.714E-05     0.0023279058       19.6457999438       1.58  <-- CONV
        O_D=      0.0333572 O_OD=      0.2768252 O_TOT=     19.6457999 <-- SPRD
 Delta: O_D=  0.9752755E-06 O_OD= -0.8115611E-05 O_TOT= -0.7140335E-05 <-- DLTA
 ------------------------------------------------------------------------------
 Cycle:    490
  WF centre and spread    1  (  2.294365, -1.065791, -3.451816 )     3.03916482
  WF centre and spread    2  ( -0.031862,  1.968248,  1.154292 )     2.26895290
  WF centre and spread    3  (  0.016921,  1.857557,  1.164301 )     2.26004774
  WF centre and spread    4  (  0.015180,  1.862131,  1.133199 )     2.25848171
  WF centre and spread    5  (  0.008541, -1.846505, -1.142192 )     2.25636888
  WF centre and spread    6  (  0.006775, -1.842963, -1.155695 )     2.25767278
  WF centre and spread    7  (  2.294357,  1.065806,  3.451818 )     3.03945220
  WF centre and spread    8  ( -0.015127, -1.998843, -1.153907 )     2.26564909
  Sum of centres and spreads (  4.589150, -0.000360, -0.000001 )    19.64579013
 
    490    -0.727E-05     0.0023973152       19.6457926689       1.58  <-- CONV
        O_D=      0.0333600 O_OD=      0.2768152 O_TOT=     19.6457927 <-- SPRD
 Delta: O_D=  0.2763056E-05 O_OD= -0.1003800E-04 O_TOT= -0.7274940E-05 <-- DLTA
 ------------------------------------------------------------------------------
 Cycle:    491
  WF centre and spread    1  (  2.294365, -1.065791, -3.451816 )     3.03916483
  WF centre and spread    2  ( -0.031850,  1.968287,  1.154291 )     2.26894789
  WF centre and spread    3  (  0.016915,  1.857540,  1.164294 )     2.26005016
  WF centre and spread    4  (  0.015175,  1.862110,  1.133207 )     2.25848120
  WF centre and spread    5  (  0.008534, -1.846496, -1.142199 )     2.25636756
  WF centre and spread    6  (  0.006769, -1.842959, -1.155691 )     2.25767277
  WF centre and spread    7  (  2.294357,  1.065806,  3.451818 )     3.03945254
  WF centre and spread    8  ( -0.015114, -1.998855, -1.153905 )     2.26564628
  Sum of centres and spreads (  4.589150, -0.000360, -0.000001 )    19.64578323
 
    491    -0.690E-05     0.0023053347       19.6457857672       1.58  <-- CONV
        O_D=      0.0333624 O_OD=      0.2768059 O_TOT=     19.6457858 <-- SPRD
 Delta: O_D=  0.2377168E-05 O_OD= -0.9278907E-05 O_TOT= -0.6901739E-05 <-- DLTA
 ------------------------------------------------------------------------------
 Cycle:    492
  WF centre and spread    1  (  2.294365, -1.065791, -3.451816 )     3.03916422
  WF centre and spread    2  ( -0.031849,  1.968290,  1.154291 )     2.26894895
  WF centre and spread    3  (  0.016914,  1.857538,  1.164293 )     2.26004633
  WF centre and spread    4  (  0.015174,  1.862109,  1.133208 )     2.25847907
  WF centre and spread    5  (  0.008533, -1.846496, -1.142200 )     2.25636729
  WF centre and spread    6  (  0.006768, -1.842959, -1.155690 )     2.25767258
  WF centre and spread    7  (  2.294357,  1.065806,  3.451818 )     3.03945124
  WF centre and spread    8  ( -0.015113, -1.998857, -1.153904 )     2.26564669
  Sum of centres and spreads (  4.589150, -0.000360, -0.000001 )    19.64577636
 
    492    -0.686E-05     0.0033372899       19.6457789061       1.59  <-- CONV
        O_D=      0.0333599 O_OD=      0.2768015 O_TOT=     19.6457789 <-- SPRD
 Delta: O_D= -0.2448648E-05 O_OD= -0.4412437E-05 O_TOT= -0.6861085E-05 <-- DLTA
 ------------------------------------------------------------------------------
 Cycle:    493
  WF centre and spread    1  (  2.294365, -1.065791, -3.451816 )     3.03916357
  WF centre and spread    2  ( -0.031845,  1.968303,  1.154290 )     2.26895572
  WF centre and spread    3  (  0.016913,  1.857532,  1.164291 )     2.26003675
  WF centre and spread    4  (  0.015173,  1.862102,  1.133212 )     2.25847411
  WF centre and spread    5  (  0.008531, -1.846493, -1.142202 )     2.25636643
  WF centre and spread    6  (  0.006767, -1.842958, -1.155689 )     2.25767196
  WF centre and spread    7  (  2.294357,  1.065806,  3.451817 )     3.03945080
  WF centre and spread    8  ( -0.015109, -1.998861, -1.153904 )     2.26564976
  Sum of centres and spreads (  4.589150, -0.000360, -0.000001 )    19.64576909
 
    493    -0.727E-05     0.0023023318       19.6457716328       1.59  <-- CONV
        O_D=      0.0333571 O_OD=      0.2767971 O_TOT=     19.6457716 <-- SPRD
 Delta: O_D= -0.2825565E-05 O_OD= -0.4447720E-05 O_TOT= -0.7273285E-05 <-- DLTA
 ------------------------------------------------------------------------------
 Cycle:    494
  WF centre and spread    1  (  2.294365, -1.065791, -3.451816 )     3.03916345
  WF centre and spread    2  ( -0.031840,  1.968322,  1.154289 )     2.26896542
  WF centre and spread    3  (  0.016910,  1.857523,  1.164288 )     2.26002366
  WF centre and spread    4  (  0.015171,  1.862093,  1.133216 )     2.25846768
  WF centre and spread    5  (  0.008527, -1.846489, -1.142206 )     2.25636512
  WF centre and spread    6  (  0.006764, -1.842956, -1.155687 )     2.25767093
  WF centre and spread    7  (  2.294357,  1.065806,  3.451817 )     3.03945120
  WF centre and spread    8  ( -0.015103, -1.998868, -1.153902 )     2.26565449
  Sum of centres and spreads (  4.589151, -0.000360, -0.000001 )    19.64576195
 
    494    -0.714E-05     0.0023988611       19.6457644923       1.59  <-- CONV
        O_D=      0.0333561 O_OD=      0.2767909 O_TOT=     19.6457645 <-- SPRD
 Delta: O_D= -0.1007469E-05 O_OD= -0.6133000E-05 O_TOT= -0.7140469E-05 <-- DLTA
 ------------------------------------------------------------------------------
 Cycle:    495
  WF centre and spread    1  (  2.294364, -1.065791, -3.451816 )     3.03916370
  WF centre and spread    2  ( -0.031831,  1.968350,  1.154287 )     2.26897531
  WF centre and spread    3  (  0.016906,  1.857511,  1.164283 )     2.26000941
  WF centre and spread    4  (  0.015167,  1.862079,  1.133223 )     2.25846082
  WF centre and spread    5  (  0.008522, -1.846484, -1.142211 )     2.25636342
  WF centre and spread    6  (  0.006760, -1.842953, -1.155684 )     2.25766955
  WF centre and spread    7  (  2.294357,  1.065806,  3.451817 )     3.03945282
  WF centre and spread    8  ( -0.015094, -1.998877, -1.153901 )     2.26565965
  Sum of centres and spreads (  4.589152, -0.000360, -0.000001 )    19.64575467
 
    495    -0.728E-05     0.0023283299       19.6457572158       1.60  <-- CONV
        O_D=      0.0333575 O_OD=      0.2767822 O_TOT=     19.6457572 <-- SPRD
 Delta: O_D=  0.1446736E-05 O_OD= -0.8723235E-05 O_TOT= -0.7276500E-05 <-- DLTA
 ------------------------------------------------------------------------------
 Cycle:    496
  WF centre and spread    1  (  2.294364, -1.065791, -3.451816 )     3.03916416
  WF centre and spread    2  ( -0.031820,  1.968386,  1.154286 )     2.26898206
  WF centre and spread    3  (  0.016901,  1.857494,  1.164277 )     2.25999720
  WF centre and spread    4  (  0.015162,  1.862060,  1.133232 )     2.25845484
  WF centre and spread    5  (  0.008515, -1.846476, -1.142217 )     2.25636144
  WF centre and spread    6  (  0.006755, -1.842949, -1.155679 )     2.25766809
  WF centre and spread    7  (  2.294357,  1.065806,  3.451816 )     3.03945555
  WF centre and spread    8  ( -0.015082, -1.998889, -1.153898 )     2.26566371
  Sum of centres and spreads (  4.589153, -0.000360, -0.000001 )    19.64574706
 
    496    -0.762E-05     0.0023569471       19.6457495980       1.60  <-- CONV
        O_D=      0.0333608 O_OD=      0.2767713 O_TOT=     19.6457496 <-- SPRD
 Delta: O_D=  0.3247624E-05 O_OD= -0.1086543E-04 O_TOT= -0.7617808E-05 <-- DLTA
 ------------------------------------------------------------------------------
 Cycle:    497
  WF centre and spread    1  (  2.294364, -1.065791, -3.451816 )     3.03916446
  WF centre and spread    2  ( -0.031806,  1.968434,  1.154284 )     2.26898406
  WF centre and spread    3  (  0.016893,  1.857472,  1.164268 )     2.25999045
  WF centre and spread    4  (  0.015156,  1.862035,  1.133243 )     2.25845019
  WF centre and spread    5  (  0.008507, -1.846466, -1.142227 )     2.25635926
  WF centre and spread    6  (  0.006747, -1.842944, -1.155674 )     2.25766681
  WF centre and spread    7  (  2.294357,  1.065806,  3.451816 )     3.03945798
  WF centre and spread    8  ( -0.015066, -1.998905, -1.153895 )     2.26566534
  Sum of centres and spreads (  4.589153, -0.000360, -0.000001 )    19.64573855
 
    497    -0.851E-05     0.0025004238       19.6457410901       1.60  <-- CONV
        O_D=      0.0333636 O_OD=      0.2767600 O_TOT=     19.6457411 <-- SPRD
 Delta: O_D=  0.2791562E-05 O_OD= -0.1129944E-04 O_TOT= -0.8507882E-05 <-- DLTA
 ------------------------------------------------------------------------------
 Cycle:    498
  WF centre and spread    1  (  2.294364, -1.065791, -3.451816 )     3.03916382
  WF centre and spread    2  ( -0.031805,  1.968438,  1.154284 )     2.26897884
  WF centre and spread    3  (  0.016892,  1.857470,  1.164267 )     2.25999334
  WF centre and spread    4  (  0.015155,  1.862032,  1.133243 )     2.25845034
  WF centre and spread    5  (  0.008506, -1.846465, -1.142227 )     2.25635932
  WF centre and spread    6  (  0.006747, -1.842944, -1.155673 )     2.25766711
  WF centre and spread    7  (  2.294357,  1.065806,  3.451816 )     3.03945495
  WF centre and spread    8  ( -0.015064, -1.998906, -1.153894 )     2.26566236
  Sum of centres and spreads (  4.589153, -0.000360, -0.000001 )    19.64573008
 
    498    -0.847E-05     0.0035236712       19.6457326244       1.60  <-- CONV
        O_D=      0.0333607 O_OD=      0.2767545 O_TOT=     19.6457326 <-- SPRD
 Delta: O_D= -0.2882798E-05 O_OD= -0.5582984E-05 O_TOT= -0.8465782E-05 <-- DLTA
 ------------------------------------------------------------------------------
 Cycle:    499
  WF centre and spread    1  (  2.294364, -1.065791, -3.451816 )     3.03916307
  WF centre and spread    2  ( -0.031802,  1.968448,  1.154285 )     2.26896895
  WF centre and spread    3  (  0.016890,  1.857465,  1.164265 )     2.26000232
  WF centre and spread    4  (  0.015154,  1.862027,  1.133245 )     2.25845240
  WF centre and spread    5  (  0.008504, -1.846463, -1.142229 )     2.25635942
  WF centre and spread    6  (  0.006745, -1.842943, -1.155672 )     2.25766777
  WF centre and spread    7  (  2.294357,  1.065806,  3.451817 )     3.03945170
  WF centre and spread    8  ( -0.015061, -1.998908, -1.153894 )     2.26565683
  Sum of centres and spreads (  4.589152, -0.000360, -0.000001 )    19.64572246
 
    499    -0.762E-05     0.0024985015       19.6457250050       1.61  <-- CONV
        O_D=      0.0333574 O_OD=      0.2767501 O_TOT=     19.6457250 <-- SPRD
 Delta: O_D= -0.3310384E-05 O_OD= -0.4308927E-05 O_TOT= -0.7619311E-05 <-- DLTA
 ------------------------------------------------------------------------------
 Cycle:    500
  WF centre and spread    1  (  2.294365, -1.065791, -3.451816 )     3.03916246
  WF centre and spread    2  ( -0.031796,  1.968465,  1.154285 )     2.26895571
  WF centre and spread    3  (  0.016887,  1.857458,  1.164261 )     2.26001384
  WF centre and spread    4  (  0.015151,  1.862017,  1.133248 )     2.25845578
  WF centre and spread    5  (  0.008500, -1.846459, -1.142233 )     2.25635937
  WF centre and spread    6  (  0.006742, -1.842941, -1.155670 )     2.25766853
  WF centre and spread    7  (  2.294357,  1.065806,  3.451817 )     3.03944961
  WF centre and spread    8  ( -0.015055, -1.998913, -1.153892 )     2.26564988
  Sum of centres and spreads (  4.589151, -0.000359, -0.000001 )    19.64571519
 
    500    -0.727E-05     0.0023574108       19.6457177318       1.61  <-- CONV
        O_D=      0.0333559 O_OD=      0.2767443 O_TOT=     19.6457177 <-- SPRD
 Delta: O_D= -0.1460784E-05 O_OD= -0.5812412E-05 O_TOT= -0.7273196E-05 <-- DLTA
 ------------------------------------------------------------------------------

 Writing checkpoint file mp-22870.chk... done

 Final State
  WF centre and spread    1  (  2.294365, -1.065791, -3.451816 )     3.03916246
  WF centre and spread    2  ( -0.031796,  1.968465,  1.154285 )     2.26895571
  WF centre and spread    3  (  0.016887,  1.857458,  1.164261 )     2.26001384
  WF centre and spread    4  (  0.015151,  1.862017,  1.133248 )     2.25845578
  WF centre and spread    5  (  0.008500, -1.846459, -1.142233 )     2.25635937
  WF centre and spread    6  (  0.006742, -1.842941, -1.155670 )     2.25766853
  WF centre and spread    7  (  2.294357,  1.065806,  3.451817 )     3.03944961
  WF centre and spread    8  ( -0.015055, -1.998913, -1.153892 )     2.26564988
  Sum of centres and spreads (  4.589151, -0.000359, -0.000001 )    19.64571519
 
         Spreads (Ang^2)       Omega I      =    19.335617489
        ================       Omega D      =     0.033355909
                               Omega OD     =     0.276744334
    Final Spread (Ang^2)       Omega Total  =    19.645717732
 ------------------------------------------------------------------------------
 Time for wannierise            1.601 (sec)

 Writing checkpoint file mp-22870.chk... done

 Time for plotting              0.000 (sec)
 Total Execution Time           2.357 (sec)

 *===========================================================================*
 |                             TIMING INFORMATION                            |
 *===========================================================================*
 |    Tag                                                Ncalls      Time (s)|
 |---------------------------------------------------------------------------|
 |kmesh: get                                        :         1         0.375|
 |overlap: allocate                                 :         1         0.002|
 |overlap: read                                     :         1         0.259|
 |wann: main                                        :         1         1.601|
 |plot: main                                        :         1         0.000|
 *---------------------------------------------------------------------------*
 
 All done: wannier90 exiting
