
     Program PWSCF v.7.1 starts on  8Apr2024 at 15:17:44 

     This program is part of the open-source Quantum ESPRESSO suite
     for quantum simulation of materials; please cite
         "P. Giannozzi et al., J. Phys.:Condens. Matter 21 395502 (2009);
         "P. Giannozzi et al., J. Phys.:Condens. Matter 29 465901 (2017);
         "P. Giannozzi et al., J. Chem. Phys. 152 154105 (2020);
          URL http://www.quantum-espresso.org", 
     in publications or presentations arising from this work. More details at
     http://www.quantum-espresso.org/quote

     Parallel version (MPI), running on    16 processors

     MPI processes distributed on     1 nodes
     242939 MiB available memory on the printing compute node when the environment starts
 
     Reading input from pw_mp-22870_nscf_k3000_E65.in
Warning: card &IONS ignored
Warning: card / ignored
Warning: card &CELL ignored
Warning: card / ignored

     Current dimensions of program PWSCF are:
     Max number of different atomic species (ntypx) = 10
     Max number of k-points (npk) =  40000
     Max angular momentum in pseudopotentials (lmaxx) =  4

     Atomic positions and unit cell read from directory:
     out/mp-22870.save/
     Atomic positions from file used, from input discarded
 
 
     R & G space division:  proc/nbgrp/npool/nimage =      16
     Subspace diagonalization in iterative solution of the eigenvalue problem:
     a serial algorithm will be used

 
     Parallelization info
     --------------------
     sticks:   dense  smooth     PW     G-vecs:    dense   smooth      PW
     Min         130     130     40                 3883     3883     676
     Max         131     131     41                 3885     3885     679
     Sum        2089    2089    653                62145    62145   10845
 
     Using Slab Decomposition
 


     bravais-lattice index     =            9
     lattice parameter (alat)  =       8.6715  a.u.
     unit-cell volume          =     877.8726 (a.u.)^3
     number of atoms/cell      =            4
     number of atomic types    =            2
     number of electrons       =        40.00
     number of Kohn-Sham states=           40
     kinetic-energy cutoff     =      65.0000  Ry
     charge density cutoff     =     260.0000  Ry
     Exchange-correlation= PBE
                           (   1   4   3   4   0   0   0)

     celldm(1)=   8.671481  celldm(2)=   2.684664  celldm(3)=   1.002979
     celldm(4)=   0.000000  celldm(5)=   0.000000  celldm(6)=   0.000000

     crystal axes: (cart. coord. in units of alat)
               a(1) = (   0.500000   1.342332   0.000000 )  
               a(2) = (  -0.500000   1.342332   0.000000 )  
               a(3) = (   0.000000   0.000000   1.002979 )  

     reciprocal axes: (cart. coord. in units 2 pi/alat)
               b(1) = (  1.000000  0.372486  0.000000 )  
               b(2) = ( -1.000000  0.372486  0.000000 )  
               b(3) = (  0.000000  0.000000  0.997030 )  


     PseudoPot. # 1 for Br read from file:
     /usr/scratch4/magr4826/Promotion/Python/Code/devEb/pseudo/SG15/Br.upf
     MD5 check sum: 5b50323dbf1c0ae0ed9e7f1e72c3f86c
     Pseudo is Norm-conserving, Zval =  7.0
     Generated using ONCVPSP code by D. R. Hamann
     Using radial grid of  602 points,  6 beta functions with: 
                l(1) =   0
                l(2) =   0
                l(3) =   1
                l(4) =   1
                l(5) =   2
                l(6) =   2

     PseudoPot. # 2 for In read from file:
     /usr/scratch4/magr4826/Promotion/Python/Code/devEb/pseudo/SG15/In.upf
     MD5 check sum: 2123f823f6143602c63cd302e3a0bdd6
     Pseudo is Norm-conserving, Zval = 13.0
     Generated using ONCVPSP code by D. R. Hamann
     Using radial grid of  602 points,  6 beta functions with: 
                l(1) =   0
                l(2) =   0
                l(3) =   1
                l(4) =   1
                l(5) =   2
                l(6) =   2

     atomic species   valence    mass     pseudopotential
        Br             7.00    79.90400     Br( 1.00)
        In            13.00   114.81800     In( 1.00)

     No symmetry found



   Cartesian axes

     site n.     atom                  positions (alat units)
         1           In  tau(   1) = (   0.0000000   1.0562714   0.2507447  )
         2           In  tau(   2) = (   0.0000000   1.6283933   0.7522341  )
         3           Br  tau(   3) = (   0.0000000   0.4061194   0.2507447  )
         4           Br  tau(   4) = (   0.0000000   2.2785452   0.7522341  )

     number of k points=   768  Gaussian smearing, width (Ry)=  0.0005

     Number of k-points >= 100: set verbosity='high' to print them.

     Dense  grid:    62145 G-vectors     FFT dimensions: (  64,  64,  45)

     Estimated max dynamical RAM per process >     233.76 MB

     Estimated total dynamical RAM >       3.65 GB

     The potential is recalculated from file :
     out/mp-22870.save/charge-density

     Starting wfcs are random

     Band Structure Calculation
     Davidson diagonalization with overlap

     ethr =  5.00E-06,  avg # of iterations = 34.8

     total cpu time spent up to now is      180.5 secs

     End of band structure calculation

     Number of k-points >= 100: set verbosity='high' to print the bands.

     the Fermi energy is     6.0763 ev
     (compare with:     6.0755 eV, computed in scf)

     Writing all to output data dir out/mp-22870.save/
 
     init_run     :      0.11s CPU      0.16s WALL (       1 calls)
     electrons    :    173.15s CPU    179.94s WALL (       1 calls)

     Called by init_run:
     wfcinit      :      0.00s CPU      0.00s WALL (       1 calls)
     potinit      :      0.00s CPU      0.02s WALL (       1 calls)
     hinit0       :      0.05s CPU      0.08s WALL (       1 calls)

     Called by electrons:
     c_bands      :    173.15s CPU    179.94s WALL (       1 calls)
     v_of_rho     :      0.00s CPU      0.01s WALL (       1 calls)

     Called by c_bands:
     init_us_2    :      0.05s CPU      0.08s WALL (     768 calls)
     init_us_2:cp :      0.05s CPU      0.08s WALL (     768 calls)
     cegterg      :    166.21s CPU    170.53s WALL (    1593 calls)

     Called by *egterg:
     cdiaghg      :     35.76s CPU     36.65s WALL (   27489 calls)
     h_psi        :    117.31s CPU    120.66s WALL (   29082 calls)
     g_psi        :      0.67s CPU      0.68s WALL (   26721 calls)

     Called by h_psi:
     h_psi:calbec :      4.63s CPU      4.75s WALL (   29082 calls)
     vloc_psi     :    109.30s CPU    112.38s WALL (   29082 calls)
     add_vuspsi   :      2.87s CPU      2.94s WALL (   29082 calls)

     General routines
     calbec       :      4.59s CPU      4.71s WALL (   29082 calls)
     fft          :      0.00s CPU      0.03s WALL (      10 calls)
     fftw         :    101.30s CPU    104.16s WALL ( 1408736 calls)
 
     Parallel routines
 
     PWSCF        :   2m58.07s CPU   3m21.74s WALL

 
   This run was terminated on:  15:21: 5   8Apr2024            

=------------------------------------------------------------------------------=
   JOB DONE.
=------------------------------------------------------------------------------=
