 
             +---------------------------------------------------+
             |                                                   |
             |                   WANNIER90                       |
             |                                                   |
             +---------------------------------------------------+
             |                                                   |
             |        Welcome to the Maximally-Localized         |
             |        Generalized Wannier Functions code         |
             |            http://www.wannier.org                 |
             |                                                   |
             |                                                   |
             |  Wannier90 Developer Group:                       |
             |    Giovanni Pizzi    (EPFL)                       |
             |    Valerio Vitale    (Cambridge)                  |
             |    David Vanderbilt  (Rutgers University)         |
             |    Nicola Marzari    (EPFL)                       |
             |    Ivo Souza         (Universidad del Pais Vasco) |
             |    Arash A. Mostofi  (Imperial College London)    |
             |    Jonathan R. Yates (University of Oxford)       |
             |                                                   |
             |  For the full list of Wannier90 3.x authors,      |
             |  please check the code documentation and the      |
             |  README on the GitHub page of the code            |
             |                                                   |
             |                                                   |
             |  Please cite                                      |
             |                                                   |
             |  [ref] "Wannier90 as a community code:            |
             |        new features and applications",            |
             |        G. Pizzi et al., J. Phys. Cond. Matt. 32,  |
             |        165902 (2020).                             |
             |        http://doi.org/10.1088/1361-648X/ab51ff    |
             |                                                   |
             |  in any publications arising from the use of      |
             |  this code. For the method please cite            |
             |                                                   |
             |  [ref] "Maximally Localized Generalised Wannier   |
             |         Functions for Composite Energy Bands"     |
             |         N. Marzari and D. Vanderbilt              |
             |         Phys. Rev. B 56 12847 (1997)              |
             |                                                   |
             |  [ref] "Maximally Localized Wannier Functions     |
             |         for Entangled Energy Bands"               |
             |         I. Souza, N. Marzari and D. Vanderbilt    |
             |         Phys. Rev. B 65 035109 (2001)             |
             |                                                   |
             |                                                   |
             | Copyright (c) 1996-2020                           |
             |        The Wannier90 Developer Group and          |
             |        individual contributors                    |
             |                                                   |
             |      Release: 3.1.0        5th March    2020      |
             |                                                   |
             | This program is free software; you can            |
             | redistribute it and/or modify it under the terms  |
             | of the GNU General Public License as published by |
             | the Free Software Foundation; either version 2 of |
             | the License, or (at your option) any later version|
             |                                                   |
             | This program is distributed in the hope that it   |
             | will be useful, but WITHOUT ANY WARRANTY; without |
             | even the implied warranty of MERCHANTABILITY or   |
             | FITNESS FOR A PARTICULAR PURPOSE. See the GNU     |
             | General Public License for more details.          |
             |                                                   |
             | You should have received a copy of the GNU General|
             | Public License along with this program; if not,   |
             | write to the Free Software Foundation, Inc.,      |
             | 675 Mass Ave, Cambridge, MA 02139, USA.           |
             |                                                   |
             +---------------------------------------------------+
             |    Execution started on  3Jan2024 at 14:30:09     |
             +---------------------------------------------------+
 
 ******************************************************************************
 * -> Using CODATA 2006 constant values                                       *
 *    (http://physics.nist.gov/cuu/Constants/index.html)                      *
 * -> Using Bohr value from CODATA                                            *
 ******************************************************************************
 

 Running in parallel on   8 CPUs

 
                                    ------
                                    SYSTEM
                                    ------
 
                              Lattice Vectors (Ang)
                    a_1     3.370447   0.000000   0.000000
                    a_2     0.000000   3.370447   0.000000
                    a_3     0.000000   0.000000   3.370447
 
                   Unit Cell Volume:      38.28798  (Ang^3)
 
                        Reciprocal-Space Vectors (Ang^-1)
                    b_1     1.864199   0.000000   0.000000
                    b_2     0.000000   1.864199   0.000000
                    b_3     0.000000   0.000000   1.864199
  
 *----------------------------------------------------------------------------*
 |   Site       Fractional Coordinate          Cartesian Coordinate (Ang)     |
 +----------------------------------------------------------------------------+
 | Rb   1   0.00000   0.00000   0.00000   |    0.00000   0.00000   0.00000    |
 | F    1   0.50000   0.50000   0.50000   |    1.68522   1.68522   1.68522    |
 *----------------------------------------------------------------------------*
                                ------------
                                K-POINT GRID
                                ------------
  
             Grid size = 12 x 12 x 12      Total points = 1728
  
  
 *---------------------------------- MAIN ------------------------------------*
 |  Number of Wannier Functions               :                 3             |
 |  Number of Objective Wannier Functions     :                 3             |
 |  Number of input Bloch states              :                 3             |
 |  Output verbosity (1=low, 5=high)          :                 1             |
 |  Timing Level (1=low, 5=high)              :                 1             |
 |  Optimisation (0=memory, 3=speed)          :                 3             |
 |  Length Unit                               :               Ang             |
 |  Post-processing setup (write *.nnkp)      :                 F             |
 |  Using Gamma-only branch of algorithms     :                 F             |
 *----------------------------------------------------------------------------*
 *------------------------------- WANNIERISE ---------------------------------*
 |  Total number of iterations                :               500             |
 |  Number of CG steps before reset           :                 5             |
 |  Trial step length for line search         :             2.000             |
 |  Convergence tolerence                     :         0.100E-09             |
 |  Convergence window                        :                -1             |
 |  Iterations between writing output         :                 1             |
 |  Iterations between backing up to disk     :               100             |
 |  Write r^2_nm to file                      :                 F             |
 |  Write xyz WF centres to file              :                 F             |
 |  Write on-site energies <0n|H|0n> to file  :                 F             |
 |  Use guiding centre to control phases      :                 F             |
 |  Use phases for initial projections        :                 F             |
 *----------------------------------------------------------------------------*
 Time to read parameters        0.103 (sec)

 *---------------------------------- K-MESH ----------------------------------*
 +----------------------------------------------------------------------------+
 |                    Distance to Nearest-Neighbour Shells                    |
 |                    ------------------------------------                    |
 |          Shell             Distance (Ang^-1)          Multiplicity         |
 |          -----             -----------------          ------------         |
 |             1                   0.155350                      6            |
 |             2                   0.219698                     12            |
 |             3                   0.269074                      8            |
 |             4                   0.310700                      6            |
 |             5                   0.347373                     24            |
 |             6                   0.380528                     24            |
 |             7                   0.439396                     12            |
 |             8                   0.466050                     30            |
 |             9                   0.491260                     24            |
 |            10                   0.515237                     24            |
 |            11                   0.538148                      8            |
 |            12                   0.560122                     24            |
 |            13                   0.581266                     48            |
 |            14                   0.621400                      6            |
 |            15                   0.640524                     48            |
 |            16                   0.659094                     36            |
 |            17                   0.677155                     24            |
 |            18                   0.694746                     24            |
 |            19                   0.711903                     48            |
 |            20                   0.728656                     24            |
 |            21                   0.761056                     24            |
 |            22                   0.776750                     30            |
 |            23                   0.792132                     72            |
 |            24                   0.807222                     32            |
 |            25                   0.836585                     72            |
 |            26                   0.850887                     48            |
 |            27                   0.878792                     12            |
 |            28                   0.892418                     48            |
 |            29                   0.905838                     48            |
 |            30                   0.919063                     48            |
 |            31                   0.932100                     30            |
 |            32                   0.944957                     24            |
 |            33                   0.957641                     72            |
 |            34                   0.982519                     24            |
 |            35                   0.994725                     96            |
 |            36                   1.006783                     48            |
 +----------------------------------------------------------------------------+
 | The b-vectors are chosen automatically                                     |
 | The following shells are used:   1                                         |
 +----------------------------------------------------------------------------+
 |                        Shell   # Nearest-Neighbours                        |
 |                        -----   --------------------                        |
 |                          1               6                                 |
 +----------------------------------------------------------------------------+
 | Completeness relation is fully satisfied [Eq. (B1), PRB 56, 12847 (1997)]  |
 +----------------------------------------------------------------------------+
 |                  b_k Vectors (Ang^-1) and Weights (Ang^2)                  |
 |                  ----------------------------------------                  |
 |            No.         b_k(x)      b_k(y)      b_k(z)        w_b           |
 |            ---        --------------------------------     --------        |
 |             1         0.000000    0.000000    0.155350    20.717999        |
 |             2         0.000000    0.155350    0.000000    20.717999        |
 |             3         0.155350    0.000000    0.000000    20.717999        |
 |             4         0.000000    0.000000   -0.155350    20.717999        |
 |             5         0.000000   -0.155350    0.000000    20.717999        |
 |             6        -0.155350    0.000000    0.000000    20.717999        |
 +----------------------------------------------------------------------------+
 |                           b_k Directions (Ang^-1)                          |
 |                           -----------------------                          |
 |            No.           x           y           z                         |
 |            ---        --------------------------------                     |
 |             1         0.000000    0.000000    0.155350                     |
 |             2         0.000000    0.155350    0.000000                     |
 |             3         0.155350    0.000000    0.000000                     |
 +----------------------------------------------------------------------------+
  
 Time to get kmesh              1.031 (sec)
 *============================================================================*
 |                              MEMORY ESTIMATE                               |
 |         Maximum RAM allocated during each phase of the calculation         |
 *============================================================================*
 |                            Wannierise:            5.52 Mb                  |
 |                          plot_wannier:            5.52 Mb                  |
 *----------------------------------------------------------------------------*
  
 Starting a new Wannier90 calculation ...


 Reading overlaps from mp-2064.mmn    :  Created on  3Jan2024 at 14:30: 6

 Reading projections from mp-2064.amn :  Created on  3Jan2024 at 14:30: 5  with SCDM

 Time to read overlaps          0.117 (sec)

 Writing checkpoint file mp-2064.chk... done

 
 *------------------------------- WANNIERISE ---------------------------------*
 +--------------------------------------------------------------------+<-- CONV
 | Iter  Delta Spread     RMS Gradient      Spread (Ang^2)      Time  |<-- CONV
 +--------------------------------------------------------------------+<-- CONV
 
 ------------------------------------------------------------------------------
 Initial State
  WF centre and spread    1  ( -1.685340, -1.685323,  1.685469 )     0.89741507
  WF centre and spread    2  ( -1.685340, -1.685323, -1.685469 )     0.89741483
  WF centre and spread    3  (  1.685463, -1.685056, -1.685223 )     0.89710167
  Sum of centres and spreads ( -1.685218, -5.055702, -1.685223 )     2.69193157
 
      0     0.269E+01     0.0000000000        2.6919336118       0.00  <-- CONV
        O_D=      0.0043426 O_OD=      0.0077092 O_TOT=      2.6919336 <-- SPRD
 ------------------------------------------------------------------------------
 Cycle:      1
  WF centre and spread    1  ( -1.685280, -1.685271,  1.685338 )     0.89479499
  WF centre and spread    2  ( -1.685280, -1.685272, -1.685338 )     0.89479456
  WF centre and spread    3  (  1.685337, -1.685142, -1.685223 )     0.89454666
  Sum of centres and spreads ( -1.685223, -5.055684, -1.685223 )     2.68413621
 
      1    -0.780E-02     0.0239706751        2.6841382565       0.01  <-- CONV
        O_D=      0.0006586 O_OD=      0.0035979 O_TOT=      2.6841383 <-- SPRD
 Delta: O_D= -0.3684023E-02 O_OD= -0.4111332E-02 O_TOT= -0.7795355E-02 <-- DLTA
 ------------------------------------------------------------------------------
 Cycle:      2
  WF centre and spread    1  ( -1.685276, -1.685267,  1.685329 )     0.89468596
  WF centre and spread    2  ( -1.685275, -1.685268, -1.685328 )     0.89468576
  WF centre and spread    3  (  1.685328, -1.685148, -1.685223 )     0.89444693
  Sum of centres and spreads ( -1.685224, -5.055683, -1.685223 )     2.68381865
 
      2    -0.318E-03     0.0142213109        2.6838206988       0.01  <-- CONV
        O_D=      0.0005123 O_OD=      0.0034265 O_TOT=      2.6838207 <-- SPRD
 Delta: O_D= -0.1462471E-03 O_OD= -0.1713106E-03 O_TOT= -0.3175577E-03 <-- DLTA
 ------------------------------------------------------------------------------
 Cycle:      3
  WF centre and spread    1  ( -1.685266, -1.685260,  1.685310 )     0.89459402
  WF centre and spread    2  ( -1.685266, -1.685260, -1.685310 )     0.89459381
  WF centre and spread    3  (  1.685309, -1.685162, -1.685223 )     0.89436133
  Sum of centres and spreads ( -1.685224, -5.055681, -1.685223 )     2.68354915
 
      3    -0.270E-03     0.0077737951        2.6835511937       0.02  <-- CONV
        O_D=      0.0003957 O_OD=      0.0032737 O_TOT=      2.6835512 <-- SPRD
 Delta: O_D= -0.1166498E-03 O_OD= -0.1528552E-03 O_TOT= -0.2695050E-03 <-- DLTA
 ------------------------------------------------------------------------------
 Cycle:      4
  WF centre and spread    1  ( -1.685249, -1.685245,  1.685274 )     0.89445671
  WF centre and spread    2  ( -1.685249, -1.685245, -1.685274 )     0.89445663
  WF centre and spread    3  (  1.685274, -1.685187, -1.685223 )     0.89422972
  Sum of centres and spreads ( -1.685223, -5.055677, -1.685223 )     2.68314306
 
      4    -0.406E-03     0.0104553615        2.6831451060       0.03  <-- CONV
        O_D=      0.0002086 O_OD=      0.0030547 O_TOT=      2.6831451 <-- SPRD
 Delta: O_D= -0.1870737E-03 O_OD= -0.2190140E-03 O_TOT= -0.4060877E-03 <-- DLTA
 ------------------------------------------------------------------------------
 Cycle:      5
  WF centre and spread    1  ( -1.685237, -1.685235,  1.685250 )     0.89437315
  WF centre and spread    2  ( -1.685237, -1.685235, -1.685250 )     0.89437294
  WF centre and spread    3  (  1.685250, -1.685204, -1.685223 )     0.89415338
  Sum of centres and spreads ( -1.685223, -5.055674, -1.685223 )     2.68289947
 
      5    -0.244E-03     0.0096445749        2.6829015189       0.03  <-- CONV
        O_D=      0.0001006 O_OD=      0.0029191 O_TOT=      2.6829015 <-- SPRD
 Delta: O_D= -0.1080352E-03 O_OD= -0.1355520E-03 O_TOT= -0.2435872E-03 <-- DLTA
 ------------------------------------------------------------------------------
 Cycle:      6
  WF centre and spread    1  ( -1.685229, -1.685229,  1.685236 )     0.89432864
  WF centre and spread    2  ( -1.685229, -1.685229, -1.685236 )     0.89432836
  WF centre and spread    3  (  1.685235, -1.685215, -1.685223 )     0.89411169
  Sum of centres and spreads ( -1.685223, -5.055672, -1.685223 )     2.68276869
 
      6    -0.131E-03     0.0070714925        2.6827707321       0.04  <-- CONV
        O_D=      0.0000418 O_OD=      0.0028471 O_TOT=      2.6827707 <-- SPRD
 Delta: O_D= -0.5874624E-04 O_OD= -0.7204052E-04 O_TOT= -0.1307868E-03 <-- DLTA
 ------------------------------------------------------------------------------
 Cycle:      7
  WF centre and spread    1  ( -1.685229, -1.685228,  1.685236 )     0.89431540
  WF centre and spread    2  ( -1.685229, -1.685229, -1.685235 )     0.89431517
  WF centre and spread    3  (  1.685235, -1.685215, -1.685223 )     0.89409931
  Sum of centres and spreads ( -1.685223, -5.055672, -1.685223 )     2.68272987
 
      7    -0.388E-04     0.0048495658        2.6827319182       0.04  <-- CONV
        O_D=      0.0000239 O_OD=      0.0028262 O_TOT=      2.6827319 <-- SPRD
 Delta: O_D= -0.1796097E-04 O_OD= -0.2085296E-04 O_TOT= -0.3881392E-04 <-- DLTA
 ------------------------------------------------------------------------------
 Cycle:      8
  WF centre and spread    1  ( -1.685229, -1.685228,  1.685235 )     0.89430733
  WF centre and spread    2  ( -1.685229, -1.685228, -1.685234 )     0.89430710
  WF centre and spread    3  (  1.685234, -1.685216, -1.685223 )     0.89409148
  Sum of centres and spreads ( -1.685223, -5.055672, -1.685223 )     2.68270591
 
      8    -0.240E-04     0.0029843444        2.6827079515       0.05  <-- CONV
        O_D=      0.0000119 O_OD=      0.0028142 O_TOT=      2.6827080 <-- SPRD
 Delta: O_D= -0.1196888E-04 O_OD= -0.1199783E-04 O_TOT= -0.2396671E-04 <-- DLTA
 ------------------------------------------------------------------------------
 Cycle:      9
  WF centre and spread    1  ( -1.685228, -1.685227,  1.685233 )     0.89430310
  WF centre and spread    2  ( -1.685228, -1.685228, -1.685233 )     0.89430290
  WF centre and spread    3  (  1.685233, -1.685216, -1.685223 )     0.89408736
  Sum of centres and spreads ( -1.685223, -5.055672, -1.685223 )     2.68269336
 
      9    -0.125E-04     0.0022304285        2.6826954079       0.06  <-- CONV
        O_D=      0.0000060 O_OD=      0.0028076 O_TOT=      2.6826954 <-- SPRD
 Delta: O_D= -0.5940715E-05 O_OD= -0.6602843E-05 O_TOT= -0.1254356E-04 <-- DLTA
 ------------------------------------------------------------------------------
 Cycle:     10
  WF centre and spread    1  ( -1.685228, -1.685227,  1.685233 )     0.89430172
  WF centre and spread    2  ( -1.685228, -1.685227, -1.685232 )     0.89430152
  WF centre and spread    3  (  1.685232, -1.685217, -1.685223 )     0.89408609
  Sum of centres and spreads ( -1.685223, -5.055671, -1.685223 )     2.68268932
 
     10    -0.404E-05     0.0013800394        2.6826913679       0.06  <-- CONV
        O_D=      0.0000040 O_OD=      0.0028055 O_TOT=      2.6826914 <-- SPRD
 Delta: O_D= -0.1956483E-05 O_OD= -0.2083532E-05 O_TOT= -0.4040015E-05 <-- DLTA
 ------------------------------------------------------------------------------
 Cycle:     11
  WF centre and spread    1  ( -1.685227, -1.685227,  1.685232 )     0.89430094
  WF centre and spread    2  ( -1.685227, -1.685227, -1.685231 )     0.89430074
  WF centre and spread    3  (  1.685231, -1.685218, -1.685223 )     0.89408536
  Sum of centres and spreads ( -1.685223, -5.055671, -1.685223 )     2.68268704
 
     11    -0.228E-05     0.0008464459        2.6826890866       0.07  <-- CONV
        O_D=      0.0000030 O_OD=      0.0028043 O_TOT=      2.6826891 <-- SPRD
 Delta: O_D= -0.1031883E-05 O_OD= -0.1249396E-05 O_TOT= -0.2281279E-05 <-- DLTA
 ------------------------------------------------------------------------------
 Cycle:     12
  WF centre and spread    1  ( -1.685226, -1.685226,  1.685229 )     0.89429982
  WF centre and spread    2  ( -1.685226, -1.685226, -1.685229 )     0.89429961
  WF centre and spread    3  (  1.685229, -1.685220, -1.685223 )     0.89408436
  Sum of centres and spreads ( -1.685223, -5.055671, -1.685223 )     2.68268379
 
     12    -0.325E-05     0.0009019695        2.6826858340       0.07  <-- CONV
        O_D=      0.0000015 O_OD=      0.0028025 O_TOT=      2.6826858 <-- SPRD
 Delta: O_D= -0.1489473E-05 O_OD= -0.1763144E-05 O_TOT= -0.3252617E-05 <-- DLTA
 ------------------------------------------------------------------------------
 Cycle:     13
  WF centre and spread    1  ( -1.685226, -1.685226,  1.685229 )     0.89429946
  WF centre and spread    2  ( -1.685226, -1.685226, -1.685229 )     0.89429926
  WF centre and spread    3  (  1.685228, -1.685220, -1.685223 )     0.89408402
  Sum of centres and spreads ( -1.685223, -5.055671, -1.685223 )     2.68268274
 
     13    -0.105E-05     0.0007501847        2.6826847829       0.08  <-- CONV
        O_D=      0.0000010 O_OD=      0.0028019 O_TOT=      2.6826848 <-- SPRD
 Delta: O_D= -0.4454480E-06 O_OD= -0.6056539E-06 O_TOT= -0.1051102E-05 <-- DLTA
 ------------------------------------------------------------------------------
 Cycle:     14
  WF centre and spread    1  ( -1.685226, -1.685225,  1.685229 )     0.89429925
  WF centre and spread    2  ( -1.685226, -1.685226, -1.685228 )     0.89429905
  WF centre and spread    3  (  1.685228, -1.685220, -1.685223 )     0.89408382
  Sum of centres and spreads ( -1.685223, -5.055671, -1.685223 )     2.68268211
 
     14    -0.624E-06     0.0004863513        2.6826841592       0.09  <-- CONV
        O_D=      0.0000008 O_OD=      0.0028016 O_TOT=      2.6826842 <-- SPRD
 Delta: O_D= -0.2821278E-06 O_OD= -0.3415960E-06 O_TOT= -0.6237238E-06 <-- DLTA
 ------------------------------------------------------------------------------
 Cycle:     15
  WF centre and spread    1  ( -1.685225, -1.685225,  1.685228 )     0.89429906
  WF centre and spread    2  ( -1.685225, -1.685225, -1.685227 )     0.89429885
  WF centre and spread    3  (  1.685227, -1.685221, -1.685223 )     0.89408364
  Sum of centres and spreads ( -1.685223, -5.055671, -1.685223 )     2.68268155
 
     15    -0.561E-06     0.0003920460        2.6826835981       0.09  <-- CONV
        O_D=      0.0000005 O_OD=      0.0028012 O_TOT=      2.6826836 <-- SPRD
 Delta: O_D= -0.2229496E-06 O_OD= -0.3381541E-06 O_TOT= -0.5611037E-06 <-- DLTA
 ------------------------------------------------------------------------------
 Cycle:     16
  WF centre and spread    1  ( -1.685225, -1.685225,  1.685227 )     0.89429891
  WF centre and spread    2  ( -1.685225, -1.685225, -1.685226 )     0.89429870
  WF centre and spread    3  (  1.685226, -1.685221, -1.685223 )     0.89408350
  Sum of centres and spreads ( -1.685223, -5.055671, -1.685223 )     2.68268112
 
     16    -0.438E-06     0.0003845836        2.6826831605       0.10  <-- CONV
        O_D=      0.0000004 O_OD=      0.0028010 O_TOT=      2.6826832 <-- SPRD
 Delta: O_D= -0.1850729E-06 O_OD= -0.2525473E-06 O_TOT= -0.4376202E-06 <-- DLTA
 ------------------------------------------------------------------------------
 Cycle:     17
  WF centre and spread    1  ( -1.685224, -1.685224,  1.685226 )     0.89429878
  WF centre and spread    2  ( -1.685224, -1.685224, -1.685225 )     0.89429857
  WF centre and spread    3  (  1.685225, -1.685222, -1.685223 )     0.89408338
  Sum of centres and spreads ( -1.685223, -5.055671, -1.685223 )     2.68268074
 
     17    -0.376E-06     0.0003414697        2.6826827847       0.10  <-- CONV
        O_D=      0.0000002 O_OD=      0.0028008 O_TOT=      2.6826828 <-- SPRD
 Delta: O_D= -0.1477715E-06 O_OD= -0.2280053E-06 O_TOT= -0.3757768E-06 <-- DLTA
 ------------------------------------------------------------------------------
 Cycle:     18
  WF centre and spread    1  ( -1.685224, -1.685224,  1.685225 )     0.89429870
  WF centre and spread    2  ( -1.685224, -1.685224, -1.685225 )     0.89429850
  WF centre and spread    3  (  1.685224, -1.685223, -1.685223 )     0.89408331
  Sum of centres and spreads ( -1.685223, -5.055671, -1.685223 )     2.68268051
 
     18    -0.233E-06     0.0003063848        2.6826825519       0.11  <-- CONV
        O_D=      0.0000001 O_OD=      0.0028006 O_TOT=      2.6826826 <-- SPRD
 Delta: O_D= -0.1042062E-06 O_OD= -0.1285277E-06 O_TOT= -0.2327339E-06 <-- DLTA
 ------------------------------------------------------------------------------
 Cycle:     19
  WF centre and spread    1  ( -1.685224, -1.685224,  1.685225 )     0.89429867
  WF centre and spread    2  ( -1.685224, -1.685224, -1.685225 )     0.89429846
  WF centre and spread    3  (  1.685224, -1.685223, -1.685223 )     0.89408328
  Sum of centres and spreads ( -1.685223, -5.055670, -1.685223 )     2.68268042
 
     19    -0.919E-07     0.0002374049        2.6826824600       0.12  <-- CONV
        O_D=      0.0000001 O_OD=      0.0028006 O_TOT=      2.6826825 <-- SPRD
 Delta: O_D= -0.3955662E-07 O_OD= -0.5235632E-07 O_TOT= -0.9191295E-07 <-- DLTA
 ------------------------------------------------------------------------------
 Cycle:     20
  WF centre and spread    1  ( -1.685224, -1.685224,  1.685225 )     0.89429865
  WF centre and spread    2  ( -1.685224, -1.685224, -1.685224 )     0.89429845
  WF centre and spread    3  (  1.685224, -1.685223, -1.685223 )     0.89408326
  Sum of centres and spreads ( -1.685223, -5.055670, -1.685223 )     2.68268036
 
     20    -0.581E-07     0.0001460428        2.6826824020       0.12  <-- CONV
        O_D=      0.0000000 O_OD=      0.0028006 O_TOT=      2.6826824 <-- SPRD
 Delta: O_D= -0.2690568E-07 O_OD= -0.3117757E-07 O_TOT= -0.5808325E-07 <-- DLTA
 ------------------------------------------------------------------------------
 Cycle:     21
  WF centre and spread    1  ( -1.685224, -1.685224,  1.685225 )     0.89429864
  WF centre and spread    2  ( -1.685224, -1.685224, -1.685224 )     0.89429843
  WF centre and spread    3  (  1.685224, -1.685223, -1.685223 )     0.89408325
  Sum of centres and spreads ( -1.685223, -5.055670, -1.685223 )     2.68268032
 
     21    -0.371E-07     0.0001153887        2.6826823649       0.13  <-- CONV
        O_D=      0.0000000 O_OD=      0.0028005 O_TOT=      2.6826824 <-- SPRD
 Delta: O_D= -0.1490613E-07 O_OD= -0.2218813E-07 O_TOT= -0.3709426E-07 <-- DLTA
 ------------------------------------------------------------------------------
 Cycle:     22
  WF centre and spread    1  ( -1.685224, -1.685224,  1.685225 )     0.89429863
  WF centre and spread    2  ( -1.685224, -1.685224, -1.685224 )     0.89429843
  WF centre and spread    3  (  1.685224, -1.685223, -1.685223 )     0.89408324
  Sum of centres and spreads ( -1.685223, -5.055670, -1.685223 )     2.68268030
 
     22    -0.158E-07     0.0000858167        2.6826823491       0.13  <-- CONV
        O_D=      0.0000000 O_OD=      0.0028005 O_TOT=      2.6826823 <-- SPRD
 Delta: O_D= -0.6923458E-08 O_OD= -0.8873431E-08 O_TOT= -0.1579689E-07 <-- DLTA
 ------------------------------------------------------------------------------
 Cycle:     23
  WF centre and spread    1  ( -1.685224, -1.685224,  1.685224 )     0.89429863
  WF centre and spread    2  ( -1.685224, -1.685224, -1.685224 )     0.89429843
  WF centre and spread    3  (  1.685224, -1.685223, -1.685223 )     0.89408324
  Sum of centres and spreads ( -1.685223, -5.055670, -1.685223 )     2.68268030
 
     23    -0.825E-08     0.0000531026        2.6826823408       0.14  <-- CONV
        O_D=      0.0000000 O_OD=      0.0028005 O_TOT=      2.6826823 <-- SPRD
 Delta: O_D= -0.3100536E-08 O_OD= -0.5150224E-08 O_TOT= -0.8250760E-08 <-- DLTA
 ------------------------------------------------------------------------------
 Cycle:     24
  WF centre and spread    1  ( -1.685224, -1.685224,  1.685224 )     0.89429863
  WF centre and spread    2  ( -1.685223, -1.685224, -1.685224 )     0.89429842
  WF centre and spread    3  (  1.685224, -1.685223, -1.685223 )     0.89408324
  Sum of centres and spreads ( -1.685223, -5.055670, -1.685223 )     2.68268029
 
     24    -0.756E-08     0.0000468755        2.6826823332       0.15  <-- CONV
        O_D=      0.0000000 O_OD=      0.0028005 O_TOT=      2.6826823 <-- SPRD
 Delta: O_D= -0.3053071E-08 O_OD= -0.4510570E-08 O_TOT= -0.7563641E-08 <-- DLTA
 ------------------------------------------------------------------------------
 Cycle:     25
  WF centre and spread    1  ( -1.685224, -1.685224,  1.685224 )     0.89429863
  WF centre and spread    2  ( -1.685223, -1.685224, -1.685224 )     0.89429842
  WF centre and spread    3  (  1.685224, -1.685223, -1.685223 )     0.89408324
  Sum of centres and spreads ( -1.685223, -5.055670, -1.685223 )     2.68268028
 
     25    -0.481E-08     0.0000533285        2.6826823284       0.15  <-- CONV
        O_D=      0.0000000 O_OD=      0.0028005 O_TOT=      2.6826823 <-- SPRD
 Delta: O_D= -0.2004772E-08 O_OD= -0.2800667E-08 O_TOT= -0.4805439E-08 <-- DLTA
 ------------------------------------------------------------------------------
 Cycle:     26
  WF centre and spread    1  ( -1.685224, -1.685224,  1.685224 )     0.89429862
  WF centre and spread    2  ( -1.685223, -1.685224, -1.685224 )     0.89429842
  WF centre and spread    3  (  1.685224, -1.685223, -1.685223 )     0.89408324
  Sum of centres and spreads ( -1.685223, -5.055670, -1.685223 )     2.68268028
 
     26    -0.271E-08     0.0000335576        2.6826823257       0.16  <-- CONV
        O_D=      0.0000000 O_OD=      0.0028005 O_TOT=      2.6826823 <-- SPRD
 Delta: O_D= -0.1116031E-08 O_OD= -0.1590499E-08 O_TOT= -0.2706531E-08 <-- DLTA
 ------------------------------------------------------------------------------
 Cycle:     27
  WF centre and spread    1  ( -1.685224, -1.685223,  1.685224 )     0.89429862
  WF centre and spread    2  ( -1.685223, -1.685224, -1.685224 )     0.89429842
  WF centre and spread    3  (  1.685224, -1.685223, -1.685223 )     0.89408324
  Sum of centres and spreads ( -1.685223, -5.055670, -1.685223 )     2.68268028
 
     27    -0.294E-08     0.0000353882        2.6826823228       0.16  <-- CONV
        O_D=      0.0000000 O_OD=      0.0028005 O_TOT=      2.6826823 <-- SPRD
 Delta: O_D= -0.1126484E-08 O_OD= -0.1813890E-08 O_TOT= -0.2940374E-08 <-- DLTA
 ------------------------------------------------------------------------------
 Cycle:     28
  WF centre and spread    1  ( -1.685223, -1.685223,  1.685224 )     0.89429862
  WF centre and spread    2  ( -1.685223, -1.685224, -1.685224 )     0.89429842
  WF centre and spread    3  (  1.685224, -1.685223, -1.685223 )     0.89408323
  Sum of centres and spreads ( -1.685223, -5.055670, -1.685223 )     2.68268028
 
     28    -0.276E-08     0.0000307667        2.6826823200       0.17  <-- CONV
        O_D=      0.0000000 O_OD=      0.0028005 O_TOT=      2.6826823 <-- SPRD
 Delta: O_D= -0.1194392E-08 O_OD= -0.1560859E-08 O_TOT= -0.2755251E-08 <-- DLTA
 ------------------------------------------------------------------------------
 Cycle:     29
  WF centre and spread    1  ( -1.685223, -1.685223,  1.685224 )     0.89429862
  WF centre and spread    2  ( -1.685223, -1.685224, -1.685224 )     0.89429842
  WF centre and spread    3  (  1.685224, -1.685223, -1.685223 )     0.89408323
  Sum of centres and spreads ( -1.685223, -5.055670, -1.685223 )     2.68268028
 
     29    -0.264E-11     0.0000263116        2.6826823200       0.17  <-- CONV
        O_D=      0.0000000 O_OD=      0.0028005 O_TOT=      2.6826823 <-- SPRD
 Delta: O_D= -0.1173962E-11 O_OD= -0.1470425E-11 O_TOT= -0.2644995E-11 <-- DLTA
 ------------------------------------------------------------------------------
 Cycle:     30
  WF centre and spread    1  ( -1.685223, -1.685223,  1.685224 )     0.89429862
  WF centre and spread    2  ( -1.685223, -1.685224, -1.685224 )     0.89429842
  WF centre and spread    3  (  1.685224, -1.685223, -1.685223 )     0.89408323
  Sum of centres and spreads ( -1.685223, -5.055670, -1.685223 )     2.68268027
 
     30    -0.149E-08     0.0000262915        2.6826823185       0.18  <-- CONV
        O_D=      0.0000000 O_OD=      0.0028005 O_TOT=      2.6826823 <-- SPRD
 Delta: O_D= -0.5839097E-09 O_OD= -0.9023051E-09 O_TOT= -0.1486214E-08 <-- DLTA
 ------------------------------------------------------------------------------
 Cycle:     31
  WF centre and spread    1  ( -1.685223, -1.685223,  1.685224 )     0.89429862
  WF centre and spread    2  ( -1.685223, -1.685224, -1.685224 )     0.89429842
  WF centre and spread    3  (  1.685224, -1.685223, -1.685223 )     0.89408323
  Sum of centres and spreads ( -1.685223, -5.055670, -1.685223 )     2.68268027
 
     31    -0.117E-11     0.0000170271        2.6826823185       0.18  <-- CONV
        O_D=      0.0000000 O_OD=      0.0028005 O_TOT=      2.6826823 <-- SPRD
 Delta: O_D= -0.6311664E-12 O_OD= -0.5342159E-12 O_TOT= -0.1165734E-11 <-- DLTA
 ------------------------------------------------------------------------------
 Cycle:     32
  WF centre and spread    1  ( -1.685223, -1.685223,  1.685224 )     0.89429862
  WF centre and spread    2  ( -1.685223, -1.685224, -1.685224 )     0.89429842
  WF centre and spread    3  (  1.685224, -1.685223, -1.685223 )     0.89408323
  Sum of centres and spreads ( -1.685223, -5.055670, -1.685223 )     2.68268027
 
     32    -0.437E-09     0.0000170046        2.6826823181       0.19  <-- CONV
        O_D=      0.0000000 O_OD=      0.0028005 O_TOT=      2.6826823 <-- SPRD
 Delta: O_D= -0.2079278E-09 O_OD= -0.2292935E-09 O_TOT= -0.4372209E-09 <-- DLTA
 ------------------------------------------------------------------------------
 Cycle:     33
  WF centre and spread    1  ( -1.685223, -1.685223,  1.685224 )     0.89429862
  WF centre and spread    2  ( -1.685223, -1.685224, -1.685224 )     0.89429842
  WF centre and spread    3  (  1.685224, -1.685223, -1.685223 )     0.89408323
  Sum of centres and spreads ( -1.685223, -5.055670, -1.685223 )     2.68268027
 
     33    -0.609E-12     0.0000113993        2.6826823181       0.19  <-- CONV
        O_D=      0.0000000 O_OD=      0.0028005 O_TOT=      2.6826823 <-- SPRD
 Delta: O_D= -0.2331529E-12 O_OD= -0.3757363E-12 O_TOT= -0.6088463E-12 <-- DLTA
 ------------------------------------------------------------------------------
 Cycle:     34
  WF centre and spread    1  ( -1.685223, -1.685223,  1.685224 )     0.89429862
  WF centre and spread    2  ( -1.685223, -1.685224, -1.685224 )     0.89429842
  WF centre and spread    3  (  1.685224, -1.685223, -1.685223 )     0.89408323
  Sum of centres and spreads ( -1.685223, -5.055670, -1.685223 )     2.68268027
 
     34    -0.113E-11     0.0000114022        2.6826823181       0.20  <-- CONV
        O_D=      0.0000000 O_OD=      0.0028005 O_TOT=      2.6826823 <-- SPRD
 Delta: O_D= -0.4942222E-12 O_OD= -0.6373001E-12 O_TOT= -0.1131539E-11 <-- DLTA
 ------------------------------------------------------------------------------
 Cycle:     35
  WF centre and spread    1  ( -1.685223, -1.685223,  1.685224 )     0.89429862
  WF centre and spread    2  ( -1.685223, -1.685224, -1.685224 )     0.89429842
  WF centre and spread    3  (  1.685223, -1.685223, -1.685223 )     0.89408323
  Sum of centres and spreads ( -1.685223, -5.055670, -1.685223 )     2.68268027
 
     35    -0.803E-09     0.0000113961        2.6826823173       0.20  <-- CONV
        O_D=      0.0000000 O_OD=      0.0028005 O_TOT=      2.6826823 <-- SPRD
 Delta: O_D= -0.2828879E-09 O_OD= -0.5197987E-09 O_TOT= -0.8026868E-09 <-- DLTA
 ------------------------------------------------------------------------------
 Cycle:     36
  WF centre and spread    1  ( -1.685223, -1.685223,  1.685224 )     0.89429862
  WF centre and spread    2  ( -1.685223, -1.685224, -1.685224 )     0.89429842
  WF centre and spread    3  (  1.685223, -1.685223, -1.685223 )     0.89408323
  Sum of centres and spreads ( -1.685223, -5.055670, -1.685223 )     2.68268027
 
     36    -0.498E-10     0.0000156390        2.6826823173       0.21  <-- CONV
        O_D=      0.0000000 O_OD=      0.0028005 O_TOT=      2.6826823 <-- SPRD
 Delta: O_D= -0.9638728E-11 O_OD= -0.4013400E-10 O_TOT= -0.4977307E-10 <-- DLTA
 ------------------------------------------------------------------------------
 Cycle:     37
  WF centre and spread    1  ( -1.685223, -1.685223,  1.685224 )     0.89429862
  WF centre and spread    2  ( -1.685223, -1.685224, -1.685224 )     0.89429842
  WF centre and spread    3  (  1.685223, -1.685223, -1.685223 )     0.89408323
  Sum of centres and spreads ( -1.685223, -5.055670, -1.685223 )     2.68268027
 
     37    -0.302E-09     0.0000170221        2.6826823170       0.21  <-- CONV
        O_D=      0.0000000 O_OD=      0.0028005 O_TOT=      2.6826823 <-- SPRD
 Delta: O_D= -0.1831407E-09 O_OD= -0.1191503E-09 O_TOT= -0.3022906E-09 <-- DLTA
 ------------------------------------------------------------------------------
 Cycle:     38
  WF centre and spread    1  ( -1.685223, -1.685223,  1.685224 )     0.89429862
  WF centre and spread    2  ( -1.685223, -1.685224, -1.685224 )     0.89429842
  WF centre and spread    3  (  1.685223, -1.685223, -1.685223 )     0.89408323
  Sum of centres and spreads ( -1.685223, -5.055670, -1.685223 )     2.68268027
 
     38    -0.330E-12     0.0000078260        2.6826823170       0.22  <-- CONV
        O_D=      0.0000000 O_OD=      0.0028005 O_TOT=      2.6826823 <-- SPRD
 Delta: O_D= -0.1489198E-12 O_OD= -0.1815692E-12 O_TOT= -0.3304024E-12 <-- DLTA
 ------------------------------------------------------------------------------
 Cycle:     39
  WF centre and spread    1  ( -1.685223, -1.685223,  1.685224 )     0.89429862
  WF centre and spread    2  ( -1.685223, -1.685224, -1.685224 )     0.89429842
  WF centre and spread    3  (  1.685223, -1.685223, -1.685223 )     0.89408323
  Sum of centres and spreads ( -1.685223, -5.055670, -1.685223 )     2.68268027
 
     39    -0.575E-12     0.0000078189        2.6826823170       0.22  <-- CONV
        O_D=      0.0000000 O_OD=      0.0028005 O_TOT=      2.6826823 <-- SPRD
 Delta: O_D= -0.2551944E-12 O_OD= -0.3199272E-12 O_TOT= -0.5750955E-12 <-- DLTA
 ------------------------------------------------------------------------------
 Cycle:     40
  WF centre and spread    1  ( -1.685223, -1.685223,  1.685224 )     0.89429862
  WF centre and spread    2  ( -1.685223, -1.685224, -1.685224 )     0.89429842
  WF centre and spread    3  (  1.685223, -1.685223, -1.685223 )     0.89408323
  Sum of centres and spreads ( -1.685223, -5.055670, -1.685223 )     2.68268027
 
     40    -0.182E-09     0.0000078074        2.6826823168       0.23  <-- CONV
        O_D=      0.0000000 O_OD=      0.0028005 O_TOT=      2.6826823 <-- SPRD
 Delta: O_D= -0.6622103E-10 O_OD= -0.1153669E-09 O_TOT= -0.1815885E-09 <-- DLTA
 ------------------------------------------------------------------------------
 Cycle:     41
  WF centre and spread    1  ( -1.685223, -1.685223,  1.685224 )     0.89429862
  WF centre and spread    2  ( -1.685223, -1.685224, -1.685224 )     0.89429842
  WF centre and spread    3  (  1.685223, -1.685223, -1.685223 )     0.89408323
  Sum of centres and spreads ( -1.685223, -5.055670, -1.685223 )     2.68268027
 
     41    -0.308E-10     0.0000079127        2.6826823167       0.23  <-- CONV
        O_D=      0.0000000 O_OD=      0.0028005 O_TOT=      2.6826823 <-- SPRD
 Delta: O_D= -0.9038757E-11 O_OD= -0.2178945E-10 O_TOT= -0.3082778E-10 <-- DLTA
 ------------------------------------------------------------------------------
 Cycle:     42
  WF centre and spread    1  ( -1.685223, -1.685223,  1.685224 )     0.89429862
  WF centre and spread    2  ( -1.685223, -1.685224, -1.685224 )     0.89429842
  WF centre and spread    3  (  1.685223, -1.685223, -1.685223 )     0.89408323
  Sum of centres and spreads ( -1.685223, -5.055670, -1.685223 )     2.68268027
 
     42    -0.564E-10     0.0000089981        2.6826823167       0.24  <-- CONV
        O_D=      0.0000000 O_OD=      0.0028005 O_TOT=      2.6826823 <-- SPRD
 Delta: O_D= -0.2628312E-10 O_OD= -0.3010957E-10 O_TOT= -0.5639267E-10 <-- DLTA
 ------------------------------------------------------------------------------
 Cycle:     43
  WF centre and spread    1  ( -1.685223, -1.685223,  1.685224 )     0.89429862
  WF centre and spread    2  ( -1.685223, -1.685224, -1.685224 )     0.89429842
  WF centre and spread    3  (  1.685223, -1.685223, -1.685223 )     0.89408323
  Sum of centres and spreads ( -1.685223, -5.055670, -1.685223 )     2.68268027
 
     43    -0.336E-12     0.0000091390        2.6826823167       0.24  <-- CONV
        O_D=      0.0000000 O_OD=      0.0028005 O_TOT=      2.6826823 <-- SPRD
 Delta: O_D= -0.1682555E-12 O_OD= -0.1674784E-12 O_TOT= -0.3357314E-12 <-- DLTA
 ------------------------------------------------------------------------------
 Cycle:     44
  WF centre and spread    1  ( -1.685223, -1.685223,  1.685224 )     0.89429862
  WF centre and spread    2  ( -1.685223, -1.685224, -1.685224 )     0.89429842
  WF centre and spread    3  (  1.685223, -1.685223, -1.685223 )     0.89408323
  Sum of centres and spreads ( -1.685223, -5.055670, -1.685223 )     2.68268027
 
     44    -0.669E-12     0.0000091274        2.6826823167       0.25  <-- CONV
        O_D=      0.0000000 O_OD=      0.0028005 O_TOT=      2.6826823 <-- SPRD
 Delta: O_D= -0.3351164E-12 O_OD= -0.3338237E-12 O_TOT= -0.6692424E-12 <-- DLTA
 ------------------------------------------------------------------------------
 Cycle:     45
  WF centre and spread    1  ( -1.685223, -1.685223,  1.685224 )     0.89429862
  WF centre and spread    2  ( -1.685223, -1.685224, -1.685224 )     0.89429842
  WF centre and spread    3  (  1.685223, -1.685223, -1.685223 )     0.89408323
  Sum of centres and spreads ( -1.685223, -5.055670, -1.685223 )     2.68268027
 
     45    -0.132E-09     0.0000091045        2.6826823166       0.25  <-- CONV
        O_D=      0.0000000 O_OD=      0.0028005 O_TOT=      2.6826823 <-- SPRD
 Delta: O_D= -0.5761091E-10 O_OD= -0.7396530E-10 O_TOT= -0.1315761E-09 <-- DLTA
 ------------------------------------------------------------------------------
 Cycle:     46
  WF centre and spread    1  ( -1.685223, -1.685223,  1.685224 )     0.89429862
  WF centre and spread    2  ( -1.685223, -1.685224, -1.685224 )     0.89429842
  WF centre and spread    3  (  1.685223, -1.685223, -1.685223 )     0.89408323
  Sum of centres and spreads ( -1.685223, -5.055670, -1.685223 )     2.68268027
 
     46    -0.140E-12     0.0000053205        2.6826823166       0.25  <-- CONV
        O_D=      0.0000000 O_OD=      0.0028005 O_TOT=      2.6826823 <-- SPRD
 Delta: O_D= -0.5044883E-13 O_OD= -0.8943237E-13 O_TOT= -0.1398881E-12 <-- DLTA
 ------------------------------------------------------------------------------
 Cycle:     47
  WF centre and spread    1  ( -1.685223, -1.685223,  1.685224 )     0.89429862
  WF centre and spread    2  ( -1.685223, -1.685224, -1.685224 )     0.89429842
  WF centre and spread    3  (  1.685223, -1.685223, -1.685223 )     0.89408323
  Sum of centres and spreads ( -1.685223, -5.055670, -1.685223 )     2.68268027
 
     47    -0.253E-12     0.0000053208        2.6826823166       0.26  <-- CONV
        O_D=      0.0000000 O_OD=      0.0028005 O_TOT=      2.6826823 <-- SPRD
 Delta: O_D= -0.1108454E-12 O_OD= -0.1425669E-12 O_TOT= -0.2531308E-12 <-- DLTA
 ------------------------------------------------------------------------------
 Cycle:     48
  WF centre and spread    1  ( -1.685223, -1.685223,  1.685224 )     0.89429862
  WF centre and spread    2  ( -1.685223, -1.685224, -1.685224 )     0.89429842
  WF centre and spread    3  (  1.685223, -1.685223, -1.685223 )     0.89408323
  Sum of centres and spreads ( -1.685223, -5.055670, -1.685223 )     2.68268027
 
     48    -0.366E-12     0.0000053156        2.6826823166       0.26  <-- CONV
        O_D=      0.0000000 O_OD=      0.0028005 O_TOT=      2.6826823 <-- SPRD
 Delta: O_D= -0.1707705E-12 O_OD= -0.1952102E-12 O_TOT= -0.3663736E-12 <-- DLTA
 ------------------------------------------------------------------------------
 Cycle:     49
  WF centre and spread    1  ( -1.685223, -1.685223,  1.685224 )     0.89429862
  WF centre and spread    2  ( -1.685223, -1.685224, -1.685224 )     0.89429842
  WF centre and spread    3  (  1.685223, -1.685223, -1.685223 )     0.89408323
  Sum of centres and spreads ( -1.685223, -5.055670, -1.685223 )     2.68268027
 
     49    -0.113E-12     0.0000053048        2.6826823166       0.26  <-- CONV
        O_D=      0.0000000 O_OD=      0.0028005 O_TOT=      2.6826823 <-- SPRD
 Delta: O_D= -0.6010211E-13 O_OD= -0.5303874E-13 O_TOT= -0.1127987E-12 <-- DLTA
 ------------------------------------------------------------------------------
 Cycle:     50
  WF centre and spread    1  ( -1.685223, -1.685223,  1.685224 )     0.89429862
  WF centre and spread    2  ( -1.685223, -1.685224, -1.685224 )     0.89429842
  WF centre and spread    3  (  1.685223, -1.685223, -1.685223 )     0.89408323
  Sum of centres and spreads ( -1.685223, -5.055670, -1.685223 )     2.68268027
 
     50    -0.226E-12     0.0000052994        2.6826823166       0.27  <-- CONV
        O_D=      0.0000000 O_OD=      0.0028005 O_TOT=      2.6826823 <-- SPRD
 Delta: O_D= -0.1197629E-12 O_OD= -0.1058134E-12 O_TOT= -0.2255973E-12 <-- DLTA
 ------------------------------------------------------------------------------
 Cycle:     51
  WF centre and spread    1  ( -1.685223, -1.685223,  1.685224 )     0.89429862
  WF centre and spread    2  ( -1.685223, -1.685224, -1.685224 )     0.89429842
  WF centre and spread    3  (  1.685223, -1.685223, -1.685223 )     0.89408323
  Sum of centres and spreads ( -1.685223, -5.055670, -1.685223 )     2.68268027
 
     51    -0.337E-12     0.0000052885        2.6826823166       0.27  <-- CONV
        O_D=      0.0000000 O_OD=      0.0028005 O_TOT=      2.6826823 <-- SPRD
 Delta: O_D= -0.1784254E-12 O_OD= -0.1579756E-12 O_TOT= -0.3366196E-12 <-- DLTA
 ------------------------------------------------------------------------------
 Cycle:     52
  WF centre and spread    1  ( -1.685223, -1.685223,  1.685224 )     0.89429862
  WF centre and spread    2  ( -1.685223, -1.685224, -1.685224 )     0.89429842
  WF centre and spread    3  (  1.685223, -1.685223, -1.685223 )     0.89408323
  Sum of centres and spreads ( -1.685223, -5.055670, -1.685223 )     2.68268027
 
     52    -0.532E-10     0.0000052722        2.6826823165       0.28  <-- CONV
        O_D=      0.0000000 O_OD=      0.0028005 O_TOT=      2.6826823 <-- SPRD
 Delta: O_D= -0.2227878E-10 O_OD= -0.3087686E-10 O_TOT= -0.5315570E-10 <-- DLTA
 ------------------------------------------------------------------------------
 Cycle:     53
  WF centre and spread    1  ( -1.685223, -1.685223,  1.685224 )     0.89429862
  WF centre and spread    2  ( -1.685223, -1.685224, -1.685224 )     0.89429842
  WF centre and spread    3  (  1.685223, -1.685223, -1.685223 )     0.89408323
  Sum of centres and spreads ( -1.685223, -5.055670, -1.685223 )     2.68268027
 
     53    -0.127E-12     0.0000044123        2.6826823165       0.28  <-- CONV
        O_D=      0.0000000 O_OD=      0.0028005 O_TOT=      2.6826823 <-- SPRD
 Delta: O_D= -0.2698723E-13 O_OD= -0.9951068E-13 O_TOT= -0.1265654E-12 <-- DLTA
 ------------------------------------------------------------------------------
 Cycle:     54
  WF centre and spread    1  ( -1.685223, -1.685223,  1.685224 )     0.89429862
  WF centre and spread    2  ( -1.685223, -1.685224, -1.685224 )     0.89429842
  WF centre and spread    3  (  1.685223, -1.685223, -1.685223 )     0.89408323
  Sum of centres and spreads ( -1.685223, -5.055670, -1.685223 )     2.68268027
 
     54    -0.205E-12     0.0000044199        2.6826823165       0.28  <-- CONV
        O_D=      0.0000000 O_OD=      0.0028005 O_TOT=      2.6826823 <-- SPRD
 Delta: O_D= -0.6846808E-13 O_OD= -0.1365874E-12 O_TOT= -0.2047251E-12 <-- DLTA
 ------------------------------------------------------------------------------
 Cycle:     55
  WF centre and spread    1  ( -1.685223, -1.685223,  1.685224 )     0.89429862
  WF centre and spread    2  ( -1.685223, -1.685224, -1.685224 )     0.89429842
  WF centre and spread    3  (  1.685223, -1.685223, -1.685223 )     0.89408323
  Sum of centres and spreads ( -1.685223, -5.055670, -1.685223 )     2.68268027
 
     55    -0.786E-13     0.0000044234        2.6826823165       0.29  <-- CONV
        O_D=      0.0000000 O_OD=      0.0028005 O_TOT=      2.6826823 <-- SPRD
 Delta: O_D= -0.4173671E-13 O_OD= -0.3693573E-13 O_TOT= -0.7860379E-13 <-- DLTA
 ------------------------------------------------------------------------------
 Cycle:     56
  WF centre and spread    1  ( -1.685223, -1.685223,  1.685224 )     0.89429862
  WF centre and spread    2  ( -1.685223, -1.685224, -1.685224 )     0.89429842
  WF centre and spread    3  (  1.685223, -1.685223, -1.685223 )     0.89408323
  Sum of centres and spreads ( -1.685223, -5.055670, -1.685223 )     2.68268027
 
     56    -0.157E-12     0.0000044194        2.6826823165       0.29  <-- CONV
        O_D=      0.0000000 O_OD=      0.0028005 O_TOT=      2.6826823 <-- SPRD
 Delta: O_D= -0.8318280E-13 O_OD= -0.7372271E-13 O_TOT= -0.1567635E-12 <-- DLTA
 ------------------------------------------------------------------------------
 Cycle:     57
  WF centre and spread    1  ( -1.685223, -1.685223,  1.685224 )     0.89429862
  WF centre and spread    2  ( -1.685223, -1.685224, -1.685224 )     0.89429842
  WF centre and spread    3  (  1.685223, -1.685223, -1.685223 )     0.89408323
  Sum of centres and spreads ( -1.685223, -5.055670, -1.685223 )     2.68268027
 
     57    -0.234E-12     0.0000044112        2.6826823165       0.29  <-- CONV
        O_D=      0.0000000 O_OD=      0.0028005 O_TOT=      2.6826823 <-- SPRD
 Delta: O_D= -0.1239761E-12 O_OD= -0.1101558E-12 O_TOT= -0.2340350E-12 <-- DLTA
 ------------------------------------------------------------------------------
 Cycle:     58
  WF centre and spread    1  ( -1.685223, -1.685223,  1.685224 )     0.89429862
  WF centre and spread    2  ( -1.685223, -1.685224, -1.685224 )     0.89429842
  WF centre and spread    3  (  1.685223, -1.685223, -1.685223 )     0.89408323
  Sum of centres and spreads ( -1.685223, -5.055670, -1.685223 )     2.68268027
 
     58    -0.310E-12     0.0000043991        2.6826823165       0.30  <-- CONV
        O_D=      0.0000000 O_OD=      0.0028005 O_TOT=      2.6826823 <-- SPRD
 Delta: O_D= -0.1637682E-12 O_OD= -0.1460342E-12 O_TOT= -0.3099743E-12 <-- DLTA
 ------------------------------------------------------------------------------
 Cycle:     59
  WF centre and spread    1  ( -1.685223, -1.685223,  1.685224 )     0.89429862
  WF centre and spread    2  ( -1.685223, -1.685224, -1.685224 )     0.89429842
  WF centre and spread    3  (  1.685223, -1.685223, -1.685223 )     0.89408323
  Sum of centres and spreads ( -1.685223, -5.055670, -1.685223 )     2.68268027
 
     59    -0.384E-12     0.0000043831        2.6826823165       0.30  <-- CONV
        O_D=      0.0000000 O_OD=      0.0028005 O_TOT=      2.6826823 <-- SPRD
 Delta: O_D= -0.2022321E-12 O_OD= -0.1811697E-12 O_TOT= -0.3836931E-12 <-- DLTA
 ------------------------------------------------------------------------------
 Cycle:     60
  WF centre and spread    1  ( -1.685223, -1.685223,  1.685224 )     0.89429862
  WF centre and spread    2  ( -1.685223, -1.685224, -1.685224 )     0.89429842
  WF centre and spread    3  (  1.685223, -1.685223, -1.685223 )     0.89408323
  Sum of centres and spreads ( -1.685223, -5.055670, -1.685223 )     2.68268027
 
     60    -0.418E-10     0.0000043634        2.6826823165       0.31  <-- CONV
        O_D=      0.0000000 O_OD=      0.0028005 O_TOT=      2.6826823 <-- SPRD
 Delta: O_D= -0.1453580E-10 O_OD= -0.2724798E-10 O_TOT= -0.4178347E-10 <-- DLTA
 ------------------------------------------------------------------------------
 Cycle:     61
  WF centre and spread    1  ( -1.685223, -1.685223,  1.685224 )     0.89429862
  WF centre and spread    2  ( -1.685223, -1.685224, -1.685224 )     0.89429842
  WF centre and spread    3  (  1.685223, -1.685223, -1.685223 )     0.89408323
  Sum of centres and spreads ( -1.685223, -5.055670, -1.685223 )     2.68268027
 
     61    -0.879E-13     0.0000046789        2.6826823165       0.31  <-- CONV
        O_D=      0.0000000 O_OD=      0.0028005 O_TOT=      2.6826823 <-- SPRD
 Delta: O_D= -0.5245965E-13 O_OD= -0.3555229E-13 O_TOT= -0.8792966E-13 <-- DLTA
 ------------------------------------------------------------------------------
 Cycle:     62
  WF centre and spread    1  ( -1.685223, -1.685223,  1.685224 )     0.89429862
  WF centre and spread    2  ( -1.685223, -1.685224, -1.685224 )     0.89429842
  WF centre and spread    3  (  1.685223, -1.685223, -1.685223 )     0.89408323
  Sum of centres and spreads ( -1.685223, -5.055670, -1.685223 )     2.68268027
 
     62    -0.176E-12     0.0000046732        2.6826823165       0.31  <-- CONV
        O_D=      0.0000000 O_OD=      0.0028005 O_TOT=      2.6826823 <-- SPRD
 Delta: O_D= -0.1044550E-12 O_OD= -0.7091029E-13 O_TOT= -0.1758593E-12 <-- DLTA
 ------------------------------------------------------------------------------
 Cycle:     63
  WF centre and spread    1  ( -1.685223, -1.685223,  1.685224 )     0.89429862
  WF centre and spread    2  ( -1.685223, -1.685224, -1.685224 )     0.89429842
  WF centre and spread    3  (  1.685223, -1.685223, -1.685223 )     0.89408323
  Sum of centres and spreads ( -1.685223, -5.055670, -1.685223 )     2.68268027
 
     63    -0.261E-12     0.0000046617        2.6826823165       0.32  <-- CONV
        O_D=      0.0000000 O_OD=      0.0028005 O_TOT=      2.6826823 <-- SPRD
 Delta: O_D= -0.1554031E-12 O_OD= -0.1058259E-12 O_TOT= -0.2611245E-12 <-- DLTA
 ------------------------------------------------------------------------------
 Cycle:     64
  WF centre and spread    1  ( -1.685223, -1.685223,  1.685224 )     0.89429862
  WF centre and spread    2  ( -1.685223, -1.685224, -1.685224 )     0.89429842
  WF centre and spread    3  (  1.685223, -1.685223, -1.685223 )     0.89408323
  Sum of centres and spreads ( -1.685223, -5.055670, -1.685223 )     2.68268027
 
     64    -0.345E-12     0.0000046446        2.6826823165       0.32  <-- CONV
        O_D=      0.0000000 O_OD=      0.0028005 O_TOT=      2.6826823 <-- SPRD
 Delta: O_D= -0.2047461E-12 O_OD= -0.1400221E-12 O_TOT= -0.3450573E-12 <-- DLTA
 ------------------------------------------------------------------------------
 Cycle:     65
  WF centre and spread    1  ( -1.685223, -1.685223,  1.685224 )     0.89429862
  WF centre and spread    2  ( -1.685223, -1.685224, -1.685224 )     0.89429842
  WF centre and spread    3  (  1.685223, -1.685223, -1.685223 )     0.89408323
  Sum of centres and spreads ( -1.685223, -5.055670, -1.685223 )     2.68268027
 
     65    -0.344E-10     0.0000046221        2.6826823164       0.33  <-- CONV
        O_D=      0.0000000 O_OD=      0.0028005 O_TOT=      2.6826823 <-- SPRD
 Delta: O_D= -0.1576309E-10 O_OD= -0.1862532E-10 O_TOT= -0.3438805E-10 <-- DLTA
 ------------------------------------------------------------------------------
 Cycle:     66
  WF centre and spread    1  ( -1.685223, -1.685223,  1.685224 )     0.89429862
  WF centre and spread    2  ( -1.685223, -1.685224, -1.685224 )     0.89429842
  WF centre and spread    3  (  1.685223, -1.685223, -1.685223 )     0.89408323
  Sum of centres and spreads ( -1.685223, -5.055670, -1.685223 )     2.68268027
 
     66    -0.915E-13     0.0000036049        2.6826823164       0.33  <-- CONV
        O_D=      0.0000000 O_OD=      0.0028005 O_TOT=      2.6826823 <-- SPRD
 Delta: O_D= -0.9454099E-14 O_OD= -0.8196265E-13 O_TOT= -0.9148238E-13 <-- DLTA
 ------------------------------------------------------------------------------
 Cycle:     67
  WF centre and spread    1  ( -1.685223, -1.685223,  1.685224 )     0.89429862
  WF centre and spread    2  ( -1.685223, -1.685224, -1.685224 )     0.89429842
  WF centre and spread    3  (  1.685223, -1.685223, -1.685223 )     0.89408323
  Sum of centres and spreads ( -1.685223, -5.055670, -1.685223 )     2.68268027
 
     67    -0.524E-13     0.0000036142        2.6826823164       0.33  <-- CONV
        O_D=      0.0000000 O_OD=      0.0028005 O_TOT=      2.6826823 <-- SPRD
 Delta: O_D= -0.2676381E-13 O_OD= -0.2575544E-13 O_TOT= -0.5240253E-13 <-- DLTA
 ------------------------------------------------------------------------------
 Cycle:     68
  WF centre and spread    1  ( -1.685223, -1.685223,  1.685224 )     0.89429862
  WF centre and spread    2  ( -1.685223, -1.685224, -1.685224 )     0.89429842
  WF centre and spread    3  (  1.685223, -1.685223, -1.685223 )     0.89408323
  Sum of centres and spreads ( -1.685223, -5.055670, -1.685223 )     2.68268027
 
     68    -0.105E-12     0.0000036117        2.6826823164       0.34  <-- CONV
        O_D=      0.0000000 O_OD=      0.0028005 O_TOT=      2.6826823 <-- SPRD
 Delta: O_D= -0.5337635E-13 O_OD= -0.5146448E-13 O_TOT= -0.1052491E-12 <-- DLTA
 ------------------------------------------------------------------------------
 Cycle:     69
  WF centre and spread    1  ( -1.685223, -1.685223,  1.685224 )     0.89429862
  WF centre and spread    2  ( -1.685223, -1.685224, -1.685224 )     0.89429842
  WF centre and spread    3  (  1.685223, -1.685223, -1.685223 )     0.89408323
  Sum of centres and spreads ( -1.685223, -5.055670, -1.685223 )     2.68268027
 
     69    -0.156E-12     0.0000036068        2.6826823164       0.34  <-- CONV
        O_D=      0.0000000 O_OD=      0.0028005 O_TOT=      2.6826823 <-- SPRD
 Delta: O_D= -0.7965241E-13 O_OD= -0.7699050E-13 O_TOT= -0.1563194E-12 <-- DLTA
 ------------------------------------------------------------------------------
 Cycle:     70
  WF centre and spread    1  ( -1.685223, -1.685223,  1.685224 )     0.89429862
  WF centre and spread    2  ( -1.685223, -1.685224, -1.685224 )     0.89429842
  WF centre and spread    3  (  1.685223, -1.685223, -1.685223 )     0.89408323
  Sum of centres and spreads ( -1.685223, -5.055670, -1.685223 )     2.68268027
 
     70    -0.207E-12     0.0000035995        2.6826823164       0.34  <-- CONV
        O_D=      0.0000000 O_OD=      0.0028005 O_TOT=      2.6826823 <-- SPRD
 Delta: O_D= -0.1054131E-12 O_OD= -0.1022828E-12 O_TOT= -0.2073897E-12 <-- DLTA
 ------------------------------------------------------------------------------
 Cycle:     71
  WF centre and spread    1  ( -1.685223, -1.685223,  1.685224 )     0.89429862
  WF centre and spread    2  ( -1.685223, -1.685224, -1.685224 )     0.89429842
  WF centre and spread    3  (  1.685223, -1.685223, -1.685223 )     0.89408323
  Sum of centres and spreads ( -1.685223, -5.055670, -1.685223 )     2.68268027
 
     71    -0.258E-12     0.0000035898        2.6826823164       0.35  <-- CONV
        O_D=      0.0000000 O_OD=      0.0028005 O_TOT=      2.6826823 <-- SPRD
 Delta: O_D= -0.1304893E-12 O_OD= -0.1272060E-12 O_TOT= -0.2580158E-12 <-- DLTA
 ------------------------------------------------------------------------------
 Cycle:     72
  WF centre and spread    1  ( -1.685223, -1.685223,  1.685224 )     0.89429862
  WF centre and spread    2  ( -1.685223, -1.685224, -1.685224 )     0.89429842
  WF centre and spread    3  (  1.685223, -1.685223, -1.685223 )     0.89408323
  Sum of centres and spreads ( -1.685223, -5.055670, -1.685223 )     2.68268027
 
     72    -0.384E-10     0.0000035779        2.6826823164       0.35  <-- CONV
        O_D=      0.0000000 O_OD=      0.0028005 O_TOT=      2.6826823 <-- SPRD
 Delta: O_D= -0.8104164E-11 O_OD= -0.3027066E-10 O_TOT= -0.3837464E-10 <-- DLTA
 ------------------------------------------------------------------------------
 Cycle:     73
  WF centre and spread    1  ( -1.685223, -1.685223,  1.685224 )     0.89429862
  WF centre and spread    2  ( -1.685223, -1.685224, -1.685224 )     0.89429842
  WF centre and spread    3  (  1.685223, -1.685223, -1.685223 )     0.89408323
  Sum of centres and spreads ( -1.685223, -5.055670, -1.685223 )     2.68268027
 
     73    -0.114E-12     0.0000053061        2.6826823164       0.35  <-- CONV
        O_D=      0.0000000 O_OD=      0.0028005 O_TOT=      2.6826823 <-- SPRD
 Delta: O_D= -0.8053719E-13 O_OD= -0.3261670E-13 O_TOT= -0.1136868E-12 <-- DLTA
 ------------------------------------------------------------------------------
 Cycle:     74
  WF centre and spread    1  ( -1.685223, -1.685223,  1.685224 )     0.89429862
  WF centre and spread    2  ( -1.685223, -1.685224, -1.685224 )     0.89429842
  WF centre and spread    3  (  1.685223, -1.685223, -1.685223 )     0.89408323
  Sum of centres and spreads ( -1.685223, -5.055670, -1.685223 )     2.68268027
 
     74    -0.234E-10     0.0000052974        2.6826823164       0.36  <-- CONV
        O_D=      0.0000000 O_OD=      0.0028005 O_TOT=      2.6826823 <-- SPRD
 Delta: O_D= -0.1579486E-10 O_OD= -0.7596735E-11 O_TOT= -0.2339107E-10 <-- DLTA
 ------------------------------------------------------------------------------
 Cycle:     75
  WF centre and spread    1  ( -1.685223, -1.685223,  1.685224 )     0.89429862
  WF centre and spread    2  ( -1.685223, -1.685224, -1.685224 )     0.89429842
  WF centre and spread    3  (  1.685223, -1.685223, -1.685223 )     0.89408323
  Sum of centres and spreads ( -1.685223, -5.055670, -1.685223 )     2.68268027
 
     75    -0.933E-13     0.0000033022        2.6826823164       0.36  <-- CONV
        O_D=      0.0000000 O_OD=      0.0028005 O_TOT=      2.6826823 <-- SPRD
 Delta: O_D= -0.5260979E-13 O_OD= -0.4057041E-13 O_TOT= -0.9325873E-13 <-- DLTA
 ------------------------------------------------------------------------------
 Cycle:     76
  WF centre and spread    1  ( -1.685223, -1.685223,  1.685224 )     0.89429862
  WF centre and spread    2  ( -1.685223, -1.685224, -1.685224 )     0.89429842
  WF centre and spread    3  (  1.685223, -1.685223, -1.685223 )     0.89408323
  Sum of centres and spreads ( -1.685223, -5.055670, -1.685223 )     2.68268027
 
     76    -0.136E-12     0.0000032955        2.6826823164       0.37  <-- CONV
        O_D=      0.0000000 O_OD=      0.0028005 O_TOT=      2.6826823 <-- SPRD
 Delta: O_D= -0.7446605E-13 O_OD= -0.6165337E-13 O_TOT= -0.1363354E-12 <-- DLTA
 ------------------------------------------------------------------------------
 Cycle:     77
  WF centre and spread    1  ( -1.685223, -1.685223,  1.685224 )     0.89429862
  WF centre and spread    2  ( -1.685223, -1.685224, -1.685224 )     0.89429842
  WF centre and spread    3  (  1.685223, -1.685223, -1.685223 )     0.89408323
  Sum of centres and spreads ( -1.685223, -5.055670, -1.685223 )     2.68268027
 
     77    -0.178E-12     0.0000032866        2.6826823164       0.37  <-- CONV
        O_D=      0.0000000 O_OD=      0.0028005 O_TOT=      2.6826823 <-- SPRD
 Delta: O_D= -0.9575351E-13 O_OD= -0.8250822E-13 O_TOT= -0.1780798E-12 <-- DLTA
 ------------------------------------------------------------------------------
 Cycle:     78
  WF centre and spread    1  ( -1.685223, -1.685223,  1.685224 )     0.89429862
  WF centre and spread    2  ( -1.685223, -1.685224, -1.685224 )     0.89429842
  WF centre and spread    3  (  1.685223, -1.685223, -1.685223 )     0.89408323
  Sum of centres and spreads ( -1.685223, -5.055670, -1.685223 )     2.68268027
 
     78    -0.219E-12     0.0000032756        2.6826823164       0.37  <-- CONV
        O_D=      0.0000000 O_OD=      0.0028005 O_TOT=      2.6826823 <-- SPRD
 Delta: O_D= -0.1163349E-12 O_OD= -0.1030113E-12 O_TOT= -0.2193801E-12 <-- DLTA
 ------------------------------------------------------------------------------
 Cycle:     79
  WF centre and spread    1  ( -1.685223, -1.685223,  1.685224 )     0.89429862
  WF centre and spread    2  ( -1.685223, -1.685224, -1.685224 )     0.89429842
  WF centre and spread    3  (  1.685223, -1.685223, -1.685223 )     0.89408323
  Sum of centres and spreads ( -1.685223, -5.055670, -1.685223 )     2.68268027
 
     79    -0.431E-13     0.0000032625        2.6826823164       0.38  <-- CONV
        O_D=      0.0000000 O_OD=      0.0028005 O_TOT=      2.6826823 <-- SPRD
 Delta: O_D= -0.2164788E-13 O_OD= -0.2115539E-13 O_TOT= -0.4307665E-13 <-- DLTA
 ------------------------------------------------------------------------------
 Cycle:     80
  WF centre and spread    1  ( -1.685223, -1.685223,  1.685224 )     0.89429862
  WF centre and spread    2  ( -1.685223, -1.685224, -1.685224 )     0.89429842
  WF centre and spread    3  (  1.685223, -1.685223, -1.685223 )     0.89408323
  Sum of centres and spreads ( -1.685223, -5.055670, -1.685223 )     2.68268027
 
     80    -0.853E-13     0.0000032603        2.6826823164       0.38  <-- CONV
        O_D=      0.0000000 O_OD=      0.0028005 O_TOT=      2.6826823 <-- SPRD
 Delta: O_D= -0.4317588E-13 O_OD= -0.4225266E-13 O_TOT= -0.8526513E-13 <-- DLTA
 ------------------------------------------------------------------------------
 Cycle:     81
  WF centre and spread    1  ( -1.685223, -1.685223,  1.685224 )     0.89429862
  WF centre and spread    2  ( -1.685223, -1.685224, -1.685224 )     0.89429842
  WF centre and spread    3  (  1.685223, -1.685223, -1.685223 )     0.89408323
  Sum of centres and spreads ( -1.685223, -5.055670, -1.685223 )     2.68268027
 
     81    -0.127E-12     0.0000032560        2.6826823164       0.38  <-- CONV
        O_D=      0.0000000 O_OD=      0.0028005 O_TOT=      2.6826823 <-- SPRD
 Delta: O_D= -0.6443733E-13 O_OD= -0.6323241E-13 O_TOT= -0.1274536E-12 <-- DLTA
 ------------------------------------------------------------------------------
 Cycle:     82
  WF centre and spread    1  ( -1.685223, -1.685223,  1.685224 )     0.89429862
  WF centre and spread    2  ( -1.685223, -1.685224, -1.685224 )     0.89429842
  WF centre and spread    3  (  1.685223, -1.685223, -1.685223 )     0.89408323
  Sum of centres and spreads ( -1.685223, -5.055670, -1.685223 )     2.68268027
 
     82    -0.169E-12     0.0000032496        2.6826823164       0.39  <-- CONV
        O_D=      0.0000000 O_OD=      0.0028005 O_TOT=      2.6826823 <-- SPRD
 Delta: O_D= -0.8529051E-13 O_OD= -0.8400615E-13 O_TOT= -0.1691980E-12 <-- DLTA
 ------------------------------------------------------------------------------
 Cycle:     83
  WF centre and spread    1  ( -1.685223, -1.685223,  1.685224 )     0.89429862
  WF centre and spread    2  ( -1.685223, -1.685224, -1.685224 )     0.89429842
  WF centre and spread    3  (  1.685223, -1.685223, -1.685223 )     0.89408323
  Sum of centres and spreads ( -1.685223, -5.055670, -1.685223 )     2.68268027
 
     83    -0.210E-12     0.0000032411        2.6826823164       0.39  <-- CONV
        O_D=      0.0000000 O_OD=      0.0028005 O_TOT=      2.6826823 <-- SPRD
 Delta: O_D= -0.1056014E-12 O_OD= -0.1044967E-12 O_TOT= -0.2104983E-12 <-- DLTA
 ------------------------------------------------------------------------------
 Cycle:     84
  WF centre and spread    1  ( -1.685223, -1.685223,  1.685224 )     0.89429862
  WF centre and spread    2  ( -1.685223, -1.685224, -1.685224 )     0.89429842
  WF centre and spread    3  (  1.685223, -1.685223, -1.685223 )     0.89408323
  Sum of centres and spreads ( -1.685223, -5.055670, -1.685223 )     2.68268027
 
     84    -0.276E-10     0.0000032306        2.6826823163       0.40  <-- CONV
        O_D=      0.0000000 O_OD=      0.0028005 O_TOT=      2.6826823 <-- SPRD
 Delta: O_D= -0.1009490E-10 O_OD= -0.1748757E-10 O_TOT= -0.2758238E-10 <-- DLTA
 ------------------------------------------------------------------------------
 Cycle:     85
  WF centre and spread    1  ( -1.685223, -1.685223,  1.685224 )     0.89429862
  WF centre and spread    2  ( -1.685223, -1.685224, -1.685224 )     0.89429842
  WF centre and spread    3  (  1.685223, -1.685223, -1.685223 )     0.89408323
  Sum of centres and spreads ( -1.685223, -5.055670, -1.685223 )     2.68268027
 
     85    -0.435E-13     0.0000032994        2.6826823163       0.40  <-- CONV
        O_D=      0.0000000 O_OD=      0.0028005 O_TOT=      2.6826823 <-- SPRD
 Delta: O_D= -0.2414355E-13 O_OD= -0.1963403E-13 O_TOT= -0.4352074E-13 <-- DLTA
 ------------------------------------------------------------------------------
 Cycle:     86
  WF centre and spread    1  ( -1.685223, -1.685223,  1.685224 )     0.89429862
  WF centre and spread    2  ( -1.685223, -1.685224, -1.685224 )     0.89429842
  WF centre and spread    3  (  1.685223, -1.685223, -1.685223 )     0.89408323
  Sum of centres and spreads ( -1.685223, -5.055670, -1.685223 )     2.68268027
 
     86    -0.870E-13     0.0000032966        2.6826823163       0.40  <-- CONV
        O_D=      0.0000000 O_OD=      0.0028005 O_TOT=      2.6826823 <-- SPRD
 Delta: O_D= -0.4812112E-13 O_OD= -0.3919261E-13 O_TOT= -0.8704149E-13 <-- DLTA
 ------------------------------------------------------------------------------
 Cycle:     87
  WF centre and spread    1  ( -1.685223, -1.685223,  1.685224 )     0.89429862
  WF centre and spread    2  ( -1.685223, -1.685224, -1.685224 )     0.89429842
  WF centre and spread    3  (  1.685223, -1.685223, -1.685223 )     0.89408323
  Sum of centres and spreads ( -1.685223, -5.055670, -1.685223 )     2.68268027
 
     87    -0.131E-12     0.0000032910        2.6826823163       0.41  <-- CONV
        O_D=      0.0000000 O_OD=      0.0028005 O_TOT=      2.6826823 <-- SPRD
 Delta: O_D= -0.7172845E-13 O_OD= -0.5861067E-13 O_TOT= -0.1305622E-12 <-- DLTA
 ------------------------------------------------------------------------------
 Cycle:     88
  WF centre and spread    1  ( -1.685223, -1.685223,  1.685224 )     0.89429862
  WF centre and spread    2  ( -1.685223, -1.685224, -1.685224 )     0.89429842
  WF centre and spread    3  (  1.685223, -1.685223, -1.685223 )     0.89408323
  Sum of centres and spreads ( -1.685223, -5.055670, -1.685223 )     2.68268027
 
     88    -0.173E-12     0.0000032826        2.6826823163       0.41  <-- CONV
        O_D=      0.0000000 O_OD=      0.0028005 O_TOT=      2.6826823 <-- SPRD
 Delta: O_D= -0.9476897E-13 O_OD= -0.7780495E-13 O_TOT= -0.1727507E-12 <-- DLTA
 ------------------------------------------------------------------------------
 Cycle:     89
  WF centre and spread    1  ( -1.685223, -1.685223,  1.685224 )     0.89429862
  WF centre and spread    2  ( -1.685223, -1.685224, -1.685224 )     0.89429842
  WF centre and spread    3  (  1.685223, -1.685223, -1.685223 )     0.89408323
  Sum of centres and spreads ( -1.685223, -5.055670, -1.685223 )     2.68268027
 
     89    -0.214E-12     0.0000032715        2.6826823163       0.41  <-- CONV
        O_D=      0.0000000 O_OD=      0.0028005 O_TOT=      2.6826823 <-- SPRD
 Delta: O_D= -0.1170581E-12 O_OD= -0.9665185E-13 O_TOT= -0.2136069E-12 <-- DLTA
 ------------------------------------------------------------------------------
 Cycle:     90
  WF centre and spread    1  ( -1.685223, -1.685223,  1.685224 )     0.89429862
  WF centre and spread    2  ( -1.685223, -1.685224, -1.685224 )     0.89429842
  WF centre and spread    3  (  1.685223, -1.685223, -1.685223 )     0.89408323
  Sum of centres and spreads ( -1.685223, -5.055670, -1.685223 )     2.68268027
 
     90    -0.254E-12     0.0000032579        2.6826823163       0.42  <-- CONV
        O_D=      0.0000000 O_OD=      0.0028005 O_TOT=      2.6826823 <-- SPRD
 Delta: O_D= -0.1384274E-12 O_OD= -0.1151154E-12 O_TOT= -0.2540190E-12 <-- DLTA
 ------------------------------------------------------------------------------
 Cycle:     91
  WF centre and spread    1  ( -1.685223, -1.685223,  1.685224 )     0.89429862
  WF centre and spread    2  ( -1.685223, -1.685224, -1.685224 )     0.89429842
  WF centre and spread    3  (  1.685223, -1.685223, -1.685223 )     0.89408323
  Sum of centres and spreads ( -1.685223, -5.055670, -1.685223 )     2.68268027
 
     91    -0.417E-13     0.0000032418        2.6826823163       0.42  <-- CONV
        O_D=      0.0000000 O_OD=      0.0028005 O_TOT=      2.6826823 <-- SPRD
 Delta: O_D= -0.2288342E-13 O_OD= -0.1937036E-13 O_TOT= -0.4174439E-13 <-- DLTA
 ------------------------------------------------------------------------------
 Cycle:     92
  WF centre and spread    1  ( -1.685223, -1.685223,  1.685224 )     0.89429862
  WF centre and spread    2  ( -1.685223, -1.685224, -1.685224 )     0.89429842
  WF centre and spread    3  (  1.685223, -1.685223, -1.685223 )     0.89408323
  Sum of centres and spreads ( -1.685223, -5.055670, -1.685223 )     2.68268027
 
     92    -0.844E-13     0.0000032391        2.6826823163       0.42  <-- CONV
        O_D=      0.0000000 O_OD=      0.0028005 O_TOT=      2.6826823 <-- SPRD
 Delta: O_D= -0.4561649E-13 O_OD= -0.3869431E-13 O_TOT= -0.8437695E-13 <-- DLTA
 ------------------------------------------------------------------------------
 Cycle:     93
  WF centre and spread    1  ( -1.685223, -1.685223,  1.685224 )     0.89429862
  WF centre and spread    2  ( -1.685223, -1.685224, -1.685224 )     0.89429842
  WF centre and spread    3  (  1.685223, -1.685223, -1.685223 )     0.89408323
  Sum of centres and spreads ( -1.685223, -5.055670, -1.685223 )     2.68268027
 
     93    -0.126E-12     0.0000032339        2.6826823163       0.43  <-- CONV
        O_D=      0.0000000 O_OD=      0.0028005 O_TOT=      2.6826823 <-- SPRD
 Delta: O_D= -0.6801461E-13 O_OD= -0.5786560E-13 O_TOT= -0.1261213E-12 <-- DLTA
 ------------------------------------------------------------------------------
 Cycle:     94
  WF centre and spread    1  ( -1.685223, -1.685223,  1.685224 )     0.89429862
  WF centre and spread    2  ( -1.685223, -1.685224, -1.685224 )     0.89429842
  WF centre and spread    3  (  1.685223, -1.685223, -1.685223 )     0.89408323
  Sum of centres and spreads ( -1.685223, -5.055670, -1.685223 )     2.68268027
 
     94    -0.167E-12     0.0000032261        2.6826823163       0.43  <-- CONV
        O_D=      0.0000000 O_OD=      0.0028005 O_TOT=      2.6826823 <-- SPRD
 Delta: O_D= -0.8989991E-13 O_OD= -0.7682960E-13 O_TOT= -0.1669775E-12 <-- DLTA
 ------------------------------------------------------------------------------
 Cycle:     95
  WF centre and spread    1  ( -1.685223, -1.685223,  1.685224 )     0.89429862
  WF centre and spread    2  ( -1.685223, -1.685224, -1.685224 )     0.89429842
  WF centre and spread    3  (  1.685223, -1.685223, -1.685223 )     0.89408323
  Sum of centres and spreads ( -1.685223, -5.055670, -1.685223 )     2.68268027
 
     95    -0.207E-12     0.0000032159        2.6826823163       0.43  <-- CONV
        O_D=      0.0000000 O_OD=      0.0028005 O_TOT=      2.6826823 <-- SPRD
 Delta: O_D= -0.1111051E-12 O_OD= -0.9548655E-13 O_TOT= -0.2065015E-12 <-- DLTA
 ------------------------------------------------------------------------------
 Cycle:     96
  WF centre and spread    1  ( -1.685223, -1.685223,  1.685224 )     0.89429862
  WF centre and spread    2  ( -1.685223, -1.685224, -1.685224 )     0.89429842
  WF centre and spread    3  (  1.685223, -1.685223, -1.685223 )     0.89408323
  Sum of centres and spreads ( -1.685223, -5.055670, -1.685223 )     2.68268027
 
     96    -0.254E-10     0.0000032032        2.6826823163       0.44  <-- CONV
        O_D=      0.0000000 O_OD=      0.0028005 O_TOT=      2.6826823 <-- SPRD
 Delta: O_D= -0.7979052E-11 O_OD= -0.1745569E-10 O_TOT= -0.2543432E-10 <-- DLTA
 ------------------------------------------------------------------------------
 Cycle:     97
  WF centre and spread    1  ( -1.685223, -1.685223,  1.685224 )     0.89429862
  WF centre and spread    2  ( -1.685223, -1.685224, -1.685224 )     0.89429842
  WF centre and spread    3  (  1.685223, -1.685223, -1.685223 )     0.89408323
  Sum of centres and spreads ( -1.685223, -5.055670, -1.685223 )     2.68268027
 
     97    -0.555E-13     0.0000037050        2.6826823163       0.44  <-- CONV
        O_D=      0.0000000 O_OD=      0.0028005 O_TOT=      2.6826823 <-- SPRD
 Delta: O_D= -0.3578717E-13 O_OD= -0.1940071E-13 O_TOT= -0.5551115E-13 <-- DLTA
[...]
  Sum of centres and spreads ( -1.685223, -5.055670, -1.685223 )     2.68268027
 
    473    -0.959E-13     0.0000021850        2.6826823162       1.71  <-- CONV
        O_D=      0.0000000 O_OD=      0.0028005 O_TOT=      2.6826823 <-- SPRD
 Delta: O_D= -0.3690021E-13 O_OD= -0.5909032E-13 O_TOT= -0.9592327E-13 <-- DLTA
 ------------------------------------------------------------------------------
 Cycle:    474
  WF centre and spread    1  ( -1.685223, -1.685223,  1.685224 )     0.89429862
  WF centre and spread    2  ( -1.685223, -1.685224, -1.685224 )     0.89429842
  WF centre and spread    3  (  1.685223, -1.685223, -1.685223 )     0.89408323
  Sum of centres and spreads ( -1.685223, -5.055670, -1.685223 )     2.68268027
 
    474    -0.115E-12     0.0000021845        2.6826823162       1.72  <-- CONV
        O_D=      0.0000000 O_OD=      0.0028005 O_TOT=      2.6826823 <-- SPRD
 Delta: O_D= -0.4424903E-13 O_OD= -0.7085565E-13 O_TOT= -0.1154632E-12 <-- DLTA
 ------------------------------------------------------------------------------
 Cycle:    475
  WF centre and spread    1  ( -1.685223, -1.685223,  1.685224 )     0.89429862
  WF centre and spread    2  ( -1.685223, -1.685224, -1.685224 )     0.89429842
  WF centre and spread    3  (  1.685223, -1.685223, -1.685223 )     0.89408323
  Sum of centres and spreads ( -1.685223, -5.055670, -1.685223 )     2.68268027
 
    475    -0.187E-13     0.0000021838        2.6826823162       1.72  <-- CONV
        O_D=      0.0000000 O_OD=      0.0028005 O_TOT=      2.6826823 <-- SPRD
 Delta: O_D= -0.7374669E-14 O_OD= -0.1181347E-13 O_TOT= -0.1865175E-13 <-- DLTA
 ------------------------------------------------------------------------------
 Cycle:    476
  WF centre and spread    1  ( -1.685223, -1.685223,  1.685224 )     0.89429862
  WF centre and spread    2  ( -1.685223, -1.685224, -1.685224 )     0.89429842
  WF centre and spread    3  (  1.685223, -1.685223, -1.685223 )     0.89408323
  Sum of centres and spreads ( -1.685223, -5.055670, -1.685223 )     2.68268027
 
    476    -0.386E-13     0.0000021837        2.6826823162       1.72  <-- CONV
        O_D=      0.0000000 O_OD=      0.0028005 O_TOT=      2.6826823 <-- SPRD
 Delta: O_D= -0.1474706E-13 O_OD= -0.2360959E-13 O_TOT= -0.3863576E-13 <-- DLTA
 ------------------------------------------------------------------------------
 Cycle:    477
  WF centre and spread    1  ( -1.685223, -1.685223,  1.685224 )     0.89429862
  WF centre and spread    2  ( -1.685223, -1.685224, -1.685224 )     0.89429842
  WF centre and spread    3  (  1.685223, -1.685223, -1.685223 )     0.89408323
  Sum of centres and spreads ( -1.685223, -5.055670, -1.685223 )     2.68268027
 
    477    -0.573E-13     0.0000021835        2.6826823162       1.73  <-- CONV
        O_D=      0.0000000 O_OD=      0.0028005 O_TOT=      2.6826823 <-- SPRD
 Delta: O_D= -0.2211411E-13 O_OD= -0.3542045E-13 O_TOT= -0.5728751E-13 <-- DLTA
 ------------------------------------------------------------------------------
 Cycle:    478
  WF centre and spread    1  ( -1.685223, -1.685223,  1.685224 )     0.89429862
  WF centre and spread    2  ( -1.685223, -1.685224, -1.685224 )     0.89429842
  WF centre and spread    3  (  1.685223, -1.685223, -1.685223 )     0.89408323
  Sum of centres and spreads ( -1.685223, -5.055670, -1.685223 )     2.68268027
 
    478    -0.768E-13     0.0000021831        2.6826823162       1.73  <-- CONV
        O_D=      0.0000000 O_OD=      0.0028005 O_TOT=      2.6826823 <-- SPRD
 Delta: O_D= -0.2947280E-13 O_OD= -0.4719575E-13 O_TOT= -0.7682743E-13 <-- DLTA
 ------------------------------------------------------------------------------
 Cycle:    479
  WF centre and spread    1  ( -1.685223, -1.685223,  1.685224 )     0.89429862
  WF centre and spread    2  ( -1.685223, -1.685224, -1.685224 )     0.89429842
  WF centre and spread    3  (  1.685223, -1.685223, -1.685223 )     0.89408323
  Sum of centres and spreads ( -1.685223, -5.055670, -1.685223 )     2.68268027
 
    479    -0.959E-13     0.0000021827        2.6826823162       1.73  <-- CONV
        O_D=      0.0000000 O_OD=      0.0028005 O_TOT=      2.6826823 <-- SPRD
 Delta: O_D= -0.3682010E-13 O_OD= -0.5897323E-13 O_TOT= -0.9592327E-13 <-- DLTA
 ------------------------------------------------------------------------------
 Cycle:    480
  WF centre and spread    1  ( -1.685223, -1.685223,  1.685224 )     0.89429862
  WF centre and spread    2  ( -1.685223, -1.685224, -1.685224 )     0.89429842
  WF centre and spread    3  (  1.685223, -1.685223, -1.685223 )     0.89408323
  Sum of centres and spreads ( -1.685223, -5.055670, -1.685223 )     2.68268027
 
    480    -0.115E-12     0.0000021821        2.6826823162       1.74  <-- CONV
        O_D=      0.0000000 O_OD=      0.0028005 O_TOT=      2.6826823 <-- SPRD
 Delta: O_D= -0.4415297E-13 O_OD= -0.7070299E-13 O_TOT= -0.1145750E-12 <-- DLTA
 ------------------------------------------------------------------------------
 Cycle:    481
  WF centre and spread    1  ( -1.685223, -1.685223,  1.685224 )     0.89429862
  WF centre and spread    2  ( -1.685223, -1.685224, -1.685224 )     0.89429842
  WF centre and spread    3  (  1.685223, -1.685223, -1.685223 )     0.89408323
  Sum of centres and spreads ( -1.685223, -5.055670, -1.685223 )     2.68268027
 
    481    -0.195E-13     0.0000021814        2.6826823162       1.74  <-- CONV
        O_D=      0.0000000 O_OD=      0.0028005 O_TOT=      2.6826823 <-- SPRD
 Delta: O_D= -0.7358663E-14 O_OD= -0.1178137E-13 O_TOT= -0.1953993E-13 <-- DLTA
 ------------------------------------------------------------------------------
 Cycle:    482
  WF centre and spread    1  ( -1.685223, -1.685223,  1.685224 )     0.89429862
  WF centre and spread    2  ( -1.685223, -1.685224, -1.685224 )     0.89429842
  WF centre and spread    3  (  1.685223, -1.685223, -1.685223 )     0.89408323
  Sum of centres and spreads ( -1.685223, -5.055670, -1.685223 )     2.68268027
 
    482    -0.382E-13     0.0000021813        2.6826823162       1.74  <-- CONV
        O_D=      0.0000000 O_OD=      0.0028005 O_TOT=      2.6826823 <-- SPRD
 Delta: O_D= -0.1471504E-13 O_OD= -0.2356275E-13 O_TOT= -0.3819167E-13 <-- DLTA
 ------------------------------------------------------------------------------
 Cycle:    483
  WF centre and spread    1  ( -1.685223, -1.685223,  1.685224 )     0.89429862
  WF centre and spread    2  ( -1.685223, -1.685224, -1.685224 )     0.89429842
  WF centre and spread    3  (  1.685223, -1.685223, -1.685223 )     0.89408323
  Sum of centres and spreads ( -1.685223, -5.055670, -1.685223 )     2.68268027
 
    483    -0.577E-13     0.0000021811        2.6826823162       1.75  <-- CONV
        O_D=      0.0000000 O_OD=      0.0028005 O_TOT=      2.6826823 <-- SPRD
 Delta: O_D= -0.2206611E-13 O_OD= -0.3534499E-13 O_TOT= -0.5773160E-13 <-- DLTA
 ------------------------------------------------------------------------------
 Cycle:    484
  WF centre and spread    1  ( -1.685223, -1.685223,  1.685224 )     0.89429862
  WF centre and spread    2  ( -1.685223, -1.685224, -1.685224 )     0.89429842
  WF centre and spread    3  (  1.685223, -1.685223, -1.685223 )     0.89408323
  Sum of centres and spreads ( -1.685223, -5.055670, -1.685223 )     2.68268027
 
    484    -0.764E-13     0.0000021808        2.6826823162       1.75  <-- CONV
        O_D=      0.0000000 O_OD=      0.0028005 O_TOT=      2.6826823 <-- SPRD
 Delta: O_D= -0.2940883E-13 O_OD= -0.4709210E-13 O_TOT= -0.7638334E-13 <-- DLTA
 ------------------------------------------------------------------------------
 Cycle:    485
  WF centre and spread    1  ( -1.685223, -1.685223,  1.685224 )     0.89429862
  WF centre and spread    2  ( -1.685223, -1.685224, -1.685224 )     0.89429842
  WF centre and spread    3  (  1.685223, -1.685223, -1.685223 )     0.89408323
  Sum of centres and spreads ( -1.685223, -5.055670, -1.685223 )     2.68268027
 
    485    -0.950E-13     0.0000021803        2.6826823162       1.75  <-- CONV
        O_D=      0.0000000 O_OD=      0.0028005 O_TOT=      2.6826823 <-- SPRD
 Delta: O_D= -0.3674018E-13 O_OD= -0.5884139E-13 O_TOT= -0.9503509E-13 <-- DLTA
 ------------------------------------------------------------------------------
 Cycle:    486
  WF centre and spread    1  ( -1.685223, -1.685223,  1.685224 )     0.89429862
  WF centre and spread    2  ( -1.685223, -1.685224, -1.685224 )     0.89429842
  WF centre and spread    3  (  1.685223, -1.685223, -1.685223 )     0.89408323
  Sum of centres and spreads ( -1.685223, -5.055670, -1.685223 )     2.68268027
 
    486    -0.115E-12     0.0000021798        2.6826823162       1.76  <-- CONV
        O_D=      0.0000000 O_OD=      0.0028005 O_TOT=      2.6826823 <-- SPRD
 Delta: O_D= -0.4405714E-13 O_OD= -0.7054990E-13 O_TOT= -0.1150191E-12 <-- DLTA
 ------------------------------------------------------------------------------
 Cycle:    487
  WF centre and spread    1  ( -1.685223, -1.685223,  1.685224 )     0.89429862
  WF centre and spread    2  ( -1.685223, -1.685224, -1.685224 )     0.89429842
  WF centre and spread    3  (  1.685223, -1.685223, -1.685223 )     0.89408323
  Sum of centres and spreads ( -1.685223, -5.055670, -1.685223 )     2.68268027
 
    487    -0.187E-13     0.0000021791        2.6826823162       1.76  <-- CONV
        O_D=      0.0000000 O_OD=      0.0028005 O_TOT=      2.6826823 <-- SPRD
 Delta: O_D= -0.7342691E-14 O_OD= -0.1176229E-13 O_TOT= -0.1865175E-13 <-- DLTA
 ------------------------------------------------------------------------------
 Cycle:    488
  WF centre and spread    1  ( -1.685223, -1.685223,  1.685224 )     0.89429862
  WF centre and spread    2  ( -1.685223, -1.685224, -1.685224 )     0.89429842
  WF centre and spread    3  (  1.685223, -1.685223, -1.685223 )     0.89408323
  Sum of centres and spreads ( -1.685223, -5.055670, -1.685223 )     2.68268027
 
    488    -0.382E-13     0.0000021790        2.6826823162       1.76  <-- CONV
        O_D=      0.0000000 O_OD=      0.0028005 O_TOT=      2.6826823 <-- SPRD
 Delta: O_D= -0.1468311E-13 O_OD= -0.2351808E-13 O_TOT= -0.3819167E-13 <-- DLTA
 ------------------------------------------------------------------------------
 Cycle:    489
  WF centre and spread    1  ( -1.685223, -1.685223,  1.685224 )     0.89429862
  WF centre and spread    2  ( -1.685223, -1.685224, -1.685224 )     0.89429842
  WF centre and spread    3  (  1.685223, -1.685223, -1.685223 )     0.89408323
  Sum of centres and spreads ( -1.685223, -5.055670, -1.685223 )     2.68268027
 
    489    -0.577E-13     0.0000021788        2.6826823162       1.76  <-- CONV
        O_D=      0.0000000 O_OD=      0.0028005 O_TOT=      2.6826823 <-- SPRD
 Delta: O_D= -0.2201822E-13 O_OD= -0.3526042E-13 O_TOT= -0.5773160E-13 <-- DLTA
 ------------------------------------------------------------------------------
 Cycle:    490
  WF centre and spread    1  ( -1.685223, -1.685223,  1.685224 )     0.89429862
  WF centre and spread    2  ( -1.685223, -1.685224, -1.685224 )     0.89429842
  WF centre and spread    3  (  1.685223, -1.685223, -1.685223 )     0.89408323
  Sum of centres and spreads ( -1.685223, -5.055670, -1.685223 )     2.68268027
 
    490    -0.764E-13     0.0000021784        2.6826823162       1.77  <-- CONV
        O_D=      0.0000000 O_OD=      0.0028005 O_TOT=      2.6826823 <-- SPRD
 Delta: O_D= -0.2934500E-13 O_OD= -0.4699236E-13 O_TOT= -0.7638334E-13 <-- DLTA
 ------------------------------------------------------------------------------
 Cycle:    491
  WF centre and spread    1  ( -1.685223, -1.685223,  1.685224 )     0.89429862
  WF centre and spread    2  ( -1.685223, -1.685224, -1.685224 )     0.89429842
  WF centre and spread    3  (  1.685223, -1.685223, -1.685223 )     0.89408323
  Sum of centres and spreads ( -1.685223, -5.055670, -1.685223 )     2.68268027
 
    491    -0.955E-13     0.0000021780        2.6826823162       1.77  <-- CONV
        O_D=      0.0000000 O_OD=      0.0028005 O_TOT=      2.6826823 <-- SPRD
 Delta: O_D= -0.3666044E-13 O_OD= -0.5871085E-13 O_TOT= -0.9547918E-13 <-- DLTA
 ------------------------------------------------------------------------------
 Cycle:    492
  WF centre and spread    1  ( -1.685223, -1.685223,  1.685224 )     0.89429862
  WF centre and spread    2  ( -1.685223, -1.685224, -1.685224 )     0.89429842
  WF centre and spread    3  (  1.685223, -1.685223, -1.685223 )     0.89408323
  Sum of centres and spreads ( -1.685223, -5.055670, -1.685223 )     2.68268027
 
    492    -0.114E-12     0.0000021774        2.6826823162       1.77  <-- CONV
        O_D=      0.0000000 O_OD=      0.0028005 O_TOT=      2.6826823 <-- SPRD
 Delta: O_D= -0.4396152E-13 O_OD= -0.7040419E-13 O_TOT= -0.1141309E-12 <-- DLTA
 ------------------------------------------------------------------------------
 Cycle:    493
  WF centre and spread    1  ( -1.685223, -1.685223,  1.685224 )     0.89429862
  WF centre and spread    2  ( -1.685223, -1.685224, -1.685224 )     0.89429842
  WF centre and spread    3  (  1.685223, -1.685223, -1.685223 )     0.89408323
  Sum of centres and spreads ( -1.685223, -5.055670, -1.685223 )     2.68268027
 
    493    -0.191E-13     0.0000021767        2.6826823162       1.78  <-- CONV
        O_D=      0.0000000 O_OD=      0.0028005 O_TOT=      2.6826823 <-- SPRD
 Delta: O_D= -0.7326755E-14 O_OD= -0.1173367E-13 O_TOT= -0.1909584E-13 <-- DLTA
 ------------------------------------------------------------------------------
 Cycle:    494
  WF centre and spread    1  ( -1.685223, -1.685223,  1.685224 )     0.89429862
  WF centre and spread    2  ( -1.685223, -1.685224, -1.685224 )     0.89429842
  WF centre and spread    3  (  1.685223, -1.685223, -1.685223 )     0.89408323
  Sum of centres and spreads ( -1.685223, -5.055670, -1.685223 )     2.68268027
 
    494    -0.382E-13     0.0000021766        2.6826823162       1.78  <-- CONV
        O_D=      0.0000000 O_OD=      0.0028005 O_TOT=      2.6826823 <-- SPRD
 Delta: O_D= -0.1465124E-13 O_OD= -0.2346430E-13 O_TOT= -0.3819167E-13 <-- DLTA
 ------------------------------------------------------------------------------
 Cycle:    495
  WF centre and spread    1  ( -1.685223, -1.685223,  1.685224 )     0.89429862
  WF centre and spread    2  ( -1.685223, -1.685224, -1.685224 )     0.89429842
  WF centre and spread    3  (  1.685223, -1.685223, -1.685223 )     0.89408323
  Sum of centres and spreads ( -1.685223, -5.055670, -1.685223 )     2.68268027
 
    495    -0.568E-13     0.0000021764        2.6826823162       1.78  <-- CONV
        O_D=      0.0000000 O_OD=      0.0028005 O_TOT=      2.6826823 <-- SPRD
 Delta: O_D= -0.2197043E-13 O_OD= -0.3518670E-13 O_TOT= -0.5684342E-13 <-- DLTA
 ------------------------------------------------------------------------------
 Cycle:    496
  WF centre and spread    1  ( -1.685223, -1.685223,  1.685224 )     0.89429862
  WF centre and spread    2  ( -1.685223, -1.685224, -1.685224 )     0.89429842
  WF centre and spread    3  (  1.685223, -1.685223, -1.685223 )     0.89408323
  Sum of centres and spreads ( -1.685223, -5.055670, -1.685223 )     2.68268027
 
    496    -0.759E-13     0.0000021761        2.6826823162       1.79  <-- CONV
        O_D=      0.0000000 O_OD=      0.0028005 O_TOT=      2.6826823 <-- SPRD
 Delta: O_D= -0.2928132E-13 O_OD= -0.4689565E-13 O_TOT= -0.7593925E-13 <-- DLTA
 ------------------------------------------------------------------------------
 Cycle:    497
  WF centre and spread    1  ( -1.685223, -1.685223,  1.685224 )     0.89429862
  WF centre and spread    2  ( -1.685223, -1.685224, -1.685224 )     0.89429842
  WF centre and spread    3  (  1.685223, -1.685223, -1.685223 )     0.89408323
  Sum of centres and spreads ( -1.685223, -5.055670, -1.685223 )     2.68268027
 
    497    -0.955E-13     0.0000021756        2.6826823162       1.79  <-- CONV
        O_D=      0.0000000 O_OD=      0.0028005 O_TOT=      2.6826823 <-- SPRD
 Delta: O_D= -0.3658088E-13 O_OD= -0.5858161E-13 O_TOT= -0.9547918E-13 <-- DLTA
 ------------------------------------------------------------------------------
 Cycle:    498
  WF centre and spread    1  ( -1.685223, -1.685223,  1.685224 )     0.89429862
  WF centre and spread    2  ( -1.685223, -1.685224, -1.685224 )     0.89429842
  WF centre and spread    3  (  1.685223, -1.685223, -1.685223 )     0.89408323
  Sum of centres and spreads ( -1.685223, -5.055670, -1.685223 )     2.68268027
 
    498    -0.115E-12     0.0000021751        2.6826823162       1.79  <-- CONV
        O_D=      0.0000000 O_OD=      0.0028005 O_TOT=      2.6826823 <-- SPRD
 Delta: O_D= -0.4386613E-13 O_OD= -0.7025500E-13 O_TOT= -0.1145750E-12 <-- DLTA
 ------------------------------------------------------------------------------
 Cycle:    499
  WF centre and spread    1  ( -1.685223, -1.685223,  1.685224 )     0.89429862
  WF centre and spread    2  ( -1.685223, -1.685224, -1.685224 )     0.89429842
  WF centre and spread    3  (  1.685223, -1.685223, -1.685223 )     0.89408323
  Sum of centres and spreads ( -1.685223, -5.055670, -1.685223 )     2.68268027
 
    499    -0.187E-13     0.0000021744        2.6826823162       1.80  <-- CONV
        O_D=      0.0000000 O_OD=      0.0028005 O_TOT=      2.6826823 <-- SPRD
 Delta: O_D= -0.7310855E-14 O_OD= -0.1170982E-13 O_TOT= -0.1865175E-13 <-- DLTA
 ------------------------------------------------------------------------------
 Cycle:    500
  WF centre and spread    1  ( -1.685223, -1.685223,  1.685224 )     0.89429862
  WF centre and spread    2  ( -1.685223, -1.685224, -1.685224 )     0.89429842
  WF centre and spread    3  (  1.685223, -1.685223, -1.685223 )     0.89408323
  Sum of centres and spreads ( -1.685223, -5.055670, -1.685223 )     2.68268027
 
    500    -0.382E-13     0.0000021743        2.6826823162       1.80  <-- CONV
        O_D=      0.0000000 O_OD=      0.0028005 O_TOT=      2.6826823 <-- SPRD
 Delta: O_D= -0.1461945E-13 O_OD= -0.2341400E-13 O_TOT= -0.3819167E-13 <-- DLTA
 ------------------------------------------------------------------------------

 Writing checkpoint file mp-2064.chk... done

 Final State
  WF centre and spread    1  ( -1.685223, -1.685223,  1.685224 )     0.89429862
  WF centre and spread    2  ( -1.685223, -1.685224, -1.685224 )     0.89429842
  WF centre and spread    3  (  1.685223, -1.685223, -1.685223 )     0.89408323
  Sum of centres and spreads ( -1.685223, -5.055670, -1.685223 )     2.68268027
 
         Spreads (Ang^2)       Omega I      =     2.679881816
        ================       Omega D      =     0.000000000
                               Omega OD     =     0.002800500
    Final Spread (Ang^2)       Omega Total  =     2.682682316
 ------------------------------------------------------------------------------
 Time for wannierise            1.799 (sec)

 Writing checkpoint file mp-2064.chk... done

 Time for plotting              0.000 (sec)
 Total Execution Time           3.053 (sec)

 *===========================================================================*
 |                             TIMING INFORMATION                            |
 *===========================================================================*
 |    Tag                                                Ncalls      Time (s)|
 |---------------------------------------------------------------------------|
 |kmesh: get                                        :         1         1.031|
 |overlap: allocate                                 :         1         0.001|
 |overlap: read                                     :         1         0.115|
 |wann: main                                        :         1         1.799|
 |plot: main                                        :         1         0.000|
 *---------------------------------------------------------------------------*
 
 All done: wannier90 exiting
