 
             +---------------------------------------------------+
             |                                                   |
             |                   WANNIER90                       |
             |                                                   |
             +---------------------------------------------------+
             |                                                   |
             |        Welcome to the Maximally-Localized         |
             |        Generalized Wannier Functions code         |
             |            http://www.wannier.org                 |
             |                                                   |
             |                                                   |
             |  Wannier90 Developer Group:                       |
             |    Giovanni Pizzi    (EPFL)                       |
             |    Valerio Vitale    (Cambridge)                  |
             |    David Vanderbilt  (Rutgers University)         |
             |    Nicola Marzari    (EPFL)                       |
             |    Ivo Souza         (Universidad del Pais Vasco) |
             |    Arash A. Mostofi  (Imperial College London)    |
             |    Jonathan R. Yates (University of Oxford)       |
             |                                                   |
             |  For the full list of Wannier90 3.x authors,      |
             |  please check the code documentation and the      |
             |  README on the GitHub page of the code            |
             |                                                   |
             |                                                   |
             |  Please cite                                      |
             |                                                   |
             |  [ref] "Wannier90 as a community code:            |
             |        new features and applications",            |
             |        G. Pizzi et al., J. Phys. Cond. Matt. 32,  |
             |        165902 (2020).                             |
             |        http://doi.org/10.1088/1361-648X/ab51ff    |
             |                                                   |
             |  in any publications arising from the use of      |
             |  this code. For the method please cite            |
             |                                                   |
             |  [ref] "Maximally Localized Generalised Wannier   |
             |         Functions for Composite Energy Bands"     |
             |         N. Marzari and D. Vanderbilt              |
             |         Phys. Rev. B 56 12847 (1997)              |
             |                                                   |
             |  [ref] "Maximally Localized Wannier Functions     |
             |         for Entangled Energy Bands"               |
             |         I. Souza, N. Marzari and D. Vanderbilt    |
             |         Phys. Rev. B 65 035109 (2001)             |
             |                                                   |
             |                                                   |
             | Copyright (c) 1996-2020                           |
             |        The Wannier90 Developer Group and          |
             |        individual contributors                    |
             |                                                   |
             |      Release: 3.1.0        5th March    2020      |
             |                                                   |
             | This program is free software; you can            |
             | redistribute it and/or modify it under the terms  |
             | of the GNU General Public License as published by |
             | the Free Software Foundation; either version 2 of |
             | the License, or (at your option) any later version|
             |                                                   |
             | This program is distributed in the hope that it   |
             | will be useful, but WITHOUT ANY WARRANTY; without |
             | even the implied warranty of MERCHANTABILITY or   |
             | FITNESS FOR A PARTICULAR PURPOSE. See the GNU     |
             | General Public License for more details.          |
             |                                                   |
             | You should have received a copy of the GNU General|
             | Public License along with this program; if not,   |
             | write to the Free Software Foundation, Inc.,      |
             | 675 Mass Ave, Cambridge, MA 02139, USA.           |
             |                                                   |
             +---------------------------------------------------+
             |    Execution started on  8Apr2024 at 15:12:35     |
             +---------------------------------------------------+
 
 ******************************************************************************
 * -> Using CODATA 2006 constant values                                       *
 *    (http://physics.nist.gov/cuu/Constants/index.html)                      *
 * -> Using Bohr value from CODATA                                            *
 ******************************************************************************
 

 Running in parallel on  16 CPUs

 
                                    ------
                                    SYSTEM
                                    ------
 
                              Lattice Vectors (Ang)
                    a_1     3.370447   0.000000   0.000000
                    a_2     0.000000   3.370447   0.000000
                    a_3     0.000000   0.000000   3.370447
 
                   Unit Cell Volume:      38.28798  (Ang^3)
 
                        Reciprocal-Space Vectors (Ang^-1)
                    b_1     1.864199   0.000000   0.000000
                    b_2     0.000000   1.864199   0.000000
                    b_3     0.000000   0.000000   1.864199
  
 *----------------------------------------------------------------------------*
 |   Site       Fractional Coordinate          Cartesian Coordinate (Ang)     |
 +----------------------------------------------------------------------------+
 | Rb   1   0.00000   0.00000   0.00000   |    0.00000   0.00000   0.00000    |
 | F    1   0.50000   0.50000   0.50000   |    1.68522   1.68522   1.68522    |
 *----------------------------------------------------------------------------*
                                ------------
                                K-POINT GRID
                                ------------
  
             Grid size = 12 x 12 x 12      Total points = 1728
  
  
 *---------------------------------- MAIN ------------------------------------*
 |  Number of Wannier Functions               :                 3             |
 |  Number of Objective Wannier Functions     :                 3             |
 |  Number of input Bloch states              :                 3             |
 |  Output verbosity (1=low, 5=high)          :                 1             |
 |  Timing Level (1=low, 5=high)              :                 1             |
 |  Optimisation (0=memory, 3=speed)          :                 3             |
 |  Length Unit                               :               Ang             |
 |  Post-processing setup (write *.nnkp)      :                 F             |
 |  Using Gamma-only branch of algorithms     :                 F             |
 *----------------------------------------------------------------------------*
 *------------------------------- WANNIERISE ---------------------------------*
 |  Total number of iterations                :               500             |
 |  Number of CG steps before reset           :                 5             |
 |  Trial step length for line search         :             2.000             |
 |  Convergence tolerence                     :         0.100E-09             |
 |  Convergence window                        :                -1             |
 |  Iterations between writing output         :                 1             |
 |  Iterations between backing up to disk     :               100             |
 |  Write r^2_nm to file                      :                 F             |
 |  Write xyz WF centres to file              :                 F             |
 |  Write on-site energies <0n|H|0n> to file  :                 F             |
 |  Use guiding centre to control phases      :                 F             |
 |  Use phases for initial projections        :                 F             |
 *----------------------------------------------------------------------------*
 Time to read parameters        0.164 (sec)

 *---------------------------------- K-MESH ----------------------------------*
 +----------------------------------------------------------------------------+
 |                    Distance to Nearest-Neighbour Shells                    |
 |                    ------------------------------------                    |
 |          Shell             Distance (Ang^-1)          Multiplicity         |
 |          -----             -----------------          ------------         |
 |             1                   0.155350                      6            |
 |             2                   0.219698                     12            |
 |             3                   0.269074                      8            |
 |             4                   0.310700                      6            |
 |             5                   0.347373                     24            |
 |             6                   0.380528                     24            |
 |             7                   0.439396                     12            |
 |             8                   0.466050                     30            |
 |             9                   0.491260                     24            |
 |            10                   0.515237                     24            |
 |            11                   0.538148                      8            |
 |            12                   0.560122                     24            |
 |            13                   0.581266                     48            |
 |            14                   0.621400                      6            |
 |            15                   0.640524                     48            |
 |            16                   0.659094                     36            |
 |            17                   0.677155                     24            |
 |            18                   0.694746                     24            |
 |            19                   0.711903                     48            |
 |            20                   0.728656                     24            |
 |            21                   0.761056                     24            |
 |            22                   0.776750                     30            |
 |            23                   0.792132                     72            |
 |            24                   0.807222                     32            |
 |            25                   0.836585                     72            |
 |            26                   0.850887                     48            |
 |            27                   0.878792                     12            |
 |            28                   0.892418                     48            |
 |            29                   0.905838                     48            |
 |            30                   0.919063                     48            |
 |            31                   0.932100                     30            |
 |            32                   0.944957                     24            |
 |            33                   0.957641                     72            |
 |            34                   0.982519                     24            |
 |            35                   0.994725                     96            |
 |            36                   1.006783                     48            |
 +----------------------------------------------------------------------------+
 | The b-vectors are chosen automatically                                     |
 | The following shells are used:   1                                         |
 +----------------------------------------------------------------------------+
 |                        Shell   # Nearest-Neighbours                        |
 |                        -----   --------------------                        |
 |                          1               6                                 |
 +----------------------------------------------------------------------------+
 | Completeness relation is fully satisfied [Eq. (B1), PRB 56, 12847 (1997)]  |
 +----------------------------------------------------------------------------+
 |                  b_k Vectors (Ang^-1) and Weights (Ang^2)                  |
 |                  ----------------------------------------                  |
 |            No.         b_k(x)      b_k(y)      b_k(z)        w_b           |
 |            ---        --------------------------------     --------        |
 |             1         0.000000    0.000000    0.155350    20.717999        |
 |             2         0.000000    0.155350    0.000000    20.717999        |
 |             3         0.155350    0.000000    0.000000    20.717999        |
 |             4         0.000000    0.000000   -0.155350    20.717999        |
 |             5         0.000000   -0.155350    0.000000    20.717999        |
 |             6        -0.155350    0.000000    0.000000    20.717999        |
 +----------------------------------------------------------------------------+
 |                           b_k Directions (Ang^-1)                          |
 |                           -----------------------                          |
 |            No.           x           y           z                         |
 |            ---        --------------------------------                     |
 |             1         0.000000    0.000000    0.155350                     |
 |             2         0.000000    0.155350    0.000000                     |
 |             3         0.155350    0.000000    0.000000                     |
 +----------------------------------------------------------------------------+
  
 Time to get kmesh              0.719 (sec)
 *============================================================================*
 |                              MEMORY ESTIMATE                               |
 |         Maximum RAM allocated during each phase of the calculation         |
 *============================================================================*
 |                            Wannierise:            5.52 Mb                  |
 |                          plot_wannier:            5.52 Mb                  |
 *----------------------------------------------------------------------------*
  
 Starting a new Wannier90 calculation ...


 Reading overlaps from mp-2064.mmn    :  Created on  8Apr2024 at 15:12:28

 Reading projections from mp-2064.amn :  Created on  8Apr2024 at 15:12:27  with SCDM

 Time to read overlaps          0.123 (sec)

 Writing checkpoint file mp-2064.chk... done

 
 *------------------------------- WANNIERISE ---------------------------------*
 +--------------------------------------------------------------------+<-- CONV
 | Iter  Delta Spread     RMS Gradient      Spread (Ang^2)      Time  |<-- CONV
 +--------------------------------------------------------------------+<-- CONV
 
 ------------------------------------------------------------------------------
 Initial State
  WF centre and spread    1  ( -1.685469,  1.685324, -1.685106 )     0.89741493
  WF centre and spread    2  (  1.685469,  1.685323, -1.685107 )     0.89741484
  WF centre and spread    3  ( -1.685223, -1.685391, -1.685463 )     0.89710168
  Sum of centres and spreads ( -1.685223,  1.685256, -5.055676 )     2.69193145
 
      0     0.269E+01     0.0000000000        2.6919334941       0.00  <-- CONV
        O_D=      0.0043428 O_OD=      0.0077089 O_TOT=      2.6919335 <-- SPRD
 ------------------------------------------------------------------------------
 Cycle:      1
  WF centre and spread    1  ( -1.685338,  1.685272, -1.685167 )     0.89479574
  WF centre and spread    2  (  1.685338,  1.685271, -1.685167 )     0.89479508
  WF centre and spread    3  ( -1.685223, -1.685305, -1.685337 )     0.89454692
  Sum of centres and spreads ( -1.685223,  1.685238, -5.055671 )     2.68413773
 
      1    -0.779E-02     0.0239706946        2.6841397761       0.00  <-- CONV
        O_D=      0.0006599 O_OD=      0.0035980 O_TOT=      2.6841398 <-- SPRD
 Delta: O_D= -0.3682827E-02 O_OD= -0.4110891E-02 O_TOT= -0.7793718E-02 <-- DLTA
 ------------------------------------------------------------------------------
 Cycle:      2
  WF centre and spread    1  ( -1.685328,  1.685268, -1.685171 )     0.89468584
  WF centre and spread    2  (  1.685328,  1.685267, -1.685171 )     0.89468592
  WF centre and spread    3  ( -1.685223, -1.685299, -1.685328 )     0.89444719
  Sum of centres and spreads ( -1.685223,  1.685237, -5.055670 )     2.68381895
 
      2    -0.319E-03     0.0142620049        2.6838209933       0.01  <-- CONV
        O_D=      0.0005125 O_OD=      0.0034266 O_TOT=      2.6838210 <-- SPRD
 Delta: O_D= -0.1474011E-03 O_OD= -0.1713817E-03 O_TOT= -0.3187828E-03 <-- DLTA
 ------------------------------------------------------------------------------
 Cycle:      3
  WF centre and spread    1  ( -1.685309,  1.685260, -1.685180 )     0.89459451
  WF centre and spread    2  (  1.685310,  1.685260, -1.685180 )     0.89459433
  WF centre and spread    3  ( -1.685223, -1.685285, -1.685310 )     0.89436231
  Sum of centres and spreads ( -1.685223,  1.685235, -5.055670 )     2.68355115
 
      3    -0.268E-03     0.0077798811        2.6835531983       0.01  <-- CONV
        O_D=      0.0003965 O_OD=      0.0032749 O_TOT=      2.6835532 <-- SPRD
 Delta: O_D= -0.1160275E-03 O_OD= -0.1517676E-03 O_TOT= -0.2677950E-03 <-- DLTA
 ------------------------------------------------------------------------------
 Cycle:      4
  WF centre and spread    1  ( -1.685274,  1.685245, -1.685198 )     0.89445672
  WF centre and spread    2  (  1.685274,  1.685245, -1.685198 )     0.89445684
  WF centre and spread    3  ( -1.685223, -1.685260, -1.685275 )     0.89423003
  Sum of centres and spreads ( -1.685223,  1.685230, -5.055671 )     2.68314358
 
      4    -0.408E-03     0.0104372354        2.6831456275       0.02  <-- CONV
        O_D=      0.0002088 O_OD=      0.0030550 O_TOT=      2.6831456 <-- SPRD
 Delta: O_D= -0.1877316E-03 O_OD= -0.2198391E-03 O_TOT= -0.4075708E-03 <-- DLTA
 ------------------------------------------------------------------------------
 Cycle:      5
  WF centre and spread    1  ( -1.685250,  1.685235, -1.685210 )     0.89437303
  WF centre and spread    2  (  1.685250,  1.685235, -1.685210 )     0.89437307
  WF centre and spread    3  ( -1.685223, -1.685243, -1.685250 )     0.89415368
  Sum of centres and spreads ( -1.685223,  1.685227, -5.055671 )     2.68289978
 
      5    -0.244E-03     0.0096461620        2.6829018245       0.02  <-- CONV
        O_D=      0.0001007 O_OD=      0.0029193 O_TOT=      2.6829018 <-- SPRD
 Delta: O_D= -0.1080308E-03 O_OD= -0.1357722E-03 O_TOT= -0.2438030E-03 <-- DLTA
 ------------------------------------------------------------------------------
 Cycle:      6
  WF centre and spread    1  ( -1.685235,  1.685229, -1.685217 )     0.89432845
  WF centre and spread    2  (  1.685236,  1.685229, -1.685217 )     0.89432853
  WF centre and spread    3  ( -1.685223, -1.685232, -1.685236 )     0.89411187
  Sum of centres and spreads ( -1.685223,  1.685226, -5.055671 )     2.68276884
 
      6    -0.131E-03     0.0070750279        2.6827708877       0.03  <-- CONV
        O_D=      0.0000419 O_OD=      0.0028472 O_TOT=      2.6827709 <-- SPRD
 Delta: O_D= -0.5882294E-04 O_OD= -0.7211392E-04 O_TOT= -0.1309369E-03 <-- DLTA
 ------------------------------------------------------------------------------
 Cycle:      7
  WF centre and spread    1  ( -1.685235,  1.685229, -1.685218 )     0.89431523
  WF centre and spread    2  (  1.685235,  1.685228, -1.685218 )     0.89431530
  WF centre and spread    3  ( -1.685223, -1.685232, -1.685235 )     0.89409950
  Sum of centres and spreads ( -1.685223,  1.685226, -5.055671 )     2.68273002
 
      7    -0.388E-04     0.0048582042        2.6827320638       0.03  <-- CONV
        O_D=      0.0000240 O_OD=      0.0028263 O_TOT=      2.6827321 <-- SPRD
 Delta: O_D= -0.1794850E-04 O_OD= -0.2087534E-04 O_TOT= -0.3882384E-04 <-- DLTA
 ------------------------------------------------------------------------------
 Cycle:      8
  WF centre and spread    1  ( -1.685234,  1.685228, -1.685218 )     0.89430715
  WF centre and spread    2  (  1.685234,  1.685228, -1.685218 )     0.89430719
  WF centre and spread    3  ( -1.685223, -1.685231, -1.685234 )     0.89409161
  Sum of centres and spreads ( -1.685223,  1.685225, -5.055671 )     2.68270595
 
      8    -0.241E-04     0.0029885401        2.6827079963       0.03  <-- CONV
        O_D=      0.0000119 O_OD=      0.0028142 O_TOT=      2.6827080 <-- SPRD
 Delta: O_D= -0.1203835E-04 O_OD= -0.1202920E-04 O_TOT= -0.2406755E-04 <-- DLTA
 ------------------------------------------------------------------------------
 Cycle:      9
  WF centre and spread    1  ( -1.685233,  1.685228, -1.685219 )     0.89430293
  WF centre and spread    2  (  1.685233,  1.685227, -1.685219 )     0.89430296
  WF centre and spread    3  ( -1.685223, -1.685230, -1.685233 )     0.89408748
  Sum of centres and spreads ( -1.685223,  1.685225, -5.055671 )     2.68269337
 
      9    -0.126E-04     0.0022304661        2.6826954143       0.04  <-- CONV
        O_D=      0.0000060 O_OD=      0.0028076 O_TOT=      2.6826954 <-- SPRD
 Delta: O_D= -0.5951314E-05 O_OD= -0.6630609E-05 O_TOT= -0.1258192E-04 <-- DLTA
 ------------------------------------------------------------------------------
 Cycle:     10
  WF centre and spread    1  ( -1.685232,  1.685228, -1.685219 )     0.89430155
  WF centre and spread    2  (  1.685232,  1.685227, -1.685219 )     0.89430158
  WF centre and spread    3  ( -1.685223, -1.685230, -1.685232 )     0.89408620
  Sum of centres and spreads ( -1.685223,  1.685225, -5.055671 )     2.68268934
 
     10    -0.403E-05     0.0013798370        2.6826913811       0.04  <-- CONV
        O_D=      0.0000040 O_OD=      0.0028055 O_TOT=      2.6826914 <-- SPRD
 Delta: O_D= -0.1949170E-05 O_OD= -0.2084071E-05 O_TOT= -0.4033241E-05 <-- DLTA
 ------------------------------------------------------------------------------
 Cycle:     11
  WF centre and spread    1  ( -1.685231,  1.685227, -1.685220 )     0.89430077
  WF centre and spread    2  (  1.685231,  1.685227, -1.685220 )     0.89430080
  WF centre and spread    3  ( -1.685223, -1.685229, -1.685231 )     0.89408547
  Sum of centres and spreads ( -1.685223,  1.685225, -5.055671 )     2.68268705
 
     11    -0.229E-05     0.0008485546        2.6826890939       0.05  <-- CONV
        O_D=      0.0000030 O_OD=      0.0028043 O_TOT=      2.6826891 <-- SPRD
 Delta: O_D= -0.1035006E-05 O_OD= -0.1252191E-05 O_TOT= -0.2287197E-05 <-- DLTA
 ------------------------------------------------------------------------------
 Cycle:     12
  WF centre and spread    1  ( -1.685229,  1.685226, -1.685221 )     0.89429964
  WF centre and spread    2  (  1.685229,  1.685226, -1.685221 )     0.89429967
  WF centre and spread    3  ( -1.685223, -1.685227, -1.685229 )     0.89408447
  Sum of centres and spreads ( -1.685223,  1.685225, -5.055671 )     2.68268379
 
     12    -0.326E-05     0.0009035995        2.6826858329       0.05  <-- CONV
        O_D=      0.0000015 O_OD=      0.0028025 O_TOT=      2.6826858 <-- SPRD
 Delta: O_D= -0.1491157E-05 O_OD= -0.1769867E-05 O_TOT= -0.3261024E-05 <-- DLTA
 ------------------------------------------------------------------------------
 Cycle:     13
  WF centre and spread    1  ( -1.685228,  1.685226, -1.685221 )     0.89429929
  WF centre and spread    2  (  1.685229,  1.685226, -1.685221 )     0.89429932
  WF centre and spread    3  ( -1.685223, -1.685227, -1.685229 )     0.89408412
  Sum of centres and spreads ( -1.685223,  1.685225, -5.055671 )     2.68268273
 
     13    -0.105E-05     0.0007510048        2.6826847795       0.05  <-- CONV
        O_D=      0.0000011 O_OD=      0.0028019 O_TOT=      2.6826848 <-- SPRD
 Delta: O_D= -0.4452504E-06 O_OD= -0.6081329E-06 O_TOT= -0.1053383E-05 <-- DLTA
 ------------------------------------------------------------------------------
 Cycle:     14
  WF centre and spread    1  ( -1.685228,  1.685226, -1.685221 )     0.89429908
  WF centre and spread    2  (  1.685228,  1.685225, -1.685221 )     0.89429911
  WF centre and spread    3  ( -1.685223, -1.685227, -1.685228 )     0.89408393
  Sum of centres and spreads ( -1.685223,  1.685225, -5.055671 )     2.68268211
 
     14    -0.625E-06     0.0004876203        2.6826841543       0.06  <-- CONV
        O_D=      0.0000008 O_OD=      0.0028016 O_TOT=      2.6826842 <-- SPRD
 Delta: O_D= -0.2843915E-06 O_OD= -0.3408133E-06 O_TOT= -0.6252048E-06 <-- DLTA
 ------------------------------------------------------------------------------
 Cycle:     15
  WF centre and spread    1  ( -1.685227,  1.685225, -1.685222 )     0.89429889
  WF centre and spread    2  (  1.685227,  1.685225, -1.685222 )     0.89429891
  WF centre and spread    3  ( -1.685223, -1.685226, -1.685228 )     0.89408375
  Sum of centres and spreads ( -1.685223,  1.685224, -5.055671 )     2.68268155
 
     15    -0.561E-06     0.0003947498        2.6826835936       0.06  <-- CONV
        O_D=      0.0000006 O_OD=      0.0028012 O_TOT=      2.6826836 <-- SPRD
 Delta: O_D= -0.2194799E-06 O_OD= -0.3412414E-06 O_TOT= -0.5607213E-06 <-- DLTA
 ------------------------------------------------------------------------------
 Cycle:     16
  WF centre and spread    1  ( -1.685226,  1.685225, -1.685222 )     0.89429874
  WF centre and spread    2  (  1.685226,  1.685225, -1.685222 )     0.89429876
  WF centre and spread    3  ( -1.685223, -1.685225, -1.685227 )     0.89408361
  Sum of centres and spreads ( -1.685223,  1.685224, -5.055671 )     2.68268111
 
     16    -0.439E-06     0.0003872854        2.6826831542       0.06  <-- CONV
        O_D=      0.0000004 O_OD=      0.0028010 O_TOT=      2.6826832 <-- SPRD
 Delta: O_D= -0.1869571E-06 O_OD= -0.2524412E-06 O_TOT= -0.4393984E-06 <-- DLTA
 ------------------------------------------------------------------------------
 Cycle:     17
  WF centre and spread    1  ( -1.685225,  1.685225, -1.685223 )     0.89429861
  WF centre and spread    2  (  1.685225,  1.685224, -1.685223 )     0.89429863
  WF centre and spread    3  ( -1.685223, -1.685225, -1.685225 )     0.89408349
  Sum of centres and spreads ( -1.685223,  1.685224, -5.055671 )     2.68268073
 
     17    -0.378E-06     0.0003424758        2.6826827764       0.06  <-- CONV
        O_D=      0.0000002 O_OD=      0.0028007 O_TOT=      2.6826828 <-- SPRD
 Delta: O_D= -0.1492045E-06 O_OD= -0.2285619E-06 O_TOT= -0.3777664E-06 <-- DLTA
 ------------------------------------------------------------------------------
 Cycle:     18
  WF centre and spread    1  ( -1.685224,  1.685224, -1.685223 )     0.89429852
  WF centre and spread    2  (  1.685224,  1.685224, -1.685223 )     0.89429855
  WF centre and spread    3  ( -1.685223, -1.685224, -1.685225 )     0.89408342
  Sum of centres and spreads ( -1.685223,  1.685224, -5.055671 )     2.68268049
 
     18    -0.237E-06     0.0003093177        2.6826825395       0.07  <-- CONV
        O_D=      0.0000001 O_OD=      0.0028006 O_TOT=      2.6826825 <-- SPRD
 Delta: O_D= -0.1089615E-06 O_OD= -0.1279681E-06 O_TOT= -0.2369296E-06 <-- DLTA
 ------------------------------------------------------------------------------
 Cycle:     19
  WF centre and spread    1  ( -1.685224,  1.685224, -1.685223 )     0.89429849
  WF centre and spread    2  (  1.685224,  1.685224, -1.685223 )     0.89429852
  WF centre and spread    3  ( -1.685223, -1.685224, -1.685225 )     0.89408339
  Sum of centres and spreads ( -1.685223,  1.685224, -5.055671 )     2.68268040
 
     19    -0.935E-07     0.0002374855        2.6826824460       0.07  <-- CONV
        O_D=      0.0000001 O_OD=      0.0028006 O_TOT=      2.6826824 <-- SPRD
 Delta: O_D= -0.4078235E-07 O_OD= -0.5267933E-07 O_TOT= -0.9346168E-07 <-- DLTA
 ------------------------------------------------------------------------------
 Cycle:     20
  WF centre and spread    1  ( -1.685224,  1.685224, -1.685223 )     0.89429847
  WF centre and spread    2  (  1.685224,  1.685224, -1.685223 )     0.89429850
  WF centre and spread    3  ( -1.685223, -1.685224, -1.685225 )     0.89408337
  Sum of centres and spreads ( -1.685223,  1.685224, -5.055671 )     2.68268034
 
     20    -0.583E-07     0.0001480545        2.6826823877       0.07  <-- CONV
        O_D=      0.0000000 O_OD=      0.0028005 O_TOT=      2.6826824 <-- SPRD
 Delta: O_D= -0.2762783E-07 O_OD= -0.3064901E-07 O_TOT= -0.5827683E-07 <-- DLTA
 ------------------------------------------------------------------------------
 Cycle:     21
  WF centre and spread    1  ( -1.685224,  1.685224, -1.685223 )     0.89429846
  WF centre and spread    2  (  1.685224,  1.685224, -1.685223 )     0.89429849
  WF centre and spread    3  ( -1.685223, -1.685224, -1.685225 )     0.89408336
  Sum of centres and spreads ( -1.685223,  1.685224, -5.055671 )     2.68268031
 
     21    -0.376E-07     0.0001179790        2.6826823502       0.08  <-- CONV
        O_D=      0.0000000 O_OD=      0.0028005 O_TOT=      2.6826824 <-- SPRD
 Delta: O_D= -0.1559080E-07 O_OD= -0.2196536E-07 O_TOT= -0.3755616E-07 <-- DLTA
 ------------------------------------------------------------------------------
 Cycle:     22
  WF centre and spread    1  ( -1.685224,  1.685224, -1.685223 )     0.89429845
  WF centre and spread    2  (  1.685224,  1.685224, -1.685223 )     0.89429848
  WF centre and spread    3  ( -1.685223, -1.685224, -1.685224 )     0.89408335
  Sum of centres and spreads ( -1.685223,  1.685224, -5.055671 )     2.68268029
 
     22    -0.162E-07     0.0000856452        2.6826823340       0.08  <-- CONV
        O_D=      0.0000000 O_OD=      0.0028005 O_TOT=      2.6826823 <-- SPRD
 Delta: O_D= -0.7532342E-08 O_OD= -0.8657062E-08 O_TOT= -0.1618940E-07 <-- DLTA
 ------------------------------------------------------------------------------
 Cycle:     23
  WF centre and spread    1  ( -1.685224,  1.685224, -1.685223 )     0.89429845
  WF centre and spread    2  (  1.685224,  1.685224, -1.685223 )     0.89429848
  WF centre and spread    3  ( -1.685223, -1.685224, -1.685224 )     0.89408335
  Sum of centres and spreads ( -1.685223,  1.685224, -5.055671 )     2.68268028
 
     23    -0.853E-08     0.0000528227        2.6826823255       0.08  <-- CONV
        O_D=      0.0000000 O_OD=      0.0028005 O_TOT=      2.6826823 <-- SPRD
 Delta: O_D= -0.3184604E-08 O_OD= -0.5342853E-08 O_TOT= -0.8527457E-08 <-- DLTA
 ------------------------------------------------------------------------------
 Cycle:     24
  WF centre and spread    1  ( -1.685224,  1.685224, -1.685223 )     0.89429845
  WF centre and spread    2  (  1.685224,  1.685224, -1.685223 )     0.89429848
  WF centre and spread    3  ( -1.685223, -1.685224, -1.685224 )     0.89408335
  Sum of centres and spreads ( -1.685223,  1.685224, -5.055671 )     2.68268027
 
     24    -0.779E-08     0.0000505378        2.6826823177       0.09  <-- CONV
        O_D=      0.0000000 O_OD=      0.0028005 O_TOT=      2.6826823 <-- SPRD
 Delta: O_D= -0.3228582E-08 O_OD= -0.4560458E-08 O_TOT= -0.7789040E-08 <-- DLTA
 ------------------------------------------------------------------------------
 Cycle:     25
  WF centre and spread    1  ( -1.685224,  1.685224, -1.685223 )     0.89429845
  WF centre and spread    2  (  1.685224,  1.685224, -1.685223 )     0.89429848
  WF centre and spread    3  ( -1.685223, -1.685224, -1.685224 )     0.89408334
  Sum of centres and spreads ( -1.685223,  1.685224, -5.055671 )     2.68268027
 
     25    -0.472E-08     0.0000469463        2.6826823130       0.09  <-- CONV
        O_D=      0.0000000 O_OD=      0.0028005 O_TOT=      2.6826823 <-- SPRD
 Delta: O_D= -0.2009990E-08 O_OD= -0.2713051E-08 O_TOT= -0.4723041E-08 <-- DLTA
 ------------------------------------------------------------------------------
 Cycle:     26
  WF centre and spread    1  ( -1.685224,  1.685224, -1.685223 )     0.89429845
  WF centre and spread    2  (  1.685224,  1.685224, -1.685223 )     0.89429848
  WF centre and spread    3  ( -1.685223, -1.685224, -1.685224 )     0.89408334
  Sum of centres and spreads ( -1.685223,  1.685224, -5.055671 )     2.68268027
 
     26    -0.292E-08     0.0000345215        2.6826823100       0.09  <-- CONV
        O_D=      0.0000000 O_OD=      0.0028005 O_TOT=      2.6826823 <-- SPRD
 Delta: O_D= -0.1248491E-08 O_OD= -0.1673935E-08 O_TOT= -0.2922426E-08 <-- DLTA
 ------------------------------------------------------------------------------
 Cycle:     27
  WF centre and spread    1  ( -1.685224,  1.685224, -1.685223 )     0.89429844
  WF centre and spread    2  (  1.685224,  1.685224, -1.685223 )     0.89429848
  WF centre and spread    3  ( -1.685223, -1.685224, -1.685224 )     0.89408334
  Sum of centres and spreads ( -1.685223,  1.685224, -5.055671 )     2.68268026
 
     27    -0.334E-08     0.0000289972        2.6826823067       0.09  <-- CONV
        O_D=      0.0000000 O_OD=      0.0028005 O_TOT=      2.6826823 <-- SPRD
 Delta: O_D= -0.1288115E-08 O_OD= -0.2054683E-08 O_TOT= -0.3342797E-08 <-- DLTA
 ------------------------------------------------------------------------------
 Cycle:     28
  WF centre and spread    1  ( -1.685224,  1.685224, -1.685223 )     0.89429844
  WF centre and spread    2  (  1.685224,  1.685224, -1.685223 )     0.89429847
  WF centre and spread    3  ( -1.685223, -1.685224, -1.685224 )     0.89408334
  Sum of centres and spreads ( -1.685223,  1.685224, -5.055671 )     2.68268026
 
     28    -0.256E-08     0.0000270797        2.6826823041       0.10  <-- CONV
        O_D=      0.0000000 O_OD=      0.0028005 O_TOT=      2.6826823 <-- SPRD
 Delta: O_D= -0.9125863E-09 O_OD= -0.1646145E-08 O_TOT= -0.2558731E-08 <-- DLTA
 ------------------------------------------------------------------------------
 Cycle:     29
  WF centre and spread    1  ( -1.685223,  1.685224, -1.685223 )     0.89429844
  WF centre and spread    2  (  1.685224,  1.685223, -1.685223 )     0.89429847
  WF centre and spread    3  ( -1.685223, -1.685223, -1.685224 )     0.89408334
  Sum of centres and spreads ( -1.685223,  1.685224, -5.055671 )     2.68268026
 
     29    -0.163E-08     0.0000320255        2.6826823025       0.10  <-- CONV
        O_D=      0.0000000 O_OD=      0.0028005 O_TOT=      2.6826823 <-- SPRD
 Delta: O_D= -0.6873218E-09 O_OD= -0.9430982E-09 O_TOT= -0.1630420E-08 <-- DLTA
 ------------------------------------------------------------------------------
 Cycle:     30
  WF centre and spread    1  ( -1.685223,  1.685224, -1.685223 )     0.89429844
  WF centre and spread    2  (  1.685224,  1.685223, -1.685223 )     0.89429847
  WF centre and spread    3  ( -1.685223, -1.685223, -1.685224 )     0.89408334
  Sum of centres and spreads ( -1.685223,  1.685224, -5.055671 )     2.68268026
 
     30    -0.102E-08     0.0000221620        2.6826823015       0.10  <-- CONV
        O_D=      0.0000000 O_OD=      0.0028005 O_TOT=      2.6826823 <-- SPRD
 Delta: O_D= -0.4584508E-09 O_OD= -0.5587502E-09 O_TOT= -0.1017201E-08 <-- DLTA
 ------------------------------------------------------------------------------
 Cycle:     31
  WF centre and spread    1  ( -1.685223,  1.685224, -1.685223 )     0.89429844
  WF centre and spread    2  (  1.685224,  1.685223, -1.685223 )     0.89429847
  WF centre and spread    3  ( -1.685223, -1.685223, -1.685224 )     0.89408334
  Sum of centres and spreads ( -1.685223,  1.685224, -5.055671 )     2.68268026
 
     31    -0.636E-09     0.0000194305        2.6826823009       0.10  <-- CONV
        O_D=      0.0000000 O_OD=      0.0028005 O_TOT=      2.6826823 <-- SPRD
 Delta: O_D= -0.2848102E-09 O_OD= -0.3515966E-09 O_TOT= -0.6364065E-09 <-- DLTA
 ------------------------------------------------------------------------------
 Cycle:     32
  WF centre and spread    1  ( -1.685223,  1.685224, -1.685223 )     0.89429844
  WF centre and spread    2  (  1.685224,  1.685223, -1.685223 )     0.89429847
  WF centre and spread    3  ( -1.685223, -1.685223, -1.685224 )     0.89408334
  Sum of centres and spreads ( -1.685223,  1.685224, -5.055671 )     2.68268026
 
     32    -0.734E-12     0.0000155074        2.6826823009       0.11  <-- CONV
        O_D=      0.0000000 O_OD=      0.0028005 O_TOT=      2.6826823 <-- SPRD
 Delta: O_D= -0.3863818E-12 O_OD= -0.3470809E-12 O_TOT= -0.7336354E-12 <-- DLTA
 ------------------------------------------------------------------------------
 Cycle:     33
  WF centre and spread    1  ( -1.685223,  1.685224, -1.685223 )     0.89429844
  WF centre and spread    2  (  1.685224,  1.685223, -1.685223 )     0.89429847
  WF centre and spread    3  ( -1.685223, -1.685223, -1.685224 )     0.89408334
  Sum of centres and spreads ( -1.685223,  1.685224, -5.055671 )     2.68268026
 
     33    -0.376E-09     0.0000154978        2.6826823005       0.11  <-- CONV
        O_D=      0.0000000 O_OD=      0.0028005 O_TOT=      2.6826823 <-- SPRD
 Delta: O_D= -0.1308345E-09 O_OD= -0.2452221E-09 O_TOT= -0.3760565E-09 <-- DLTA
 ------------------------------------------------------------------------------
 Cycle:     34
  WF centre and spread    1  ( -1.685223,  1.685224, -1.685223 )     0.89429844
  WF centre and spread    2  (  1.685224,  1.685223, -1.685223 )     0.89429847
  WF centre and spread    3  ( -1.685223, -1.685223, -1.685224 )     0.89408334
  Sum of centres and spreads ( -1.685223,  1.685224, -5.055671 )     2.68268026
 
     34    -0.214E-12     0.0000156619        2.6826823005       0.11  <-- CONV
        O_D=      0.0000000 O_OD=      0.0028005 O_TOT=      2.6826823 <-- SPRD
 Delta: O_D= -0.1099993E-12 O_OD= -0.1032694E-12 O_TOT= -0.2136069E-12 <-- DLTA
 ------------------------------------------------------------------------------
 Cycle:     35
  WF centre and spread    1  ( -1.685223,  1.685224, -1.685223 )     0.89429844
  WF centre and spread    2  (  1.685224,  1.685223, -1.685223 )     0.89429847
  WF centre and spread    3  ( -1.685223, -1.685223, -1.685224 )     0.89408334
  Sum of centres and spreads ( -1.685223,  1.685224, -5.055671 )     2.68268026
 
     35    -0.289E-09     0.0000156647        2.6826823002       0.11  <-- CONV
        O_D=      0.0000000 O_OD=      0.0028005 O_TOT=      2.6826823 <-- SPRD
 Delta: O_D= -0.1799867E-09 O_OD= -0.1086036E-09 O_TOT= -0.2885900E-09 <-- DLTA
 ------------------------------------------------------------------------------
 Cycle:     36
  WF centre and spread    1  ( -1.685223,  1.685224, -1.685223 )     0.89429844
  WF centre and spread    2  (  1.685224,  1.685223, -1.685223 )     0.89429847
  WF centre and spread    3  ( -1.685223, -1.685223, -1.685224 )     0.89408334
  Sum of centres and spreads ( -1.685223,  1.685224, -5.055671 )     2.68268026
 
     36    -0.291E-12     0.0000085317        2.6826823002       0.11  <-- CONV
        O_D=      0.0000000 O_OD=      0.0028005 O_TOT=      2.6826823 <-- SPRD
 Delta: O_D= -0.1415814E-12 O_OD= -0.1491064E-12 O_TOT= -0.2908784E-12 <-- DLTA
 ------------------------------------------------------------------------------
 Cycle:     37
  WF centre and spread    1  ( -1.685223,  1.685224, -1.685223 )     0.89429844
  WF centre and spread    2  (  1.685224,  1.685223, -1.685223 )     0.89429847
  WF centre and spread    3  ( -1.685223, -1.685223, -1.685224 )     0.89408334
  Sum of centres and spreads ( -1.685223,  1.685224, -5.055671 )     2.68268026
 
     37    -0.292E-12     0.0000085208        2.6826823002       0.11  <-- CONV
        O_D=      0.0000000 O_OD=      0.0028005 O_TOT=      2.6826823 <-- SPRD
 Delta: O_D= -0.1657814E-12 O_OD= -0.1260346E-12 O_TOT= -0.2917666E-12 <-- DLTA
 ------------------------------------------------------------------------------
 Cycle:     38
  WF centre and spread    1  ( -1.685223,  1.685224, -1.685223 )     0.89429844
  WF centre and spread    2  (  1.685224,  1.685223, -1.685223 )     0.89429847
  WF centre and spread    3  ( -1.685223, -1.685223, -1.685224 )     0.89408334
  Sum of centres and spreads ( -1.685223,  1.685224, -5.055671 )     2.68268026
 
     38    -0.950E-10     0.0000085080        2.6826823001       0.12  <-- CONV
        O_D=      0.0000000 O_OD=      0.0028005 O_TOT=      2.6826823 <-- SPRD
 Delta: O_D= -0.5085871E-10 O_OD= -0.4412399E-10 O_TOT= -0.9498269E-10 <-- DLTA
 ------------------------------------------------------------------------------
 Cycle:     39
  WF centre and spread    1  ( -1.685223,  1.685224, -1.685223 )     0.89429844
  WF centre and spread    2  (  1.685224,  1.685223, -1.685223 )     0.89429847
  WF centre and spread    3  ( -1.685223, -1.685223, -1.685224 )     0.89408334
  Sum of centres and spreads ( -1.685223,  1.685224, -5.055671 )     2.68268026
 
     39    -0.484E-13     0.0000031169        2.6826823001       0.12  <-- CONV
        O_D=      0.0000000 O_OD=      0.0028005 O_TOT=      2.6826823 <-- SPRD
 Delta: O_D= -0.2316143E-13 O_OD= -0.2529183E-13 O_TOT= -0.4840572E-13 <-- DLTA
 ------------------------------------------------------------------------------
 Cycle:     40
  WF centre and spread    1  ( -1.685223,  1.685224, -1.685223 )     0.89429844
  WF centre and spread    2  (  1.685224,  1.685223, -1.685223 )     0.89429847
  WF centre and spread    3  ( -1.685223, -1.685223, -1.685224 )     0.89408334
  Sum of centres and spreads ( -1.685223,  1.685224, -5.055671 )     2.68268026
 
     40    -0.870E-13     0.0000031150        2.6826823001       0.12  <-- CONV
        O_D=      0.0000000 O_OD=      0.0028005 O_TOT=      2.6826823 <-- SPRD
 Delta: O_D= -0.4374002E-13 O_OD= -0.4359143E-13 O_TOT= -0.8704149E-13 <-- DLTA
 ------------------------------------------------------------------------------
 Cycle:     41
  WF centre and spread    1  ( -1.685223,  1.685224, -1.685223 )     0.89429844
  WF centre and spread    2  (  1.685224,  1.685223, -1.685223 )     0.89429847
  WF centre and spread    3  ( -1.685223, -1.685223, -1.685224 )     0.89408334
  Sum of centres and spreads ( -1.685223,  1.685224, -5.055671 )     2.68268026
 
     41    -0.126E-12     0.0000031109        2.6826823001       0.12  <-- CONV
        O_D=      0.0000000 O_OD=      0.0028005 O_TOT=      2.6826823 <-- SPRD
 Delta: O_D= -0.6410360E-13 O_OD= -0.6172970E-13 O_TOT= -0.1261213E-12 <-- DLTA
 ------------------------------------------------------------------------------
 Cycle:     42
  WF centre and spread    1  ( -1.685223,  1.685224, -1.685223 )     0.89429844
  WF centre and spread    2  (  1.685224,  1.685223, -1.685223 )     0.89429847
  WF centre and spread    3  ( -1.685223, -1.685223, -1.685224 )     0.89408334
  Sum of centres and spreads ( -1.685223,  1.685224, -5.055671 )     2.68268026
 
     42    -0.163E-12     0.0000031047        2.6826823001       0.12  <-- CONV
        O_D=      0.0000000 O_OD=      0.0028005 O_TOT=      2.6826823 <-- SPRD
 Delta: O_D= -0.8412418E-13 O_OD= -0.7963422E-13 O_TOT= -0.1634248E-12 <-- DLTA
 ------------------------------------------------------------------------------
 Cycle:     43
  WF centre and spread    1  ( -1.685223,  1.685224, -1.685223 )     0.89429844
  WF centre and spread    2  (  1.685224,  1.685223, -1.685223 )     0.89429847
  WF centre and spread    3  ( -1.685223, -1.685223, -1.685224 )     0.89408334
  Sum of centres and spreads ( -1.685223,  1.685224, -5.055671 )     2.68268026
 
     43    -0.386E-13     0.0000030964        2.6826823001       0.12  <-- CONV
        O_D=      0.0000000 O_OD=      0.0028005 O_TOT=      2.6826823 <-- SPRD
 Delta: O_D= -0.2034366E-13 O_OD= -0.1821330E-13 O_TOT= -0.3863576E-13 <-- DLTA
 ------------------------------------------------------------------------------
 Cycle:     44
  WF centre and spread    1  ( -1.685223,  1.685224, -1.685223 )     0.89429844
  WF centre and spread    2  (  1.685224,  1.685223, -1.685223 )     0.89429847
  WF centre and spread    3  ( -1.685223, -1.685223, -1.685224 )     0.89408334
  Sum of centres and spreads ( -1.685223,  1.685224, -5.055671 )     2.68268026
 
     44    -0.768E-13     0.0000030944        2.6826823001       0.13  <-- CONV
        O_D=      0.0000000 O_OD=      0.0028005 O_TOT=      2.6826823 <-- SPRD
 Delta: O_D= -0.4058614E-13 O_OD= -0.3636327E-13 O_TOT= -0.7682743E-13 <-- DLTA
 ------------------------------------------------------------------------------
 Cycle:     45
  WF centre and spread    1  ( -1.685223,  1.685224, -1.685223 )     0.89429844
  WF centre and spread    2  (  1.685224,  1.685223, -1.685223 )     0.89429847
  WF centre and spread    3  ( -1.685223, -1.685223, -1.685224 )     0.89408334
  Sum of centres and spreads ( -1.685223,  1.685224, -5.055671 )     2.68268026
 
     45    -0.115E-12     0.0000030902        2.6826823001       0.13  <-- CONV
        O_D=      0.0000000 O_OD=      0.0028005 O_TOT=      2.6826823 <-- SPRD
 Delta: O_D= -0.6060019E-13 O_OD= -0.5438922E-13 O_TOT= -0.1154632E-12 <-- DLTA
 ------------------------------------------------------------------------------
 Cycle:     46
  WF centre and spread    1  ( -1.685223,  1.685224, -1.685223 )     0.89429844
  WF centre and spread    2  (  1.685224,  1.685223, -1.685223 )     0.89429847
  WF centre and spread    3  ( -1.685223, -1.685223, -1.685224 )     0.89408334
  Sum of centres and spreads ( -1.685223,  1.685224, -5.055671 )     2.68268026
 
     46    -0.152E-12     0.0000030840        2.6826823001       0.13  <-- CONV
        O_D=      0.0000000 O_OD=      0.0028005 O_TOT=      2.6826823 <-- SPRD
 Delta: O_D= -0.8026193E-13 O_OD= -0.7220179E-13 O_TOT= -0.1523226E-12 <-- DLTA
 ------------------------------------------------------------------------------
 Cycle:     47
  WF centre and spread    1  ( -1.685223,  1.685224, -1.685223 )     0.89429844
  WF centre and spread    2  (  1.685224,  1.685223, -1.685223 )     0.89429847
  WF centre and spread    3  ( -1.685223, -1.685223, -1.685224 )     0.89408334
  Sum of centres and spreads ( -1.685223,  1.685224, -5.055671 )     2.68268026
 
     47    -0.189E-10     0.0000030757        2.6826823001       0.13  <-- CONV
        O_D=      0.0000000 O_OD=      0.0028005 O_TOT=      2.6826823 <-- SPRD
 Delta: O_D= -0.9014324E-11 O_OD= -0.9873299E-11 O_TOT= -0.1888756E-10 <-- DLTA
 ------------------------------------------------------------------------------
 Cycle:     48
  WF centre and spread    1  ( -1.685223,  1.685224, -1.685223 )     0.89429844
  WF centre and spread    2  (  1.685224,  1.685223, -1.685223 )     0.89429847
  WF centre and spread    3  ( -1.685223, -1.685223, -1.685224 )     0.89408334
  Sum of centres and spreads ( -1.685223,  1.685224, -5.055671 )     2.68268026
 
     48    -0.759E-13     0.0000022050        2.6826823001       0.13  <-- CONV
        O_D=      0.0000000 O_OD=      0.0028005 O_TOT=      2.6826823 <-- SPRD
 Delta: O_D= -0.3094393E-13 O_OD= -0.4476888E-13 O_TOT= -0.7593925E-13 <-- DLTA
 ------------------------------------------------------------------------------
 Cycle:     49
  WF centre and spread    1  ( -1.685223,  1.685224, -1.685223 )     0.89429844
  WF centre and spread    2  (  1.685224,  1.685223, -1.685223 )     0.89429847
  WF centre and spread    3  ( -1.685223, -1.685223, -1.685224 )     0.89408334
  Sum of centres and spreads ( -1.685223,  1.685224, -5.055671 )     2.68268026
 
     49    -0.195E-13     0.0000022030        2.6826823001       0.13  <-- CONV
        O_D=      0.0000000 O_OD=      0.0028005 O_TOT=      2.6826823 <-- SPRD
 Delta: O_D= -0.8895688E-14 O_OD= -0.1062301E-13 O_TOT= -0.1953993E-13 <-- DLTA
 ------------------------------------------------------------------------------
 Cycle:     50
  WF centre and spread    1  ( -1.685223,  1.685224, -1.685223 )     0.89429844
  WF centre and spread    2  (  1.685224,  1.685223, -1.685223 )     0.89429847
  WF centre and spread    3  ( -1.685223, -1.685223, -1.685224 )     0.89408334
  Sum of centres and spreads ( -1.685223,  1.685224, -5.055671 )     2.68268026
 
     50    -0.391E-13     0.0000022021        2.6826823001       0.13  <-- CONV
        O_D=      0.0000000 O_OD=      0.0028005 O_TOT=      2.6826823 <-- SPRD
 Delta: O_D= -0.1776487E-13 O_OD= -0.2122694E-13 O_TOT= -0.3907985E-13 <-- DLTA
 ------------------------------------------------------------------------------
 Cycle:     51
  WF centre and spread    1  ( -1.685223,  1.685224, -1.685223 )     0.89429844
  WF centre and spread    2  (  1.685224,  1.685223, -1.685223 )     0.89429847
  WF centre and spread    3  ( -1.685223, -1.685223, -1.685224 )     0.89408334
  Sum of centres and spreads ( -1.685223,  1.685224, -5.055671 )     2.68268026
 
     51    -0.582E-13     0.0000022004        2.6826823001       0.14  <-- CONV
        O_D=      0.0000000 O_OD=      0.0028005 O_TOT=      2.6826823 <-- SPRD
 Delta: O_D= -0.2657439E-13 O_OD= -0.3178013E-13 O_TOT= -0.5817569E-13 <-- DLTA
 ------------------------------------------------------------------------------
 Cycle:     52
  WF centre and spread    1  ( -1.685223,  1.685224, -1.685223 )     0.89429844
  WF centre and spread    2  (  1.685224,  1.685223, -1.685223 )     0.89429847
  WF centre and spread    3  ( -1.685223, -1.685223, -1.685224 )     0.89408334
  Sum of centres and spreads ( -1.685223,  1.685224, -5.055671 )     2.68268026
 
     52    -0.773E-13     0.0000021978        2.6826823001       0.14  <-- CONV
        O_D=      0.0000000 O_OD=      0.0028005 O_TOT=      2.6826823 <-- SPRD
 Delta: O_D= -0.3529171E-13 O_OD= -0.4226871E-13 O_TOT= -0.7727152E-13 <-- DLTA
 ------------------------------------------------------------------------------
 Cycle:     53
  WF centre and spread    1  ( -1.685223,  1.685224, -1.685223 )     0.89429844
  WF centre and spread    2  (  1.685224,  1.685223, -1.685223 )     0.89429847
  WF centre and spread    3  ( -1.685223, -1.685223, -1.685224 )     0.89408334
  Sum of centres and spreads ( -1.685223,  1.685224, -5.055671 )     2.68268026
 
     53    -0.968E-13     0.0000021944        2.6826823001       0.14  <-- CONV
        O_D=      0.0000000 O_OD=      0.0028005 O_TOT=      2.6826823 <-- SPRD
 Delta: O_D= -0.4388532E-13 O_OD= -0.5265016E-13 O_TOT= -0.9681145E-13 <-- DLTA
 ------------------------------------------------------------------------------
 Cycle:     54
  WF centre and spread    1  ( -1.685223,  1.685224, -1.685223 )     0.89429844
  WF centre and spread    2  (  1.685224,  1.685223, -1.685223 )     0.89429847
  WF centre and spread    3  ( -1.685223, -1.685223, -1.685224 )     0.89408334
  Sum of centres and spreads ( -1.685223,  1.685224, -5.055671 )     2.68268026
 
     54    -0.115E-12     0.0000021902        2.6826823001       0.14  <-- CONV
        O_D=      0.0000000 O_OD=      0.0028005 O_TOT=      2.6826823 <-- SPRD
 Delta: O_D= -0.5232506E-13 O_OD= -0.6291278E-13 O_TOT= -0.1154632E-12 <-- DLTA
 ------------------------------------------------------------------------------
 Cycle:     55
  WF centre and spread    1  ( -1.685223,  1.685224, -1.685223 )     0.89429844
  WF centre and spread    2  (  1.685224,  1.685223, -1.685223 )     0.89429847
  WF centre and spread    3  ( -1.685223, -1.685223, -1.685224 )     0.89408334
  Sum of centres and spreads ( -1.685223,  1.685224, -5.055671 )     2.68268026
 
     55    -0.187E-13     0.0000021852        2.6826823001       0.14  <-- CONV
        O_D=      0.0000000 O_OD=      0.0028005 O_TOT=      2.6826823 <-- SPRD
 Delta: O_D= -0.8694652E-14 O_OD= -0.1050809E-13 O_TOT= -0.1865175E-13 <-- DLTA
 ------------------------------------------------------------------------------
 Cycle:     56
  WF centre and spread    1  ( -1.685223,  1.685224, -1.685223 )     0.89429844
  WF centre and spread    2  (  1.685224,  1.685223, -1.685223 )     0.89429847
  WF centre and spread    3  ( -1.685223, -1.685223, -1.685224 )     0.89408334
  Sum of centres and spreads ( -1.685223,  1.685224, -5.055671 )     2.68268026
 
     56    -0.386E-13     0.0000021844        2.6826823001       0.14  <-- CONV
        O_D=      0.0000000 O_OD=      0.0028005 O_TOT=      2.6826823 <-- SPRD
 Delta: O_D= -0.1736427E-13 O_OD= -0.2100533E-13 O_TOT= -0.3863576E-13 <-- DLTA
 ------------------------------------------------------------------------------
 Cycle:     57
  WF centre and spread    1  ( -1.685223,  1.685224, -1.685223 )     0.89429844
  WF centre and spread    2  (  1.685224,  1.685223, -1.685223 )     0.89429847
  WF centre and spread    3  ( -1.685223, -1.685223, -1.685224 )     0.89408334
  Sum of centres and spreads ( -1.685223,  1.685224, -5.055671 )     2.68268026
 
     57    -0.573E-13     0.0000021827        2.6826823001       0.14  <-- CONV
        O_D=      0.0000000 O_OD=      0.0028005 O_TOT=      2.6826823 <-- SPRD
 Delta: O_D= -0.2597750E-13 O_OD= -0.3144793E-13 O_TOT= -0.5728751E-13 <-- DLTA
 ------------------------------------------------------------------------------
 Cycle:     58
  WF centre and spread    1  ( -1.685223,  1.685224, -1.685223 )     0.89429844
  WF centre and spread    2  (  1.685224,  1.685223, -1.685223 )     0.89429847
  WF centre and spread    3  ( -1.685223, -1.685223, -1.685224 )     0.89408334
  Sum of centres and spreads ( -1.685223,  1.685224, -5.055671 )     2.68268026
 
     58    -0.768E-13     0.0000021803        2.6826823001       0.14  <-- CONV
        O_D=      0.0000000 O_OD=      0.0028005 O_TOT=      2.6826823 <-- SPRD
 Delta: O_D= -0.3450357E-13 O_OD= -0.4182418E-13 O_TOT= -0.7682743E-13 <-- DLTA
 ------------------------------------------------------------------------------
 Cycle:     59
  WF centre and spread    1  ( -1.685223,  1.685224, -1.685223 )     0.89429844
  WF centre and spread    2  (  1.685224,  1.685223, -1.685223 )     0.89429847
  WF centre and spread    3  ( -1.685223, -1.685223, -1.685224 )     0.89408334
  Sum of centres and spreads ( -1.685223,  1.685224, -5.055671 )     2.68268026
 
     59    -0.946E-13     0.0000021770        2.6826823001       0.14  <-- CONV
        O_D=      0.0000000 O_OD=      0.0028005 O_TOT=      2.6826823 <-- SPRD
 Delta: O_D= -0.4291263E-13 O_OD= -0.5210459E-13 O_TOT= -0.9459100E-13 <-- DLTA
 ------------------------------------------------------------------------------
 Cycle:     60
  WF centre and spread    1  ( -1.685223,  1.685224, -1.685223 )     0.89429844
  WF centre and spread    2  (  1.685224,  1.685223, -1.685223 )     0.89429847
  WF centre and spread    3  ( -1.685223, -1.685223, -1.685224 )     0.89408334
  Sum of centres and spreads ( -1.685223,  1.685224, -5.055671 )     2.68268026
 
     60    -0.113E-12     0.0000021730        2.6826823001       0.15  <-- CONV
        O_D=      0.0000000 O_OD=      0.0028005 O_TOT=      2.6826823 <-- SPRD
 Delta: O_D= -0.5117610E-13 O_OD= -0.6226790E-13 O_TOT= -0.1132427E-12 <-- DLTA
 ------------------------------------------------------------------------------
 Cycle:     61
  WF centre and spread    1  ( -1.685223,  1.685224, -1.685223 )     0.89429844
  WF centre and spread    2  (  1.685224,  1.685223, -1.685223 )     0.89429847
  WF centre and spread    3  ( -1.685223, -1.685223, -1.685224 )     0.89408334
  Sum of centres and spreads ( -1.685223,  1.685224, -5.055671 )     2.68268026
 
     61    -0.195E-13     0.0000021681        2.6826823001       0.15  <-- CONV
        O_D=      0.0000000 O_OD=      0.0028005 O_TOT=      2.6826823 <-- SPRD
 Delta: O_D= -0.8504967E-14 O_OD= -0.1040314E-13 O_TOT= -0.1953993E-13 <-- DLTA
 ------------------------------------------------------------------------------
 Cycle:     62
  WF centre and spread    1  ( -1.685223,  1.685224, -1.685223 )     0.89429844
  WF centre and spread    2  (  1.685224,  1.685223, -1.685223 )     0.89429847
  WF centre and spread    3  ( -1.685223, -1.685223, -1.685224 )     0.89408334
  Sum of centres and spreads ( -1.685223,  1.685224, -5.055671 )     2.68268026
 
     62    -0.373E-13     0.0000021673        2.6826823001       0.15  <-- CONV
        O_D=      0.0000000 O_OD=      0.0028005 O_TOT=      2.6826823 <-- SPRD
 Delta: O_D= -0.1698626E-13 O_OD= -0.2078676E-13 O_TOT= -0.3730349E-13 <-- DLTA
 ------------------------------------------------------------------------------
 Cycle:     63
  WF centre and spread    1  ( -1.685223,  1.685224, -1.685223 )     0.89429844
  WF centre and spread    2  (  1.685224,  1.685223, -1.685223 )     0.89429847
  WF centre and spread    3  ( -1.685223, -1.685223, -1.685224 )     0.89408334
  Sum of centres and spreads ( -1.685223,  1.685224, -5.055671 )     2.68268026
 
     63    -0.564E-13     0.0000021657        2.6826823001       0.15  <-- CONV
        O_D=      0.0000000 O_OD=      0.0028005 O_TOT=      2.6826823 <-- SPRD
 Delta: O_D= -0.2541419E-13 O_OD= -0.3112137E-13 O_TOT= -0.5639933E-13 <-- DLTA
 ------------------------------------------------------------------------------
 Cycle:     64
  WF centre and spread    1  ( -1.685223,  1.685224, -1.685223 )     0.89429844
  WF centre and spread    2  (  1.685224,  1.685223, -1.685223 )     0.89429847
  WF centre and spread    3  ( -1.685223, -1.685223, -1.685224 )     0.89408334
  Sum of centres and spreads ( -1.685223,  1.685224, -5.055671 )     2.68268026
 
     64    -0.755E-13     0.0000021634        2.6826823001       0.15  <-- CONV
        O_D=      0.0000000 O_OD=      0.0028005 O_TOT=      2.6826823 <-- SPRD
 Delta: O_D= -0.3375959E-13 O_OD= -0.4139701E-13 O_TOT= -0.7549517E-13 <-- DLTA
 ------------------------------------------------------------------------------
 Cycle:     65
  WF centre and spread    1  ( -1.685223,  1.685224, -1.685223 )     0.89429844
  WF centre and spread    2  (  1.685224,  1.685223, -1.685223 )     0.89429847
  WF centre and spread    3  ( -1.685223, -1.685223, -1.685224 )     0.89408334
  Sum of centres and spreads ( -1.685223,  1.685224, -5.055671 )     2.68268026
 
     65    -0.937E-13     0.0000021602        2.6826823001       0.15  <-- CONV
        O_D=      0.0000000 O_OD=      0.0028005 O_TOT=      2.6826823 <-- SPRD
 Delta: O_D= -0.4199418E-13 O_OD= -0.5157376E-13 O_TOT= -0.9370282E-13 <-- DLTA
 ------------------------------------------------------------------------------
 Cycle:     66
  WF centre and spread    1  ( -1.685223,  1.685224, -1.685223 )     0.89429844
  WF centre and spread    2  (  1.685224,  1.685223, -1.685223 )     0.89429847
  WF centre and spread    3  ( -1.685223, -1.685223, -1.685224 )     0.89408334
  Sum of centres and spreads ( -1.685223,  1.685224, -5.055671 )     2.68268026
 
     66    -0.111E-12     0.0000021563        2.6826823001       0.15  <-- CONV
        O_D=      0.0000000 O_OD=      0.0028005 O_TOT=      2.6826823 <-- SPRD
 Delta: O_D= -0.5009082E-13 O_OD= -0.6163516E-13 O_TOT= -0.1114664E-12 <-- DLTA
 ------------------------------------------------------------------------------
 Cycle:     67
  WF centre and spread    1  ( -1.685223,  1.685224, -1.685223 )     0.89429844
  WF centre and spread    2  (  1.685224,  1.685223, -1.685223 )     0.89429847
  WF centre and spread    3  ( -1.685223, -1.685223, -1.685224 )     0.89408334
  Sum of centres and spreads ( -1.685223,  1.685224, -5.055671 )     2.68268026
 
     67    -0.187E-13     0.0000021517        2.6826823001       0.15  <-- CONV
        O_D=      0.0000000 O_OD=      0.0028005 O_TOT=      2.6826823 <-- SPRD
 Delta: O_D= -0.8325755E-14 O_OD= -0.1029298E-13 O_TOT= -0.1865175E-13 <-- DLTA
 ------------------------------------------------------------------------------
 Cycle:     68
  WF centre and spread    1  ( -1.685223,  1.685224, -1.685223 )     0.89429844
  WF centre and spread    2  (  1.685224,  1.685223, -1.685223 )     0.89429847
  WF centre and spread    3  ( -1.685223, -1.685223, -1.685224 )     0.89408334
  Sum of centres and spreads ( -1.685223,  1.685224, -5.055671 )     2.68268026
 
     68    -0.373E-13     0.0000021509        2.6826823001       0.15  <-- CONV
        O_D=      0.0000000 O_OD=      0.0028005 O_TOT=      2.6826823 <-- SPRD
 Delta: O_D= -0.1662909E-13 O_OD= -0.2057209E-13 O_TOT= -0.3730349E-13 <-- DLTA
 ------------------------------------------------------------------------------
 Cycle:     69
  WF centre and spread    1  ( -1.685223,  1.685224, -1.685223 )     0.89429844
  WF centre and spread    2  (  1.685224,  1.685223, -1.685223 )     0.89429847
  WF centre and spread    3  ( -1.685223, -1.685223, -1.685224 )     0.89408334
  Sum of centres and spreads ( -1.685223,  1.685224, -5.055671 )     2.68268026
 
     69    -0.555E-13     0.0000021494        2.6826823001       0.16  <-- CONV
        O_D=      0.0000000 O_OD=      0.0028005 O_TOT=      2.6826823 <-- SPRD
 Delta: O_D= -0.2488185E-13 O_OD= -0.3080435E-13 O_TOT= -0.5551115E-13 <-- DLTA
 ------------------------------------------------------------------------------
 Cycle:     70
  WF centre and spread    1  ( -1.685223,  1.685224, -1.685223 )     0.89429844
  WF centre and spread    2  (  1.685224,  1.685223, -1.685223 )     0.89429847
  WF centre and spread    3  ( -1.685223, -1.685223, -1.685224 )     0.89408334
  Sum of centres and spreads ( -1.685223,  1.685224, -5.055671 )     2.68268026
 
     70    -0.742E-13     0.0000021471        2.6826823001       0.16  <-- CONV
        O_D=      0.0000000 O_OD=      0.0028005 O_TOT=      2.6826823 <-- SPRD
 Delta: O_D= -0.3305637E-13 O_OD= -0.4097373E-13 O_TOT= -0.7416290E-13 <-- DLTA
 ------------------------------------------------------------------------------
 Cycle:     71
  WF centre and spread    1  ( -1.685223,  1.685224, -1.685223 )     0.89429844
  WF centre and spread    2  (  1.685224,  1.685223, -1.685223 )     0.89429847
  WF centre and spread    3  ( -1.685223, -1.685223, -1.685224 )     0.89408334
  Sum of centres and spreads ( -1.685223,  1.685224, -5.055671 )     2.68268026
 
     71    -0.924E-13     0.0000021440        2.6826823001       0.16  <-- CONV
        O_D=      0.0000000 O_OD=      0.0028005 O_TOT=      2.6826823 <-- SPRD
 Delta: O_D= -0.4112579E-13 O_OD= -0.5105465E-13 O_TOT= -0.9237056E-13 <-- DLTA
 ------------------------------------------------------------------------------
 Cycle:     72
  WF centre and spread    1  ( -1.685223,  1.685224, -1.685223 )     0.89429844
  WF centre and spread    2  (  1.685224,  1.685223, -1.685223 )     0.89429847
  WF centre and spread    3  ( -1.685223, -1.685223, -1.685224 )     0.89408334
  Sum of centres and spreads ( -1.685223,  1.685224, -5.055671 )     2.68268026
 
     72    -0.110E-12     0.0000021403        2.6826823001       0.16  <-- CONV
        O_D=      0.0000000 O_OD=      0.0028005 O_TOT=      2.6826823 <-- SPRD
 Delta: O_D= -0.4906433E-13 O_OD= -0.6101716E-13 O_TOT= -0.1096900E-12 <-- DLTA
 ------------------------------------------------------------------------------
 Cycle:     73
  WF centre and spread    1  ( -1.685223,  1.685224, -1.685223 )     0.89429844
  WF centre and spread    2  (  1.685224,  1.685223, -1.685223 )     0.89429847
  WF centre and spread    3  ( -1.685223, -1.685223, -1.685224 )     0.89408334
  Sum of centres and spreads ( -1.685223,  1.685224, -5.055671 )     2.68268026
 
     73    -0.187E-13     0.0000021358        2.6826823001       0.16  <-- CONV
        O_D=      0.0000000 O_OD=      0.0028005 O_TOT=      2.6826823 <-- SPRD
 Delta: O_D= -0.8156210E-14 O_OD= -0.1019020E-13 O_TOT= -0.1865175E-13 <-- DLTA
 ------------------------------------------------------------------------------
 Cycle:     74
  WF centre and spread    1  ( -1.685223,  1.685224, -1.685223 )     0.89429844
  WF centre and spread    2  (  1.685224,  1.685223, -1.685223 )     0.89429847
  WF centre and spread    3  ( -1.685223, -1.685223, -1.685224 )     0.89408334
  Sum of centres and spreads ( -1.685223,  1.685224, -5.055671 )     2.68268026
 
     74    -0.364E-13     0.0000021350        2.6826823001       0.16  <-- CONV
        O_D=      0.0000000 O_OD=      0.0028005 O_TOT=      2.6826823 <-- SPRD
 Delta: O_D= -0.1629116E-13 O_OD= -0.2036045E-13 O_TOT= -0.3641532E-13 <-- DLTA
 ------------------------------------------------------------------------------
 Cycle:     75
  WF centre and spread    1  ( -1.685223,  1.685224, -1.685223 )     0.89429844
  WF centre and spread    2  (  1.685224,  1.685223, -1.685223 )     0.89429847
  WF centre and spread    3  ( -1.685223, -1.685223, -1.685224 )     0.89408334
  Sum of centres and spreads ( -1.685223,  1.685224, -5.055671 )     2.68268026
 
     75    -0.551E-13     0.0000021335        2.6826823001       0.16  <-- CONV
        O_D=      0.0000000 O_OD=      0.0028005 O_TOT=      2.6826823 <-- SPRD
 Delta: O_D= -0.2437810E-13 O_OD= -0.3049297E-13 O_TOT= -0.5506706E-13 <-- DLTA
 ------------------------------------------------------------------------------
 Cycle:     76
  WF centre and spread    1  ( -1.685223,  1.685224, -1.685223 )     0.89429844
  WF centre and spread    2  (  1.685224,  1.685223, -1.685223 )     0.89429847
  WF centre and spread    3  ( -1.685223, -1.685223, -1.685224 )     0.89408334
  Sum of centres and spreads ( -1.685223,  1.685224, -5.055671 )     2.68268026
 
     76    -0.728E-13     0.0000021313        2.6826823001       0.16  <-- CONV
        O_D=      0.0000000 O_OD=      0.0028005 O_TOT=      2.6826823 <-- SPRD
 Delta: O_D= -0.3239078E-13 O_OD= -0.4056651E-13 O_TOT= -0.7283063E-13 <-- DLTA
 ------------------------------------------------------------------------------
 Cycle:     77
  WF centre and spread    1  ( -1.685223,  1.685224, -1.685223 )     0.89429844
  WF centre and spread    2  (  1.685224,  1.685223, -1.685223 )     0.89429847
  WF centre and spread    3  ( -1.685223, -1.685223, -1.685224 )     0.89408334
  Sum of centres and spreads ( -1.685223,  1.685224, -5.055671 )     2.68268026
 
     77    -0.910E-13     0.0000021284        2.6826823001       0.17  <-- CONV
        O_D=      0.0000000 O_OD=      0.0028005 O_TOT=      2.6826823 <-- SPRD
 Delta: O_D= -0.4030366E-13 O_OD= -0.5053987E-13 O_TOT= -0.9103829E-13 <-- DLTA
 ------------------------------------------------------------------------------
 Cycle:     78
  WF centre and spread    1  ( -1.685223,  1.685224, -1.685223 )     0.89429844
  WF centre and spread    2  (  1.685224,  1.685223, -1.685223 )     0.89429847
  WF centre and spread    3  ( -1.685223, -1.685223, -1.685224 )     0.89408334
  Sum of centres and spreads ( -1.685223,  1.685224, -5.055671 )     2.68268026
 
     78    -0.108E-12     0.0000021248        2.6826823001       0.17  <-- CONV
        O_D=      0.0000000 O_OD=      0.0028005 O_TOT=      2.6826823 <-- SPRD
 Delta: O_D= -0.4809217E-13 O_OD= -0.6041652E-13 O_TOT= -0.1083578E-12 <-- DLTA
 ------------------------------------------------------------------------------
 Cycle:     79
  WF centre and spread    1  ( -1.685223,  1.685224, -1.685223 )     0.89429844
  WF centre and spread    2  (  1.685224,  1.685223, -1.685223 )     0.89429847
  WF centre and spread    3  ( -1.685223, -1.685223, -1.685224 )     0.89408334
  Sum of centres and spreads ( -1.685223,  1.685224, -5.055671 )     2.68268026
 
     79    -0.178E-13     0.0000021204        2.6826823001       0.17  <-- CONV
        O_D=      0.0000000 O_OD=      0.0028005 O_TOT=      2.6826823 <-- SPRD
 Delta: O_D= -0.7995600E-14 O_OD= -0.1008828E-13 O_TOT= -0.1776357E-13 <-- DLTA
 ------------------------------------------------------------------------------
 Cycle:     80
  WF centre and spread    1  ( -1.685223,  1.685224, -1.685223 )     0.89429844
  WF centre and spread    2  (  1.685224,  1.685223, -1.685223 )     0.89429847
  WF centre and spread    3  ( -1.685223, -1.685223, -1.685224 )     0.89408334
  Sum of centres and spreads ( -1.685223,  1.685224, -5.055671 )     2.68268026
 
     80    -0.364E-13     0.0000021197        2.6826823001       0.17  <-- CONV
        O_D=      0.0000000 O_OD=      0.0028005 O_TOT=      2.6826823 <-- SPRD
 Delta: O_D= -0.1597101E-13 O_OD= -0.2015705E-13 O_TOT= -0.3641532E-13 <-- DLTA
 ------------------------------------------------------------------------------
 Cycle:     81
  WF centre and spread    1  ( -1.685223,  1.685224, -1.685223 )     0.89429844
  WF centre and spread    2  (  1.685224,  1.685223, -1.685223 )     0.89429847
  WF centre and spread    3  ( -1.685223, -1.685223, -1.685224 )     0.89408334
  Sum of centres and spreads ( -1.685223,  1.685224, -5.055671 )     2.68268026
 
     81    -0.542E-13     0.0000021183        2.6826823001       0.17  <-- CONV
        O_D=      0.0000000 O_OD=      0.0028005 O_TOT=      2.6826823 <-- SPRD
 Delta: O_D= -0.2390080E-13 O_OD= -0.3019069E-13 O_TOT= -0.5417888E-13 <-- DLTA
 ------------------------------------------------------------------------------
 Cycle:     82
  WF centre and spread    1  ( -1.685223,  1.685224, -1.685223 )     0.89429844
  WF centre and spread    2  (  1.685224,  1.685223, -1.685223 )     0.89429847
  WF centre and spread    3  ( -1.685223, -1.685223, -1.685224 )     0.89408334
  Sum of centres and spreads ( -1.685223,  1.685224, -5.055671 )     2.68268026
 
     82    -0.715E-13     0.0000021161        2.6826823001       0.17  <-- CONV
        O_D=      0.0000000 O_OD=      0.0028005 O_TOT=      2.6826823 <-- SPRD
 Delta: O_D= -0.3176000E-13 O_OD= -0.4016188E-13 O_TOT= -0.7149836E-13 <-- DLTA
 ------------------------------------------------------------------------------
 Cycle:     83
  WF centre and spread    1  ( -1.685223,  1.685224, -1.685223 )     0.89429844
  WF centre and spread    2  (  1.685224,  1.685223, -1.685223 )     0.89429847
  WF centre and spread    3  ( -1.685223, -1.685223, -1.685224 )     0.89408334
  Sum of centres and spreads ( -1.685223,  1.685224, -5.055671 )     2.68268026
 
     83    -0.897E-13     0.0000021133        2.6826823001       0.17  <-- CONV
        O_D=      0.0000000 O_OD=      0.0028005 O_TOT=      2.6826823 <-- SPRD
 Delta: O_D= -0.3952428E-13 O_OD= -0.5004330E-13 O_TOT= -0.8970602E-13 <-- DLTA
 ------------------------------------------------------------------------------
 Cycle:     84
  WF centre and spread    1  ( -1.685223,  1.685224, -1.685223 )     0.89429844
  WF centre and spread    2  (  1.685224,  1.685223, -1.685223 )     0.89429847
  WF centre and spread    3  ( -1.685223, -1.685223, -1.685224 )     0.89408334
  Sum of centres and spreads ( -1.685223,  1.685224, -5.055671 )     2.68268026
 
     84    -0.107E-12     0.0000021098        2.6826823001       0.17  <-- CONV
        O_D=      0.0000000 O_OD=      0.0028005 O_TOT=      2.6826823 <-- SPRD
 Delta: O_D= -0.4717027E-13 O_OD= -0.5982541E-13 O_TOT= -0.1074696E-12 <-- DLTA
 ------------------------------------------------------------------------------
 Cycle:     85
  WF centre and spread    1  ( -1.685223,  1.685224, -1.685223 )     0.89429844
  WF centre and spread    2  (  1.685224,  1.685223, -1.685223 )     0.89429847
  WF centre and spread    3  ( -1.685223, -1.685223, -1.685224 )     0.89408334
  Sum of centres and spreads ( -1.685223,  1.685224, -5.055671 )     2.68268026
 
     85    -0.173E-13     0.0000021056        2.6826823001       0.17  <-- CONV
        O_D=      0.0000000 O_OD=      0.0028005 O_TOT=      2.6826823 <-- SPRD
 Delta: O_D= -0.7843254E-14 O_OD= -0.9984201E-14 O_TOT= -0.1731948E-13 <-- DLTA
 ------------------------------------------------------------------------------
 Cycle:     86
  WF centre and spread    1  ( -1.685223,  1.685224, -1.685223 )     0.89429844
  WF centre and spread    2  (  1.685224,  1.685223, -1.685223 )     0.89429847
  WF centre and spread    3  ( -1.685223, -1.685223, -1.685224 )     0.89408334
  Sum of centres and spreads ( -1.685223,  1.685224, -5.055671 )     2.68268026
 
     86    -0.360E-13     0.0000021049        2.6826823001       0.18  <-- CONV
        O_D=      0.0000000 O_OD=      0.0028005 O_TOT=      2.6826823 <-- SPRD
 Delta: O_D= -0.1566731E-13 O_OD= -0.1995973E-13 O_TOT= -0.3597123E-13 <-- DLTA
 ------------------------------------------------------------------------------
 Cycle:     87
  WF centre and spread    1  ( -1.685223,  1.685224, -1.685223 )     0.89429844
  WF centre and spread    2  (  1.685224,  1.685223, -1.685223 )     0.89429847
  WF centre and spread    3  ( -1.685223, -1.685223, -1.685224 )     0.89408334
  Sum of centres and spreads ( -1.685223,  1.685224, -5.055671 )     2.68268026
 
     87    -0.528E-13     0.0000021035        2.6826823001       0.18  <-- CONV
        O_D=      0.0000000 O_OD=      0.0028005 O_TOT=      2.6826823 <-- SPRD
 Delta: O_D= -0.2344796E-13 O_OD= -0.2989796E-13 O_TOT= -0.5284662E-13 <-- DLTA
 ------------------------------------------------------------------------------
 Cycle:     88
  WF centre and spread    1  ( -1.685223,  1.685224, -1.685223 )     0.89429844
  WF centre and spread    2  (  1.685224,  1.685223, -1.685223 )     0.89429847
  WF centre and spread    3  ( -1.685223, -1.685223, -1.685224 )     0.89408334
  Sum of centres and spreads ( -1.685223,  1.685224, -5.055671 )     2.68268026
 
     88    -0.715E-13     0.0000021014        2.6826823001       0.18  <-- CONV
        O_D=      0.0000000 O_OD=      0.0028005 O_TOT=      2.6826823 <-- SPRD
 Delta: O_D= -0.3116141E-13 O_OD= -0.3976290E-13 O_TOT= -0.7149836E-13 <-- DLTA
 ------------------------------------------------------------------------------
 Cycle:     89
  WF centre and spread    1  ( -1.685223,  1.685224, -1.685223 )     0.89429844
  WF centre and spread    2  (  1.685224,  1.685223, -1.685223 )     0.89429847
  WF centre and spread    3  ( -1.685223, -1.685223, -1.685224 )     0.89408334
  Sum of centres and spreads ( -1.685223,  1.685224, -5.055671 )     2.68268026
 
     89    -0.884E-13     0.0000020987        2.6826823001       0.18  <-- CONV
        O_D=      0.0000000 O_OD=      0.0028005 O_TOT=      2.6826823 <-- SPRD
 Delta: O_D= -0.3878450E-13 O_OD= -0.4956192E-13 O_TOT= -0.8837375E-13 <-- DLTA
 ------------------------------------------------------------------------------
 Cycle:     90
  WF centre and spread    1  ( -1.685223,  1.685224, -1.685223 )     0.89429844
  WF centre and spread    2  (  1.685224,  1.685223, -1.685223 )     0.89429847
  WF centre and spread    3  ( -1.685223, -1.685223, -1.685224 )     0.89408334
  Sum of centres and spreads ( -1.685223,  1.685224, -5.055671 )     2.68268026
 
     90    -0.105E-12     0.0000020953        2.6826823001       0.18  <-- CONV
        O_D=      0.0000000 O_OD=      0.0028005 O_TOT=      2.6826823 <-- SPRD
 Delta: O_D= -0.4629489E-13 O_OD= -0.5924341E-13 O_TOT= -0.1052491E-12 <-- DLTA
 ------------------------------------------------------------------------------
 Cycle:     91
  WF centre and spread    1  ( -1.685223,  1.685224, -1.685223 )     0.89429844
  WF centre and spread    2  (  1.685224,  1.685223, -1.685223 )     0.89429847
  WF centre and spread    3  ( -1.685223, -1.685223, -1.685224 )     0.89408334
  Sum of centres and spreads ( -1.685223,  1.685224, -5.055671 )     2.68268026
 
     91    -0.173E-13     0.0000020912        2.6826823001       0.18  <-- CONV
        O_D=      0.0000000 O_OD=      0.0028005 O_TOT=      2.6826823 <-- SPRD
 Delta: O_D= -0.7698563E-14 O_OD= -0.9891393E-14 O_TOT= -0.1731948E-13 <-- DLTA
 ------------------------------------------------------------------------------
 Cycle:     92
  WF centre and spread    1  ( -1.685223,  1.685224, -1.685223 )     0.89429844
  WF centre and spread    2  (  1.685224,  1.685223, -1.685223 )     0.89429847
  WF centre and spread    3  ( -1.685223, -1.685223, -1.685224 )     0.89408334
  Sum of centres and spreads ( -1.685223,  1.685224, -5.055671 )     2.68268026
 
     92    -0.355E-13     0.0000020906        2.6826823001       0.18  <-- CONV
        O_D=      0.0000000 O_OD=      0.0028005 O_TOT=      2.6826823 <-- SPRD
 Delta: O_D= -0.1537884E-13 O_OD= -0.1976414E-13 O_TOT= -0.3552714E-13 <-- DLTA
 ------------------------------------------------------------------------------
 Cycle:     93
  WF centre and spread    1  ( -1.685223,  1.685224, -1.685223 )     0.89429844
  WF centre and spread    2  (  1.685224,  1.685223, -1.685223 )     0.89429847
  WF centre and spread    3  ( -1.685223, -1.685223, -1.685224 )     0.89408334
  Sum of centres and spreads ( -1.685223,  1.685224, -5.055671 )     2.68268026
 
     93    -0.524E-13     0.0000020892        2.6826823001       0.18  <-- CONV
        O_D=      0.0000000 O_OD=      0.0028005 O_TOT=      2.6826823 <-- SPRD
 Delta: O_D= -0.2301777E-13 O_OD= -0.2959959E-13 O_TOT= -0.5240253E-13 <-- DLTA
 ------------------------------------------------------------------------------
 Cycle:     94
  WF centre and spread    1  ( -1.685223,  1.685224, -1.685223 )     0.89429844
  WF centre and spread    2  (  1.685224,  1.685223, -1.685223 )     0.89429847
  WF centre and spread    3  ( -1.685223, -1.685223, -1.685224 )     0.89408334
  Sum of centres and spreads ( -1.685223,  1.685224, -5.055671 )     2.68268026
 
     94    -0.702E-13     0.0000020872        2.6826823001       0.18  <-- CONV
        O_D=      0.0000000 O_OD=      0.0028005 O_TOT=      2.6826823 <-- SPRD
 Delta: O_D= -0.3059266E-13 O_OD= -0.3938646E-13 O_TOT= -0.7016610E-13 <-- DLTA
 ------------------------------------------------------------------------------
 Cycle:     95
  WF centre and spread    1  ( -1.685223,  1.685224, -1.685223 )     0.89429844
  WF centre and spread    2  (  1.685224,  1.685223, -1.685223 )     0.89429847
  WF centre and spread    3  ( -1.685223, -1.685223, -1.685224 )     0.89408334
  Sum of centres and spreads ( -1.685223,  1.685224, -5.055671 )     2.68268026
 
     95    -0.875E-13     0.0000020846        2.6826823001       0.19  <-- CONV
        O_D=      0.0000000 O_OD=      0.0028005 O_TOT=      2.6826823 <-- SPRD
 Delta: O_D= -0.3808139E-13 O_OD= -0.4908183E-13 O_TOT= -0.8748557E-13 <-- DLTA
 ------------------------------------------------------------------------------
 Cycle:     96
  WF centre and spread    1  ( -1.685223,  1.685224, -1.685223 )     0.89429844
  WF centre and spread    2  (  1.685224,  1.685223, -1.685223 )     0.89429847
  WF centre and spread    3  ( -1.685223, -1.685223, -1.685224 )     0.89408334
  Sum of centres and spreads ( -1.685223,  1.685224, -5.055671 )     2.68268026
 
     96    -0.104E-12     0.0000020813        2.6826823001       0.19  <-- CONV
        O_D=      0.0000000 O_OD=      0.0028005 O_TOT=      2.6826823 <-- SPRD
 Delta: O_D= -0.4546264E-13 O_OD= -0.5867919E-13 O_TOT= -0.1039169E-12 <-- DLTA
 ------------------------------------------------------------------------------
 Cycle:     97
  WF centre and spread    1  ( -1.685223,  1.685224, -1.685223 )     0.89429844
  WF centre and spread    2  (  1.685224,  1.685223, -1.685223 )     0.89429847
  WF centre and spread    3  ( -1.685223, -1.685223, -1.685224 )     0.89408334
  Sum of centres and spreads ( -1.685223,  1.685224, -5.055671 )     2.68268026
 
     97    -0.173E-13     0.0000020773        2.6826823001       0.19  <-- CONV
        O_D=      0.0000000 O_OD=      0.0028005 O_TOT=      2.6826823 <-- SPRD
 Delta: O_D= -0.7560962E-14 O_OD= -0.9795116E-14 O_TOT= -0.1731948E-13 <-- DLTA
[...]
  Sum of centres and spreads ( -1.685223,  1.685224, -5.055671 )     2.68268026
 
    473    -0.435E-13     0.0000014813        2.6826823000       0.53  <-- CONV
        O_D=      0.0000000 O_OD=      0.0028005 O_TOT=      2.6826823 <-- SPRD
 Delta: O_D= -0.1680416E-13 O_OD= -0.2730238E-13 O_TOT= -0.4352074E-13 <-- DLTA
 ------------------------------------------------------------------------------
 Cycle:    474
  WF centre and spread    1  ( -1.685223,  1.685224, -1.685223 )     0.89429844
  WF centre and spread    2  (  1.685224,  1.685223, -1.685223 )     0.89429847
  WF centre and spread    3  ( -1.685223, -1.685223, -1.685224 )     0.89408334
  Sum of centres and spreads ( -1.685223,  1.685224, -5.055671 )     2.68268026
 
    474    -0.533E-13     0.0000014807        2.6826823000       0.53  <-- CONV
        O_D=      0.0000000 O_OD=      0.0028005 O_TOT=      2.6826823 <-- SPRD
 Delta: O_D= -0.2014175E-13 O_OD= -0.3272599E-13 O_TOT= -0.5329071E-13 <-- DLTA
 ------------------------------------------------------------------------------
 Cycle:    475
  WF centre and spread    1  ( -1.685223,  1.685224, -1.685223 )     0.89429844
  WF centre and spread    2  (  1.685224,  1.685223, -1.685223 )     0.89429847
  WF centre and spread    3  ( -1.685223, -1.685223, -1.685224 )     0.89408334
  Sum of centres and spreads ( -1.685223,  1.685224, -5.055671 )     2.68268026
 
    475    -0.844E-14     0.0000014800        2.6826823000       0.54  <-- CONV
        O_D=      0.0000000 O_OD=      0.0028005 O_TOT=      2.6826823 <-- SPRD
 Delta: O_D= -0.3356456E-14 O_OD= -0.5455705E-14 O_TOT= -0.8437695E-14 <-- DLTA
 ------------------------------------------------------------------------------
 Cycle:    476
  WF centre and spread    1  ( -1.685223,  1.685224, -1.685223 )     0.89429844
  WF centre and spread    2  (  1.685224,  1.685223, -1.685223 )     0.89429847
  WF centre and spread    3  ( -1.685223, -1.685223, -1.685224 )     0.89408334
  Sum of centres and spreads ( -1.685223,  1.685224, -5.055671 )     2.68268026
 
    476    -0.182E-13     0.0000014799        2.6826823000       0.54  <-- CONV
        O_D=      0.0000000 O_OD=      0.0028005 O_TOT=      2.6826823 <-- SPRD
 Delta: O_D= -0.6711202E-14 O_OD= -0.1090317E-13 O_TOT= -0.1820766E-13 <-- DLTA
 ------------------------------------------------------------------------------
 Cycle:    477
  WF centre and spread    1  ( -1.685223,  1.685224, -1.685223 )     0.89429844
  WF centre and spread    2  (  1.685224,  1.685223, -1.685223 )     0.89429847
  WF centre and spread    3  ( -1.685223, -1.685223, -1.685224 )     0.89408334
  Sum of centres and spreads ( -1.685223,  1.685224, -5.055671 )     2.68268026
 
    477    -0.529E-12     0.0000014796        2.6826823000       0.54  <-- CONV
        O_D=      0.0000000 O_OD=      0.0028005 O_TOT=      2.6826823 <-- SPRD
 Delta: O_D= -0.2017422E-12 O_OD= -0.3279859E-12 O_TOT= -0.5293543E-12 <-- DLTA
 ------------------------------------------------------------------------------
 Cycle:    478
  WF centre and spread    1  ( -1.685223,  1.685224, -1.685223 )     0.89429844
  WF centre and spread    2  (  1.685224,  1.685223, -1.685223 )     0.89429847
  WF centre and spread    3  ( -1.685223, -1.685223, -1.685224 )     0.89408334
  Sum of centres and spreads ( -1.685223,  1.685224, -5.055671 )     2.68268026
 
    478    -0.351E-13     0.0000014725        2.6826823000       0.54  <-- CONV
        O_D=      0.0000000 O_OD=      0.0028005 O_TOT=      2.6826823 <-- SPRD
 Delta: O_D= -0.1323141E-13 O_OD= -0.2152055E-13 O_TOT= -0.3508305E-13 <-- DLTA
 ------------------------------------------------------------------------------
 Cycle:    479
  WF centre and spread    1  ( -1.685223,  1.685224, -1.685223 )     0.89429844
  WF centre and spread    2  (  1.685224,  1.685223, -1.685223 )     0.89429847
  WF centre and spread    3  ( -1.685223, -1.685223, -1.685224 )     0.89408334
  Sum of centres and spreads ( -1.685223,  1.685224, -5.055671 )     2.68268026
 
    479    -0.431E-13     0.0000014720        2.6826823000       0.54  <-- CONV
        O_D=      0.0000000 O_OD=      0.0028005 O_TOT=      2.6826823 <-- SPRD
 Delta: O_D= -0.1653474E-13 O_OD= -0.2689732E-13 O_TOT= -0.4307665E-13 <-- DLTA
 ------------------------------------------------------------------------------
 Cycle:    480
  WF centre and spread    1  ( -1.685223,  1.685224, -1.685223 )     0.89429844
  WF centre and spread    2  (  1.685224,  1.685223, -1.685223 )     0.89429847
  WF centre and spread    3  ( -1.685223, -1.685223, -1.685224 )     0.89408334
  Sum of centres and spreads ( -1.685223,  1.685224, -5.055671 )     2.68268026
 
    480    -0.520E-13     0.0000014714        2.6826823000       0.54  <-- CONV
        O_D=      0.0000000 O_OD=      0.0028005 O_TOT=      2.6826823 <-- SPRD
 Delta: O_D= -0.1982768E-13 O_OD= -0.3226325E-13 O_TOT= -0.5195844E-13 <-- DLTA
 ------------------------------------------------------------------------------
 Cycle:    481
  WF centre and spread    1  ( -1.685223,  1.685224, -1.685223 )     0.89429844
  WF centre and spread    2  (  1.685224,  1.685223, -1.685223 )     0.89429847
  WF centre and spread    3  ( -1.685223, -1.685223, -1.685224 )     0.89408334
  Sum of centres and spreads ( -1.685223,  1.685224, -5.055671 )     2.68268026
 
    481    -0.888E-14     0.0000014707        2.6826823000       0.54  <-- CONV
        O_D=      0.0000000 O_OD=      0.0028005 O_TOT=      2.6826823 <-- SPRD
 Delta: O_D= -0.3311194E-14 O_OD= -0.5390653E-14 O_TOT= -0.8881784E-14 <-- DLTA
 ------------------------------------------------------------------------------
 Cycle:    482
  WF centre and spread    1  ( -1.685223,  1.685224, -1.685223 )     0.89429844
  WF centre and spread    2  (  1.685224,  1.685223, -1.685223 )     0.89429847
  WF centre and spread    3  ( -1.685223, -1.685223, -1.685224 )     0.89408334
  Sum of centres and spreads ( -1.685223,  1.685224, -5.055671 )     2.68268026
 
    482    -0.173E-13     0.0000014706        2.6826823000       0.54  <-- CONV
        O_D=      0.0000000 O_OD=      0.0028005 O_TOT=      2.6826823 <-- SPRD
 Delta: O_D= -0.6620737E-14 O_OD= -0.1078174E-13 O_TOT= -0.1731948E-13 <-- DLTA
 ------------------------------------------------------------------------------
 Cycle:    483
  WF centre and spread    1  ( -1.685223,  1.685224, -1.685223 )     0.89429844
  WF centre and spread    2  (  1.685224,  1.685223, -1.685223 )     0.89429847
  WF centre and spread    3  ( -1.685223, -1.685223, -1.685224 )     0.89408334
  Sum of centres and spreads ( -1.685223,  1.685224, -5.055671 )     2.68268026
 
    483    -0.262E-13     0.0000014704        2.6826823000       0.54  <-- CONV
        O_D=      0.0000000 O_OD=      0.0028005 O_TOT=      2.6826823 <-- SPRD
 Delta: O_D= -0.9926458E-14 O_OD= -0.1615895E-13 O_TOT= -0.2620126E-13 <-- DLTA
 ------------------------------------------------------------------------------
 Cycle:    484
  WF centre and spread    1  ( -1.685223,  1.685224, -1.685223 )     0.89429844
  WF centre and spread    2  (  1.685224,  1.685223, -1.685223 )     0.89429847
  WF centre and spread    3  ( -1.685223, -1.685223, -1.685224 )     0.89408334
  Sum of centres and spreads ( -1.685223,  1.685224, -5.055671 )     2.68268026
 
    484    -0.346E-13     0.0000014700        2.6826823000       0.54  <-- CONV
        O_D=      0.0000000 O_OD=      0.0028005 O_TOT=      2.6826823 <-- SPRD
 Delta: O_D= -0.1322620E-13 O_OD= -0.2153269E-13 O_TOT= -0.3463896E-13 <-- DLTA
 ------------------------------------------------------------------------------
 Cycle:    485
  WF centre and spread    1  ( -1.685223,  1.685224, -1.685223 )     0.89429844
  WF centre and spread    2  (  1.685224,  1.685223, -1.685223 )     0.89429847
  WF centre and spread    3  ( -1.685223, -1.685223, -1.685224 )     0.89408334
  Sum of centres and spreads ( -1.685223,  1.685224, -5.055671 )     2.68268026
 
    485    -0.435E-13     0.0000014696        2.6826823000       0.54  <-- CONV
        O_D=      0.0000000 O_OD=      0.0028005 O_TOT=      2.6826823 <-- SPRD
 Delta: O_D= -0.1651780E-13 O_OD= -0.2689212E-13 O_TOT= -0.4352074E-13 <-- DLTA
 ------------------------------------------------------------------------------
 Cycle:    486
  WF centre and spread    1  ( -1.685223,  1.685224, -1.685223 )     0.89429844
  WF centre and spread    2  (  1.685224,  1.685223, -1.685223 )     0.89429847
  WF centre and spread    3  ( -1.685223, -1.685223, -1.685224 )     0.89408334
  Sum of centres and spreads ( -1.685223,  1.685224, -5.055671 )     2.68268026
 
    486    -0.520E-13     0.0000014690        2.6826823000       0.55  <-- CONV
        O_D=      0.0000000 O_OD=      0.0028005 O_TOT=      2.6826823 <-- SPRD
 Delta: O_D= -0.1979914E-13 O_OD= -0.3223593E-13 O_TOT= -0.5195844E-13 <-- DLTA
 ------------------------------------------------------------------------------
 Cycle:    487
  WF centre and spread    1  ( -1.685223,  1.685224, -1.685223 )     0.89429844
  WF centre and spread    2  (  1.685224,  1.685223, -1.685223 )     0.89429847
  WF centre and spread    3  ( -1.685223, -1.685223, -1.685224 )     0.89408334
  Sum of centres and spreads ( -1.685223,  1.685224, -5.055671 )     2.68268026
 
    487    -0.844E-14     0.0000014683        2.6826823000       0.55  <-- CONV
        O_D=      0.0000000 O_OD=      0.0028005 O_TOT=      2.6826823 <-- SPRD
 Delta: O_D= -0.3299399E-14 O_OD= -0.5373306E-14 O_TOT= -0.8437695E-14 <-- DLTA
 ------------------------------------------------------------------------------
 Cycle:    488
  WF centre and spread    1  ( -1.685223,  1.685224, -1.685223 )     0.89429844
  WF centre and spread    2  (  1.685224,  1.685223, -1.685223 )     0.89429847
  WF centre and spread    3  ( -1.685223, -1.685223, -1.685224 )     0.89408334
  Sum of centres and spreads ( -1.685223,  1.685224, -5.055671 )     2.68268026
 
    488    -0.178E-13     0.0000014682        2.6826823000       0.55  <-- CONV
        O_D=      0.0000000 O_OD=      0.0028005 O_TOT=      2.6826823 <-- SPRD
 Delta: O_D= -0.6597164E-14 O_OD= -0.1074314E-13 O_TOT= -0.1776357E-13 <-- DLTA
 ------------------------------------------------------------------------------
 Cycle:    489
  WF centre and spread    1  ( -1.685223,  1.685224, -1.685223 )     0.89429844
  WF centre and spread    2  (  1.685224,  1.685223, -1.685223 )     0.89429847
  WF centre and spread    3  ( -1.685223, -1.685223, -1.685224 )     0.89408334
  Sum of centres and spreads ( -1.685223,  1.685224, -5.055671 )     2.68268026
 
    489    -0.258E-13     0.0000014679        2.6826823000       0.55  <-- CONV
        O_D=      0.0000000 O_OD=      0.0028005 O_TOT=      2.6826823 <-- SPRD
 Delta: O_D= -0.9891142E-14 O_OD= -0.1610647E-13 O_TOT= -0.2575717E-13 <-- DLTA
 ------------------------------------------------------------------------------
 Cycle:    490
  WF centre and spread    1  ( -1.685223,  1.685224, -1.685223 )     0.89429844
  WF centre and spread    2  (  1.685224,  1.685223, -1.685223 )     0.89429847
  WF centre and spread    3  ( -1.685223, -1.685223, -1.685224 )     0.89408334
  Sum of centres and spreads ( -1.685223,  1.685224, -5.055671 )     2.68268026
 
    490    -0.346E-13     0.0000014676        2.6826823000       0.55  <-- CONV
        O_D=      0.0000000 O_OD=      0.0028005 O_TOT=      2.6826823 <-- SPRD
 Delta: O_D= -0.1317919E-13 O_OD= -0.2146764E-13 O_TOT= -0.3463896E-13 <-- DLTA
 ------------------------------------------------------------------------------
 Cycle:    491
  WF centre and spread    1  ( -1.685223,  1.685224, -1.685223 )     0.89429844
  WF centre and spread    2  (  1.685224,  1.685223, -1.685223 )     0.89429847
  WF centre and spread    3  ( -1.685223, -1.685223, -1.685224 )     0.89408334
  Sum of centres and spreads ( -1.685223,  1.685224, -5.055671 )     2.68268026
 
    491    -0.435E-13     0.0000014671        2.6826823000       0.55  <-- CONV
        O_D=      0.0000000 O_OD=      0.0028005 O_TOT=      2.6826823 <-- SPRD
 Delta: O_D= -0.1645918E-13 O_OD= -0.2680755E-13 O_TOT= -0.4352074E-13 <-- DLTA
 ------------------------------------------------------------------------------
 Cycle:    492
  WF centre and spread    1  ( -1.685223,  1.685224, -1.685223 )     0.89429844
  WF centre and spread    2  (  1.685224,  1.685223, -1.685223 )     0.89429847
  WF centre and spread    3  ( -1.685223, -1.685223, -1.685224 )     0.89408334
  Sum of centres and spreads ( -1.685223,  1.685224, -5.055671 )     2.68268026
 
    492    -0.515E-13     0.0000014666        2.6826823000       0.55  <-- CONV
        O_D=      0.0000000 O_OD=      0.0028005 O_TOT=      2.6826823 <-- SPRD
 Delta: O_D= -0.1972900E-13 O_OD= -0.3213705E-13 O_TOT= -0.5151435E-13 <-- DLTA
 ------------------------------------------------------------------------------
 Cycle:    493
  WF centre and spread    1  ( -1.685223,  1.685224, -1.685223 )     0.89429844
  WF centre and spread    2  (  1.685224,  1.685223, -1.685223 )     0.89429847
  WF centre and spread    3  ( -1.685223, -1.685223, -1.685224 )     0.89408334
  Sum of centres and spreads ( -1.685223,  1.685224, -5.055671 )     2.68268026
 
    493    -0.888E-14     0.0000014659        2.6826823000       0.55  <-- CONV
        O_D=      0.0000000 O_OD=      0.0028005 O_TOT=      2.6826823 <-- SPRD
 Delta: O_D= -0.3287718E-14 O_OD= -0.5357260E-14 O_TOT= -0.8881784E-14 <-- DLTA
 ------------------------------------------------------------------------------
 Cycle:    494
  WF centre and spread    1  ( -1.685223,  1.685224, -1.685223 )     0.89429844
  WF centre and spread    2  (  1.685224,  1.685223, -1.685223 )     0.89429847
  WF centre and spread    3  ( -1.685223, -1.685223, -1.685224 )     0.89408334
  Sum of centres and spreads ( -1.685223,  1.685224, -5.055671 )     2.68268026
 
    494    -0.173E-13     0.0000014658        2.6826823000       0.55  <-- CONV
        O_D=      0.0000000 O_OD=      0.0028005 O_TOT=      2.6826823 <-- SPRD
 Delta: O_D= -0.6573814E-14 O_OD= -0.1070801E-13 O_TOT= -0.1731948E-13 <-- DLTA
 ------------------------------------------------------------------------------
 Cycle:    495
  WF centre and spread    1  ( -1.685223,  1.685224, -1.685223 )     0.89429844
  WF centre and spread    2  (  1.685224,  1.685223, -1.685223 )     0.89429847
  WF centre and spread    3  ( -1.685223, -1.685223, -1.685224 )     0.89408334
  Sum of centres and spreads ( -1.685223,  1.685224, -5.055671 )     2.68268026
 
    495    -0.258E-13     0.0000014655        2.6826823000       0.55  <-- CONV
        O_D=      0.0000000 O_OD=      0.0028005 O_TOT=      2.6826823 <-- SPRD
 Delta: O_D= -0.9856160E-14 O_OD= -0.1605877E-13 O_TOT= -0.2575717E-13 <-- DLTA
 ------------------------------------------------------------------------------
 Cycle:    496
  WF centre and spread    1  ( -1.685223,  1.685224, -1.685223 )     0.89429844
  WF centre and spread    2  (  1.685224,  1.685223, -1.685223 )     0.89429847
  WF centre and spread    3  ( -1.685223, -1.685223, -1.685224 )     0.89408334
  Sum of centres and spreads ( -1.685223,  1.685224, -5.055671 )     2.68268026
 
    496    -0.342E-13     0.0000014652        2.6826823000       0.55  <-- CONV
        O_D=      0.0000000 O_OD=      0.0028005 O_TOT=      2.6826823 <-- SPRD
 Delta: O_D= -0.1313263E-13 O_OD= -0.2139912E-13 O_TOT= -0.3419487E-13 <-- DLTA
 ------------------------------------------------------------------------------
 Cycle:    497
  WF centre and spread    1  ( -1.685223,  1.685224, -1.685223 )     0.89429844
  WF centre and spread    2  (  1.685224,  1.685223, -1.685223 )     0.89429847
  WF centre and spread    3  ( -1.685223, -1.685223, -1.685224 )     0.89408334
  Sum of centres and spreads ( -1.685223,  1.685224, -5.055671 )     2.68268026
 
    497    -0.435E-13     0.0000014647        2.6826823000       0.56  <-- CONV
        O_D=      0.0000000 O_OD=      0.0028005 O_TOT=      2.6826823 <-- SPRD
 Delta: O_D= -0.1640112E-13 O_OD= -0.2672428E-13 O_TOT= -0.4352074E-13 <-- DLTA
 ------------------------------------------------------------------------------
 Cycle:    498
  WF centre and spread    1  ( -1.685223,  1.685224, -1.685223 )     0.89429844
  WF centre and spread    2  (  1.685224,  1.685223, -1.685223 )     0.89429847
  WF centre and spread    3  ( -1.685223, -1.685223, -1.685224 )     0.89408334
  Sum of centres and spreads ( -1.685223,  1.685224, -5.055671 )     2.68268026
 
    498    -0.520E-13     0.0000014642        2.6826823000       0.56  <-- CONV
        O_D=      0.0000000 O_OD=      0.0028005 O_TOT=      2.6826823 <-- SPRD
 Delta: O_D= -0.1965952E-13 O_OD= -0.3203817E-13 O_TOT= -0.5195844E-13 <-- DLTA
 ------------------------------------------------------------------------------
 Cycle:    499
  WF centre and spread    1  ( -1.685223,  1.685224, -1.685223 )     0.89429844
  WF centre and spread    2  (  1.685224,  1.685223, -1.685223 )     0.89429847
  WF centre and spread    3  ( -1.685223, -1.685223, -1.685224 )     0.89408334
  Sum of centres and spreads ( -1.685223,  1.685224, -5.055671 )     2.68268026
 
    499    -0.844E-14     0.0000014635        2.6826823000       0.56  <-- CONV
        O_D=      0.0000000 O_OD=      0.0028005 O_TOT=      2.6826823 <-- SPRD
 Delta: O_D= -0.3276145E-14 O_OD= -0.5339045E-14 O_TOT= -0.8437695E-14 <-- DLTA
 ------------------------------------------------------------------------------
 Cycle:    500
  WF centre and spread    1  ( -1.685223,  1.685224, -1.685223 )     0.89429844
  WF centre and spread    2  (  1.685224,  1.685223, -1.685223 )     0.89429847
  WF centre and spread    3  ( -1.685223, -1.685223, -1.685224 )     0.89408334
  Sum of centres and spreads ( -1.685223,  1.685224, -5.055671 )     2.68268026
 
    500    -0.173E-13     0.0000014634        2.6826823000       0.56  <-- CONV
        O_D=      0.0000000 O_OD=      0.0028005 O_TOT=      2.6826823 <-- SPRD
 Delta: O_D= -0.6550685E-14 O_OD= -0.1067332E-13 O_TOT= -0.1731948E-13 <-- DLTA
 ------------------------------------------------------------------------------

 Writing checkpoint file mp-2064.chk... done

 Final State
  WF centre and spread    1  ( -1.685223,  1.685224, -1.685223 )     0.89429844
  WF centre and spread    2  (  1.685224,  1.685223, -1.685223 )     0.89429847
  WF centre and spread    3  ( -1.685223, -1.685223, -1.685224 )     0.89408334
  Sum of centres and spreads ( -1.685223,  1.685224, -5.055671 )     2.68268026
 
         Spreads (Ang^2)       Omega I      =     2.679881822
        ================       Omega D      =     0.000000000
                               Omega OD     =     0.002800478
    Final Spread (Ang^2)       Omega Total  =     2.682682300
 ------------------------------------------------------------------------------
 Time for wannierise            0.551 (sec)

 Writing checkpoint file mp-2064.chk... done

 Time for plotting              0.000 (sec)
 Total Execution Time           1.557 (sec)

 *===========================================================================*
 |                             TIMING INFORMATION                            |
 *===========================================================================*
 |    Tag                                                Ncalls      Time (s)|
 |---------------------------------------------------------------------------|
 |kmesh: get                                        :         1         0.719|
 |overlap: allocate                                 :         1         0.001|
 |overlap: read                                     :         1         0.121|
 |wann: main                                        :         1         0.551|
 |plot: main                                        :         1         0.000|
 *---------------------------------------------------------------------------*
 
 All done: wannier90 exiting
