
     Program PWSCF v.7.1 starts on  8Apr2024 at 16:23: 5 

     This program is part of the open-source Quantum ESPRESSO suite
     for quantum simulation of materials; please cite
         "P. Giannozzi et al., J. Phys.:Condens. Matter 21 395502 (2009);
         "P. Giannozzi et al., J. Phys.:Condens. Matter 29 465901 (2017);
         "P. Giannozzi et al., J. Chem. Phys. 152 154105 (2020);
          URL http://www.quantum-espresso.org", 
     in publications or presentations arising from this work. More details at
     http://www.quantum-espresso.org/quote

     Parallel version (MPI), running on    16 processors

     MPI processes distributed on     1 nodes
     247623 MiB available memory on the printing compute node when the environment starts
 
     Reading input from pw_mp-995214_nscf_k3000_E65.in
Warning: card &IONS ignored
Warning: card / ignored
Warning: card &CELL ignored
Warning: card / ignored

     Current dimensions of program PWSCF are:
     Max number of different atomic species (ntypx) = 10
     Max number of k-points (npk) =  40000
     Max angular momentum in pseudopotentials (lmaxx) =  4

     Atomic positions and unit cell read from directory:
     out/mp-995214.save/
     Atomic positions from file used, from input discarded
 
 
     R & G space division:  proc/nbgrp/npool/nimage =      16
     Subspace diagonalization in iterative solution of the eigenvalue problem:
     one sub-group per band group will be used
     scalapack distributed-memory algorithm (size of sub-group:  3*  3 procs)

 
     Parallelization info
     --------------------
     sticks:   dense  smooth     PW     G-vecs:    dense   smooth      PW
     Min         365     365    101                30637    30637    4497
     Max         366     366    103                30640    30640    4500
     Sum        5847    5847   1629               490203   490203   71967
 
     Using Slab Decomposition
 


     bravais-lattice index     =            8
     lattice parameter (alat)  =      16.1699  a.u.
     unit-cell volume          =    6924.6011 (a.u.)^3
     number of atoms/cell      =           48
     number of atomic types    =            5
     number of electrons       =       320.00
     number of Kohn-Sham states=          320
     kinetic-energy cutoff     =      65.0000  Ry
     charge density cutoff     =     260.0000  Ry
     Exchange-correlation= PBE
                           (   1   4   3   4   0   0   0)

     celldm(1)=  16.169867  celldm(2)=   1.081075  celldm(3)=   1.515025
     celldm(4)=   0.000000  celldm(5)=   0.000000  celldm(6)=   0.000000

     crystal axes: (cart. coord. in units of alat)
               a(1) = (   1.000000   0.000000   0.000000 )  
               a(2) = (   0.000000   1.081075   0.000000 )  
               a(3) = (   0.000000   0.000000   1.515025 )  

     reciprocal axes: (cart. coord. in units 2 pi/alat)
               b(1) = (  1.000000  0.000000  0.000000 )  
               b(2) = (  0.000000  0.925005  0.000000 )  
               b(3) = (  0.000000  0.000000  0.660055 )  


     PseudoPot. # 1 for C  read from file:
     /usr/scratch4/magr4826/Promotion/Python/Code/devEb/pseudo/SG15/C.upf
     MD5 check sum: 1a5f83a7b1f58d24996abe00ed223ac6
     Pseudo is Norm-conserving, Zval =  4.0
     Generated using ONCVPSP code by D. R. Hamann
     Using radial grid of  602 points,  4 beta functions with: 
                l(1) =   0
                l(2) =   0
                l(3) =   1
                l(4) =   1

     PseudoPot. # 2 for H  read from file:
     /usr/scratch4/magr4826/Promotion/Python/Code/devEb/pseudo/SG15/H.upf
     MD5 check sum: bf21e08b90ac4ce7d0149ac4e8138190
     Pseudo is Norm-conserving, Zval =  1.0
     Generated using ONCVPSP code by D. R. Hamann
     Using radial grid of  602 points,  2 beta functions with: 
                l(1) =   0
                l(2) =   0

     PseudoPot. # 3 for I  read from file:
     /usr/scratch4/magr4826/Promotion/Python/Code/devEb/pseudo/SG15/I.upf
     MD5 check sum: 8277ef51204d8074ead4596f3b37a2aa
     Pseudo is Norm-conserving, Zval = 17.0
     Generated using ONCVPSP code by D. R. Hamann
     Using radial grid of  602 points,  6 beta functions with: 
                l(1) =   0
                l(2) =   0
                l(3) =   1
                l(4) =   1
                l(5) =   2
                l(6) =   2

     PseudoPot. # 4 for N  read from file:
     /usr/scratch4/magr4826/Promotion/Python/Code/devEb/pseudo/SG15/N.upf
     MD5 check sum: c233fa8df51455e992258b7c3dee8a9f
     Pseudo is Norm-conserving, Zval =  5.0
     Generated using ONCVPSP code by D. R. Hamann
     Using radial grid of  602 points,  4 beta functions with: 
                l(1) =   0
                l(2) =   0
                l(3) =   1
                l(4) =   1

     PseudoPot. # 5 for Pb read from file:
     /usr/scratch4/magr4826/Promotion/Python/Code/devEb/pseudo/SG15/Pb.upf
     MD5 check sum: 7f27c247474026287e0dbe0f3167d60b
     Pseudo is Norm-conserving, Zval = 14.0
     Generated using ONCVPSP code by D. R. Hamann
     Using radial grid of  602 points,  8 beta functions with: 
                l(1) =   0
                l(2) =   0
                l(3) =   1
                l(4) =   1
                l(5) =   2
                l(6) =   2
                l(7) =   3
                l(8) =   3

     atomic species   valence    mass     pseudopotential
        C              4.00    12.01070     C ( 1.00)
        H              1.00     1.00790     H ( 1.00)
        I             17.00   126.90450     I ( 1.00)
        N              5.00    14.00670     N ( 1.00)
        Pb            14.00   207.20000     Pb( 1.00)

     No symmetry found



   Cartesian axes

     site n.     atom                  positions (alat units)
         1           H   tau(   1) = (   0.4942640   0.1545656   1.0383615  )
         2           H   tau(   2) = (   0.5057360   0.9265092   0.4766631  )
         3           H   tau(   3) = (   0.0057360   0.6951030   0.4766631  )
         4           H   tau(   4) = (   0.9942641   0.3859718   1.0383615  )
         5           H   tau(   5) = (   0.5057360   0.9265092   0.2808492  )
         6           H   tau(   6) = (   0.4942640   0.1545656   1.2341755  )
         7           H   tau(   7) = (   0.9942641   0.3859718   1.2341755  )
         8           H   tau(   8) = (   0.0057360   0.6951030   0.2808492  )
         9           H   tau(   9) = (   0.3380590   0.0850071   1.1362685  )
        10           H   tau(  10) = (   0.6619410   0.9960677   0.3787562  )
        11           H   tau(  11) = (   0.1619410   0.6255445   0.3787562  )
        12           H   tau(  12) = (   0.8380591   0.4555303   1.1362685  )
        13           H   tau(  13) = (   0.4947750   0.9512258   1.0313697  )
        14           H   tau(  14) = (   0.5052250   0.1298490   0.4836550  )
        15           H   tau(  15) = (   0.0052250   0.4106884   0.4836550  )
        16           H   tau(  16) = (   0.9947751   0.6703864   1.0313697  )
        17           H   tau(  17) = (   0.5052250   0.1298490   0.2738574  )
        18           H   tau(  18) = (   0.4947750   0.9512258   1.2411673  )
        19           H   tau(  19) = (   0.9947751   0.6703864   1.2411673  )
        20           H   tau(  20) = (   0.0052250   0.4106884   0.2738574  )
        21           H   tau(  21) = (   0.6598480   1.0266567   1.1362685  )
        22           H   tau(  22) = (   0.3401520   0.0544181   0.3787562  )
        23           H   tau(  23) = (   0.8401521   0.4861193   0.3787562  )
        24           H   tau(  24) = (   0.1598480   0.5949555   1.1362685  )
        25           Pb  tau(  25) = (   0.5000000   0.5405374   0.0000000  )
        26           Pb  tau(  26) = (   0.0000000   0.0000000   0.0000000  )
        27           Pb  tau(  27) = (   0.5000000   0.5405374   0.7575123  )
        28           Pb  tau(  28) = (   0.0000000   0.0000000   0.7575123  )
        29           C   tau(  29) = (   0.5323550   1.0138730   1.1362685  )
        30           C   tau(  30) = (   0.4676450   0.0672018   0.3787562  )
        31           C   tau(  31) = (   0.9676451   0.4733356   0.3787562  )
        32           C   tau(  32) = (   0.0323550   0.6077392   1.1362685  )
        33           I   tau(  33) = (   0.5377330   0.5541546   1.1362685  )
        34           I   tau(  34) = (   0.4622670   0.5269202   0.3787562  )
        35           I   tau(  35) = (   0.9622671   0.0136172   0.3787562  )
        36           I   tau(  36) = (   0.0377330   1.0674576   1.1362685  )
        37           I   tau(  37) = (   0.8160661   0.7490108   0.0335532  )
        38           I   tau(  38) = (   0.1839340   0.3320640   1.4814714  )
        39           I   tau(  39) = (   0.6839340   0.2084734   1.4814714  )
        40           I   tau(  40) = (   0.3160660   0.8726014   0.0335532  )
        41           I   tau(  41) = (   0.1839340   0.3320640   0.7910656  )
        42           I   tau(  42) = (   0.8160661   0.7490108   0.7239591  )
        43           I   tau(  43) = (   0.3160660   0.8726014   0.7239591  )
        44           I   tau(  44) = (   0.6839340   0.2084734   0.7910656  )
        45           N   tau(  45) = (   0.4596090   0.0917433   1.1362685  )
        46           N   tau(  46) = (   0.5403910   0.9893315   0.3787562  )
        47           N   tau(  47) = (   0.0403910   0.6322806   0.3787562  )
        48           N   tau(  48) = (   0.9596091   0.4487941   1.1362685  )

     number of k points=    64  Gaussian smearing, width (Ry)=  0.0005
                       cart. coord. in units 2pi/alat
        k(    1) = (   0.0000000   0.0000000   0.0000000), wk =   0.0312500
        k(    2) = (   0.0000000   0.0000000   0.1650138), wk =   0.0312500
        k(    3) = (   0.0000000   0.0000000   0.3300277), wk =   0.0312500
        k(    4) = (   0.0000000   0.0000000   0.4950415), wk =   0.0312500
        k(    5) = (   0.0000000   0.2312514   0.0000000), wk =   0.0312500
        k(    6) = (   0.0000000   0.2312514   0.1650138), wk =   0.0312500
        k(    7) = (   0.0000000   0.2312514   0.3300277), wk =   0.0312500
        k(    8) = (   0.0000000   0.2312514   0.4950415), wk =   0.0312500
        k(    9) = (   0.0000000   0.4625027   0.0000000), wk =   0.0312500
        k(   10) = (   0.0000000   0.4625027   0.1650138), wk =   0.0312500
        k(   11) = (   0.0000000   0.4625027   0.3300277), wk =   0.0312500
        k(   12) = (   0.0000000   0.4625027   0.4950415), wk =   0.0312500
        k(   13) = (   0.0000000   0.6937541   0.0000000), wk =   0.0312500
        k(   14) = (   0.0000000   0.6937541   0.1650138), wk =   0.0312500
        k(   15) = (   0.0000000   0.6937541   0.3300277), wk =   0.0312500
        k(   16) = (   0.0000000   0.6937541   0.4950415), wk =   0.0312500
        k(   17) = (   0.2500000   0.0000000   0.0000000), wk =   0.0312500
        k(   18) = (   0.2500000   0.0000000   0.1650138), wk =   0.0312500
        k(   19) = (   0.2500000   0.0000000   0.3300277), wk =   0.0312500
        k(   20) = (   0.2500000   0.0000000   0.4950415), wk =   0.0312500
        k(   21) = (   0.2500000   0.2312514   0.0000000), wk =   0.0312500
        k(   22) = (   0.2500000   0.2312514   0.1650138), wk =   0.0312500
        k(   23) = (   0.2500000   0.2312514   0.3300277), wk =   0.0312500
        k(   24) = (   0.2500000   0.2312514   0.4950415), wk =   0.0312500
        k(   25) = (   0.2500000   0.4625027   0.0000000), wk =   0.0312500
        k(   26) = (   0.2500000   0.4625027   0.1650138), wk =   0.0312500
        k(   27) = (   0.2500000   0.4625027   0.3300277), wk =   0.0312500
        k(   28) = (   0.2500000   0.4625027   0.4950415), wk =   0.0312500
        k(   29) = (   0.2500000   0.6937541   0.0000000), wk =   0.0312500
        k(   30) = (   0.2500000   0.6937541   0.1650138), wk =   0.0312500
        k(   31) = (   0.2500000   0.6937541   0.3300277), wk =   0.0312500
        k(   32) = (   0.2500000   0.6937541   0.4950415), wk =   0.0312500
        k(   33) = (   0.5000000   0.0000000   0.0000000), wk =   0.0312500
        k(   34) = (   0.5000000   0.0000000   0.1650138), wk =   0.0312500
        k(   35) = (   0.5000000   0.0000000   0.3300277), wk =   0.0312500
        k(   36) = (   0.5000000   0.0000000   0.4950415), wk =   0.0312500
        k(   37) = (   0.5000000   0.2312514   0.0000000), wk =   0.0312500
        k(   38) = (   0.5000000   0.2312514   0.1650138), wk =   0.0312500
        k(   39) = (   0.5000000   0.2312514   0.3300277), wk =   0.0312500
        k(   40) = (   0.5000000   0.2312514   0.4950415), wk =   0.0312500
        k(   41) = (   0.5000000   0.4625027   0.0000000), wk =   0.0312500
        k(   42) = (   0.5000000   0.4625027   0.1650138), wk =   0.0312500
        k(   43) = (   0.5000000   0.4625027   0.3300277), wk =   0.0312500
        k(   44) = (   0.5000000   0.4625027   0.4950415), wk =   0.0312500
        k(   45) = (   0.5000000   0.6937541   0.0000000), wk =   0.0312500
        k(   46) = (   0.5000000   0.6937541   0.1650138), wk =   0.0312500
        k(   47) = (   0.5000000   0.6937541   0.3300277), wk =   0.0312500
        k(   48) = (   0.5000000   0.6937541   0.4950415), wk =   0.0312500
        k(   49) = (   0.7500000   0.0000000   0.0000000), wk =   0.0312500
        k(   50) = (   0.7500000   0.0000000   0.1650138), wk =   0.0312500
        k(   51) = (   0.7500000   0.0000000   0.3300277), wk =   0.0312500
        k(   52) = (   0.7500000   0.0000000   0.4950415), wk =   0.0312500
        k(   53) = (   0.7500000   0.2312514   0.0000000), wk =   0.0312500
        k(   54) = (   0.7500000   0.2312514   0.1650138), wk =   0.0312500
        k(   55) = (   0.7500000   0.2312514   0.3300277), wk =   0.0312500
        k(   56) = (   0.7500000   0.2312514   0.4950415), wk =   0.0312500
        k(   57) = (   0.7500000   0.4625027   0.0000000), wk =   0.0312500
        k(   58) = (   0.7500000   0.4625027   0.1650138), wk =   0.0312500
        k(   59) = (   0.7500000   0.4625027   0.3300277), wk =   0.0312500
        k(   60) = (   0.7500000   0.4625027   0.4950415), wk =   0.0312500
        k(   61) = (   0.7500000   0.6937541   0.0000000), wk =   0.0312500
        k(   62) = (   0.7500000   0.6937541   0.1650138), wk =   0.0312500
        k(   63) = (   0.7500000   0.6937541   0.3300277), wk =   0.0312500
        k(   64) = (   0.7500000   0.6937541   0.4950415), wk =   0.0312500

     Dense  grid:   490203 G-vectors     FFT dimensions: (  90,  90, 125)

     Estimated max dynamical RAM per process >       1.32 GB

     Estimated total dynamical RAM >      21.08 GB

     The potential is recalculated from file :
     out/mp-995214.save/charge-density

     Starting wfcs are random

     Band Structure Calculation
     Davidson diagonalization with overlap

     ethr =  5.00E-06,  avg # of iterations = 35.7

     total cpu time spent up to now is      774.2 secs

     End of band structure calculation

          k = 0.0000 0.0000 0.0000 ( 61335 PWs)   bands (ev):

   -40.2621 -40.2621 -40.2621 -40.2621 -40.2277 -40.2277 -40.2277 -40.2277
   -40.2010 -40.2010 -40.2010 -40.2010 -40.1976 -40.1976 -40.1976 -40.1975
   -40.1975 -40.1975 -40.1975 -40.1975 -40.1656 -40.1656 -40.1656 -40.1655
   -40.1655 -40.1655 -40.1655 -40.1655 -40.1412 -40.1412 -40.1412 -40.1412
   -40.1412 -40.1411 -40.1411 -40.1411 -40.0933 -40.0933 -40.0933 -40.0933
   -40.0927 -40.0927 -40.0926 -40.0926 -40.0387 -40.0387 -40.0387 -40.0387
   -40.0387 -40.0387 -40.0387 -40.0386 -40.0384 -40.0384 -40.0384 -40.0384
   -40.0384 -40.0383 -40.0383 -40.0383 -15.9600 -15.9596 -15.9572 -15.9569
   -12.9085 -12.9049 -12.9015 -12.8979 -12.8951 -12.8949 -12.8844 -12.8843
   -12.8798 -12.8795 -12.8794 -12.8791 -12.8651 -12.8646 -12.8645 -12.8640
   -12.8576 -12.8574 -12.8572 -12.8571  -8.9517  -8.9450  -8.9401  -8.9395
    -8.1540  -7.9952  -7.8281  -7.7994  -7.7859  -7.7483  -7.7166  -7.6569
    -7.6378  -7.5783  -7.5522  -7.5347  -5.4675  -5.4581  -5.4494  -5.4474
    -5.4402  -5.4296  -5.4183  -5.4031  -4.4294  -3.9991  -3.6162  -3.3421
    -3.3217  -3.3146  -3.3137  -3.1717  -1.2789  -1.2644  -1.2514  -1.2512
    -1.2475  -1.2383  -1.2348  -1.2323   0.5456   0.5760   0.6641   0.8079
     0.8931   1.0076   1.7539   1.7836   1.8833   1.9631   1.9750   2.0946
     2.2868   2.2939   2.3632   2.3847   2.4346   2.4359   2.4952   2.4981
     2.5042   2.5259   2.5897   2.6474   2.6515   2.7355   2.8169   2.8535
     2.9216   2.9432   2.9903   3.0057   3.0850   3.0893   3.2850   3.5308
     5.3046   5.4507   5.5674   5.7872   5.8738   5.9300   7.6916   8.1026
     8.1970   8.3000   8.3236   8.5220   8.6780   8.8294   8.8390   8.9184
     9.0220   9.0285   9.1544   9.2324   9.3106   9.4130   9.6572   9.7375
     9.8151   9.8507   9.8681   9.9336  10.0276  10.0446  10.1029  10.1713
    10.4757  10.5749  10.5815  10.6058  10.6421  10.7264  10.9115  10.9649
    10.9653  10.9944  11.1977  11.2405  11.2463  11.2568  11.2978  11.3741
    11.3805  11.3975  11.4889  11.6174  11.7147  11.7246  11.8050  11.8175
    11.8686  11.8913  11.8963  12.2132  12.2683  12.3261  12.4056  12.5007
    12.5744  12.5843  12.6377  12.6794  12.9481  13.0383  13.1019  13.2353
    13.3836  13.4792  13.6760  13.6889  13.7144  13.8327  13.8456  13.8594
    13.9521  13.9553  14.0305  14.0905  14.1328  14.3769  14.5353  14.6132
    14.6767  14.6906  14.7572  14.8230  15.0404  15.1854  15.2266  15.2574
    15.3280  15.5071  15.5658  15.6945  15.7105  15.9010  15.9134  15.9267
    15.9393  16.0013  16.0298  16.0484  16.1044  16.1685  16.1927  16.2861
    16.3012  16.3252  16.4192  16.4761  16.4971  16.7083  16.7484  16.7551
    16.7826  16.8724  16.9669  17.0568  17.0824  17.1226  17.1657  17.2382
    17.3020  17.3255  17.3552  17.4156  17.4958  17.6519  17.6988  17.7795
    17.7811  17.8118  17.8821  17.9251  17.9856  18.0418  18.1062  18.1205
    18.1980  18.3197  18.3382  18.3472  18.4112  18.4324  18.6055  18.6055
    18.6064  18.6222  18.7009  18.7012  18.8829  18.9556  18.9804  19.0010

          k = 0.0000 0.0000 0.1650 ( 61333 PWs)   bands (ev):

   -40.2621 -40.2621 -40.2621 -40.2621 -40.2277 -40.2277 -40.2277 -40.2277
   -40.2010 -40.2010 -40.2010 -40.2010 -40.1976 -40.1976 -40.1976 -40.1975
   -40.1975 -40.1975 -40.1975 -40.1975 -40.1656 -40.1656 -40.1656 -40.1655
   -40.1655 -40.1655 -40.1655 -40.1655 -40.1412 -40.1412 -40.1412 -40.1412
   -40.1412 -40.1411 -40.1411 -40.1411 -40.0933 -40.0933 -40.0933 -40.0933
   -40.0927 -40.0927 -40.0926 -40.0926 -40.0387 -40.0387 -40.0387 -40.0387
   -40.0387 -40.0387 -40.0387 -40.0386 -40.0384 -40.0384 -40.0384 -40.0384
   -40.0384 -40.0383 -40.0383 -40.0383 -15.9599 -15.9597 -15.9571 -15.9569
   -12.9075 -12.9038 -12.9026 -12.8989 -12.8951 -12.8950 -12.8844 -12.8843
   -12.8797 -12.8795 -12.8793 -12.8791 -12.8651 -12.8647 -12.8644 -12.8641
   -12.8576 -12.8575 -12.8572 -12.8571  -8.9507  -8.9460  -8.9400  -8.9395
    -8.1381  -8.0321  -7.8235  -7.8032  -7.7555  -7.7462  -7.7077  -7.6550
    -7.6415  -7.5990  -7.5495  -7.5372  -5.4651  -5.4565  -5.4522  -5.4490
    -5.4368  -5.4249  -5.4213  -5.4061  -4.3723  -4.0691  -3.5695  -3.3615
    -3.3156  -3.3146  -3.3139  -3.2259  -1.2739  -1.2634  -1.2559  -1.2482
    -1.2475  -1.2473  -1.2316  -1.2311   0.5678   0.6679   0.7366   0.8230
     1.0184   1.0600   1.7719   1.8276   1.8307   1.8548   1.9836   2.0536
     2.1387   2.1787   2.3090   2.3679   2.3974   2.4477   2.4873   2.4947
     2.5098   2.5685   2.6003   2.6402   2.6565   2.7269   2.7817   2.8311
     2.8892   2.9098   3.0010   3.0119   3.0699   3.0731   3.2872   3.3906
     5.5030   5.6175   5.7409   5.8477   5.8483   6.3390   7.7883   7.8161
     8.0533   8.2617   8.3132   8.4244   8.4450   8.6104   8.7922   8.8117
     9.0564   9.1863   9.2495   9.2922   9.3410   9.4953   9.5737   9.5910
     9.6727   9.8036   9.8158   9.8633   9.8951  10.2213  10.2330  10.2735
    10.3987  10.5096  10.5913  10.6346  10.6705  10.8359  10.8565  10.9748
    11.0157  11.0173  11.0883  11.1187  11.1778  11.2991  11.3188  11.3843
    11.4013  11.4849  11.5104  11.5413  11.7176  11.7464  11.8410  11.9090
    11.9268  12.0031  12.0221  12.0734  12.1398  12.3148  12.4980  12.5191
    12.5309  12.6741  12.7577  12.8722  12.9761  13.0360  13.0566  13.2298
    13.2797  13.2894  13.4385  13.5160  13.5771  13.8109  13.9054  14.0605
    14.1429  14.1483  14.2006  14.3760  14.3762  14.3803  14.4395  14.4684
    14.6134  14.7407  14.7751  14.8923  15.0882  15.1436  15.1838  15.2340
    15.2606  15.4344  15.5332  15.5690  15.6505  15.8068  15.8451  15.8592
    15.8969  15.9828  15.9875  16.0676  16.1284  16.1907  16.2310  16.3510
    16.4004  16.4165  16.4663  16.4675  16.5407  16.5693  16.6310  16.7894
    16.7899  16.8937  16.9606  17.0024  17.0580  17.0706  17.2817  17.3071
    17.3110  17.3976  17.4847  17.5587  17.5852  17.6225  17.6939  17.7954
    17.7969  17.8351  17.9121  17.9816  17.9950  18.0538  18.0579  18.1078
    18.2028  18.2155  18.3933  18.3993  18.4683  18.5121  18.5511  18.6002
    18.6285  18.6339  18.6779  18.8622  18.8809  18.9421  19.0114  19.1059

          k = 0.0000 0.0000 0.3300 ( 61262 PWs)   bands (ev):

   -40.2621 -40.2621 -40.2621 -40.2621 -40.2277 -40.2277 -40.2277 -40.2277
   -40.2010 -40.2010 -40.2010 -40.2010 -40.1976 -40.1976 -40.1976 -40.1975
   -40.1975 -40.1975 -40.1975 -40.1975 -40.1656 -40.1656 -40.1656 -40.1655
   -40.1655 -40.1655 -40.1655 -40.1655 -40.1412 -40.1412 -40.1412 -40.1412
   -40.1412 -40.1411 -40.1411 -40.1411 -40.0933 -40.0933 -40.0933 -40.0933
   -40.0927 -40.0927 -40.0926 -40.0926 -40.0387 -40.0387 -40.0387 -40.0387
   -40.0387 -40.0387 -40.0387 -40.0386 -40.0384 -40.0384 -40.0384 -40.0384
   -40.0384 -40.0383 -40.0383 -40.0383 -15.9598 -15.9598 -15.9570 -15.9570
   -12.9050 -12.9050 -12.9014 -12.9013 -12.8951 -12.8950 -12.8844 -12.8843
   -12.8796 -12.8796 -12.8793 -12.8792 -12.8649 -12.8648 -12.8643 -12.8642
   -12.8575 -12.8575 -12.8572 -12.8572  -8.9484  -8.9483  -8.9398  -8.9397
    -8.0933  -8.0932  -7.8130  -7.8130  -7.7425  -7.7425  -7.6536  -7.6536
    -7.6491  -7.6491  -7.5433  -7.5432  -5.4588  -5.4588  -5.4528  -5.4528
    -5.4288  -5.4288  -5.4147  -5.4147  -4.2270  -4.2269  -3.4533  -3.4533
    -3.3143  -3.3143  -3.2930  -3.2930  -1.2614  -1.2614  -1.2603  -1.2603
    -1.2472  -1.2471  -1.2304  -1.2304   0.6218   0.6218   0.8518   0.8518
     1.3429   1.3429   1.5503   1.5503   1.8226   1.8226   1.9539   1.9539
     2.0390   2.0390   2.3318   2.3318   2.4184   2.4184   2.4874   2.4874
     2.5302   2.5302   2.6694   2.6694   2.7085   2.7085   2.8150   2.8150
     2.8244   2.8244   3.0157   3.0157   3.0572   3.0573   3.3047   3.3048
     5.6250   5.6250   5.7351   5.7352   6.8762   6.8762   7.2681   7.2681
     8.0912   8.0912   8.2984   8.2985   8.3482   8.3482   8.8695   8.8695
     9.1870   9.1870   9.2703   9.2703   9.4506   9.4506   9.4876   9.4876
     9.7661   9.7661   9.7801   9.7801   9.9743   9.9744  10.3884  10.3884
    10.4308  10.4308  10.5460  10.5460  10.7337  10.7338  10.9011  10.9011
    11.0222  11.0223  11.2293  11.2293  11.2643  11.2643  11.3253  11.3253
    11.3479  11.3479  11.6584  11.6585  11.6732  11.6732  11.9129  11.9129
    12.0040  12.0040  12.1029  12.1029  12.3256  12.3257  12.3639  12.3639
    12.5807  12.5808  12.9507  12.9507  12.9960  12.9960  13.0354  13.0355
    13.2301  13.2301  13.5881  13.5881  13.8066  13.8066  13.8276  13.8277
    14.1093  14.1093  14.2930  14.2931  14.3140  14.3140  14.6719  14.6719
    14.7858  14.7858  14.9550  14.9550  15.0643  15.0644  15.3286  15.3286
    15.3375  15.3375  15.4137  15.4137  15.5939  15.5939  15.7884  15.7885
    15.7987  15.7987  16.0587  16.0587  16.1619  16.1620  16.1811  16.1811
    16.5041  16.5041  16.5556  16.5556  16.6930  16.6930  16.7106  16.7106
    16.9218  16.9218  17.1349  17.1349  17.2665  17.2665  17.2673  17.2673
    17.3474  17.3474  17.4197  17.4197  17.4909  17.4909  17.6670  17.6670
    17.7375  17.7375  17.8052  17.8052  18.0253  18.0253  18.1853  18.1853
    18.2177  18.2177  18.2943  18.2943  18.3118  18.3118  18.6988  18.6989
    18.7999  18.8000  18.8887  18.8887  18.9444  18.9444  18.9500  18.9501

          k = 0.0000 0.0000 0.4950 ( 61333 PWs)   bands (ev):

   -40.2621 -40.2621 -40.2621 -40.2621 -40.2277 -40.2277 -40.2277 -40.2277
   -40.2010 -40.2010 -40.2010 -40.2010 -40.1976 -40.1976 -40.1976 -40.1975
   -40.1975 -40.1975 -40.1975 -40.1975 -40.1656 -40.1656 -40.1656 -40.1655
   -40.1655 -40.1655 -40.1655 -40.1655 -40.1412 -40.1412 -40.1412 -40.1412
   -40.1412 -40.1411 -40.1411 -40.1411 -40.0933 -40.0933 -40.0933 -40.0933
   -40.0927 -40.0927 -40.0926 -40.0926 -40.0387 -40.0387 -40.0387 -40.0387
   -40.0387 -40.0387 -40.0387 -40.0386 -40.0384 -40.0384 -40.0384 -40.0384
   -40.0384 -40.0383 -40.0383 -40.0383 -15.9599 -15.9597 -15.9571 -15.9569
   -12.9075 -12.9038 -12.9026 -12.8989 -12.8951 -12.8950 -12.8844 -12.8843
   -12.8797 -12.8795 -12.8793 -12.8791 -12.8651 -12.8647 -12.8644 -12.8641
   -12.8576 -12.8575 -12.8572 -12.8571  -8.9507  -8.9460  -8.9400  -8.9395
    -8.1381  -8.0321  -7.8235  -7.8032  -7.7555  -7.7462  -7.7077  -7.6550
    -7.6415  -7.5990  -7.5495  -7.5372  -5.4651  -5.4565  -5.4522  -5.4490
    -5.4368  -5.4249  -5.4213  -5.4061  -4.3723  -4.0691  -3.5695  -3.3615
    -3.3156  -3.3146  -3.3139  -3.2259  -1.2739  -1.2634  -1.2559  -1.2482
    -1.2475  -1.2473  -1.2316  -1.2311   0.5678   0.6679   0.7366   0.8230
     1.0184   1.0600   1.7719   1.8276   1.8307   1.8548   1.9836   2.0536
     2.1387   2.1787   2.3090   2.3679   2.3974   2.4477   2.4873   2.4947
     2.5098   2.5685   2.6003   2.6402   2.6565   2.7269   2.7817   2.8311
     2.8892   2.9098   3.0010   3.0119   3.0699   3.0731   3.2872   3.3906
     5.5030   5.6175   5.7409   5.8477   5.8483   6.3390   7.7883   7.8161
     8.0533   8.2617   8.3132   8.4244   8.4450   8.6104   8.7922   8.8117
     9.0564   9.1863   9.2495   9.2922   9.3410   9.4953   9.5737   9.5910
     9.6727   9.8036   9.8158   9.8633   9.8951  10.2213  10.2330  10.2735
    10.3987  10.5096  10.5913  10.6346  10.6705  10.8359  10.8565  10.9748
    11.0157  11.0173  11.0883  11.1187  11.1778  11.2991  11.3188  11.3843
    11.4013  11.4849  11.5104  11.5413  11.7176  11.7464  11.8410  11.9090
    11.9268  12.0031  12.0221  12.0734  12.1398  12.3148  12.4980  12.5191
    12.5309  12.6741  12.7577  12.8722  12.9761  13.0360  13.0566  13.2298
    13.2797  13.2894  13.4385  13.5160  13.5771  13.8109  13.9054  14.0605
    14.1429  14.1483  14.2006  14.3760  14.3762  14.3803  14.4395  14.4684
    14.6134  14.7407  14.7751  14.8923  15.0882  15.1436  15.1838  15.2340
    15.2606  15.4344  15.5332  15.5690  15.6505  15.8068  15.8451  15.8592
    15.8969  15.9828  15.9875  16.0676  16.1284  16.1907  16.2310  16.3510
    16.4004  16.4165  16.4663  16.4675  16.5407  16.5693  16.6310  16.7894
    16.7899  16.8937  16.9606  17.0024  17.0580  17.0706  17.2817  17.3071
    17.3110  17.3976  17.4847  17.5587  17.5852  17.6225  17.6939  17.7954
    17.7969  17.8351  17.9121  17.9816  17.9950  18.0538  18.0580  18.1078
    18.2028  18.2155  18.3934  18.3993  18.4683  18.5121  18.5512  18.6002
    18.6285  18.6340  18.6780  18.8624  18.8810  18.9423  19.0116  19.1186

          k = 0.0000 0.2313 0.0000 ( 61295 PWs)   bands (ev):

   -40.2621 -40.2621 -40.2621 -40.2621 -40.2277 -40.2277 -40.2277 -40.2277
   -40.2010 -40.2010 -40.2010 -40.2010 -40.1976 -40.1976 -40.1976 -40.1975
   -40.1975 -40.1975 -40.1975 -40.1975 -40.1656 -40.1656 -40.1656 -40.1655
   -40.1655 -40.1655 -40.1655 -40.1655 -40.1412 -40.1412 -40.1412 -40.1412
   -40.1412 -40.1411 -40.1411 -40.1411 -40.0933 -40.0933 -40.0933 -40.0933
   -40.0927 -40.0927 -40.0926 -40.0926 -40.0387 -40.0387 -40.0387 -40.0387
   -40.0387 -40.0387 -40.0387 -40.0386 -40.0384 -40.0384 -40.0384 -40.0384
   -40.0384 -40.0383 -40.0383 -40.0383 -15.9598 -15.9596 -15.9572 -15.9570
   -12.9080 -12.9054 -12.9010 -12.8984 -12.8935 -12.8934 -12.8859 -12.8858
   -12.8797 -12.8795 -12.8794 -12.8792 -12.8651 -12.8646 -12.8645 -12.8641
   -12.8576 -12.8574 -12.8573 -12.8572  -8.9527  -8.9465  -8.9441  -8.9419
    -8.1158  -7.9632  -7.9021  -7.7927  -7.7896  -7.7798  -7.6729  -7.6413
    -7.6253  -7.5857  -7.5668  -7.5500  -5.4651  -5.4592  -5.4479  -5.4474
    -5.4395  -5.4334  -5.4142  -5.4045  -4.3199  -3.8998  -3.7499  -3.3993
    -3.3269  -3.3213  -3.3173  -3.2586  -1.2782  -1.2594  -1.2563  -1.2531
    -1.2507  -1.2398  -1.2392  -1.2372   0.6263   0.7737   0.7984   0.9333
     0.9820   1.1316   1.7418   1.8101   1.8906   1.9112   1.9299   1.9867
     2.0388   2.1990   2.2014   2.3188   2.4509   2.4801   2.4819   2.4879
     2.5022   2.5602   2.5659   2.5665   2.6525   2.6662   2.8273   2.8296
     2.8487   2.9279   2.9425   2.9920   3.0868   3.1362   3.1740   3.3358
     5.4037   5.8317   5.8495   6.0890   6.1471   6.3531   7.6936   7.7233
     7.9265   7.9397   8.1523   8.3335   8.4552   8.6048   8.6433   8.8139
     8.9640   9.2422   9.2742   9.3019   9.3566   9.5083   9.5131   9.6284
     9.6982   9.8331   9.8497   9.9412  10.0368  10.0601  10.1502  10.1931
    10.3051  10.3533  10.5680  10.7029  10.7308  10.7517  10.7938  10.7974
    11.0744  11.1264  11.1831  11.1973  11.2505  11.2526  11.4515  11.4677
    11.5030  11.6471  11.6526  11.6665  11.7860  11.8396  11.8497  12.0020
    12.0499  12.1790  12.2998  12.3352  12.3373  12.3853  12.4242  12.4990
    12.6055  12.6613  12.7093  12.7650  12.8432  13.1029  13.1727  13.3324
    13.3681  13.4562  13.5803  13.6885  13.7487  13.7742  13.7749  13.8452
    13.8602  13.9274  14.0538  14.1548  14.1983  14.4504  14.5267  14.5844
    14.6185  14.7082  14.7245  14.7380  14.7403  14.9743  14.9973  15.0537
    15.1919  15.2212  15.2783  15.2910  15.3349  15.4290  15.6503  15.6564
    15.7008  15.8205  15.8695  15.9092  15.9702  16.1052  16.1186  16.1651
    16.1971  16.3181  16.3883  16.5044  16.5860  16.6273  16.6711  16.9345
    16.9375  16.9994  17.0505  17.1692  17.2466  17.2898  17.3263  17.3758
    17.3984  17.4520  17.5626  17.5908  17.6316  17.6871  17.7694  17.8253
    17.8318  17.8752  17.9315  18.0121  18.0678  18.0987  18.2511  18.2704
    18.2717  18.3085  18.3595  18.4469  18.5492  18.6144  18.7101  18.7449
    18.7470  18.7747  18.8257  18.9008  18.9428  19.0381  19.0965  19.1068

          k = 0.0000 0.2313 0.1650 ( 61261 PWs)   bands (ev):

   -40.2621 -40.2621 -40.2621 -40.2621 -40.2277 -40.2277 -40.2277 -40.2277
   -40.2010 -40.2010 -40.2010 -40.2010 -40.1976 -40.1976 -40.1976 -40.1975
   -40.1975 -40.1975 -40.1975 -40.1975 -40.1656 -40.1656 -40.1656 -40.1655
   -40.1655 -40.1655 -40.1655 -40.1655 -40.1412 -40.1412 -40.1412 -40.1412
   -40.1412 -40.1411 -40.1411 -40.1411 -40.0933 -40.0933 -40.0933 -40.0933
   -40.0927 -40.0927 -40.0926 -40.0926 -40.0387 -40.0387 -40.0387 -40.0387
   -40.0387 -40.0387 -40.0387 -40.0386 -40.0384 -40.0384 -40.0384 -40.0384
   -40.0384 -40.0383 -40.0383 -40.0383 -15.9598 -15.9596 -15.9572 -15.9570
   -12.9070 -12.9044 -12.9020 -12.8994 -12.8935 -12.8934 -12.8859 -12.8858
   -12.8797 -12.8795 -12.8794 -12.8792 -12.8650 -12.8646 -12.8645 -12.8642
   -12.8575 -12.8574 -12.8573 -12.8572  -8.9517  -8.9472  -8.9440  -8.9423
    -8.1007  -7.9995  -7.8927  -7.8313  -7.7531  -7.7446  -7.6780  -7.6377
    -7.6278  -7.6049  -7.5634  -7.5521  -5.4631  -5.4582  -5.4501  -5.4490
    -5.4362  -5.4299  -5.4160  -5.4073  -4.2647  -3.9687  -3.7015  -3.4465
    -3.3226  -3.3209  -3.3179  -3.2830  -1.2730  -1.2596  -1.2577  -1.2515
    -1.2500  -1.2485  -1.2363  -1.2353   0.7547   0.8634   0.8748   0.9494
     1.0461   1.1255   1.7673   1.8113   1.8553   1.8678   1.9094   1.9297
     2.0640   2.1361   2.1812   2.2243   2.3008   2.3388   2.4784   2.4942
     2.5392   2.5689   2.5929   2.6208   2.6470   2.6849   2.8012   2.8120
     2.8315   2.8560   2.9445   2.9882   3.0912   3.1180   3.1719   3.2237
     5.8919   5.9136   6.1032   6.1299   6.2598   6.3199   7.6680   7.7930
     7.7942   7.8846   8.0173   8.1733   8.2626   8.5030   8.6506   8.7460
     8.9562   9.2127   9.2414   9.2610   9.3749   9.4717   9.5269   9.6107
     9.6790   9.7626   9.8555   9.9523   9.9958  10.0671  10.1809  10.3324
    10.3508  10.3905  10.5121  10.6220  10.7209  10.7810  10.7870  11.0251
    11.0438  11.0970  11.1597  11.2532  11.2929  11.3543  11.4274  11.4555
    11.5068  11.5462  11.5770  11.6681  11.7772  11.8414  11.8656  11.9456
    11.9758  12.1564  12.1989  12.2862  12.2886  12.3956  12.4197  12.4848
    12.7466  12.7523  12.7702  12.8553  12.9917  13.1104  13.1518  13.2139
    13.2455  13.3717  13.3945  13.4458  13.7348  13.7610  13.8821  14.0104
    14.0835  14.1862  14.2025  14.2208  14.3954  14.4050  14.5499  14.6006
    14.6134  14.6907  14.7749  14.8081  14.8720  14.9515  15.0247  15.1021
    15.1840  15.2353  15.3255  15.3918  15.4081  15.4568  15.4691  15.6584
    15.7426  15.7866  15.9102  15.9346  15.9563  15.9799  16.0952  16.2087
    16.2478  16.3151  16.3644  16.4589  16.5487  16.5729  16.8132  16.8824
    16.8850  16.9303  16.9519  17.0321  17.1468  17.1775  17.2231  17.2857
    17.3401  17.4780  17.5095  17.6366  17.6420  17.7234  17.7668  17.7869
    17.8314  17.9330  17.9567  17.9668  18.0016  18.0845  18.1689  18.2549
    18.2929  18.3310  18.3818  18.4864  18.4930  18.5399  18.6189  18.6750
    18.7481  18.7503  18.8416  18.8811  19.0186  19.1170  19.1394  19.2676

          k = 0.0000 0.2313 0.3300 ( 61292 PWs)   bands (ev):

   -40.2621 -40.2621 -40.2621 -40.2621 -40.2277 -40.2277 -40.2277 -40.2277
   -40.2010 -40.2010 -40.2010 -40.2010 -40.1976 -40.1976 -40.1976 -40.1975
   -40.1975 -40.1975 -40.1975 -40.1975 -40.1656 -40.1656 -40.1656 -40.1655
   -40.1655 -40.1655 -40.1655 -40.1655 -40.1412 -40.1412 -40.1412 -40.1412
   -40.1412 -40.1411 -40.1411 -40.1411 -40.0933 -40.0933 -40.0933 -40.0933
   -40.0927 -40.0927 -40.0926 -40.0926 -40.0387 -40.0387 -40.0387 -40.0387
   -40.0387 -40.0387 -40.0387 -40.0386 -40.0384 -40.0384 -40.0384 -40.0384
   -40.0384 -40.0383 -40.0383 -40.0383 -15.9597 -15.9597 -15.9571 -15.9571
   -12.9045 -12.9045 -12.9019 -12.9019 -12.8935 -12.8934 -12.8858 -12.8858
   -12.8796 -12.8796 -12.8793 -12.8793 -12.8648 -12.8648 -12.8644 -12.8644
   -12.8575 -12.8575 -12.8573 -12.8572  -8.9494  -8.9494  -8.9432  -8.9432
    -8.0582  -8.0582  -7.8674  -7.8674  -7.7250  -7.7250  -7.6541  -7.6541
    -7.6312  -7.6312  -7.5574  -7.5574  -5.4585  -5.4585  -5.4520  -5.4519
    -5.4293  -5.4293  -5.4144  -5.4144  -4.1235  -4.1234  -3.5769  -3.5768
    -3.3197  -3.3197  -3.3093  -3.3093  -1.2613  -1.2612  -1.2591  -1.2591
    -1.2498  -1.2497  -1.2350  -1.2350   0.8453   0.8453   0.9855   0.9855
     1.3902   1.3902   1.4907   1.4907   1.8227   1.8227   1.9060   1.9060
     2.0357   2.0357   2.1942   2.1942   2.2634   2.2635   2.4478   2.4478
     2.5471   2.5472   2.6250   2.6250   2.7306   2.7306   2.7771   2.7771
     2.7996   2.7997   2.9673   2.9673   3.1009   3.1010   3.1738   3.1739
     5.9960   5.9961   6.2155   6.2155   6.9190   6.9190   7.1856   7.1856
     7.8394   7.8394   7.8976   7.8977   8.3163   8.3163   8.7350   8.7350
     9.0559   9.0559   9.2502   9.2502   9.3093   9.3093   9.6141   9.6141
     9.8140   9.8140   9.8984   9.8984  10.0255  10.0255  10.1582  10.1582
    10.4072  10.4073  10.5691  10.5691  10.8269  10.8269  10.9365  10.9365
    11.0971  11.0971  11.1901  11.1901  11.3004  11.3004  11.4488  11.4488
    11.6086  11.6086  11.6174  11.6174  11.7421  11.7421  11.7984  11.7984
    12.1061  12.1062  12.1989  12.1989  12.3539  12.3539  12.5721  12.5721
    12.6403  12.6404  12.9364  12.9364  13.0015  13.0015  13.0445  13.0445
    13.1652  13.1653  13.5348  13.5348  13.7421  13.7421  14.0669  14.0669
    14.1615  14.1615  14.3846  14.3847  14.4740  14.4740  14.6538  14.6538
    14.7028  14.7028  14.8352  14.8352  14.9179  14.9180  14.9972  14.9972
    15.2015  15.2015  15.4209  15.4209  15.4825  15.4825  15.6152  15.6152
    15.6990  15.6990  15.9274  15.9274  16.0161  16.0161  16.1516  16.1516
    16.1813  16.1813  16.5141  16.5141  16.6497  16.6497  16.7394  16.7394
    16.9070  16.9070  16.9977  16.9977  17.0516  17.0517  17.2468  17.2468
    17.4491  17.4491  17.5059  17.5059  17.5680  17.5680  17.6216  17.6216
    17.6929  17.6929  17.9590  17.9590  18.0919  18.0919  18.1127  18.1127
    18.2552  18.2552  18.2922  18.2923  18.3915  18.3915  18.6676  18.6676
    18.9059  18.9059  18.9714  18.9714  19.0846  19.0846  19.3164  19.3165

          k = 0.0000 0.2313 0.4950 ( 61261 PWs)   bands (ev):

   -40.2621 -40.2621 -40.2621 -40.2621 -40.2277 -40.2277 -40.2277 -40.2277
   -40.2010 -40.2010 -40.2010 -40.2010 -40.1976 -40.1976 -40.1976 -40.1975
   -40.1975 -40.1975 -40.1975 -40.1975 -40.1656 -40.1656 -40.1656 -40.1655
   -40.1655 -40.1655 -40.1655 -40.1655 -40.1412 -40.1412 -40.1412 -40.1412
   -40.1412 -40.1411 -40.1411 -40.1411 -40.0933 -40.0933 -40.0933 -40.0933
   -40.0927 -40.0927 -40.0926 -40.0926 -40.0387 -40.0387 -40.0387 -40.0387
   -40.0387 -40.0387 -40.0387 -40.0386 -40.0384 -40.0384 -40.0384 -40.0384
   -40.0384 -40.0383 -40.0383 -40.0383 -15.9598 -15.9596 -15.9572 -15.9570
   -12.9070 -12.9044 -12.9020 -12.8994 -12.8935 -12.8934 -12.8859 -12.8858
   -12.8797 -12.8795 -12.8794 -12.8792 -12.8650 -12.8646 -12.8645 -12.8642
   -12.8575 -12.8574 -12.8573 -12.8572  -8.9517  -8.9472  -8.9440  -8.9423
    -8.1007  -7.9995  -7.8927  -7.8313  -7.7531  -7.7446  -7.6780  -7.6377
    -7.6278  -7.6049  -7.5634  -7.5521  -5.4631  -5.4582  -5.4501  -5.4490
    -5.4362  -5.4299  -5.4160  -5.4073  -4.2647  -3.9687  -3.7015  -3.4465
    -3.3226  -3.3209  -3.3179  -3.2830  -1.2730  -1.2596  -1.2577  -1.2515
    -1.2500  -1.2485  -1.2363  -1.2353   0.7547   0.8634   0.8748   0.9494
     1.0461   1.1255   1.7673   1.8113   1.8553   1.8678   1.9094   1.9297
     2.0640   2.1361   2.1812   2.2243   2.3008   2.3388   2.4784   2.4942
     2.5392   2.5689   2.5929   2.6208   2.6470   2.6849   2.8012   2.8120
     2.8315   2.8560   2.9445   2.9882   3.0912   3.1180   3.1719   3.2237
     5.8919   5.9136   6.1032   6.1299   6.2598   6.3199   7.6680   7.7930
     7.7942   7.8846   8.0173   8.1733   8.2626   8.5030   8.6506   8.7460
     8.9562   9.2127   9.2414   9.2610   9.3749   9.4717   9.5269   9.6107
     9.6790   9.7626   9.8555   9.9523   9.9958  10.0671  10.1809  10.3324
    10.3508  10.3905  10.5121  10.6220  10.7209  10.7810  10.7870  11.0251
    11.0438  11.0970  11.1597  11.2532  11.2929  11.3543  11.4274  11.4555
    11.5068  11.5462  11.5770  11.6681  11.7772  11.8414  11.8656  11.9456
    11.9758  12.1564  12.1989  12.2862  12.2886  12.3956  12.4197  12.4848
    12.7466  12.7523  12.7702  12.8553  12.9917  13.1104  13.1518  13.2139
    13.2455  13.3717  13.3945  13.4458  13.7348  13.7610  13.8821  14.0104
    14.0835  14.1862  14.2025  14.2208  14.3954  14.4050  14.5499  14.6006
    14.6134  14.6907  14.7749  14.8081  14.8720  14.9515  15.0247  15.1021
    15.1840  15.2353  15.3255  15.3918  15.4081  15.4568  15.4691  15.6584
    15.7426  15.7866  15.9102  15.9346  15.9563  15.9799  16.0952  16.2087
    16.2478  16.3151  16.3644  16.4589  16.5487  16.5729  16.8132  16.8824
    16.8850  16.9303  16.9519  17.0321  17.1468  17.1775  17.2231  17.2857
    17.3401  17.4780  17.5095  17.6366  17.6420  17.7234  17.7668  17.7869
    17.8314  17.9330  17.9567  17.9668  18.0016  18.0845  18.1689  18.2549
    18.2929  18.3310  18.3818  18.4864  18.4930  18.5399  18.6189  18.6750
    18.7481  18.7503  18.8416  18.8811  19.0188  19.1170  19.1396  19.2688

          k = 0.0000 0.4625 0.0000 ( 61272 PWs)   bands (ev):

   -40.2621 -40.2621 -40.2621 -40.2621 -40.2277 -40.2277 -40.2277 -40.2277
   -40.2010 -40.2010 -40.2010 -40.2010 -40.1976 -40.1976 -40.1976 -40.1975
   -40.1975 -40.1975 -40.1975 -40.1975 -40.1656 -40.1656 -40.1656 -40.1656
   -40.1655 -40.1655 -40.1655 -40.1655 -40.1412 -40.1412 -40.1412 -40.1412
   -40.1411 -40.1411 -40.1411 -40.1411 -40.0933 -40.0933 -40.0933 -40.0933
   -40.0927 -40.0927 -40.0926 -40.0926 -40.0387 -40.0387 -40.0387 -40.0387
   -40.0387 -40.0387 -40.0387 -40.0386 -40.0384 -40.0384 -40.0384 -40.0384
   -40.0384 -40.0384 -40.0383 -40.0383 -15.9597 -15.9596 -15.9572 -15.9571
   -12.9067 -12.9067 -12.8997 -12.8996 -12.8896 -12.8896 -12.8895 -12.8895
   -12.8796 -12.8796 -12.8794 -12.8793 -12.8649 -12.8649 -12.8644 -12.8644
   -12.8575 -12.8574 -12.8573 -12.8573  -8.9516  -8.9516  -8.9454  -8.9454
    -8.0185  -8.0185  -7.8808  -7.8808  -7.7820  -7.7819  -7.6226  -7.6226
    -7.6036  -7.6036  -7.5838  -7.5838  -5.4614  -5.4614  -5.4470  -5.4470
    -5.4376  -5.4376  -5.4086  -5.4086  -4.0464  -4.0463  -3.6483  -3.6483
    -3.3305  -3.3305  -3.3118  -3.3118  -1.2723  -1.2723  -1.2541  -1.2541
    -1.2448  -1.2448  -1.2435  -1.2434   0.7259   0.7259   1.2492   1.2492
     1.4476   1.4476   1.4562   1.4563   1.5587   1.5587   1.9228   1.9228
     2.0546   2.0546   2.2733   2.2733   2.3779   2.3779   2.4840   2.4840
     2.4890   2.4890   2.6037   2.6037   2.6551   2.6551   2.7677   2.7677
     2.8927   2.8927   2.8950   2.8950   3.1320   3.1320   3.1980   3.1980
     5.6272   5.6272   6.7421   6.7421   6.9900   6.9900   7.0817   7.0817
     7.2593   7.2593   8.1041   8.1041   8.4250   8.4250   8.5981   8.5981
     9.0993   9.0993   9.4762   9.4762   9.4792   9.4792   9.5962   9.5962
     9.6712   9.6712   9.7876   9.7876   9.8257   9.8257  10.1653  10.1653
    10.3428  10.3428  10.7200  10.7200  10.7227  10.7227  10.9207  10.9207
    10.9776  10.9777  11.3027  11.3027  11.4050  11.4050  11.4979  11.4979
    11.5900  11.5900  11.7447  11.7447  11.9464  11.9464  12.0824  12.0824
    12.1217  12.1217  12.3995  12.3995  12.5680  12.5680  12.7023  12.7023
    12.7617  12.7617  12.8261  12.8261  13.2793  13.2793  13.3126  13.3126
    13.4587  13.4587  13.5278  13.5278  13.5589  13.5589  13.6462  13.6462
    13.7641  13.7641  14.0323  14.0323  14.1422  14.1422  14.3323  14.3323
    14.3353  14.3353  14.5706  14.5706  14.7653  14.7653  14.8224  14.8224
    15.0191  15.0191  15.3451  15.3451  15.3595  15.3595  15.5914  15.5914
    15.6991  15.6991  15.7538  15.7538  16.1563  16.1563  16.2689  16.2689
    16.3574  16.3574  16.4256  16.4256  16.7083  16.7083  16.7512  16.7512
    16.8328  16.8328  16.8604  16.8604  17.2855  17.2855  17.3956  17.3956
    17.4551  17.4551  17.7632  17.7632  17.8612  17.8612  17.8715  17.8715
    17.9985  17.9985  18.0409  18.0409  18.1665  18.1665  18.2174  18.2174
    18.4011  18.4011  18.4530  18.4530  18.6110  18.6110  18.6416  18.6417
    18.6816  18.6817  18.7891  18.7892  18.8055  18.8055  18.9590  18.9590

          k = 0.0000 0.4625 0.1650 ( 61222 PWs)   bands (ev):

   -40.2621 -40.2621 -40.2621 -40.2621 -40.2277 -40.2277 -40.2277 -40.2277
   -40.2010 -40.2010 -40.2010 -40.2010 -40.1976 -40.1976 -40.1976 -40.1975
   -40.1975 -40.1975 -40.1975 -40.1975 -40.1656 -40.1656 -40.1656 -40.1656
   -40.1655 -40.1655 -40.1655 -40.1655 -40.1412 -40.1412 -40.1412 -40.1412
   -40.1411 -40.1411 -40.1411 -40.1411 -40.0933 -40.0933 -40.0933 -40.0933
   -40.0927 -40.0927 -40.0926 -40.0926 -40.0387 -40.0387 -40.0387 -40.0387
   -40.0387 -40.0387 -40.0387 -40.0386 -40.0384 -40.0384 -40.0384 -40.0384
   -40.0384 -40.0384 -40.0383 -40.0383 -15.9597 -15.9596 -15.9572 -15.9571
   -12.9057 -12.9056 -12.9007 -12.9007 -12.8896 -12.8896 -12.8896 -12.8895
   -12.8796 -12.8796 -12.8794 -12.8794 -12.8648 -12.8648 -12.8645 -12.8644
   -12.8575 -12.8574 -12.8573 -12.8573  -8.9509  -8.9509  -8.9462  -8.9462
    -8.0057  -8.0057  -7.9169  -7.9169  -7.7469  -7.7468  -7.6354  -7.6354
    -7.6022  -7.6022  -7.5845  -7.5845  -5.4602  -5.4602  -5.4486  -5.4486
    -5.4341  -5.4341  -5.4108  -5.4108  -3.9950  -3.9950  -3.7141  -3.7141
    -3.3284  -3.3284  -3.3157  -3.3156  -1.2681  -1.2681  -1.2541  -1.2541
    -1.2503  -1.2503  -1.2403  -1.2403   0.9022   0.9022   1.2766   1.2766
     1.4044   1.4044   1.4821   1.4821   1.5318   1.5318   1.8807   1.8807
     2.0901   2.0901   2.2349   2.2349   2.3136   2.3136   2.3484   2.3484
     2.4949   2.4949   2.6253   2.6253   2.6458   2.6458   2.7491   2.7491
     2.8525   2.8525   2.9101   2.9101   3.1318   3.1318   3.1576   3.1576
     6.0887   6.0887   6.7662   6.7662   6.9508   6.9508   7.0875   7.0876
     7.2387   7.2387   7.9598   7.9599   8.2385   8.2385   8.6387   8.6387
     8.9865   8.9866   9.3205   9.3205   9.4486   9.4486   9.5905   9.5905
     9.7568   9.7568   9.8666   9.8666   9.9744   9.9744  10.0494  10.0494
    10.3705  10.3705  10.7497  10.7497  10.7752  10.7752  10.9915  10.9915
    11.1076  11.1076  11.2231  11.2231  11.3227  11.3227  11.5276  11.5276
    11.5390  11.5390  11.6222  11.6222  11.9115  11.9115  12.0457  12.0457
    12.0946  12.0946  12.2542  12.2542  12.5637  12.5637  12.7815  12.7815
    12.8386  12.8386  12.9678  12.9678  13.0246  13.0246  13.2516  13.2516
    13.4213  13.4213  13.5280  13.5280  13.5710  13.5710  13.6774  13.6774
    13.9635  13.9635  14.0519  14.0519  14.2457  14.2457  14.4228  14.4228
    14.4988  14.4988  14.6240  14.6240  14.6824  14.6824  15.1125  15.1125
    15.1441  15.1441  15.3272  15.3272  15.3992  15.3992  15.5530  15.5530
    15.8243  15.8243  15.8571  15.8571  16.0157  16.0157  16.1957  16.1957
    16.2675  16.2675  16.4827  16.4827  16.5739  16.5739  16.6788  16.6788
    16.8777  16.8777  17.0658  17.0658  17.1453  17.1453  17.2067  17.2067
    17.4172  17.4172  17.4863  17.4863  17.6282  17.6282  17.7776  17.7776
    17.9111  17.9111  18.0458  18.0458  18.0736  18.0736  18.1165  18.1165
    18.2396  18.2396  18.4205  18.4205  18.4892  18.4893  18.5379  18.5379
    18.7261  18.7262  18.8971  18.8976  19.0288  19.0290  19.0841  19.0844

          k = 0.0000 0.4625 0.3300 ( 61192 PWs)   bands (ev):

   -40.2621 -40.2621 -40.2621 -40.2621 -40.2277 -40.2277 -40.2277 -40.2277
   -40.2010 -40.2010 -40.2010 -40.2010 -40.1976 -40.1976 -40.1976 -40.1975
   -40.1975 -40.1975 -40.1975 -40.1975 -40.1656 -40.1656 -40.1656 -40.1656
   -40.1655 -40.1655 -40.1655 -40.1655 -40.1412 -40.1412 -40.1412 -40.1412
   -40.1411 -40.1411 -40.1411 -40.1411 -40.0933 -40.0933 -40.0933 -40.0933
   -40.0927 -40.0927 -40.0926 -40.0926 -40.0387 -40.0387 -40.0387 -40.0387
   -40.0387 -40.0387 -40.0387 -40.0386 -40.0384 -40.0384 -40.0384 -40.0384
   -40.0384 -40.0384 -40.0383 -40.0383 -15.9596 -15.9596 -15.9572 -15.9571
   -12.9032 -12.9032 -12.9032 -12.9031 -12.8896 -12.8896 -12.8896 -12.8895
   -12.8795 -12.8795 -12.8795 -12.8794 -12.8647 -12.8646 -12.8646 -12.8646
   -12.8574 -12.8574 -12.8574 -12.8573  -8.9497  -8.9497  -8.9473  -8.9473
    -7.9728  -7.9728  -7.9654  -7.9654  -7.7121  -7.7121  -7.6551  -7.6551
    -7.6013  -7.6013  -7.5851  -7.5851  -5.4584  -5.4584  -5.4508  -5.4508
    -5.4297  -5.4297  -5.4140  -5.4140  -3.8704  -3.8704  -3.8532  -3.8532
    -3.3239  -3.3238  -3.3216  -3.3216  -1.2609  -1.2609  -1.2585  -1.2585
    -1.2523  -1.2523  -1.2395  -1.2395   1.2520   1.2520   1.2562   1.2563
     1.3546   1.3546   1.4742   1.4742   1.5928   1.5928   1.6027   1.6028
     2.1428   2.1428   2.1772   2.1772   2.2736   2.2736   2.2759   2.2759
     2.4480   2.4480   2.5617   2.5617   2.7089   2.7089   2.7582   2.7582
     2.8465   2.8465   2.9119   2.9119   3.1326   3.1326   3.1394   3.1394
     6.7882   6.7882   6.8708   6.8708   6.9680   6.9680   7.0418   7.0418
     7.2121   7.2121   7.2665   7.2665   8.2627   8.2627   8.6565   8.6565
     8.9223   8.9223   9.2496   9.2496   9.3453   9.3453   9.6962   9.6962
     9.7268   9.7269   9.7937   9.7937   9.9966   9.9966  10.3019  10.3019
    10.5385  10.5385  10.5664  10.5664  10.7863  10.7863  11.0490  11.0491
    11.0501  11.0501  11.2481  11.2481  11.2703  11.2703  11.4487  11.4487
    11.5426  11.5426  11.7653  11.7653  11.8411  11.8411  11.9854  11.9854
    11.9967  11.9967  12.2079  12.2079  12.6157  12.6157  12.7068  12.7068
    12.8067  12.8067  12.8585  12.8585  13.1192  13.1192  13.2769  13.2769
    13.4074  13.4074  13.4418  13.4418  13.6073  13.6073  13.6818  13.6818
    14.0568  14.0568  14.1980  14.1980  14.3168  14.3168  14.3956  14.3956
    14.6129  14.6129  14.7047  14.7047  14.9496  14.9496  15.0050  15.0050
    15.2776  15.2776  15.3199  15.3199  15.6443  15.6443  15.6788  15.6789
    15.8382  15.8382  15.8492  15.8492  15.9712  15.9712  16.0488  16.0488
    16.3018  16.3018  16.5173  16.5173  16.6681  16.6681  16.7465  16.7465
    16.9225  16.9225  16.9958  16.9958  17.0265  17.0265  17.0571  17.0571
    17.1665  17.1665  17.2509  17.2509  17.4973  17.4973  17.6630  17.6630
    17.6839  17.6839  17.8074  17.8075  17.8179  17.8179  18.0607  18.0607
    18.2430  18.2430  18.2908  18.2908  18.5069  18.5069  18.6083  18.6083
    18.8645  18.8646  18.9622  18.9624  19.0266  19.0268  19.3863  19.3864

          k = 0.0000 0.4625 0.4950 ( 61222 PWs)   bands (ev):

   -40.2621 -40.2621 -40.2621 -40.2621 -40.2277 -40.2277 -40.2277 -40.2277
   -40.2010 -40.2010 -40.2010 -40.2010 -40.1976 -40.1976 -40.1976 -40.1975
   -40.1975 -40.1975 -40.1975 -40.1975 -40.1656 -40.1656 -40.1656 -40.1656
   -40.1655 -40.1655 -40.1655 -40.1655 -40.1412 -40.1412 -40.1412 -40.1412
   -40.1411 -40.1411 -40.1411 -40.1411 -40.0933 -40.0933 -40.0933 -40.0933
   -40.0927 -40.0927 -40.0926 -40.0926 -40.0387 -40.0387 -40.0387 -40.0387
   -40.0387 -40.0387 -40.0387 -40.0386 -40.0384 -40.0384 -40.0384 -40.0384
   -40.0384 -40.0384 -40.0383 -40.0383 -15.9597 -15.9596 -15.9572 -15.9571
   -12.9057 -12.9056 -12.9007 -12.9007 -12.8896 -12.8896 -12.8896 -12.8895
   -12.8796 -12.8796 -12.8794 -12.8794 -12.8648 -12.8648 -12.8645 -12.8644
   -12.8575 -12.8574 -12.8573 -12.8573  -8.9509  -8.9509  -8.9462  -8.9462
    -8.0057  -8.0057  -7.9169  -7.9169  -7.7469  -7.7468  -7.6354  -7.6354
    -7.6022  -7.6022  -7.5845  -7.5845  -5.4602  -5.4602  -5.4486  -5.4486
    -5.4341  -5.4341  -5.4108  -5.4108  -3.9950  -3.9950  -3.7141  -3.7141
    -3.3284  -3.3284  -3.3157  -3.3156  -1.2681  -1.2681  -1.2541  -1.2541
    -1.2503  -1.2503  -1.2403  -1.2403   0.9022   0.9022   1.2766   1.2766
     1.4044   1.4044   1.4821   1.4821   1.5318   1.5318   1.8807   1.8807
     2.0901   2.0901   2.2349   2.2349   2.3136   2.3136   2.3484   2.3484
     2.4949   2.4949   2.6253   2.6253   2.6458   2.6458   2.7491   2.7491
     2.8525   2.8525   2.9101   2.9101   3.1318   3.1318   3.1576   3.1576
     6.0887   6.0887   6.7662   6.7662   6.9508   6.9508   7.0875   7.0876
     7.2387   7.2387   7.9598   7.9599   8.2385   8.2385   8.6387   8.6387
     8.9865   8.9866   9.3205   9.3205   9.4486   9.4486   9.5905   9.5905
     9.7568   9.7568   9.8666   9.8666   9.9744   9.9744  10.0494  10.0494
    10.3705  10.3705  10.7497  10.7497  10.7752  10.7752  10.9915  10.9915
    11.1076  11.1076  11.2231  11.2231  11.3227  11.3227  11.5276  11.5276
    11.5390  11.5390  11.6222  11.6222  11.9115  11.9115  12.0457  12.0457
    12.0946  12.0946  12.2542  12.2542  12.5637  12.5637  12.7815  12.7815
    12.8386  12.8386  12.9678  12.9678  13.0246  13.0246  13.2516  13.2516
    13.4213  13.4213  13.5280  13.5280  13.5710  13.5710  13.6774  13.6774
    13.9635  13.9635  14.0519  14.0519  14.2457  14.2457  14.4228  14.4228
    14.4988  14.4988  14.6240  14.6240  14.6824  14.6824  15.1125  15.1125
    15.1441  15.1441  15.3272  15.3272  15.3992  15.3992  15.5530  15.5530
    15.8243  15.8243  15.8571  15.8571  16.0157  16.0157  16.1957  16.1957
    16.2675  16.2675  16.4827  16.4827  16.5739  16.5739  16.6788  16.6788
    16.8777  16.8777  17.0658  17.0658  17.1453  17.1453  17.2067  17.2067
    17.4172  17.4172  17.4863  17.4863  17.6282  17.6282  17.7776  17.7776
    17.9111  17.9111  18.0458  18.0458  18.0736  18.0736  18.1165  18.1165
    18.2396  18.2396  18.4205  18.4205  18.4892  18.4893  18.5379  18.5379
    18.7260  18.7261  18.8970  18.8972  19.0287  19.0287  19.0841  19.0843

          k = 0.0000 0.6938 0.0000 ( 61295 PWs)   bands (ev):

   -40.2621 -40.2621 -40.2621 -40.2621 -40.2277 -40.2277 -40.2277 -40.2277
   -40.2010 -40.2010 -40.2010 -40.2010 -40.1976 -40.1976 -40.1976 -40.1975
   -40.1975 -40.1975 -40.1975 -40.1975 -40.1656 -40.1656 -40.1656 -40.1655
   -40.1655 -40.1655 -40.1655 -40.1655 -40.1412 -40.1412 -40.1412 -40.1412
   -40.1412 -40.1411 -40.1411 -40.1411 -40.0933 -40.0933 -40.0933 -40.0933
   -40.0927 -40.0927 -40.0926 -40.0926 -40.0387 -40.0387 -40.0387 -40.0387
   -40.0387 -40.0387 -40.0387 -40.0386 -40.0384 -40.0384 -40.0384 -40.0384
   -40.0384 -40.0383 -40.0383 -40.0383 -15.9598 -15.9596 -15.9572 -15.9570
   -12.9080 -12.9054 -12.9010 -12.8984 -12.8935 -12.8934 -12.8859 -12.8858
   -12.8797 -12.8795 -12.8794 -12.8792 -12.8651 -12.8646 -12.8645 -12.8641
   -12.8576 -12.8574 -12.8573 -12.8572  -8.9527  -8.9465  -8.9441  -8.9419
    -8.1158  -7.9632  -7.9021  -7.7927  -7.7896  -7.7798  -7.6729  -7.6413
    -7.6253  -7.5857  -7.5668  -7.5500  -5.4651  -5.4592  -5.4479  -5.4474
    -5.4395  -5.4334  -5.4142  -5.4045  -4.3199  -3.8998  -3.7499  -3.3993
    -3.3269  -3.3213  -3.3173  -3.2586  -1.2782  -1.2594  -1.2563  -1.2531
    -1.2507  -1.2398  -1.2392  -1.2372   0.6263   0.7737   0.7984   0.9333
     0.9820   1.1316   1.7418   1.8101   1.8906   1.9112   1.9299   1.9867
     2.0388   2.1990   2.2014   2.3188   2.4509   2.4801   2.4819   2.4879
     2.5022   2.5602   2.5659   2.5665   2.6525   2.6662   2.8273   2.8296
     2.8487   2.9279   2.9425   2.9920   3.0868   3.1362   3.1740   3.3358
     5.4037   5.8317   5.8495   6.0890   6.1471   6.3531   7.6936   7.7233
     7.9265   7.9397   8.1523   8.3335   8.4552   8.6048   8.6433   8.8139
     8.9640   9.2422   9.2742   9.3019   9.3566   9.5083   9.5131   9.6284
     9.6982   9.8331   9.8497   9.9412  10.0368  10.0601  10.1502  10.1931
    10.3051  10.3533  10.5680  10.7029  10.7308  10.7517  10.7938  10.7974
    11.0744  11.1264  11.1831  11.1973  11.2505  11.2526  11.4515  11.4677
    11.5030  11.6471  11.6526  11.6665  11.7860  11.8396  11.8497  12.0020
    12.0499  12.1790  12.2998  12.3352  12.3373  12.3853  12.4242  12.4990
    12.6055  12.6613  12.7093  12.7650  12.8432  13.1029  13.1727  13.3324
    13.3681  13.4562  13.5803  13.6885  13.7487  13.7742  13.7749  13.8452
    13.8602  13.9274  14.0538  14.1548  14.1983  14.4504  14.5267  14.5844
    14.6185  14.7082  14.7245  14.7380  14.7403  14.9743  14.9973  15.0537
    15.1919  15.2212  15.2783  15.2910  15.3349  15.4290  15.6503  15.6564
    15.7008  15.8205  15.8695  15.9092  15.9702  16.1052  16.1186  16.1651
    16.1971  16.3181  16.3883  16.5044  16.5860  16.6273  16.6711  16.9345
    16.9375  16.9994  17.0505  17.1692  17.2466  17.2898  17.3263  17.3758
    17.3984  17.4520  17.5626  17.5908  17.6316  17.6871  17.7694  17.8253
    17.8318  17.8752  17.9315  18.0121  18.0678  18.0987  18.2511  18.2704
    18.2717  18.3085  18.3595  18.4469  18.5492  18.6143  18.7101  18.7447
    18.7470  18.7746  18.8257  18.9010  18.9427  19.0383  19.0967  19.1069

          k = 0.0000 0.6938 0.1650 ( 61261 PWs)   bands (ev):

   -40.2621 -40.2621 -40.2621 -40.2621 -40.2277 -40.2277 -40.2277 -40.2277
   -40.2010 -40.2010 -40.2010 -40.2010 -40.1976 -40.1976 -40.1976 -40.1975
   -40.1975 -40.1975 -40.1975 -40.1975 -40.1656 -40.1656 -40.1656 -40.1655
   -40.1655 -40.1655 -40.1655 -40.1655 -40.1412 -40.1412 -40.1412 -40.1412
   -40.1412 -40.1411 -40.1411 -40.1411 -40.0933 -40.0933 -40.0933 -40.0933
   -40.0927 -40.0927 -40.0926 -40.0926 -40.0387 -40.0387 -40.0387 -40.0387
   -40.0387 -40.0387 -40.0387 -40.0386 -40.0384 -40.0384 -40.0384 -40.0384
   -40.0384 -40.0383 -40.0383 -40.0383 -15.9598 -15.9596 -15.9572 -15.9570
   -12.9070 -12.9044 -12.9020 -12.8994 -12.8935 -12.8934 -12.8859 -12.8858
   -12.8797 -12.8795 -12.8794 -12.8792 -12.8650 -12.8646 -12.8645 -12.8642
   -12.8575 -12.8574 -12.8573 -12.8572  -8.9517  -8.9472  -8.9440  -8.9423
    -8.1007  -7.9995  -7.8927  -7.8313  -7.7531  -7.7446  -7.6780  -7.6377
    -7.6278  -7.6049  -7.5634  -7.5521  -5.4631  -5.4582  -5.4501  -5.4490
    -5.4362  -5.4299  -5.4160  -5.4073  -4.2647  -3.9687  -3.7015  -3.4465
    -3.3226  -3.3209  -3.3179  -3.2830  -1.2730  -1.2596  -1.2577  -1.2515
    -1.2500  -1.2485  -1.2363  -1.2353   0.7547   0.8634   0.8748   0.9494
     1.0461   1.1255   1.7673   1.8113   1.8553   1.8678   1.9094   1.9297
     2.0640   2.1361   2.1812   2.2243   2.3008   2.3388   2.4784   2.4942
     2.5392   2.5689   2.5929   2.6208   2.6470   2.6849   2.8012   2.8120
     2.8315   2.8560   2.9445   2.9882   3.0912   3.1180   3.1719   3.2237
     5.8919   5.9136   6.1032   6.1299   6.2598   6.3199   7.6680   7.7930
     7.7942   7.8846   8.0173   8.1733   8.2626   8.5030   8.6506   8.7460
     8.9562   9.2127   9.2414   9.2610   9.3749   9.4717   9.5269   9.6107
     9.6790   9.7626   9.8555   9.9523   9.9958  10.0671  10.1809  10.3324
    10.3508  10.3905  10.5121  10.6220  10.7209  10.7810  10.7870  11.0251
    11.0438  11.0970  11.1597  11.2532  11.2929  11.3543  11.4274  11.4555
    11.5068  11.5462  11.5770  11.6681  11.7772  11.8414  11.8656  11.9456
    11.9758  12.1564  12.1989  12.2862  12.2886  12.3956  12.4197  12.4848
    12.7466  12.7523  12.7702  12.8553  12.9917  13.1104  13.1518  13.2139
    13.2455  13.3717  13.3945  13.4458  13.7348  13.7610  13.8821  14.0104
    14.0835  14.1862  14.2025  14.2208  14.3954  14.4050  14.5499  14.6006
    14.6134  14.6907  14.7749  14.8081  14.8720  14.9515  15.0247  15.1021
    15.1840  15.2353  15.3255  15.3918  15.4081  15.4568  15.4691  15.6584
    15.7426  15.7866  15.9102  15.9346  15.9563  15.9799  16.0952  16.2087
    16.2478  16.3151  16.3644  16.4589  16.5487  16.5729  16.8132  16.8824
    16.8850  16.9303  16.9519  17.0321  17.1468  17.1775  17.2231  17.2857
    17.3401  17.4780  17.5095  17.6366  17.6420  17.7234  17.7668  17.7869
    17.8314  17.9330  17.9567  17.9668  18.0016  18.0845  18.1689  18.2549
    18.2929  18.3310  18.3818  18.4864  18.4930  18.5399  18.6189  18.6750
    18.7481  18.7503  18.8416  18.8811  19.0186  19.1169  19.1395  19.2696

          k = 0.0000 0.6938 0.3300 ( 61292 PWs)   bands (ev):

   -40.2621 -40.2621 -40.2621 -40.2621 -40.2277 -40.2277 -40.2277 -40.2277
   -40.2010 -40.2010 -40.2010 -40.2010 -40.1976 -40.1976 -40.1976 -40.1975
   -40.1975 -40.1975 -40.1975 -40.1975 -40.1656 -40.1656 -40.1656 -40.1655
   -40.1655 -40.1655 -40.1655 -40.1655 -40.1412 -40.1412 -40.1412 -40.1412
   -40.1412 -40.1411 -40.1411 -40.1411 -40.0933 -40.0933 -40.0933 -40.0933
   -40.0927 -40.0927 -40.0926 -40.0926 -40.0387 -40.0387 -40.0387 -40.0387
   -40.0387 -40.0387 -40.0387 -40.0386 -40.0384 -40.0384 -40.0384 -40.0384
   -40.0384 -40.0383 -40.0383 -40.0383 -15.9597 -15.9597 -15.9571 -15.9571
   -12.9045 -12.9045 -12.9019 -12.9019 -12.8935 -12.8934 -12.8858 -12.8858
   -12.8796 -12.8796 -12.8793 -12.8793 -12.8648 -12.8648 -12.8644 -12.8644
   -12.8575 -12.8575 -12.8573 -12.8572  -8.9494  -8.9494  -8.9432  -8.9432
    -8.0582  -8.0582  -7.8674  -7.8674  -7.7250  -7.7250  -7.6541  -7.6541
    -7.6312  -7.6312  -7.5574  -7.5574  -5.4585  -5.4585  -5.4520  -5.4519
    -5.4293  -5.4293  -5.4144  -5.4144  -4.1235  -4.1234  -3.5769  -3.5768
    -3.3197  -3.3197  -3.3093  -3.3093  -1.2613  -1.2612  -1.2591  -1.2591
    -1.2498  -1.2497  -1.2350  -1.2350   0.8453   0.8453   0.9855   0.9855
     1.3902   1.3902   1.4907   1.4907   1.8227   1.8227   1.9060   1.9060
     2.0357   2.0357   2.1942   2.1942   2.2634   2.2635   2.4478   2.4478
     2.5471   2.5472   2.6250   2.6250   2.7306   2.7306   2.7771   2.7771
     2.7996   2.7997   2.9673   2.9673   3.1009   3.1010   3.1738   3.1739
     5.9960   5.9961   6.2155   6.2155   6.9190   6.9190   7.1856   7.1856
     7.8394   7.8394   7.8976   7.8977   8.3163   8.3163   8.7350   8.7350
     9.0559   9.0559   9.2502   9.2502   9.3093   9.3093   9.6141   9.6141
     9.8140   9.8140   9.8984   9.8984  10.0255  10.0255  10.1582  10.1582
    10.4072  10.4073  10.5691  10.5691  10.8269  10.8269  10.9365  10.9365
    11.0971  11.0971  11.1901  11.1901  11.3004  11.3004  11.4488  11.4488
    11.6086  11.6086  11.6174  11.6174  11.7421  11.7421  11.7984  11.7984
    12.1061  12.1062  12.1989  12.1989  12.3539  12.3539  12.5721  12.5721
    12.6403  12.6404  12.9364  12.9364  13.0015  13.0015  13.0445  13.0445
    13.1652  13.1653  13.5348  13.5348  13.7421  13.7421  14.0669  14.0669
    14.1615  14.1615  14.3846  14.3847  14.4740  14.4740  14.6538  14.6538
    14.7028  14.7028  14.8352  14.8352  14.9179  14.9180  14.9972  14.9972
    15.2015  15.2015  15.4209  15.4209  15.4825  15.4825  15.6152  15.6152
    15.6990  15.6990  15.9274  15.9274  16.0161  16.0161  16.1516  16.1516
    16.1813  16.1813  16.5141  16.5141  16.6497  16.6497  16.7394  16.7394
    16.9070  16.9070  16.9977  16.9977  17.0516  17.0517  17.2468  17.2468
    17.4491  17.4491  17.5059  17.5059  17.5680  17.5680  17.6216  17.6216
    17.6929  17.6929  17.9590  17.9590  18.0919  18.0919  18.1127  18.1127
    18.2552  18.2552  18.2922  18.2923  18.3915  18.3915  18.6676  18.6676
    18.9058  18.9058  18.9714  18.9715  19.0847  19.0847  19.3164  19.3165

          k = 0.0000 0.6938 0.4950 ( 61261 PWs)   bands (ev):

   -40.2621 -40.2621 -40.2621 -40.2621 -40.2277 -40.2277 -40.2277 -40.2277
   -40.2010 -40.2010 -40.2010 -40.2010 -40.1976 -40.1976 -40.1976 -40.1975
   -40.1975 -40.1975 -40.1975 -40.1975 -40.1656 -40.1656 -40.1656 -40.1655
   -40.1655 -40.1655 -40.1655 -40.1655 -40.1412 -40.1412 -40.1412 -40.1412
   -40.1412 -40.1411 -40.1411 -40.1411 -40.0933 -40.0933 -40.0933 -40.0933
   -40.0927 -40.0927 -40.0926 -40.0926 -40.0387 -40.0387 -40.0387 -40.0387
   -40.0387 -40.0387 -40.0387 -40.0386 -40.0384 -40.0384 -40.0384 -40.0384
   -40.0384 -40.0383 -40.0383 -40.0383 -15.9598 -15.9596 -15.9572 -15.9570
   -12.9070 -12.9044 -12.9020 -12.8994 -12.8935 -12.8934 -12.8859 -12.8858
   -12.8797 -12.8795 -12.8794 -12.8792 -12.8650 -12.8646 -12.8645 -12.8642
   -12.8575 -12.8574 -12.8573 -12.8572  -8.9517  -8.9472  -8.9440  -8.9423
    -8.1007  -7.9995  -7.8927  -7.8313  -7.7531  -7.7446  -7.6780  -7.6377
    -7.6278  -7.6049  -7.5634  -7.5521  -5.4631  -5.4582  -5.4501  -5.4490
    -5.4362  -5.4299  -5.4160  -5.4073  -4.2647  -3.9687  -3.7015  -3.4465
    -3.3226  -3.3209  -3.3179  -3.2830  -1.2730  -1.2596  -1.2577  -1.2515
    -1.2500  -1.2485  -1.2363  -1.2353   0.7547   0.8634   0.8748   0.9494
     1.0461   1.1255   1.7673   1.8113   1.8553   1.8678   1.9094   1.9297
     2.0640   2.1361   2.1812   2.2243   2.3008   2.3388   2.4784   2.4942
     2.5392   2.5689   2.5929   2.6208   2.6470   2.6849   2.8012   2.8120
     2.8315   2.8560   2.9445   2.9882   3.0912   3.1180   3.1719   3.2237
     5.8919   5.9136   6.1032   6.1299   6.2598   6.3199   7.6680   7.7930
     7.7942   7.8846   8.0173   8.1733   8.2626   8.5030   8.6506   8.7460
     8.9562   9.2127   9.2414   9.2610   9.3749   9.4717   9.5269   9.6107
     9.6790   9.7626   9.8555   9.9523   9.9958  10.0671  10.1809  10.3324
    10.3508  10.3905  10.5121  10.6220  10.7209  10.7810  10.7870  11.0251
    11.0438  11.0970  11.1597  11.2532  11.2929  11.3543  11.4274  11.4555
    11.5068  11.5462  11.5770  11.6681  11.7772  11.8414  11.8656  11.9456
    11.9758  12.1564  12.1989  12.2862  12.2886  12.3956  12.4197  12.4848
    12.7466  12.7523  12.7702  12.8553  12.9917  13.1104  13.1518  13.2139
    13.2455  13.3717  13.3945  13.4458  13.7348  13.7610  13.8821  14.0104
    14.0835  14.1862  14.2025  14.2208  14.3954  14.4050  14.5499  14.6006
    14.6134  14.6907  14.7749  14.8081  14.8720  14.9515  15.0247  15.1021
    15.1840  15.2353  15.3255  15.3918  15.4081  15.4568  15.4691  15.6584
    15.7426  15.7866  15.9102  15.9346  15.9563  15.9799  16.0952  16.2087
    16.2478  16.3151  16.3644  16.4589  16.5487  16.5729  16.8132  16.8824
    16.8850  16.9303  16.9519  17.0321  17.1468  17.1775  17.2231  17.2857
    17.3401  17.4780  17.5095  17.6366  17.6420  17.7234  17.7668  17.7869
    17.8314  17.9330  17.9567  17.9668  18.0016  18.0845  18.1689  18.2549
    18.2929  18.3310  18.3818  18.4864  18.4930  18.5400  18.6189  18.6750
    18.7481  18.7503  18.8416  18.8811  19.0185  19.1169  19.1394  19.2836

          k = 0.2500 0.0000 0.0000 ( 61305 PWs)   bands (ev):

   -40.2621 -40.2621 -40.2621 -40.2621 -40.2277 -40.2277 -40.2277 -40.2277
   -40.2010 -40.2010 -40.2010 -40.2010 -40.1976 -40.1976 -40.1976 -40.1975
   -40.1975 -40.1975 -40.1975 -40.1975 -40.1656 -40.1656 -40.1656 -40.1656
   -40.1655 -40.1655 -40.1655 -40.1655 -40.1412 -40.1412 -40.1412 -40.1412
   -40.1412 -40.1411 -40.1411 -40.1411 -40.0933 -40.0933 -40.0933 -40.0933
   -40.0927 -40.0927 -40.0926 -40.0926 -40.0387 -40.0387 -40.0387 -40.0387
   -40.0387 -40.0387 -40.0387 -40.0387 -40.0384 -40.0384 -40.0384 -40.0384
   -40.0384 -40.0383 -40.0383 -40.0383 -15.9595 -15.9592 -15.9576 -15.9573
   -12.9080 -12.9054 -12.9010 -12.8984 -12.8935 -12.8934 -12.8859 -12.8858
   -12.8797 -12.8795 -12.8794 -12.8792 -12.8651 -12.8646 -12.8645 -12.8641
   -12.8576 -12.8574 -12.8573 -12.8572  -8.9512  -8.9452  -8.9431  -8.9412
    -8.1208  -7.9523  -7.9113  -7.7854  -7.7844  -7.7200  -7.7151  -7.6925
    -7.6082  -7.5805  -7.5740  -7.5612  -5.4611  -5.4533  -5.4467  -5.4440
    -5.4400  -5.4323  -5.4134  -5.4032  -4.3167  -3.8906  -3.7458  -3.3860
    -3.3238  -3.3184  -3.3164  -3.2623  -1.2756  -1.2626  -1.2618  -1.2583
    -1.2559  -1.2529  -1.2472  -1.2371   0.6235   0.7196   0.7410   0.9436
     1.0429   1.2083   1.7552   1.8490   1.9095   1.9203   1.9549   2.0218
     2.0401   2.0956   2.1847   2.2773   2.4491   2.4750   2.4984   2.5377
     2.5864   2.5952   2.6014   2.6188   2.6676   2.7432   2.7464   2.7491
     2.8163   2.8576   2.8858   3.0090   3.0100   3.0639   3.1216   3.2656
     5.4042   5.8311   5.9557   6.0012   6.2456   6.2855   7.7161   7.7741
     7.9525   8.0829   8.1147   8.3363   8.5475   8.6704   8.8719   8.8769
     9.1084   9.2134   9.2662   9.3036   9.4920   9.5527   9.5738   9.7647
     9.8288   9.8607   9.9114   9.9817  10.0105  10.0809  10.1499  10.1850
    10.3304  10.3611  10.4277  10.6323  10.6564  10.7116  10.7513  10.8598
    10.9152  10.9808  10.9882  11.0477  11.1912  11.2744  11.3616  11.3809
    11.4512  11.4597  11.6443  11.7359  11.7547  11.7952  11.9141  11.9317
    11.9341  11.9685  12.0741  12.0994  12.1462  12.3740  12.4232  12.5174
    12.5633  12.6192  12.7567  12.9259  12.9486  13.0085  13.1746  13.2581
    13.3006  13.3285  13.6423  13.6539  13.7019  13.7486  13.7938  13.9295
    13.9777  14.0084  14.1040  14.3481  14.3497  14.4121  14.4623  14.5058
    14.7964  14.8021  14.9006  14.9253  15.0145  15.0317  15.0793  15.1024
    15.2441  15.2692  15.2863  15.3895  15.4261  15.5520  15.6965  15.8301
    15.8777  15.9094  15.9519  15.9678  16.0110  16.0361  16.1590  16.2441
    16.2797  16.2874  16.4912  16.5124  16.5775  16.6672  16.7193  16.7930
    16.8482  16.8914  16.9477  17.0576  17.0630  17.1532  17.1900  17.2166
    17.3321  17.3948  17.4423  17.5247  17.5628  17.6137  17.6525  17.7109
    17.7163  17.7722  17.8209  17.8762  18.0632  18.0811  18.1062  18.1887
    18.3305  18.3735  18.4548  18.4636  18.4963  18.5225  18.5664  18.6943
    18.7489  18.7557  18.7833  18.8838  18.9179  18.9667  19.0373  19.0744

          k = 0.2500 0.0000 0.1650 ( 61277 PWs)   bands (ev):

   -40.2621 -40.2621 -40.2621 -40.2621 -40.2277 -40.2277 -40.2277 -40.2277
   -40.2010 -40.2010 -40.2010 -40.2010 -40.1976 -40.1976 -40.1976 -40.1975
   -40.1975 -40.1975 -40.1975 -40.1975 -40.1656 -40.1656 -40.1656 -40.1656
   -40.1655 -40.1655 -40.1655 -40.1655 -40.1412 -40.1412 -40.1412 -40.1412
   -40.1412 -40.1411 -40.1411 -40.1411 -40.0933 -40.0933 -40.0933 -40.0933
   -40.0927 -40.0927 -40.0926 -40.0926 -40.0387 -40.0387 -40.0387 -40.0387
   -40.0387 -40.0387 -40.0387 -40.0387 -40.0384 -40.0384 -40.0384 -40.0384
   -40.0384 -40.0383 -40.0383 -40.0383 -15.9595 -15.9593 -15.9575 -15.9573
   -12.9070 -12.9044 -12.9020 -12.8994 -12.8935 -12.8934 -12.8859 -12.8858
   -12.8797 -12.8795 -12.8794 -12.8792 -12.8650 -12.8646 -12.8646 -12.8642
   -12.8575 -12.8574 -12.8573 -12.8572  -8.9503  -8.9461  -8.9428  -8.9415
    -8.1045  -7.9938  -7.8990  -7.8173  -7.7483  -7.7181  -7.6869  -7.6857
    -7.6188  -7.5934  -7.5767  -7.5636  -5.4594  -5.4522  -5.4492  -5.4457
    -5.4357  -5.4273  -5.4172  -5.4067  -4.2604  -3.9604  -3.6965  -3.4348
    -3.3200  -3.3182  -3.3167  -3.2855  -1.2711  -1.2655  -1.2650  -1.2565
    -1.2539  -1.2511  -1.2474  -1.2406   0.7400   0.8036   0.8161   1.0371
     1.0600   1.1934   1.7850   1.8165   1.8630   1.8955   1.9212   2.0221
     2.0676   2.0750   2.1091   2.2205   2.2654   2.4235   2.4338   2.4640
     2.5583   2.5916   2.6412   2.6752   2.6785   2.7557   2.7645   2.7901
     2.8184   2.8604   2.8716   2.9981   3.0024   3.0452   3.0903   3.1080
     5.9076   6.0038   6.0423   6.2096   6.2402   6.2710   7.6961   7.7998
     7.8362   8.0234   8.0556   8.1513   8.2765   8.6081   8.7039   8.9530
     9.0287   9.2268   9.3376   9.3925   9.4051   9.5029   9.6623   9.6694
     9.7621   9.7772   9.8155  10.0079  10.0709  10.1250  10.1460  10.2498
    10.4331  10.4753  10.4845  10.5499  10.6063  10.6234  10.7166  10.8897
    10.9306  10.9807  11.0353  11.0521  11.2207  11.2952  11.3215  11.3994
    11.4184  11.5015  11.6850  11.7018  11.7289  11.7387  11.7769  11.8193
    11.9631  12.0803  12.0938  12.1885  12.2605  12.2902  12.4107  12.5254
    12.5922  12.6316  12.7190  12.8411  12.9215  13.0083  13.1493  13.1768
    13.3725  13.4440  13.6520  13.6541  13.7445  13.8963  13.9613  14.0172
    14.0757  14.1446  14.1495  14.2320  14.4101  14.4491  14.5188  14.6317
    14.6681  14.7882  14.7939  14.8638  14.9515  14.9912  15.0786  15.2205
    15.2529  15.2584  15.3613  15.5004  15.5294  15.5860  15.6959  15.7991
    15.8498  15.8947  15.9585  16.0814  16.1079  16.1459  16.1858  16.2359
    16.2710  16.4105  16.4887  16.5260  16.5952  16.6043  16.6363  16.7072
    16.7264  16.7901  16.8885  16.9173  17.0424  17.0728  17.0761  17.1508
    17.1941  17.3173  17.3375  17.3553  17.4656  17.4761  17.6495  17.6856
    17.6961  17.7295  17.8723  17.9211  17.9385  18.0886  18.1210  18.1894
    18.1985  18.2206  18.3035  18.4201  18.4425  18.5971  18.6699  18.7257
    18.8186  18.9106  18.9526  18.9730  19.0663  19.1498  19.2304  19.2695

          k = 0.2500 0.0000 0.3300 ( 61242 PWs)   bands (ev):

   -40.2621 -40.2621 -40.2621 -40.2621 -40.2277 -40.2277 -40.2277 -40.2277
   -40.2010 -40.2010 -40.2010 -40.2010 -40.1976 -40.1976 -40.1976 -40.1975
   -40.1975 -40.1975 -40.1975 -40.1975 -40.1656 -40.1656 -40.1656 -40.1656
   -40.1655 -40.1655 -40.1655 -40.1655 -40.1412 -40.1412 -40.1412 -40.1412
   -40.1412 -40.1411 -40.1411 -40.1411 -40.0933 -40.0933 -40.0933 -40.0933
   -40.0927 -40.0927 -40.0926 -40.0926 -40.0387 -40.0387 -40.0387 -40.0387
   -40.0387 -40.0387 -40.0387 -40.0387 -40.0384 -40.0384 -40.0384 -40.0384
   -40.0384 -40.0383 -40.0383 -40.0383 -15.9594 -15.9594 -15.9574 -15.9574
   -12.9045 -12.9044 -12.9019 -12.9018 -12.8935 -12.8934 -12.8859 -12.8858
   -12.8796 -12.8796 -12.8793 -12.8793 -12.8648 -12.8648 -12.8644 -12.8644
   -12.8575 -12.8575 -12.8573 -12.8572  -8.9482  -8.9482  -8.9422  -8.9421
    -8.0584  -8.0584  -7.8647  -7.8647  -7.7203  -7.7203  -7.6464  -7.6463
    -7.6439  -7.6439  -7.5697  -7.5697  -5.4547  -5.4547  -5.4491  -5.4491
    -5.4262  -5.4261  -5.4162  -5.4162  -4.1170  -4.1169  -3.5693  -3.5692
    -3.3175  -3.3175  -3.3084  -3.3084  -1.2672  -1.2672  -1.2616  -1.2616
    -1.2507  -1.2506  -1.2462  -1.2462   0.7899   0.7899   1.0609   1.0609
     1.3841   1.3841   1.5006   1.5006   1.8545   1.8546   1.9008   1.9008
     2.0692   2.0692   2.1252   2.1252   2.2987   2.2987   2.4139   2.4139
     2.5664   2.5664   2.6606   2.6606   2.7559   2.7559   2.7929   2.7929
     2.8465   2.8465   2.9198   2.9198   3.0057   3.0058   3.0560   3.0561
     6.0983   6.0984   6.1432   6.1433   6.9310   6.9310   7.1920   7.1920
     7.8231   7.8231   8.0024   8.0024   8.3811   8.3811   8.7923   8.7923
     9.2390   9.2390   9.3070   9.3070   9.4734   9.4734   9.5875   9.5876
     9.6787   9.6787  10.0433  10.0433  10.1339  10.1339  10.2185  10.2185
    10.3585  10.3585  10.5209  10.5209  10.6217  10.6217  10.9113  10.9113
    10.9946  10.9946  11.0065  11.0065  11.1649  11.1649  11.3463  11.3463
    11.5197  11.5197  11.6367  11.6367  11.6895  11.6895  11.8136  11.8136
    12.0483  12.0483  12.2353  12.2353  12.2661  12.2661  12.5234  12.5235
    12.5459  12.5459  12.6537  12.6537  12.9459  12.9459  13.3193  13.3193
    13.4440  13.4441  13.7604  13.7604  13.7703  13.7703  13.9096  13.9096
    14.1523  14.1523  14.3206  14.3207  14.4120  14.4120  14.6173  14.6173
    14.6515  14.6515  14.8057  14.8057  15.0054  15.0055  15.3013  15.3013
    15.3875  15.3875  15.5600  15.5600  15.6885  15.6885  15.7109  15.7109
    15.7975  15.7975  15.9532  15.9532  16.1012  16.1012  16.2108  16.2108
    16.2861  16.2861  16.5183  16.5183  16.6089  16.6090  16.7517  16.7517
    16.7947  16.7947  16.8176  16.8176  17.0088  17.0089  17.0504  17.0504
    17.0980  17.0980  17.2403  17.2403  17.4822  17.4822  17.4963  17.4963
    17.6454  17.6454  17.7885  17.7885  17.8182  17.8182  18.0430  18.0431
    18.2564  18.2564  18.4494  18.4494  18.5032  18.5032  18.7378  18.7379
    18.9039  18.9040  18.9134  18.9136  19.1326  19.1326  19.2578  19.2580

          k = 0.2500 0.0000 0.4950 ( 61277 PWs)   bands (ev):

   -40.2621 -40.2621 -40.2621 -40.2621 -40.2277 -40.2277 -40.2277 -40.2277
   -40.2010 -40.2010 -40.2010 -40.2010 -40.1976 -40.1976 -40.1976 -40.1975
   -40.1975 -40.1975 -40.1975 -40.1975 -40.1656 -40.1656 -40.1656 -40.1656
   -40.1655 -40.1655 -40.1655 -40.1655 -40.1412 -40.1412 -40.1412 -40.1412
   -40.1412 -40.1411 -40.1411 -40.1411 -40.0933 -40.0933 -40.0933 -40.0933
   -40.0927 -40.0927 -40.0926 -40.0926 -40.0387 -40.0387 -40.0387 -40.0387
   -40.0387 -40.0387 -40.0387 -40.0387 -40.0384 -40.0384 -40.0384 -40.0384
   -40.0384 -40.0383 -40.0383 -40.0383 -15.9595 -15.9593 -15.9575 -15.9573
   -12.9070 -12.9044 -12.9020 -12.8994 -12.8935 -12.8934 -12.8859 -12.8858
   -12.8797 -12.8795 -12.8794 -12.8792 -12.8650 -12.8646 -12.8646 -12.8642
   -12.8575 -12.8574 -12.8573 -12.8572  -8.9503  -8.9461  -8.9428  -8.9415
    -8.1045  -7.9938  -7.8990  -7.8173  -7.7483  -7.7181  -7.6869  -7.6857
    -7.6188  -7.5934  -7.5767  -7.5636  -5.4594  -5.4522  -5.4492  -5.4457
    -5.4357  -5.4273  -5.4172  -5.4067  -4.2604  -3.9604  -3.6965  -3.4348
    -3.3200  -3.3182  -3.3167  -3.2855  -1.2711  -1.2655  -1.2650  -1.2565
    -1.2539  -1.2511  -1.2474  -1.2406   0.7400   0.8036   0.8161   1.0371
     1.0600   1.1934   1.7850   1.8165   1.8630   1.8955   1.9213   2.0221
     2.0675   2.0750   2.1091   2.2205   2.2654   2.4235   2.4338   2.4640
     2.5583   2.5916   2.6412   2.6752   2.6785   2.7557   2.7645   2.7901
     2.8184   2.8604   2.8716   2.9980   3.0024   3.0451   3.0903   3.1080
     5.9076   6.0038   6.0423   6.2096   6.2402   6.2710   7.6961   7.7997
     7.8362   8.0234   8.0556   8.1513   8.2765   8.6081   8.7039   8.9530
     9.0287   9.2268   9.3376   9.3925   9.4051   9.5029   9.6623   9.6694
     9.7621   9.7772   9.8155  10.0079  10.0709  10.1250  10.1460  10.2498
    10.4331  10.4753  10.4845  10.5499  10.6063  10.6234  10.7166  10.8897
    10.9306  10.9807  11.0353  11.0521  11.2207  11.2952  11.3215  11.3995
    11.4184  11.5015  11.6850  11.7018  11.7289  11.7386  11.7769  11.8193
    11.9631  12.0803  12.0939  12.1885  12.2605  12.2902  12.4107  12.5254
    12.5922  12.6316  12.7190  12.8411  12.9215  13.0083  13.1493  13.1768
    13.3725  13.4440  13.6520  13.6541  13.7446  13.8963  13.9613  14.0172
    14.0757  14.1445  14.1495  14.2321  14.4101  14.4491  14.5188  14.6317
    14.6681  14.7883  14.7939  14.8638  14.9515  14.9912  15.0787  15.2205
    15.2529  15.2584  15.3613  15.5004  15.5294  15.5860  15.6959  15.7991
    15.8498  15.8947  15.9585  16.0814  16.1079  16.1459  16.1858  16.2359
    16.2710  16.4105  16.4887  16.5260  16.5952  16.6043  16.6363  16.7072
    16.7264  16.7901  16.8885  16.9173  17.0424  17.0728  17.0761  17.1508
    17.1941  17.3174  17.3375  17.3553  17.4656  17.4760  17.6495  17.6856
    17.6961  17.7295  17.8723  17.9211  17.9385  18.0886  18.1210  18.1894
    18.1985  18.2206  18.3035  18.4201  18.4425  18.5971  18.6699  18.7257
    18.8186  18.9106  18.9526  18.9729  19.0662  19.1495  19.2302  19.2693

          k = 0.2500 0.2313 0.0000 ( 61299 PWs)   bands (ev):

   -40.2621 -40.2621 -40.2621 -40.2621 -40.2277 -40.2277 -40.2277 -40.2277
   -40.2010 -40.2010 -40.2010 -40.2010 -40.1976 -40.1976 -40.1976 -40.1975
   -40.1975 -40.1975 -40.1975 -40.1975 -40.1656 -40.1656 -40.1656 -40.1656
   -40.1655 -40.1655 -40.1655 -40.1655 -40.1412 -40.1412 -40.1412 -40.1412
   -40.1412 -40.1411 -40.1411 -40.1411 -40.0933 -40.0933 -40.0933 -40.0933
   -40.0927 -40.0927 -40.0926 -40.0926 -40.0387 -40.0387 -40.0387 -40.0387
   -40.0387 -40.0387 -40.0387 -40.0387 -40.0384 -40.0384 -40.0384 -40.0384
   -40.0384 -40.0383 -40.0383 -40.0383 -15.9594 -15.9592 -15.9576 -15.9574
   -12.9078 -12.9059 -12.9009 -12.8990 -12.8922 -12.8920 -12.8868 -12.8867
   -12.8797 -12.8795 -12.8794 -12.8792 -12.8650 -12.8647 -12.8645 -12.8642
   -12.8575 -12.8574 -12.8573 -12.8572  -8.9526  -8.9475  -8.9459  -8.9437
    -8.0864  -7.9300  -7.9217  -7.7927  -7.7810  -7.7584  -7.6957  -7.6954
    -7.6154  -7.6001  -7.5816  -7.5447  -5.4585  -5.4535  -5.4468  -5.4441
    -5.4396  -5.4348  -5.4106  -5.4040  -4.2323  -3.8290  -3.8121  -3.4455
    -3.3294  -3.3255  -3.3205  -3.2922  -1.2759  -1.2666  -1.2645  -1.2623
    -1.2601  -1.2523  -1.2499  -1.2375   0.6338   0.7417   0.7470   0.9440
     1.2863   1.4530   1.4657   1.6133   1.8328   1.8889   1.9161   1.9966
     2.0828   2.1860   2.2879   2.3981   2.3986   2.4479   2.4789   2.4945
     2.5335   2.5654   2.6031   2.6397   2.6884   2.7059   2.7701   2.8223
     2.8225   2.8351   2.9157   2.9707   2.9837   3.0758   3.1130   3.2670
     5.4678   5.6359   5.7560   5.9559   6.8206   7.0471   7.0824   7.2563
     7.9849   8.0793   8.2813   8.3957   8.4533   8.6531   8.6578   8.8291
     9.0000   9.2023   9.2333   9.4051   9.5111   9.5856   9.6506   9.7467
     9.7556   9.8035   9.8747   9.9767   9.9791  10.0494  10.1107  10.1369
    10.2666  10.3275  10.5611  10.6794  10.6822  10.7865  10.8616  10.8718
    10.8789  10.9852  11.0406  11.1435  11.1464  11.3175  11.3667  11.3755
    11.4611  11.5890  11.6274  11.6403  11.8092  11.8268  11.8740  11.9752
    12.0312  12.1095  12.1918  12.2152  12.4066  12.4092  12.4487  12.5866
    12.7862  12.8276  12.8588  12.9208  13.0055  13.0237  13.1156  13.2175
    13.4328  13.5293  13.5691  13.6223  13.7275  13.7463  13.8137  13.8482
    14.0126  14.0196  14.1162  14.1898  14.2255  14.2610  14.4693  14.5721
    14.6405  14.6667  14.6990  14.7153  14.8024  14.8456  14.9755  14.9816
    15.0976  15.1776  15.2848  15.3244  15.3562  15.4348  15.4864  15.5017
    15.5922  15.7697  15.7716  15.8555  15.9195  16.0606  16.1245  16.2101
    16.2672  16.3459  16.3717  16.4176  16.5609  16.6449  16.7131  16.7776
    16.8763  16.9348  16.9637  17.0107  17.0862  17.1291  17.1695  17.2578
    17.2744  17.4572  17.4868  17.5116  17.6223  17.6947  17.7377  17.7988
    17.8832  17.9311  17.9918  18.0344  18.0440  18.2288  18.2572  18.2894
    18.3443  18.3507  18.5724  18.5958  18.5999  18.6828  18.7638  18.8125
    18.8960  18.9394  18.9460  18.9995  19.0130  19.0388  19.1529  19.2281

          k = 0.2500 0.2313 0.1650 ( 61272 PWs)   bands (ev):

   -40.2621 -40.2621 -40.2621 -40.2621 -40.2277 -40.2277 -40.2277 -40.2277
   -40.2010 -40.2010 -40.2010 -40.2010 -40.1976 -40.1976 -40.1976 -40.1975
   -40.1975 -40.1975 -40.1975 -40.1975 -40.1656 -40.1656 -40.1656 -40.1656
   -40.1655 -40.1655 -40.1655 -40.1655 -40.1412 -40.1412 -40.1412 -40.1412
   -40.1412 -40.1411 -40.1411 -40.1411 -40.0933 -40.0933 -40.0933 -40.0933
   -40.0927 -40.0927 -40.0926 -40.0926 -40.0387 -40.0387 -40.0387 -40.0387
   -40.0387 -40.0387 -40.0387 -40.0387 -40.0384 -40.0384 -40.0384 -40.0384
[...]
   -40.1412 -40.1411 -40.1411 -40.1411 -40.0933 -40.0933 -40.0933 -40.0933
   -40.0927 -40.0927 -40.0926 -40.0926 -40.0387 -40.0387 -40.0387 -40.0387
   -40.0387 -40.0387 -40.0387 -40.0387 -40.0384 -40.0384 -40.0384 -40.0384
   -40.0384 -40.0383 -40.0383 -40.0383 -15.9593 -15.9593 -15.9575 -15.9575
   -12.9036 -12.9035 -12.9035 -12.9035 -12.8893 -12.8893 -12.8892 -12.8892
   -12.8795 -12.8795 -12.8795 -12.8794 -12.8647 -12.8646 -12.8646 -12.8646
   -12.8574 -12.8574 -12.8574 -12.8573  -8.9505  -8.9504  -8.9488  -8.9488
    -7.9537  -7.9537  -7.9443  -7.9443  -7.7295  -7.7295  -7.6815  -7.6814
    -7.6035  -7.6034  -7.5881  -7.5881  -5.4533  -5.4533  -5.4489  -5.4489
    -5.4267  -5.4267  -5.4153  -5.4153  -3.8482  -3.8482  -3.8355  -3.8355
    -3.3281  -3.3281  -3.3265  -3.3265  -1.2700  -1.2699  -1.2643  -1.2643
    -1.2560  -1.2559  -1.2499  -1.2499   1.0051   1.0051   1.0321   1.0321
     1.4403   1.4403   1.4434   1.4434   1.7417   1.7417   1.8081   1.8081
     2.1136   2.1136   2.1469   2.1469   2.3818   2.3818   2.4029   2.4029
     2.5692   2.5692   2.6796   2.6797   2.7231   2.7231   2.7782   2.7782
     2.8677   2.8677   2.9014   2.9014   2.9614   2.9615   2.9971   2.9971
     6.2620   6.2620   6.2656   6.2656   7.0209   7.0210   7.0430   7.0430
     7.8078   7.8078   7.8264   7.8264   8.3110   8.3110   8.5972   8.5973
     9.0181   9.0182   9.4093   9.4093   9.5438   9.5438   9.6233   9.6233
     9.8318   9.8318   9.8864   9.8864  10.0469  10.0469  10.0572  10.0572
    10.4445  10.4445  10.5674  10.5674  10.6612  10.6612  10.7759  10.7759
    11.0799  11.0799  11.1594  11.1594  11.2610  11.2610  11.3742  11.3742
    11.6059  11.6059  11.7087  11.7087  11.7515  11.7515  11.9256  11.9256
    12.1321  12.1321  12.3263  12.3263  12.6275  12.6275  12.6729  12.6729
    12.8227  12.8227  12.9673  12.9673  13.1679  13.1679  13.1680  13.1680
    13.4859  13.4859  13.4861  13.4861  13.6765  13.6765  13.7481  13.7481
    13.9330  13.9330  14.0087  14.0087  14.4519  14.4520  14.5654  14.5654
    14.6511  14.6511  14.7081  14.7081  14.9154  14.9154  14.9819  14.9819
    15.1964  15.1964  15.2244  15.2244  15.5416  15.5416  15.5505  15.5505
    15.6442  15.6442  15.7745  15.7745  15.9746  15.9746  15.9834  15.9834
    16.1844  16.1844  16.3258  16.3258  16.5092  16.5092  16.7036  16.7037
    16.7389  16.7389  16.8023  16.8023  17.0249  17.0249  17.0303  17.0303
    17.2846  17.2846  17.3828  17.3828  17.6585  17.6585  17.6696  17.6696
    17.8163  17.8163  18.0515  18.0515  18.1700  18.1701  18.3123  18.3123
    18.4468  18.4468  18.4872  18.4872  18.6849  18.6849  18.7115  18.7115
    18.8260  18.8261  18.9926  18.9927  19.1200  19.1201  19.1851  19.1851

          k = 0.7500 0.4625 0.4950 ( 61278 PWs)   bands (ev):

   -40.2621 -40.2621 -40.2621 -40.2621 -40.2277 -40.2277 -40.2277 -40.2277
   -40.2010 -40.2010 -40.2010 -40.2010 -40.1976 -40.1976 -40.1976 -40.1975
   -40.1975 -40.1975 -40.1975 -40.1975 -40.1656 -40.1656 -40.1656 -40.1655
   -40.1655 -40.1655 -40.1655 -40.1655 -40.1412 -40.1412 -40.1412 -40.1412
   -40.1412 -40.1411 -40.1411 -40.1411 -40.0933 -40.0933 -40.0933 -40.0933
   -40.0927 -40.0927 -40.0926 -40.0926 -40.0387 -40.0387 -40.0387 -40.0387
   -40.0387 -40.0387 -40.0387 -40.0387 -40.0384 -40.0384 -40.0384 -40.0384
   -40.0384 -40.0383 -40.0383 -40.0383 -15.9593 -15.9593 -15.9575 -15.9575
   -12.9060 -12.9059 -12.9011 -12.9011 -12.8894 -12.8893 -12.8892 -12.8891
   -12.8796 -12.8795 -12.8794 -12.8793 -12.8648 -12.8648 -12.8645 -12.8644
   -12.8574 -12.8574 -12.8573 -12.8573  -8.9517  -8.9517  -8.9475  -8.9475
    -7.9897  -7.9897  -7.8900  -7.8900  -7.7510  -7.7510  -7.6751  -7.6751
    -7.6316  -7.6315  -7.5631  -7.5631  -5.4543  -5.4543  -5.4470  -5.4470
    -5.4333  -5.4333  -5.4099  -5.4099  -3.9776  -3.9776  -3.6912  -3.6912
    -3.3320  -3.3320  -3.3218  -3.3217  -1.2709  -1.2709  -1.2664  -1.2663
    -1.2601  -1.2601  -1.2443  -1.2443   0.8654   0.8655   1.0102   1.0102
     1.1518   1.1518   1.7063   1.7063   1.8244   1.8244   1.8694   1.8694
     2.1052   2.1052   2.2543   2.2543   2.3777   2.3777   2.4879   2.4880
     2.5410   2.5410   2.6609   2.6609   2.6941   2.6941   2.7988   2.7988
     2.8171   2.8171   2.9115   2.9115   2.9909   2.9909   3.0516   3.0516
     6.0816   6.0816   6.1772   6.1772   6.3642   6.3642   7.6395   7.6395
     7.8573   7.8573   8.0798   8.0798   8.2924   8.2924   8.5798   8.5798
     9.1117   9.1118   9.3804   9.3804   9.5047   9.5047   9.6614   9.6614
     9.7823   9.7823   9.8384   9.8384  10.1055  10.1056  10.2063  10.2063
    10.2563  10.2563  10.5172  10.5172  10.6474  10.6474  10.9046  10.9046
    11.0778  11.0778  11.1812  11.1812  11.2434  11.2434  11.3606  11.3606
    11.4982  11.4982  11.6601  11.6601  11.8203  11.8203  12.0236  12.0236
    12.2194  12.2194  12.3119  12.3119  12.5515  12.5515  12.6603  12.6603
    12.8307  12.8307  13.0197  13.0197  13.0727  13.0727  13.2140  13.2140
    13.4187  13.4187  13.6115  13.6115  13.6592  13.6592  13.7128  13.7128
    13.9287  13.9287  14.1813  14.1813  14.3066  14.3066  14.5610  14.5610
    14.5794  14.5794  14.6714  14.6714  14.7600  14.7600  14.9499  14.9499
    15.0479  15.0479  15.2167  15.2167  15.3633  15.3633  15.5450  15.5450
    15.6993  15.6993  15.7466  15.7466  15.8235  15.8235  15.9872  15.9872
    16.1670  16.1670  16.2481  16.2482  16.4127  16.4127  16.7625  16.7625
    16.8690  16.8690  16.9463  16.9463  17.1408  17.1408  17.2304  17.2304
    17.3694  17.3694  17.5191  17.5191  17.6941  17.6941  17.7311  17.7311
    17.9380  17.9380  18.0461  18.0461  18.1415  18.1415  18.2546  18.2546
    18.4517  18.4518  18.5214  18.5214  18.6719  18.6720  18.7404  18.7405
    18.9231  18.9233  19.0196  19.0197  19.0946  19.0947  19.1591  19.1591

          k = 0.7500 0.6938 0.0000 ( 61299 PWs)   bands (ev):

   -40.2621 -40.2621 -40.2621 -40.2621 -40.2277 -40.2277 -40.2277 -40.2277
   -40.2010 -40.2010 -40.2010 -40.2010 -40.1976 -40.1976 -40.1976 -40.1975
   -40.1975 -40.1975 -40.1975 -40.1975 -40.1656 -40.1656 -40.1656 -40.1656
   -40.1655 -40.1655 -40.1655 -40.1655 -40.1412 -40.1412 -40.1412 -40.1412
   -40.1412 -40.1411 -40.1411 -40.1411 -40.0933 -40.0933 -40.0933 -40.0933
   -40.0927 -40.0927 -40.0926 -40.0926 -40.0387 -40.0387 -40.0387 -40.0387
   -40.0387 -40.0387 -40.0387 -40.0387 -40.0384 -40.0384 -40.0384 -40.0384
   -40.0384 -40.0383 -40.0383 -40.0383 -15.9594 -15.9592 -15.9576 -15.9574
   -12.9078 -12.9059 -12.9009 -12.8990 -12.8922 -12.8920 -12.8868 -12.8867
   -12.8797 -12.8795 -12.8794 -12.8792 -12.8650 -12.8647 -12.8645 -12.8642
   -12.8575 -12.8574 -12.8573 -12.8572  -8.9526  -8.9475  -8.9459  -8.9437
    -8.0864  -7.9300  -7.9217  -7.7927  -7.7810  -7.7584  -7.6957  -7.6954
    -7.6154  -7.6001  -7.5816  -7.5447  -5.4585  -5.4535  -5.4468  -5.4441
    -5.4396  -5.4348  -5.4106  -5.4040  -4.2323  -3.8290  -3.8121  -3.4455
    -3.3294  -3.3255  -3.3205  -3.2922  -1.2759  -1.2666  -1.2645  -1.2623
    -1.2601  -1.2523  -1.2499  -1.2375   0.6338   0.7417   0.7470   0.9440
     1.2863   1.4530   1.4657   1.6133   1.8328   1.8889   1.9161   1.9966
     2.0828   2.1860   2.2879   2.3981   2.3986   2.4479   2.4789   2.4945
     2.5335   2.5654   2.6031   2.6397   2.6884   2.7059   2.7701   2.8223
     2.8225   2.8351   2.9157   2.9707   2.9837   3.0758   3.1130   3.2670
     5.4678   5.6359   5.7560   5.9559   6.8206   7.0471   7.0824   7.2563
     7.9849   8.0793   8.2813   8.3957   8.4533   8.6531   8.6578   8.8291
     9.0000   9.2023   9.2333   9.4051   9.5111   9.5856   9.6506   9.7467
     9.7556   9.8035   9.8747   9.9767   9.9791  10.0494  10.1107  10.1369
    10.2666  10.3275  10.5611  10.6794  10.6822  10.7865  10.8616  10.8718
    10.8789  10.9852  11.0406  11.1435  11.1464  11.3175  11.3667  11.3755
    11.4611  11.5890  11.6274  11.6403  11.8092  11.8268  11.8740  11.9752
    12.0312  12.1095  12.1918  12.2152  12.4066  12.4092  12.4487  12.5866
    12.7862  12.8276  12.8588  12.9208  13.0055  13.0237  13.1156  13.2175
    13.4328  13.5293  13.5691  13.6223  13.7275  13.7463  13.8137  13.8482
    14.0126  14.0196  14.1162  14.1898  14.2255  14.2610  14.4693  14.5721
    14.6405  14.6667  14.6990  14.7153  14.8024  14.8456  14.9755  14.9816
    15.0976  15.1776  15.2848  15.3244  15.3562  15.4348  15.4864  15.5017
    15.5922  15.7697  15.7716  15.8555  15.9195  16.0606  16.1245  16.2101
    16.2672  16.3459  16.3717  16.4176  16.5609  16.6449  16.7131  16.7776
    16.8763  16.9348  16.9637  17.0107  17.0862  17.1291  17.1695  17.2578
    17.2744  17.4572  17.4868  17.5116  17.6223  17.6947  17.7377  17.7988
    17.8832  17.9311  17.9918  18.0344  18.0439  18.2288  18.2572  18.2894
    18.3443  18.3507  18.5724  18.5958  18.5999  18.6828  18.7639  18.8126
    18.8961  18.9397  18.9464  18.9996  19.0129  19.0387  19.1533  19.2280

          k = 0.7500 0.6938 0.1650 ( 61272 PWs)   bands (ev):

   -40.2621 -40.2621 -40.2621 -40.2621 -40.2277 -40.2277 -40.2277 -40.2277
   -40.2010 -40.2010 -40.2010 -40.2010 -40.1976 -40.1976 -40.1976 -40.1975
   -40.1975 -40.1975 -40.1975 -40.1975 -40.1656 -40.1656 -40.1656 -40.1656
   -40.1655 -40.1655 -40.1655 -40.1655 -40.1412 -40.1412 -40.1412 -40.1412
   -40.1412 -40.1411 -40.1411 -40.1411 -40.0933 -40.0933 -40.0933 -40.0933
   -40.0927 -40.0927 -40.0926 -40.0926 -40.0387 -40.0387 -40.0387 -40.0387
   -40.0387 -40.0387 -40.0387 -40.0387 -40.0384 -40.0384 -40.0384 -40.0384
   -40.0384 -40.0383 -40.0383 -40.0383 -15.9594 -15.9592 -15.9575 -15.9574
   -12.9067 -12.9049 -12.9019 -12.9000 -12.8922 -12.8920 -12.8868 -12.8867
   -12.8796 -12.8795 -12.8795 -12.8793 -12.8650 -12.8646 -12.8646 -12.8643
   -12.8575 -12.8574 -12.8573 -12.8572  -8.9517  -8.9477  -8.9461  -8.9441
    -8.0708  -7.9638  -7.9168  -7.8294  -7.7507  -7.7418  -7.6964  -7.6671
    -7.6246  -7.5995  -7.5868  -7.5559  -5.4574  -5.4528  -5.4485  -5.4459
    -5.4351  -5.4300  -5.4139  -5.4075  -4.1772  -3.8814  -3.7787  -3.5057
    -3.3263  -3.3248  -3.3212  -3.3035  -1.2712  -1.2682  -1.2661  -1.2607
    -1.2572  -1.2536  -1.2488  -1.2415   0.7451   0.7697   0.9010   1.0215
     1.3092   1.4187   1.4841   1.5837   1.8272   1.8630   1.9106   1.9546
     2.0865   2.1494   2.2024   2.2374   2.3313   2.4025   2.4163   2.4920
     2.5102   2.5438   2.6432   2.6747   2.6845   2.7489   2.7948   2.8066
     2.8246   2.8452   2.9132   2.9660   2.9860   3.0484   3.0694   3.1222
     5.6819   5.8918   5.9646   6.2175   6.8486   7.0270   7.0843   7.2249
     7.8611   7.9853   8.1634   8.2463   8.3167   8.4710   8.6688   8.8223
     9.0400   9.1140   9.3145   9.3223   9.4540   9.5824   9.6377   9.7403
     9.7853   9.8288   9.8638   9.9304  10.0089  10.0179  10.1079  10.1314
    10.3683  10.4429  10.5257  10.6158  10.6810  10.7493  10.8330  10.8809
    11.0045  11.0447  11.0582  11.1204  11.2150  11.2685  11.3297  11.3485
    11.4618  11.5115  11.6185  11.6679  11.7583  11.7912  11.8933  11.9459
    12.0627  12.1319  12.1702  12.1983  12.3113  12.4353  12.5418  12.5865
    12.7337  12.7836  12.8800  12.9186  13.0597  13.0752  13.1992  13.3079
    13.3569  13.5035  13.5708  13.6056  13.6508  13.7534  13.8468  13.9529
    14.0007  14.0836  14.1190  14.2019  14.2847  14.3568  14.4135  14.5399
    14.6117  14.7073  14.7929  14.8356  14.8822  14.9582  15.0148  15.1118
    15.1656  15.2365  15.2620  15.3727  15.4159  15.4827  15.5155  15.6295
    15.6481  15.6774  15.7678  15.8268  15.9359  16.0506  16.1479  16.1786
    16.2269  16.3447  16.3647  16.4204  16.4957  16.5502  16.6336  16.6615
    16.8204  16.8675  16.9062  16.9568  17.0285  17.0843  17.1458  17.2469
    17.3025  17.3693  17.4197  17.4958  17.5372  17.5660  17.6918  17.7822
    17.8457  17.8927  17.9447  18.0233  18.1169  18.1771  18.2171  18.2981
    18.3180  18.4059  18.5126  18.5702  18.6278  18.6337  18.7539  18.8086
    18.8433  18.8761  18.9326  18.9509  19.0958  19.1210  19.1767  19.2429

          k = 0.7500 0.6938 0.3300 ( 61274 PWs)   bands (ev):

   -40.2621 -40.2621 -40.2621 -40.2621 -40.2277 -40.2277 -40.2277 -40.2277
   -40.2010 -40.2010 -40.2010 -40.2010 -40.1976 -40.1976 -40.1976 -40.1975
   -40.1975 -40.1975 -40.1975 -40.1975 -40.1656 -40.1656 -40.1656 -40.1656
   -40.1655 -40.1655 -40.1655 -40.1655 -40.1412 -40.1412 -40.1412 -40.1412
   -40.1412 -40.1411 -40.1411 -40.1411 -40.0933 -40.0933 -40.0933 -40.0933
   -40.0927 -40.0927 -40.0926 -40.0926 -40.0387 -40.0387 -40.0387 -40.0387
   -40.0387 -40.0387 -40.0387 -40.0387 -40.0384 -40.0384 -40.0384 -40.0384
   -40.0384 -40.0383 -40.0383 -40.0383 -15.9593 -15.9593 -15.9575 -15.9575
   -12.9043 -12.9043 -12.9024 -12.9024 -12.8921 -12.8921 -12.8868 -12.8867
   -12.8796 -12.8795 -12.8794 -12.8793 -12.8648 -12.8647 -12.8645 -12.8644
   -12.8575 -12.8574 -12.8573 -12.8573  -8.9496  -8.9496  -8.9452  -8.9452
    -8.0264  -8.0264  -7.8805  -7.8805  -7.7340  -7.7340  -7.6618  -7.6618
    -7.6223  -7.6223  -7.5769  -7.5769  -5.4540  -5.4540  -5.4490  -5.4490
    -5.4264  -5.4264  -5.4157  -5.4157  -4.0362  -4.0362  -3.6485  -3.6484
    -3.3232  -3.3232  -3.3174  -3.3174  -1.2685  -1.2684  -1.2626  -1.2626
    -1.2538  -1.2538  -1.2482  -1.2482   0.7886   0.7886   1.2631   1.2631
     1.4177   1.4177   1.4712   1.4713   1.5914   1.5914   1.9138   1.9138
     2.0814   2.0814   2.1680   2.1681   2.3085   2.3085   2.4638   2.4638
     2.4832   2.4832   2.6826   2.6826   2.7601   2.7601   2.8006   2.8006
     2.8517   2.8517   2.9296   2.9296   3.0039   3.0039   3.0369   3.0369
     5.7907   5.7908   6.8622   6.8622   7.0075   7.0076   7.0874   7.0874
     7.2531   7.2531   8.1875   8.1876   8.3352   8.3352   8.7344   8.7345
     9.0776   9.0777   9.3388   9.3388   9.4462   9.4462   9.6800   9.6800
     9.7995   9.7995   9.9614   9.9614  10.0011  10.0011  10.1568  10.1568
    10.3771  10.3771  10.6341  10.6341  10.7408  10.7408  10.8642  10.8642
    10.9189  10.9189  11.0436  11.0437  11.2834  11.2835  11.3683  11.3683
    11.5526  11.5526  11.6158  11.6158  11.7445  11.7445  11.8961  11.8961
    12.0188  12.0188  12.2321  12.2321  12.3946  12.3947  12.6522  12.6522
    12.7588  12.7588  12.8620  12.8620  13.0117  13.0117  13.2343  13.2343
    13.4157  13.4157  13.5831  13.5831  13.7166  13.7166  13.9348  13.9348
    14.0686  14.0686  14.2554  14.2554  14.3339  14.3339  14.5208  14.5208
    14.6413  14.6413  14.8698  14.8698  14.9142  14.9142  15.1446  15.1446
    15.2613  15.2613  15.4281  15.4281  15.5542  15.5542  15.6423  15.6423
    15.7436  15.7436  15.8166  15.8166  16.0004  16.0004  16.1164  16.1164
    16.2684  16.2684  16.3849  16.3849  16.4725  16.4725  16.6253  16.6253
    16.7260  16.7261  16.8947  16.8947  16.9877  16.9877  17.0575  17.0575
    17.2720  17.2720  17.4092  17.4093  17.5953  17.5953  17.7540  17.7541
    17.7958  17.7959  17.9453  17.9453  18.0277  18.0277  18.1249  18.1249
    18.2414  18.2414  18.4886  18.4886  18.5880  18.5881  18.7400  18.7401
    18.8282  18.8282  18.9874  18.9875  19.1217  19.1218  19.2089  19.2090

          k = 0.7500 0.6938 0.4950 ( 61272 PWs)   bands (ev):

   -40.2621 -40.2621 -40.2621 -40.2621 -40.2277 -40.2277 -40.2277 -40.2277
   -40.2010 -40.2010 -40.2010 -40.2010 -40.1976 -40.1976 -40.1976 -40.1975
   -40.1975 -40.1975 -40.1975 -40.1975 -40.1656 -40.1656 -40.1656 -40.1656
   -40.1655 -40.1655 -40.1655 -40.1655 -40.1412 -40.1412 -40.1412 -40.1412
   -40.1412 -40.1411 -40.1411 -40.1411 -40.0933 -40.0933 -40.0933 -40.0933
   -40.0927 -40.0927 -40.0926 -40.0926 -40.0387 -40.0387 -40.0387 -40.0387
   -40.0387 -40.0387 -40.0387 -40.0387 -40.0384 -40.0384 -40.0384 -40.0384
   -40.0384 -40.0383 -40.0383 -40.0383 -15.9594 -15.9592 -15.9575 -15.9574
   -12.9067 -12.9049 -12.9019 -12.9000 -12.8922 -12.8920 -12.8868 -12.8867
   -12.8796 -12.8795 -12.8795 -12.8793 -12.8650 -12.8646 -12.8646 -12.8643
   -12.8575 -12.8574 -12.8573 -12.8572  -8.9517  -8.9477  -8.9461  -8.9441
    -8.0708  -7.9638  -7.9168  -7.8294  -7.7507  -7.7417  -7.6964  -7.6671
    -7.6246  -7.5995  -7.5868  -7.5559  -5.4574  -5.4528  -5.4485  -5.4459
    -5.4351  -5.4300  -5.4139  -5.4075  -4.1772  -3.8814  -3.7787  -3.5057
    -3.3263  -3.3248  -3.3212  -3.3035  -1.2712  -1.2682  -1.2661  -1.2607
    -1.2572  -1.2536  -1.2488  -1.2415   0.7452   0.7697   0.9010   1.0215
     1.3093   1.4187   1.4840   1.5837   1.8272   1.8630   1.9106   1.9547
     2.0865   2.1494   2.2024   2.2374   2.3313   2.4025   2.4163   2.4920
     2.5102   2.5438   2.6432   2.6747   2.6845   2.7489   2.7948   2.8066
     2.8246   2.8452   2.9132   2.9661   2.9861   3.0484   3.0694   3.1221
     5.6819   5.8918   5.9646   6.2175   6.8486   7.0270   7.0843   7.2249
     7.8611   7.9853   8.1634   8.2463   8.3167   8.4710   8.6688   8.8223
     9.0400   9.1140   9.3146   9.3223   9.4540   9.5824   9.6377   9.7403
     9.7853   9.8288   9.8638   9.9304  10.0089  10.0179  10.1079  10.1314
    10.3683  10.4429  10.5257  10.6158  10.6810  10.7493  10.8330  10.8809
    11.0046  11.0447  11.0582  11.1204  11.2151  11.2685  11.3297  11.3485
    11.4618  11.5114  11.6185  11.6679  11.7583  11.7912  11.8933  11.9459
    12.0627  12.1319  12.1702  12.1983  12.3113  12.4353  12.5418  12.5865
    12.7337  12.7836  12.8800  12.9186  13.0597  13.0752  13.1992  13.3079
    13.3569  13.5035  13.5708  13.6056  13.6508  13.7534  13.8468  13.9529
    14.0007  14.0836  14.1190  14.2019  14.2847  14.3568  14.4135  14.5399
    14.6116  14.7073  14.7929  14.8356  14.8822  14.9582  15.0148  15.1118
    15.1656  15.2365  15.2620  15.3727  15.4159  15.4827  15.5155  15.6295
    15.6481  15.6774  15.7678  15.8268  15.9359  16.0506  16.1479  16.1786
    16.2269  16.3447  16.3647  16.4204  16.4957  16.5502  16.6336  16.6615
    16.8204  16.8675  16.9062  16.9568  17.0285  17.0843  17.1458  17.2469
    17.3024  17.3693  17.4197  17.4958  17.5372  17.5660  17.6918  17.7822
    17.8457  17.8927  17.9447  18.0233  18.1169  18.1771  18.2171  18.2981
    18.3180  18.4059  18.5126  18.5702  18.6278  18.6337  18.7539  18.8086
    18.8434  18.8761  18.9326  18.9508  19.0959  19.1211  19.1768  19.2427

     the Fermi energy is     4.5055 ev
     (compare with:     4.5052 eV, computed in scf)

     Writing all to output data dir out/mp-995214.save/
 
     init_run     :      0.52s CPU      0.65s WALL (       1 calls)
     electrons    :    757.03s CPU    772.91s WALL (       1 calls)

     Called by init_run:
     wfcinit      :      0.00s CPU      0.00s WALL (       1 calls)
     potinit      :      0.07s CPU      0.10s WALL (       1 calls)
     hinit0       :      0.31s CPU      0.40s WALL (       1 calls)

     Called by electrons:
     c_bands      :    757.03s CPU    772.91s WALL (       1 calls)
     v_of_rho     :      0.06s CPU      0.07s WALL (       1 calls)

     Called by c_bands:
     init_us_2    :      0.57s CPU      0.58s WALL (      64 calls)
     init_us_2:cp :      0.57s CPU      0.58s WALL (      64 calls)
     cegterg      :    725.60s CPU    740.31s WALL (     140 calls)

     Called by *egterg:
     cdiaghg      :    114.15s CPU    122.02s WALL (    2346 calls)
     h_psi        :    288.05s CPU    291.00s WALL (    2486 calls)
     g_psi        :      3.21s CPU      3.23s WALL (    2282 calls)

     Called by h_psi:
     h_psi:calbec :     48.96s CPU     49.66s WALL (    2486 calls)
     vloc_psi     :    183.74s CPU    184.94s WALL (    2486 calls)
     add_vuspsi   :     50.82s CPU     50.87s WALL (    2486 calls)

     General routines
     calbec       :     48.96s CPU     49.66s WALL (    2486 calls)
     fft          :      0.03s CPU      0.10s WALL (      10 calls)
     fftw         :    160.67s CPU    161.72s WALL (  674284 calls)
 
     Parallel routines
 
     PWSCF        :  12m53.20s CPU  13m26.27s WALL

 
   This run was terminated on:  16:36:32   8Apr2024            

=------------------------------------------------------------------------------=
   JOB DONE.
=------------------------------------------------------------------------------=
