
     Program PWSCF v.7.1 starts on  3Jan2024 at 14:37:13 

     This program is part of the open-source Quantum ESPRESSO suite
     for quantum simulation of materials; please cite
         "P. Giannozzi et al., J. Phys.:Condens. Matter 21 395502 (2009);
         "P. Giannozzi et al., J. Phys.:Condens. Matter 29 465901 (2017);
         "P. Giannozzi et al., J. Chem. Phys. 152 154105 (2020);
          URL http://www.quantum-espresso.org", 
     in publications or presentations arising from this work. More details at
     http://www.quantum-espresso.org/quote

     Parallel version (MPI), running on     8 processors

     MPI processes distributed on     1 nodes
     121615 MiB available memory on the printing compute node when the environment starts
 
     Reading input from pw_mp-23193_nscf_k3000_E130.in
Warning: card &IONS ignored
Warning: card / ignored
Warning: card &CELL ignored
Warning: card / ignored

     Current dimensions of program PWSCF are:
     Max number of different atomic species (ntypx) = 10
     Max number of k-points (npk) =  40000
     Max angular momentum in pseudopotentials (lmaxx) =  4

     Atomic positions and unit cell read from directory:
     out/mp-23193.save/
     Atomic positions from file used, from input discarded
 
 
     R & G space division:  proc/nbgrp/npool/nimage =       8
     Subspace diagonalization in iterative solution of the eigenvalue problem:
     a serial algorithm will be used

 
     Parallelization info
     --------------------
     sticks:   dense  smooth     PW     G-vecs:    dense   smooth      PW
     Min         315     315     90                10463    10463    1578
     Max         316     316     91                10467    10467    1579
     Sum        2527    2527    721                83731    83731   12627
 
     Using Slab Decomposition
 


     bravais-lattice index     =            2
     lattice parameter (alat)  =      11.8746  a.u.
     unit-cell volume          =     418.5927 (a.u.)^3
     number of atoms/cell      =            2
     number of atomic types    =            2
     number of electrons       =        16.00
     number of Kohn-Sham states=           16
     kinetic-energy cutoff     =     130.0000  Ry
     charge density cutoff     =     520.0000  Ry
     Exchange-correlation= PBE
                           (   1   4   3   4   0   0   0)

     celldm(1)=  11.874552  celldm(2)=   0.000000  celldm(3)=   0.000000
     celldm(4)=   0.000000  celldm(5)=   0.000000  celldm(6)=   0.000000

     crystal axes: (cart. coord. in units of alat)
               a(1) = (  -0.500000   0.000000   0.500000 )  
               a(2) = (   0.000000   0.500000   0.500000 )  
               a(3) = (  -0.500000   0.500000   0.000000 )  

     reciprocal axes: (cart. coord. in units 2 pi/alat)
               b(1) = ( -1.000000 -1.000000  1.000000 )  
               b(2) = (  1.000000  1.000000  1.000000 )  
               b(3) = ( -1.000000  1.000000 -1.000000 )  


     PseudoPot. # 1 for Cl read from file:
     /usr/scratch4/magr4985/MG/devEb/pseudo/SG15/Cl.upf
     MD5 check sum: d09d09b0a9f35bc416b5a5b3d9ab34ee
     Pseudo is Norm-conserving, Zval =  7.0
     Generated using ONCVPSP code by D. R. Hamann
     Using radial grid of  602 points,  4 beta functions with: 
                l(1) =   0
                l(2) =   0
                l(3) =   1
                l(4) =   1

     PseudoPot. # 2 for K  read from file:
     /usr/scratch4/magr4985/MG/devEb/pseudo/SG15/K.upf
     MD5 check sum: 546a68abc2c0296de6abd828b0bae2fd
     Pseudo is Norm-conserving, Zval =  9.0
     Generated using ONCVPSP code by D. R. Hamann
     Using radial grid of  602 points,  6 beta functions with: 
                l(1) =   0
                l(2) =   0
                l(3) =   1
                l(4) =   1
                l(5) =   2
                l(6) =   2

     atomic species   valence    mass     pseudopotential
        Cl             7.00    35.45300     Cl( 1.00)
        K              9.00    39.09830     K ( 1.00)

     48 Sym. Ops., with inversion, found



   Cartesian axes

     site n.     atom                  positions (alat units)
         1           K   tau(   1) = (   0.0000000   0.0000000   0.0000000  )
         2           Cl  tau(   2) = (  -0.5000000   0.5000000   0.5000000  )

     number of k points=   413  Gaussian smearing, width (Ry)=  0.0005

     Number of k-points >= 100: set verbosity='high' to print them.

     Dense  grid:    83731 G-vectors     FFT dimensions: (  64,  64,  64)

     Estimated max dynamical RAM per process >       9.79 MB

     Estimated total dynamical RAM >      78.29 MB

     The potential is recalculated from file :
     out/mp-23193.save/charge-density

     Starting wfcs are random

     Band Structure Calculation
     Davidson diagonalization with overlap

     ethr =  5.00E-06,  avg # of iterations = 25.9

     total cpu time spent up to now is      101.3 secs

     End of band structure calculation

     Number of k-points >= 100: set verbosity='high' to print the bands.

     the Fermi energy is     3.5728 ev
     (compare with:     3.5759 eV, computed in scf)

     Writing all to output data dir out/mp-23193.save/
 
     init_run     :      0.20s CPU      0.22s WALL (       1 calls)
     electrons    :     97.32s CPU    100.91s WALL (       1 calls)

     Called by init_run:
     wfcinit      :      0.00s CPU      0.00s WALL (       1 calls)
     potinit      :      0.03s CPU      0.03s WALL (       1 calls)
     hinit0       :      0.01s CPU      0.02s WALL (       1 calls)

     Called by electrons:
     c_bands      :     97.32s CPU    100.91s WALL (       1 calls)
     v_of_rho     :      0.02s CPU      0.02s WALL (       1 calls)

     Called by c_bands:
     init_us_2    :      0.12s CPU      0.17s WALL (     413 calls)
     init_us_2:cp :      0.12s CPU      0.17s WALL (     413 calls)
     cegterg      :     90.44s CPU     92.04s WALL (     768 calls)

     Called by *egterg:
     cdiaghg      :      4.15s CPU      4.22s WALL (   11094 calls)
     h_psi        :     80.38s CPU     81.88s WALL (   11862 calls)
     g_psi        :      0.76s CPU      0.77s WALL (   10681 calls)

     Called by h_psi:
     h_psi:calbec :      2.31s CPU      2.37s WALL (   11862 calls)
     vloc_psi     :     75.91s CPU     77.32s WALL (   11862 calls)
     add_vuspsi   :      1.76s CPU      1.80s WALL (   11862 calls)

     General routines
     calbec       :      2.28s CPU      2.34s WALL (   11862 calls)
     fft          :      0.01s CPU      0.01s WALL (      10 calls)
     fftw         :     66.81s CPU     68.05s WALL (  225078 calls)
     davcio       :      0.15s CPU      1.03s WALL (     826 calls)
 
     Parallel routines
 
     PWSCF        :   1m38.80s CPU   1m43.67s WALL

 
   This run was terminated on:  14:38:57   3Jan2024            

=------------------------------------------------------------------------------=
   JOB DONE.
=------------------------------------------------------------------------------=
