
     Program PWSCF v.7.1 starts on  3Jan2024 at 14:39: 1 

     This program is part of the open-source Quantum ESPRESSO suite
     for quantum simulation of materials; please cite
         "P. Giannozzi et al., J. Phys.:Condens. Matter 21 395502 (2009);
         "P. Giannozzi et al., J. Phys.:Condens. Matter 29 465901 (2017);
         "P. Giannozzi et al., J. Chem. Phys. 152 154105 (2020);
          URL http://www.quantum-espresso.org", 
     in publications or presentations arising from this work. More details at
     http://www.quantum-espresso.org/quote

     Parallel version (MPI), running on     8 processors

     MPI processes distributed on     1 nodes
     121597 MiB available memory on the printing compute node when the environment starts
 
     Reading input from pw_mp-23193_emass_k3000_E130.in
Warning: card &IONS ignored
Warning: card / ignored
Warning: card &CELL ignored
Warning: card / ignored

     Current dimensions of program PWSCF are:
     Max number of different atomic species (ntypx) = 10
     Max number of k-points (npk) =  40000
     Max angular momentum in pseudopotentials (lmaxx) =  4

     Atomic positions and unit cell read from directory:
     out/mp-23193.save/
     Atomic positions from file used, from input discarded
 
 
     R & G space division:  proc/nbgrp/npool/nimage =       8
     Subspace diagonalization in iterative solution of the eigenvalue problem:
     a serial algorithm will be used

 
     Parallelization info
     --------------------
     sticks:   dense  smooth     PW     G-vecs:    dense   smooth      PW
     Min         315     315     79                10463    10463    1309
     Max         316     316     80                10467    10467    1312
     Sum        2527    2527    637                83731    83731   10489
 
     Using Slab Decomposition
 


     bravais-lattice index     =            2
     lattice parameter (alat)  =      11.8746  a.u.
     unit-cell volume          =     418.5927 (a.u.)^3
     number of atoms/cell      =            2
     number of atomic types    =            2
     number of electrons       =        16.00
     number of Kohn-Sham states=           16
     kinetic-energy cutoff     =     130.0000  Ry
     charge density cutoff     =     520.0000  Ry
     Exchange-correlation= PBE
                           (   1   4   3   4   0   0   0)

     celldm(1)=  11.874552  celldm(2)=   0.000000  celldm(3)=   0.000000
     celldm(4)=   0.000000  celldm(5)=   0.000000  celldm(6)=   0.000000

     crystal axes: (cart. coord. in units of alat)
               a(1) = (  -0.500000   0.000000   0.500000 )  
               a(2) = (   0.000000   0.500000   0.500000 )  
               a(3) = (  -0.500000   0.500000   0.000000 )  

     reciprocal axes: (cart. coord. in units 2 pi/alat)
               b(1) = ( -1.000000 -1.000000  1.000000 )  
               b(2) = (  1.000000  1.000000  1.000000 )  
               b(3) = ( -1.000000  1.000000 -1.000000 )  


     PseudoPot. # 1 for Cl read from file:
     /usr/scratch4/magr4985/MG/devEb/pseudo/SG15/Cl.upf
     MD5 check sum: d09d09b0a9f35bc416b5a5b3d9ab34ee
     Pseudo is Norm-conserving, Zval =  7.0
     Generated using ONCVPSP code by D. R. Hamann
     Using radial grid of  602 points,  4 beta functions with: 
                l(1) =   0
                l(2) =   0
                l(3) =   1
                l(4) =   1

     PseudoPot. # 2 for K  read from file:
     /usr/scratch4/magr4985/MG/devEb/pseudo/SG15/K.upf
     MD5 check sum: 546a68abc2c0296de6abd828b0bae2fd
     Pseudo is Norm-conserving, Zval =  9.0
     Generated using ONCVPSP code by D. R. Hamann
     Using radial grid of  602 points,  6 beta functions with: 
                l(1) =   0
                l(2) =   0
                l(3) =   1
                l(4) =   1
                l(5) =   2
                l(6) =   2

     atomic species   valence    mass     pseudopotential
        Cl             7.00    35.45300     Cl( 1.00)
        K              9.00    39.09830     K ( 1.00)

     48 Sym. Ops., with inversion, found



   Cartesian axes

     site n.     atom                  positions (alat units)
         1           K   tau(   1) = (   0.0000000   0.0000000   0.0000000  )
         2           Cl  tau(   2) = (  -0.5000000   0.5000000   0.5000000  )

     number of k points=     7  Gaussian smearing, width (Ry)=  0.0005
                       cart. coord. in units 2pi/alat
        k(    1) = (   0.0000000   0.0000000   0.0000000), wk =   0.2857143
        k(    2) = (   0.0100000   0.0000000   0.0000000), wk =   0.2857143
        k(    3) = (  -0.0100000   0.0000000   0.0000000), wk =   0.2857143
        k(    4) = (   0.0000000   0.0100000   0.0000000), wk =   0.2857143
        k(    5) = (   0.0000000  -0.0100000   0.0000000), wk =   0.2857143
        k(    6) = (   0.0000000   0.0000000   0.0100000), wk =   0.2857143
        k(    7) = (   0.0000000   0.0000000  -0.0100000), wk =   0.2857143

     Dense  grid:    83731 G-vectors     FFT dimensions: (  64,  64,  64)

     Estimated max dynamical RAM per process >      11.34 MB

     Estimated total dynamical RAM >      90.70 MB

     The potential is recalculated from file :
     out/mp-23193.save/charge-density

     Starting wfcs are random

     Band Structure Calculation
     ParO style diagonalization

     ethr =  5.00E-06,  avg # of iterations = 20.1

     total cpu time spent up to now is        2.4 secs

     End of band structure calculation

          k = 0.0000 0.0000 0.0000 ( 10489 PWs)   bands (ev):

   -26.3066 -11.2191  -9.7686  -9.7686  -9.7686   0.8767   0.8767   0.8767
     6.0869   9.2931   9.2931   9.2931  10.1763  10.1763  13.8772  17.1202

          k = 0.0100 0.0000 0.0000 ( 10485 PWs)   bands (ev):

   -26.3066 -11.2191  -9.7686  -9.7686  -9.7685   0.8762   0.8766   0.8766
     6.0878   9.2923   9.2938   9.2938  10.1765  10.1770  13.8786  17.1178

          k =-0.0100 0.0000 0.0000 ( 10485 PWs)   bands (ev):

   -26.3066 -11.2191  -9.7686  -9.7686  -9.7685   0.8762   0.8766   0.8766
     6.0878   9.2923   9.2938   9.2938  10.1765  10.1770  13.8786  17.1178

          k = 0.0000 0.0100 0.0000 ( 10485 PWs)   bands (ev):

   -26.3066 -11.2191  -9.7686  -9.7686  -9.7685   0.8762   0.8766   0.8766
     6.0878   9.2923   9.2938   9.2938  10.1765  10.1770  13.8786  17.1178

          k = 0.0000-0.0100 0.0000 ( 10485 PWs)   bands (ev):

   -26.3066 -11.2191  -9.7686  -9.7686  -9.7685   0.8762   0.8766   0.8766
     6.0878   9.2923   9.2938   9.2938  10.1765  10.1770  13.8786  17.1179

          k = 0.0000 0.0000 0.0100 ( 10485 PWs)   bands (ev):

   -26.3066 -11.2191  -9.7686  -9.7686  -9.7685   0.8762   0.8766   0.8766
     6.0878   9.2923   9.2938   9.2938  10.1765  10.1770  13.8786  17.1178

          k = 0.0000 0.0000-0.0100 ( 10485 PWs)   bands (ev):

   -26.3066 -11.2191  -9.7686  -9.7686  -9.7685   0.8762   0.8766   0.8766
     6.0878   9.2923   9.2938   9.2938  10.1765  10.1770  13.8786  17.1178

     the Fermi energy is     3.5728 ev
     (compare with:     3.5728 eV, computed in scf)

     Writing all to output data dir out/mp-23193.save/
 
     init_run     :      0.17s CPU      0.19s WALL (       1 calls)
     electrons    :      2.02s CPU      2.07s WALL (       1 calls)

     Called by init_run:
     wfcinit      :      0.00s CPU      0.00s WALL (       1 calls)
     potinit      :      0.03s CPU      0.03s WALL (       1 calls)
     hinit0       :      0.03s CPU      0.04s WALL (       1 calls)

     Called by electrons:
     c_bands      :      2.02s CPU      2.06s WALL (       1 calls)
     v_of_rho     :      0.02s CPU      0.02s WALL (       1 calls)

     Called by c_bands:
     init_us_2    :      0.00s CPU      0.00s WALL (       7 calls)
     init_us_2:cp :      0.00s CPU      0.00s WALL (       7 calls)
     paro_k       :      1.91s CPU      1.95s WALL (       7 calls)

     Called by paro_*:
     h_psi        :      1.62s CPU      1.65s WALL (     408 calls)
     g_psi        :      0.02s CPU      0.03s WALL (    2685 calls)

     Called by h_psi:
     h_psi:calbec :      0.06s CPU      0.06s WALL (     408 calls)
     vloc_psi     :      1.51s CPU      1.54s WALL (     408 calls)
     add_vuspsi   :      0.04s CPU      0.04s WALL (     408 calls)

     General routines
     calbec       :      0.06s CPU      0.06s WALL (     408 calls)
     fft          :      0.01s CPU      0.01s WALL (      10 calls)
     fftw         :      1.32s CPU      1.35s WALL (    4560 calls)
 
     Parallel routines
 
     PWSCF        :      2.30s CPU      2.39s WALL

 
   This run was terminated on:  14:39: 3   3Jan2024            

=------------------------------------------------------------------------------=
   JOB DONE.
=------------------------------------------------------------------------------=
