
     Program PWSCF v.7.1 starts on  3Jan2024 at 14:38:27 

     This program is part of the open-source Quantum ESPRESSO suite
     for quantum simulation of materials; please cite
         "P. Giannozzi et al., J. Phys.:Condens. Matter 21 395502 (2009);
         "P. Giannozzi et al., J. Phys.:Condens. Matter 29 465901 (2017);
         "P. Giannozzi et al., J. Chem. Phys. 152 154105 (2020);
          URL http://www.quantum-espresso.org", 
     in publications or presentations arising from this work. More details at
     http://www.quantum-espresso.org/quote

     Parallel version (MPI), running on     8 processors

     MPI processes distributed on     1 nodes
     246634 MiB available memory on the printing compute node when the environment starts
 
     Reading input from pw_mp-23167_emass_k3000_E130.in
Warning: card &IONS ignored
Warning: card / ignored
Warning: card &CELL ignored
Warning: card / ignored

     Current dimensions of program PWSCF are:
     Max number of different atomic species (ntypx) = 10
     Max number of k-points (npk) =  40000
     Max angular momentum in pseudopotentials (lmaxx) =  4

     Atomic positions and unit cell read from directory:
     out/mp-23167.save/
 
 
     R & G space division:  proc/nbgrp/npool/nimage =       8
     Subspace diagonalization in iterative solution of the eigenvalue problem:
     a serial algorithm will be used

 
     Parallelization info
     --------------------
     sticks:   dense  smooth     PW     G-vecs:    dense   smooth      PW
     Min         272     272     74                 9550     9550    1346
     Max         274     274     75                 9551     9551    1349
     Sum        2185    2185    593                76405    76405   10779
 
     Using Slab Decomposition
 


     bravais-lattice index     =            1
     lattice parameter (alat)  =       7.2518  a.u.
     unit-cell volume          =     381.3560 (a.u.)^3
     number of atoms/cell      =            2
     number of atomic types    =            2
     number of electrons       =        20.00
     number of Kohn-Sham states=           20
     kinetic-energy cutoff     =     130.0000  Ry
     charge density cutoff     =     520.0000  Ry
     Exchange-correlation= PBE
                           (   1   4   3   4   0   0   0)

     celldm(1)=   7.251762  celldm(2)=   0.000000  celldm(3)=   0.000000
     celldm(4)=   0.000000  celldm(5)=   0.000000  celldm(6)=   0.000000

     crystal axes: (cart. coord. in units of alat)
               a(1) = (   1.000000   0.000000   0.000000 )  
               a(2) = (   0.000000   1.000000   0.000000 )  
               a(3) = (   0.000000   0.000000   1.000000 )  

     reciprocal axes: (cart. coord. in units 2 pi/alat)
               b(1) = (  1.000000  0.000000  0.000000 )  
               b(2) = (  0.000000  1.000000  0.000000 )  
               b(3) = (  0.000000  0.000000  1.000000 )  


     PseudoPot. # 1 for Cl read from file:
     /usr/scratch4/magr4985/MG/devEb/pseudo/SG15/Cl.upf
     MD5 check sum: d09d09b0a9f35bc416b5a5b3d9ab34ee
     Pseudo is Norm-conserving, Zval =  7.0
     Generated using ONCVPSP code by D. R. Hamann
     Using radial grid of  602 points,  4 beta functions with: 
                l(1) =   0
                l(2) =   0
                l(3) =   1
                l(4) =   1

     PseudoPot. # 2 for Tl read from file:
     /usr/scratch4/magr4985/MG/devEb/pseudo/SG15/Tl.upf
     MD5 check sum: 9df9092a7c7b421465112b12ba899e4a
     Pseudo is Norm-conserving, Zval = 13.0
     Generated using ONCVPSP code by D. R. Hamann
     Using radial grid of  602 points,  8 beta functions with: 
                l(1) =   0
                l(2) =   0
                l(3) =   1
                l(4) =   1
                l(5) =   2
                l(6) =   2
                l(7) =   3
                l(8) =   3

     atomic species   valence    mass     pseudopotential
        Cl             7.00    35.45300     Cl( 1.00)
        Tl            13.00   204.38330     Tl( 1.00)

     48 Sym. Ops., with inversion, found



   Cartesian axes

     site n.     atom                  positions (alat units)
         1           Tl  tau(   1) = (   0.0000000   0.0000000   0.0000000  )
         2           Cl  tau(   2) = (   0.5000000   0.5000000   0.5000000  )

     number of k points=     7  Gaussian smearing, width (Ry)=  0.0005
                       cart. coord. in units 2pi/alat
        k(    1) = (   0.0000000   0.0000000  -0.5000000), wk =   0.2857143
        k(    2) = (   0.0100000   0.0000000  -0.5000000), wk =   0.2857143
        k(    3) = (  -0.0100000   0.0000000  -0.5000000), wk =   0.2857143
        k(    4) = (   0.0000000   0.0100000  -0.5000000), wk =   0.2857143
        k(    5) = (   0.0000000  -0.0100000  -0.5000000), wk =   0.2857143
        k(    6) = (   0.0000000   0.0000000  -0.4900000), wk =   0.2857143
        k(    7) = (   0.0000000   0.0000000  -0.5100000), wk =   0.2857143

     Dense  grid:    76405 G-vectors     FFT dimensions: (  54,  54,  54)

     Estimated max dynamical RAM per process >      16.19 MB

     Estimated total dynamical RAM >     129.53 MB

     The potential is recalculated from file :
     out/mp-23167.save/charge-density

     Starting wfcs are random

     Band Structure Calculation
     ParO style diagonalization

     ethr =  5.00E-06,  avg # of iterations = 23.9

     total cpu time spent up to now is        2.7 secs

     End of band structure calculation

          k = 0.0000 0.0000-0.5000 (  9530 PWs)   bands (ev):

    -7.8159  -4.2417  -4.0923  -4.0923  -4.0897  -4.0051   0.2505   4.5918
     4.5918   5.6760   7.7727  12.2737  12.2737  14.5580  17.1972  19.5576
    19.9642  21.0736  21.5963  21.5963

          k = 0.0100 0.0000-0.5000 (  9554 PWs)   bands (ev):

    -7.8158  -4.2415  -4.0923  -4.0923  -4.0896  -4.0051   0.2514   4.5888
     4.5919   5.6744   7.7761  12.2702  12.2749  14.5597  17.2028  19.5551
    19.9548  21.0745  21.4441  21.6074

          k =-0.0100 0.0000-0.5000 (  9554 PWs)   bands (ev):

    -7.8158  -4.2415  -4.0923  -4.0923  -4.0896  -4.0051   0.2514   4.5888
     4.5919   5.6744   7.7761  12.2702  12.2749  14.5597  17.2028  19.5551
    19.9548  21.0745  21.4441  21.6074

          k = 0.0000 0.0100-0.5000 (  9554 PWs)   bands (ev):

    -7.8158  -4.2415  -4.0923  -4.0923  -4.0896  -4.0051   0.2514   4.5888
     4.5919   5.6744   7.7761  12.2702  12.2749  14.5597  17.2028  19.5551
    19.9548  21.0745  21.4441  21.6074

          k = 0.0000-0.0100-0.5000 (  9554 PWs)   bands (ev):

    -7.8158  -4.2415  -4.0923  -4.0923  -4.0896  -4.0051   0.2514   4.5888
     4.5919   5.6744   7.7761  12.2702  12.2749  14.5597  17.2028  19.5551
    19.9548  21.0745  21.4441  21.6074

          k = 0.0000 0.0000-0.4900 (  9570 PWs)   bands (ev):

    -7.8162  -4.2417  -4.0922  -4.0922  -4.0898  -4.0051   0.2513   4.5914
     4.5914   5.6722   7.7788  12.2749  12.2749  14.5563  17.2007  19.5393
    19.9642  21.0881  21.5129  21.5129

          k = 0.0000 0.0000-0.5100 (  9570 PWs)   bands (ev):

    -7.8162  -4.2417  -4.0922  -4.0922  -4.0898  -4.0051   0.2513   4.5914
     4.5914   5.6722   7.7788  12.2749  12.2749  14.5563  17.2007  19.5393
    19.9642  21.0881  21.5129  21.5129

     the Fermi energy is     6.8956 ev
     (compare with:     6.8956 eV, computed in scf)

     Writing all to output data dir out/mp-23167.save/
 
     init_run     :      0.15s CPU      0.16s WALL (       1 calls)
     electrons    :      2.32s CPU      2.39s WALL (       1 calls)

     Called by init_run:
     wfcinit      :      0.00s CPU      0.00s WALL (       1 calls)
     potinit      :      0.02s CPU      0.02s WALL (       1 calls)
     hinit0       :      0.02s CPU      0.03s WALL (       1 calls)

     Called by electrons:
     c_bands      :      2.32s CPU      2.39s WALL (       1 calls)
     v_of_rho     :      0.01s CPU      0.01s WALL (       1 calls)

     Called by c_bands:
     init_us_2    :      0.00s CPU      0.00s WALL (       7 calls)
     init_us_2:cp :      0.00s CPU      0.00s WALL (       7 calls)
     paro_k       :      2.17s CPU      2.24s WALL (       7 calls)

     Called by paro_*:
     h_psi        :      1.75s CPU      1.80s WALL (     430 calls)
     g_psi        :      0.04s CPU      0.04s WALL (    3789 calls)

     Called by h_psi:
     h_psi:calbec :      0.09s CPU      0.09s WALL (     430 calls)
     vloc_psi     :      1.58s CPU      1.62s WALL (     430 calls)
     add_vuspsi   :      0.07s CPU      0.07s WALL (     430 calls)

     General routines
     calbec       :      0.09s CPU      0.09s WALL (     430 calls)
     fft          :      0.00s CPU      0.01s WALL (      10 calls)
     fftw         :      1.40s CPU      1.44s WALL (    6522 calls)
 
     Parallel routines
 
     PWSCF        :      2.59s CPU      2.69s WALL

 
   This run was terminated on:  14:38:29   3Jan2024            

=------------------------------------------------------------------------------=
   JOB DONE.
=------------------------------------------------------------------------------=
