 running on    8 total cores
 distrk:  each k-point on    8 cores,    1 groups
 distr:  one band on    1 cores,    8 groups
 using from now: INCAR     
 vasp.5.4.4.18Apr17-6-g9f103f2a35 (build Aug 24 2017 11:22:49) complex          
  
 POSCAR found type information on POSCAR  H  Pb C  Br N 
 POSCAR found :  5 types and      48 ions
 scaLAPACK will be used

 ----------------------------------------------------------------------------- 
|                                                                             |
|           W    W    AA    RRRRR   N    N  II  N    N   GGGG   !!!           |
|           W    W   A  A   R    R  NN   N  II  NN   N  G    G  !!!           |
|           W    W  A    A  R    R  N N  N  II  N N  N  G       !!!           |
|           W WW W  AAAAAA  RRRRR   N  N N  II  N  N N  G  GGG   !            |
|           WW  WW  A    A  R   R   N   NN  II  N   NN  G    G                |
|           W    W  A    A  R    R  N    N  II  N    N   GGGG   !!!           |
|                                                                             |
|      For optimal performance we recommend to set                            |
|        NCORE= 4 - approx SQRT( number of cores)                             |
|      NCORE specifies how many cores store one orbital (NPAR=cpu/NCORE).     |
|      This setting can  greatly improve the performance of VASP for DFT.     |
|      The default,   NCORE=1            might be grossly inefficient         |
|      on modern multi-core architectures or massively parallel machines.     |
|      Do your own testing !!!!                                               |
|      Unfortunately you need to use the default for GW and RPA calculations. |
|      (for HF NCORE is supported but not extensively tested yet)             |
|                                                                             |
 ----------------------------------------------------------------------------- 


 ----------------------------------------------------------------------------- 
|                                                                             |
|  ADVICE TO THIS USER RUNNING 'VASP/VAMP'   (HEAR YOUR MASTER'S VOICE ...):  |
|                                                                             |
|      You have a (more or less) 'large supercell' and for larger cells       |
|      it might be more efficient to use real space projection opertators     |
|      So try LREAL= Auto  in the INCAR   file.                               |
|      Mind:          For very  accurate calculation you might also keep the  |
|      reciprocal projection scheme          (i.e. LREAL=.FALSE.)             |
|                                                                             |
 ----------------------------------------------------------------------------- 

 LDA part: xc-table for Pade appr. of Perdew
 POSCAR, INCAR and KPOINTS ok, starting setup
 FFT: planning ...
 WAVECAR not read
 entering main loop
       N       E                     dE             d eps       ncg     rms          rms(c)
DAV:   1     0.172362319314E+04    0.17236E+04   -0.86228E+04  9408   0.140E+03
DAV:   2     0.578004416157E+02   -0.16658E+04   -0.15800E+04 10800   0.336E+02
DAV:   3    -0.210782362972E+03   -0.26858E+03   -0.26620E+03 12440   0.160E+02
DAV:   4    -0.223442213542E+03   -0.12660E+02   -0.12607E+02 12008   0.415E+01
DAV:   5    -0.223917458275E+03   -0.47524E+00   -0.47459E+00 12768   0.706E+00    0.216E+01
DAV:   6    -0.212407413820E+03    0.11510E+02   -0.23020E+01 12904   0.131E+01    0.113E+01
DAV:   7    -0.210937417585E+03    0.14700E+01   -0.68226E+00 13264   0.702E+00    0.544E+00
DAV:   8    -0.210848252417E+03    0.89165E-01   -0.12548E+00 11216   0.321E+00    0.825E-01
DAV:   9    -0.210842443730E+03    0.58087E-02   -0.13069E-01 13280   0.110E+00    0.433E-01
DAV:  10    -0.210847478321E+03   -0.50346E-02   -0.27735E-02 10936   0.390E-01    0.202E-01
DAV:  11    -0.210847719346E+03   -0.24103E-03   -0.37652E-03 11896   0.189E-01    0.994E-02
DAV:  12    -0.210848167333E+03   -0.44799E-03   -0.17045E-03 10280   0.104E-01    0.286E-02
DAV:  13    -0.210848198368E+03   -0.31035E-04   -0.15353E-04 12600   0.384E-02    0.183E-02
DAV:  14    -0.210848206831E+03   -0.84625E-05   -0.33162E-05 11432   0.137E-02    0.889E-03
DAV:  15    -0.210848214906E+03   -0.80757E-05   -0.11859E-05 10032   0.114E-02    0.246E-03
DAV:  16    -0.210848215173E+03   -0.26637E-06   -0.18653E-06 11920   0.365E-03    0.182E-03
DAV:  17    -0.210848215323E+03   -0.15079E-06   -0.36031E-07 11704   0.192E-03    0.146E-03
DAV:  18    -0.210848215330E+03   -0.70740E-08   -0.17571E-07  9936   0.994E-04    0.332E-04
DAV:  19    -0.210848215352E+03   -0.21235E-07   -0.69728E-08  8952   0.626E-04    0.402E-04
DAV:  20    -0.210848215358E+03   -0.58826E-08   -0.39136E-09  6480   0.254E-04
   1 F= -.21084822E+03 E0= -.21084822E+03  d E =-.500821E-12
 Linear response reoptimize wavefunctions to high precision
DAV:   1    -0.210848215355E+03    0.27749E-08   -0.35427E-09  5640   0.200E-04
DAV:   2    -0.210848215355E+03    0.20918E-10   -0.97203E-10  5536   0.135E-04
 Linear response to external field (no local field effect), progress :
  Direction:   1
       N       E                     dE             d eps       ncg     rms          rms(c)
RMM:   1    -0.782607644402E+01   -0.78261E+01   -0.32606E+01 12079   0.508E+00
RMM:   2    -0.828892863901E+01   -0.46285E+00   -0.20679E-01 10302   0.105E+00
RMM:   3    -0.829424938515E+01   -0.53207E-02   -0.11131E-02 11367   0.350E-01
RMM:   4    -0.829500209124E+01   -0.75271E-03   -0.18773E-03 10384   0.959E-02
RMM:   5    -0.829504421413E+01   -0.42123E-04   -0.38324E-04 12449   0.428E-02
RMM:   6    -0.829505750290E+01   -0.13289E-04   -0.11275E-04 11706   0.188E-02
RMM:   7    -0.829505916229E+01   -0.16594E-05   -0.33995E-05 12409   0.106E-02
RMM:   8    -0.829506051730E+01   -0.13550E-05   -0.17922E-05 12653   0.597E-03
RMM:   9    -0.829506073846E+01   -0.22117E-06   -0.93092E-06 12470   0.402E-03
RMM:  10    -0.829506081084E+01   -0.72377E-07   -0.62232E-06 12575   0.276E-03
RMM:  11    -0.829506083699E+01   -0.26152E-07   -0.51049E-06 12669   0.210E-03
RMM:  12    -0.829506085035E+01   -0.13352E-07   -0.47023E-06 12673   0.173E-03
RMM:  13    -0.829506085325E+01   -0.29011E-08   -0.45428E-06 12706   0.151E-03
RMM:  14    -0.829506085583E+01   -0.25798E-08   -0.44921E-06 12730   0.140E-03
RMM:  15    -0.829506085589E+01   -0.67489E-10   -0.44684E-06 12732   0.133E-03
RMM:  16    -0.829506085744E+01   -0.15484E-08   -0.44732E-06 12775   0.130E-03
 change of polarisation eV/A/(eV/A) component  1 :    16.590    -0.000    -0.000
 dielectric tensor                  component  1 :     4.510    -0.000    -0.000
 Linear response to external field (no local field effect), progress :
  Direction:   2
       N       E                     dE             d eps       ncg     rms          rms(c)
RMM:   1    -0.801661590509E+01   -0.80166E+01   -0.34124E+01 11862   0.503E+00
RMM:   2    -0.851306919074E+01   -0.49645E+00   -0.22740E-01 10193   0.107E+00
RMM:   3    -0.851953930129E+01   -0.64701E-02   -0.12684E-02 11680   0.360E-01
RMM:   4    -0.852036756412E+01   -0.82826E-03   -0.19950E-03 10442   0.102E-01
RMM:   5    -0.852043642514E+01   -0.68861E-04   -0.42357E-04 12347   0.448E-02
RMM:   6    -0.852044802944E+01   -0.11604E-04   -0.10454E-04 11677   0.194E-02
RMM:   7    -0.852044998083E+01   -0.19514E-05   -0.31504E-05 12805   0.107E-02
RMM:   8    -0.852045102065E+01   -0.10398E-05   -0.13971E-05 12571   0.588E-03
RMM:   9    -0.852045125543E+01   -0.23478E-06   -0.75975E-06 12672   0.371E-03
RMM:  10    -0.852045132917E+01   -0.73736E-07   -0.53524E-06 12885   0.253E-03
RMM:  11    -0.852045135665E+01   -0.27480E-07   -0.46572E-06 12898   0.193E-03
RMM:  12    -0.852045136551E+01   -0.88590E-08   -0.43953E-06 12968   0.159E-03
RMM:  13    -0.852045136922E+01   -0.37151E-08   -0.43149E-06 13045   0.142E-03
RMM:  14    -0.852045137030E+01   -0.10787E-08   -0.42796E-06 13005   0.133E-03
RMM:  15    -0.852045137156E+01   -0.12538E-08   -0.42759E-06 13009   0.128E-03
RMM:  16    -0.852045137138E+01    0.17828E-09   -0.42697E-06 13063   0.125E-03
 change of polarisation eV/A/(eV/A) component  2 :     0.000    17.041     0.000
 dielectric tensor                  component  2 :     0.000     4.606     0.000
 Linear response to external field (no local field effect), progress :
  Direction:   3
       N       E                     dE             d eps       ncg     rms          rms(c)
RMM:   1    -0.833718409077E+01   -0.83372E+01   -0.36548E+01 12073   0.502E+00
RMM:   2    -0.876671886771E+01   -0.42953E+00   -0.21645E-01 10129   0.104E+00
RMM:   3    -0.877221310319E+01   -0.54942E-02   -0.11498E-02 11332   0.340E-01
RMM:   4    -0.877293726784E+01   -0.72416E-03   -0.19958E-03 10580   0.954E-02
RMM:   5    -0.877298811365E+01   -0.50846E-04   -0.39111E-04 12220   0.429E-02
RMM:   6    -0.877300053652E+01   -0.12423E-04   -0.11306E-04 11780   0.182E-02
RMM:   7    -0.877300171642E+01   -0.11799E-05   -0.33207E-05 12321   0.103E-02
RMM:   8    -0.877300297346E+01   -0.12570E-05   -0.17398E-05 12385   0.582E-03
RMM:   9    -0.877300321510E+01   -0.24164E-06   -0.94221E-06 12322   0.393E-03
RMM:  10    -0.877300328239E+01   -0.67287E-07   -0.64825E-06 12512   0.272E-03
RMM:  11    -0.877300331292E+01   -0.30532E-07   -0.54495E-06 12593   0.211E-03
RMM:  12    -0.877300332353E+01   -0.10604E-07   -0.50558E-06 12610   0.175E-03
RMM:  13    -0.877300332694E+01   -0.34087E-08   -0.49077E-06 12619   0.155E-03
RMM:  14    -0.877300332851E+01   -0.15710E-08   -0.48535E-06 12597   0.144E-03
RMM:  15    -0.877300333036E+01   -0.18516E-08   -0.48467E-06 12640   0.137E-03
RMM:  16    -0.877300333066E+01   -0.30558E-09   -0.48385E-06 12652   0.133E-03
 change of polarisation eV/A/(eV/A) component  3 :     0.000     0.000    17.546
 dielectric tensor                  component  3 :     0.000     0.000     4.713
 Linear response to external field, progress :
  Direction:   1
       N       E                     dE             d eps       ncg     rms          rms(c)
RMM:   1    -0.782607644402E+01   -0.78261E+01   -0.32606E+01 12079   0.508E+00
RMM:   2    -0.828892863901E+01   -0.46285E+00   -0.20679E-01 10302   0.105E+00    0.555E+00
RMM:   3    -0.770480322756E+01    0.58413E+00   -0.83917E-01 13302   0.182E+00    0.285E+00
RMM:   4    -0.787455514732E+01   -0.16975E+00   -0.88106E-01 15730   0.176E+00    0.671E-01
RMM:   5    -0.802403018679E+01   -0.14948E+00   -0.14892E-02 16494   0.558E-01    0.150E-01
RMM:   6    -0.805085750553E+01   -0.26827E-01    0.58198E-02 16732   0.131E-01    0.676E-02
RMM:   7    -0.806139519840E+01   -0.10538E-01   -0.45684E-03 16902   0.599E-02    0.191E-02
RMM:   8    -0.805747770494E+01    0.39175E-02    0.43482E-02 17386   0.275E-02    0.691E-03
RMM:   9    -0.806304221890E+01   -0.55645E-02   -0.11264E-02 17905   0.130E-02    0.293E-03
RMM:  10    -0.805508468716E+01    0.79575E-02    0.72550E-02 18280   0.766E-03    0.121E-03
RMM:  11    -0.806502059681E+01   -0.99359E-02   -0.28469E-02 19733   0.511E-03    0.393E-04
RMM:  12    -0.805603000849E+01    0.89906E-02    0.61149E-02 21032   0.403E-03    0.192E-04
RMM:  13    -0.806294831586E+01   -0.69183E-02   -0.81847E-03 21760   0.359E-03    0.143E-04
RMM:  14    -0.805621967406E+01    0.67286E-02    0.59058E-02 21866   0.344E-03    0.814E-05
RMM:  15    -0.806177710040E+01   -0.55574E-02    0.34228E-03 22131   0.335E-03    0.597E-05
RMM:  16    -0.805735132894E+01    0.44258E-02    0.47673E-02 22072   0.331E-03    0.457E-05
RMM:  17    -0.806045110939E+01   -0.30998E-02    0.16672E-02 22214   0.328E-03    0.477E-05
RMM:  18    -0.805794087089E+01    0.25102E-02    0.41776E-02 22096   0.328E-03    0.435E-05
 change of polarisation eV/A/(eV/A) component  1 :    15.028    -0.000    -0.000
 dielectric tensor                  component  1 :     4.180    -0.000    -0.000
 Linear response to external field, progress :
  Direction:   2
       N       E                     dE             d eps       ncg     rms          rms(c)
RMM:   1    -0.801661590509E+01   -0.80166E+01   -0.34124E+01 11862   0.503E+00
RMM:   2    -0.851306919074E+01   -0.49645E+00   -0.22740E-01 10193   0.107E+00    0.555E+00
RMM:   3    -0.791438884926E+01    0.59868E+00   -0.83628E-01 13944   0.177E+00    0.285E+00
RMM:   4    -0.804462292259E+01   -0.13023E+00   -0.85831E-01 16001   0.169E+00    0.697E-01
RMM:   5    -0.818156819358E+01   -0.13695E+00   -0.52553E-02 16847   0.565E-01    0.170E-01
RMM:   6    -0.821032482204E+01   -0.28757E-01   -0.41800E-02 16750   0.156E-01    0.723E-02
RMM:   7    -0.820948410966E+01    0.84071E-03   -0.49888E-03 17398   0.726E-02    0.293E-02
RMM:   8    -0.820328016166E+01    0.62039E-02    0.42205E-02 17283   0.361E-02    0.959E-03
RMM:   9    -0.820771005966E+01   -0.44299E-02   -0.23840E-03 17532   0.195E-02    0.530E-03
RMM:  10    -0.820954865156E+01   -0.18386E-02   -0.25416E-02 18676   0.117E-02    0.189E-03
RMM:  11    -0.821007636051E+01   -0.52771E-03   -0.35506E-02 19147   0.785E-03    0.777E-04
RMM:  12    -0.821151818180E+01   -0.14418E-02   -0.50182E-02 20365   0.622E-03    0.394E-04
RMM:  13    -0.821086208788E+01    0.65609E-03   -0.44307E-02 20571   0.567E-03    0.166E-04
RMM:  14    -0.821194315959E+01   -0.10811E-02   -0.55189E-02 22271   0.537E-03    0.740E-05
RMM:  15    -0.821058393681E+01    0.13592E-02   -0.41617E-02 22230   0.528E-03    0.445E-05
RMM:  16    -0.821201994231E+01   -0.14360E-02   -0.55967E-02 22704   0.521E-03    0.306E-05
RMM:  17    -0.821104545476E+01    0.97449E-03   -0.46184E-02 22530   0.519E-03    0.345E-05
RMM:  18    -0.821201699114E+01   -0.97154E-03   -0.55889E-02 22790   0.518E-03    0.176E-05
RMM:  19    -0.821146573681E+01    0.55125E-03   -0.50372E-02 22567   0.517E-03    0.282E-05
RMM:  20    -0.821186755627E+01   -0.40182E-03   -0.54385E-02 22838   0.517E-03    0.159E-05
RMM:  21    -0.821185527888E+01    0.12277E-04   -0.54257E-02 22616   0.517E-03    0.197E-05
RMM:  22    -0.821176767294E+01    0.87606E-04   -0.53376E-02 22870   0.517E-03    0.101E-05
RMM:  23    -0.821195063206E+01   -0.18296E-03   -0.55206E-02 22621   0.517E-03    0.155E-05
RMM:  24    -0.821193943717E+01    0.11195E-04   -0.55095E-02 22840   0.517E-03    0.131E-05
RMM:  25    -0.821175581827E+01    0.18362E-03   -0.53259E-02 22623   0.517E-03    0.156E-05
RMM:  26    -0.821231464751E+01   -0.55883E-03   -0.58849E-02 22855   0.517E-03    0.169E-05
RMM:  27    -0.821136829411E+01    0.94635E-03   -0.49386E-02 22619   0.517E-03    0.173E-05
 change of polarisation eV/A/(eV/A) component  2 :     0.000    15.437     0.000
 dielectric tensor                  component  2 :     0.000     4.266     0.000
 Linear response to external field, progress :
  Direction:   3
       N       E                     dE             d eps       ncg     rms          rms(c)
RMM:   1    -0.833718409077E+01   -0.83372E+01   -0.36548E+01 12073   0.502E+00
RMM:   2    -0.876671886771E+01   -0.42953E+00   -0.21645E-01 10129   0.104E+00    0.560E+00
RMM:   3    -0.820875671743E+01    0.55796E+00   -0.81178E-01 12915   0.179E+00    0.290E+00
RMM:   4    -0.838990578126E+01   -0.18115E+00   -0.88381E-01 15385   0.178E+00    0.670E-01
RMM:   5    -0.854979813641E+01   -0.15989E+00   -0.23855E-02 15387   0.539E-01    0.132E-01
RMM:   6    -0.857229414045E+01   -0.22496E-01   -0.22964E-03 16194   0.119E-01    0.670E-02
RMM:   7    -0.858178229494E+01   -0.94882E-02   -0.42560E-04 15896   0.603E-02    0.123E-02
RMM:   8    -0.858076269384E+01    0.10196E-02   -0.43851E-06 17120   0.228E-02    0.591E-03
RMM:   9    -0.858178020815E+01   -0.10175E-02   -0.31213E-04 16205   0.109E-02    0.261E-03
RMM:  10    -0.858167348161E+01    0.10673E-03    0.62950E-05 18018   0.502E-03    0.103E-03
RMM:  11    -0.858177437395E+01   -0.10089E-03   -0.23926E-04 18477   0.282E-03    0.308E-04
RMM:  12    -0.858173194194E+01    0.42432E-04    0.16521E-04 20217   0.190E-03    0.137E-04
RMM:  13    -0.858177310801E+01   -0.41166E-04   -0.24624E-04 20988   0.158E-03    0.551E-05
RMM:  14    -0.858173302760E+01    0.40080E-04    0.15109E-04 21178   0.145E-03    0.317E-05
RMM:  15    -0.858177220730E+01   -0.39180E-04   -0.25920E-04 21323   0.140E-03    0.130E-05
RMM:  16    -0.858173606580E+01    0.36142E-04    0.10778E-04 21243   0.137E-03    0.527E-06
 change of polarisation eV/A/(eV/A) component  3 :    -0.000     0.000    16.057
 dielectric tensor                  component  3 :    -0.000     0.000     4.398
 Linear response DOF=         144
 Linear response progress:
  Degree of freedom:   1/144
       N       E                     dE             d eps       ncg     rms          rms(c)
RMM:   1    -0.158805810066E-01   -0.15881E-01    0.35824E-03 21716   0.245E-01
RMM:   2    -0.856843925703E-02    0.73121E-02   -0.21567E-03 17294   0.597E-02    0.110E-01
RMM:   3    -0.102720634500E-01   -0.17036E-02   -0.75374E-04 16759   0.212E-02    0.637E-02
RMM:   4    -0.106404635268E-01   -0.36840E-03   -0.74114E-04 16054   0.174E-02    0.142E-02
RMM:   5    -0.983210146913E-02    0.80836E-03   -0.51225E-04 17009   0.745E-03    0.293E-03
RMM:   6    -0.991343601496E-02   -0.81335E-04   -0.52513E-04 18529   0.316E-03    0.143E-03
RMM:   7    -0.983662524920E-02    0.76811E-04   -0.41619E-04 17237   0.206E-03    0.574E-04
RMM:   8    -0.975096590902E-02    0.85659E-04   -0.36358E-04 19603   0.137E-03    0.379E-04
RMM:   9    -0.977780929262E-02   -0.26843E-04   -0.55911E-04 18958   0.110E-03    0.973E-05
RMM:  10    -0.978718381450E-02   -0.93745E-05   -0.55032E-04 20386   0.946E-04    0.108E-04
RMM:  11    -0.977669504380E-02    0.10489E-04   -0.54694E-04 20857   0.862E-04    0.211E-05
RMM:  12    -0.978046747327E-02   -0.37724E-05   -0.59794E-04 21737   0.818E-04    0.227E-05
RMM:  13    -0.977415199266E-02    0.63155E-05   -0.51807E-04 23102   0.804E-04    0.540E-06
 force on displaced ion       1 direction 1 :  -7.864   4.592  -7.613
 Born effective charge ion    1 direction 1 :   0.498  -0.114   0.238
 Linear response progress:
  Degree of freedom:   2/144
       N       E                     dE             d eps       ncg     rms          rms(c)
RMM:   1    -0.175266853910E-01   -0.17527E-01    0.24814E-03 22218   0.251E-01
RMM:   2    -0.266546759602E-01   -0.91280E-02    0.96667E-04 16901   0.661E-02    0.131E-01
RMM:   3    -0.227492458465E-01    0.39054E-02    0.34470E-04 16918   0.297E-02    0.711E-02
RMM:   4    -0.219246700969E-01    0.82458E-03    0.39748E-04 16343   0.169E-02    0.234E-02
RMM:   5    -0.226733881992E-01   -0.74872E-03    0.76227E-04 16473   0.826E-03    0.356E-03
RMM:   6    -0.225658643705E-01    0.10752E-03    0.14481E-03 18207   0.335E-03    0.165E-03
RMM:   7    -0.226962920071E-01   -0.13043E-03    0.86870E-04 16861   0.212E-03    0.716E-04
RMM:   8    -0.227508011544E-01   -0.54509E-04    0.10894E-03 19557   0.138E-03    0.477E-04
RMM:   9    -0.227390896819E-01    0.11711E-04    0.11593E-03 18248   0.102E-03    0.120E-04
RMM:  10    -0.227006300974E-01    0.38460E-04    0.14783E-03 21027   0.812E-04    0.863E-05
RMM:  11    -0.227388369018E-01   -0.38207E-04    0.11657E-03 19555   0.724E-04    0.230E-05
RMM:  12    -0.226969039663E-01    0.41933E-04    0.15943E-03 22366   0.684E-04    0.130E-05
RMM:  13    -0.227351515918E-01   -0.38248E-04    0.12138E-03 22453   0.668E-04    0.941E-06
 force on displaced ion       1 direction 2 :   4.591 -13.080  12.325
 Born effective charge ion    1 direction 2 :  -0.131   0.259  -0.161
 Linear response progress:
  Degree of freedom:   3/144
       N       E                     dE             d eps       ncg     rms          rms(c)
RMM:   1    -0.222031146565E-01   -0.22203E-01    0.15091E-02 23141   0.342E-01
RMM:   2     0.103740006077E-01    0.32577E-01   -0.15893E-02 16551   0.977E-02    0.168E-01
RMM:   3     0.135044337830E-02   -0.90236E-02   -0.66784E-03 17498   0.434E-02    0.865E-02
RMM:   4    -0.716069372749E-03   -0.20665E-02   -0.50804E-03 16601   0.225E-02    0.334E-02
RMM:   5     0.975050610091E-03    0.16911E-02   -0.63719E-03 16735   0.125E-02    0.598E-03
RMM:   6     0.472833962927E-03   -0.50222E-03   -0.82134E-03 18170   0.531E-03    0.243E-03
RMM:   7     0.801625237999E-03    0.32879E-03   -0.82189E-03 16871   0.352E-03    0.143E-03
RMM:   8     0.105308218368E-02    0.25146E-03   -0.81901E-03 20317   0.242E-03    0.761E-04
RMM:   9     0.106323872553E-02    0.10157E-04   -0.84570E-03 18247   0.187E-03    0.186E-04
RMM:  10     0.101830245822E-02   -0.44936E-04   -0.88859E-03 20513   0.154E-03    0.107E-04
RMM:  11     0.997845154069E-03   -0.20457E-04   -0.91265E-03 20166   0.141E-03    0.421E-05
RMM:  12     0.100330772278E-02    0.54626E-05   -0.90641E-03 22020   0.133E-03    0.296E-05
RMM:  13     0.975249779176E-03   -0.28058E-04   -0.93188E-03 22009   0.131E-03    0.343E-05
 force on displaced ion       1 direction 3 :  -7.612  12.327 -25.422
 Born effective charge ion    1 direction 3 :   0.309  -0.145   0.636
 Linear response progress:
  Degree of freedom:   4/144
       N       E                     dE             d eps       ncg     rms          rms(c)
RMM:   1    -0.158699689421E-01   -0.15870E-01    0.35598E-03 21680   0.242E-01
RMM:   2    -0.857275392731E-02    0.72972E-02   -0.20265E-03 17328   0.592E-02    0.110E-01
RMM:   3    -0.102842862430E-01   -0.17115E-02   -0.74763E-04 16765   0.212E-02    0.637E-02
RMM:   4    -0.106534801993E-01   -0.36919E-03   -0.73310E-04 16065   0.174E-02    0.142E-02
RMM:   5    -0.984657039603E-02    0.80691E-03   -0.51306E-04 17025   0.746E-03    0.293E-03
RMM:   6    -0.992856362267E-02   -0.81993E-04   -0.52736E-04 18548   0.315E-03    0.143E-03
RMM:   7    -0.985177122688E-02    0.76792E-04   -0.42063E-04 17255   0.206E-03    0.574E-04
RMM:   8    -0.976524790016E-02    0.86523E-04   -0.35744E-04 19600   0.137E-03    0.380E-04
RMM:   9    -0.979210100769E-02   -0.26853E-04   -0.55184E-04 18946   0.110E-03    0.976E-05
RMM:  10    -0.980101743936E-02   -0.89164E-05   -0.53831E-04 20422   0.945E-04    0.108E-04
RMM:  11    -0.979157443492E-02    0.94430E-05   -0.54529E-04 20919   0.861E-04    0.213E-05
RMM:  12    -0.979525302121E-02   -0.36786E-05   -0.59567E-04 21704   0.817E-04    0.226E-05
RMM:  13    -0.978891836741E-02    0.63347E-05   -0.51574E-04 22985   0.802E-04    0.549E-06
 force on displaced ion       2 direction 1 :  -7.864  -4.592   7.613
 Born effective charge ion    2 direction 1 :   0.498   0.114  -0.238
 Linear response progress:
  Degree of freedom:   5/144
       N       E                     dE             d eps       ncg     rms          rms(c)
RMM:   1    -0.174815965884E-01   -0.17482E-01    0.26293E-03 22249   0.248E-01
RMM:   2     0.527894390419E-03    0.18009E-01   -0.50163E-03 16921   0.657E-02    0.131E-01
RMM:   3    -0.407866595101E-02   -0.46066E-02   -0.23634E-03 16968   0.297E-02    0.712E-02
RMM:   4    -0.550883126369E-02   -0.14302E-02   -0.17772E-03 16358   0.169E-02    0.234E-02
RMM:   5    -0.484370170831E-02    0.66513E-03   -0.16259E-03 16488   0.838E-03    0.358E-03
RMM:   6    -0.485174356421E-02   -0.80419E-05   -0.13547E-03 18162   0.349E-03    0.164E-03
RMM:   7    -0.478346542271E-02    0.68278E-04   -0.16882E-03 16786   0.224E-03    0.729E-04
RMM:   8    -0.470868958439E-02    0.74776E-04   -0.18132E-03 19498   0.153E-03    0.497E-04
RMM:   9    -0.476133353463E-02   -0.52644E-04   -0.22872E-03 18181   0.117E-03    0.121E-04
RMM:  10    -0.476564194811E-02   -0.43084E-05   -0.22555E-03 20951   0.953E-04    0.770E-05
RMM:  11    -0.475758674314E-02    0.80552E-05   -0.22293E-03 19601   0.864E-04    0.378E-05
RMM:  12    -0.482173336771E-02   -0.64147E-04   -0.28976E-03 22176   0.826E-04    0.160E-05
RMM:  13    -0.473935826198E-02    0.82375E-04   -0.20719E-03 22325   0.809E-04    0.106E-05
 force on displaced ion       2 direction 2 :  -4.591 -13.079  12.327
 Born effective charge ion    2 direction 2 :   0.131   0.260  -0.161
 Linear response progress:
  Degree of freedom:   6/144
       N       E                     dE             d eps       ncg     rms          rms(c)
RMM:   1    -0.221225457244E-01   -0.22123E-01    0.15549E-02 23197   0.339E-01
RMM:   2    -0.416854194208E-01   -0.19563E-01    0.61032E-03 16573   0.968E-02    0.168E-01
RMM:   3    -0.320203228045E-01    0.96651E-02    0.28570E-03 17507   0.434E-02    0.865E-02
RMM:   4    -0.305299498186E-01    0.14904E-02    0.25672E-03 16585   0.224E-02    0.334E-02
RMM:   5    -0.326329013465E-01   -0.21030E-02    0.48345E-03 16754   0.125E-02    0.596E-03
RMM:   6    -0.322774314904E-01    0.35547E-03    0.46339E-03 18250   0.523E-03    0.244E-03
RMM:   7    -0.325340817469E-01   -0.25665E-03    0.48575E-03 16857   0.344E-03    0.141E-03
RMM:   8    -0.327321473995E-01   -0.19807E-03    0.55004E-03 20136   0.235E-03    0.721E-04
RMM:   9    -0.327682516141E-01   -0.36104E-04    0.55170E-03 18143   0.181E-03    0.182E-04
RMM:  10    -0.327501562512E-01    0.18095E-04    0.56899E-03 20602   0.148E-03    0.109E-04
RMM:  11    -0.327643845789E-01   -0.14228E-04    0.55908E-03 19960   0.135E-03    0.432E-05
RMM:  12    -0.327180459076E-01    0.46339E-04    0.60522E-03 22162   0.128E-03    0.288E-05
RMM:  13    -0.327566193083E-01   -0.38573E-04    0.56381E-03 22064   0.125E-03    0.351E-05
 force on displaced ion       2 direction 3 :   7.613  12.328 -25.422
 Born effective charge ion    2 direction 3 :  -0.309  -0.145   0.636
 Linear response progress:
  Degree of freedom:   7/144
       N       E                     dE             d eps       ncg     rms          rms(c)
RMM:   1    -0.158720241173E-01   -0.15872E-01    0.35454E-03 21681   0.242E-01
RMM:   2    -0.190199362706E-01   -0.31479E-02   -0.58299E-04 17299   0.593E-02    0.110E-01
RMM:   3    -0.178857131235E-01    0.11342E-02    0.47984E-05 16770   0.211E-02    0.637E-02
RMM:   4    -0.178589190294E-01    0.26794E-04    0.63492E-05 15957   0.174E-02    0.142E-02
RMM:   5    -0.184346052300E-01   -0.57569E-03    0.20551E-04 17065   0.737E-03    0.294E-03
RMM:   6    -0.183684360682E-01    0.66169E-04    0.27403E-04 18630   0.299E-03    0.145E-03
RMM:   7    -0.184139193214E-01   -0.45483E-04    0.14085E-04 17385   0.190E-03    0.596E-04
RMM:   8    -0.184692044524E-01   -0.55285E-04    0.14501E-04 19738   0.121E-03    0.417E-04
RMM:   9    -0.184605938205E-01    0.86106E-05    0.15070E-04 18990   0.941E-04    0.937E-05
RMM:  10    -0.184522544472E-01    0.83394E-05    0.17553E-04 20571   0.771E-04    0.998E-05
RMM:  11    -0.184570723745E-01   -0.48179E-05    0.18881E-04 21043   0.687E-04    0.218E-05
RMM:  12    -0.184569886279E-01    0.83747E-07    0.19633E-04 21882   0.645E-04    0.169E-05
RMM:  13    -0.184574822918E-01   -0.49366E-06    0.18396E-04 22832   0.631E-04    0.522E-06
 force on displaced ion       3 direction 1 :  -7.865   4.592   7.613
 Born effective charge ion    3 direction 1 :   0.498  -0.114  -0.238
 Linear response progress:
  Degree of freedom:   8/144
       N       E                     dE             d eps       ncg     rms          rms(c)
RMM:   1    -0.174818224965E-01   -0.17482E-01    0.26328E-03 22188   0.248E-01
RMM:   2     0.606936371988E-03    0.18089E-01   -0.49699E-03 16920   0.658E-02    0.131E-01
RMM:   3    -0.402821601039E-02   -0.46352E-02   -0.23648E-03 16926   0.297E-02    0.712E-02
RMM:   4    -0.546642511637E-02   -0.14382E-02   -0.17925E-03 16360   0.170E-02    0.233E-02
RMM:   5    -0.479087276673E-02    0.67555E-03   -0.15889E-03 16487   0.840E-03    0.358E-03
RMM:   6    -0.480945016066E-02   -0.18577E-04   -0.14113E-03 18139   0.349E-03    0.165E-03
RMM:   7    -0.473358401900E-02    0.75866E-04   -0.16733E-03 16775   0.225E-03    0.731E-04
RMM:   8    -0.465812845969E-02    0.75456E-04   -0.18010E-03 19521   0.153E-03    0.501E-04
RMM:   9    -0.471199306076E-02   -0.53865E-04   -0.22845E-03 18193   0.117E-03    0.122E-04
RMM:  10    -0.472538491502E-02   -0.13392E-04   -0.23426E-03 20954   0.952E-04    0.763E-05
RMM:  11    -0.471832389260E-02    0.70610E-05   -0.23258E-03 19596   0.863E-04    0.389E-05
RMM:  12    -0.476508585094E-02   -0.46762E-04   -0.28217E-03 22257   0.825E-04    0.164E-05
RMM:  13    -0.469012740706E-02    0.74958E-04   -0.20695E-03 22544   0.807E-04    0.108E-05
 force on displaced ion       3 direction 2 :   4.591 -13.079 -12.327
 Born effective charge ion    3 direction 2 :  -0.131   0.260   0.161
 Linear response progress:
  Degree of freedom:   9/144
       N       E                     dE             d eps       ncg     rms          rms(c)
RMM:   1    -0.221238143892E-01   -0.22124E-01    0.15551E-02 23133   0.339E-01
RMM:   2     0.104332996610E-01    0.32557E-01   -0.16261E-02 16596   0.969E-02    0.168E-01
RMM:   3     0.143336936345E-02   -0.89999E-02   -0.64334E-03 17485   0.434E-02    0.865E-02
RMM:   4    -0.661742928067E-03   -0.20951E-02   -0.50243E-03 16571   0.225E-02    0.334E-02
RMM:   5     0.102469033868E-02    0.16864E-02   -0.64285E-03 16739   0.125E-02    0.597E-03
RMM:   6     0.528409525254E-03   -0.49628E-03   -0.82079E-03 18177   0.530E-03    0.243E-03
RMM:   7     0.850615729654E-03    0.32221E-03   -0.82568E-03 16867   0.351E-03    0.144E-03
RMM:   8     0.110453742680E-02    0.25392E-03   -0.82027E-03 20320   0.242E-03    0.755E-04
RMM:   9     0.111533263102E-02    0.10795E-04   -0.84717E-03 18270   0.186E-03    0.187E-04
RMM:  10     0.107157471506E-02   -0.43758E-04   -0.88876E-03 20529   0.154E-03    0.107E-04
RMM:  11     0.105495979975E-02   -0.16615E-04   -0.90884E-03 20189   0.141E-03    0.428E-05
RMM:  12     0.105508785066E-02    0.12805E-06   -0.90802E-03 22164   0.133E-03    0.298E-05
RMM:  13     0.102999147228E-02   -0.25096E-04   -0.93046E-03 22167   0.131E-03    0.353E-05
 force on displaced ion       3 direction 3 :   7.612 -12.327 -25.422
 Born effective charge ion    3 direction 3 :  -0.309   0.145   0.636
 Linear response progress:
  Degree of freedom:  10/144
       N       E                     dE             d eps       ncg     rms          rms(c)
RMM:   1    -0.158792955711E-01   -0.15879E-01    0.36025E-03 21696   0.245E-01
RMM:   2    -0.190166874866E-01   -0.31374E-02   -0.32595E-04 17272   0.597E-02    0.110E-01
RMM:   3    -0.179120305581E-01    0.11047E-02    0.82127E-06 16770   0.212E-02    0.637E-02
RMM:   4    -0.178855923694E-01    0.26438E-04    0.41113E-05 15964   0.174E-02    0.142E-02
RMM:   5    -0.184574694460E-01   -0.57188E-03    0.22302E-04 17078   0.737E-03    0.294E-03
RMM:   6    -0.183930585437E-01    0.64411E-04    0.27658E-04 18605   0.299E-03    0.145E-03
RMM:   7    -0.184394557032E-01   -0.46397E-04    0.13987E-04 17381   0.190E-03    0.595E-04
RMM:   8    -0.184953727545E-01   -0.55917E-04    0.14204E-04 19755   0.121E-03    0.419E-04
RMM:   9    -0.184869547803E-01    0.84180E-05    0.14316E-04 19006   0.940E-04    0.936E-05
RMM:  10    -0.184780632321E-01    0.88915E-05    0.17415E-04 20544   0.770E-04    0.998E-05
RMM:  11    -0.184830454309E-01   -0.49822E-05    0.18607E-04 21046   0.686E-04    0.221E-05
RMM:  12    -0.184831123632E-01   -0.66932E-07    0.19363E-04 21855   0.645E-04    0.180E-05
RMM:  13    -0.184826973494E-01    0.41501E-06    0.18973E-04 22804   0.630E-04    0.534E-06
 force on displaced ion       4 direction 1 :  -7.865  -4.592  -7.613
 Born effective charge ion    4 direction 1 :   0.498   0.114   0.238
 Linear response progress:
  Degree of freedom:  11/144
       N       E                     dE             d eps       ncg     rms          rms(c)
RMM:   1    -0.175281853027E-01   -0.17528E-01    0.24736E-03 22243   0.251E-01
RMM:   2    -0.266634049007E-01   -0.91352E-02    0.88924E-04 16912   0.662E-02    0.131E-01
RMM:   3    -0.227539024662E-01    0.39095E-02    0.32931E-04 16917   0.297E-02    0.711E-02
RMM:   4    -0.219258881255E-01    0.82801E-03    0.41224E-04 16331   0.169E-02    0.233E-02
RMM:   5    -0.226786174590E-01   -0.75273E-03    0.72968E-04 16492   0.826E-03    0.356E-03
RMM:   6    -0.225706099488E-01    0.10801E-03    0.14236E-03 18200   0.335E-03    0.165E-03
RMM:   7    -0.227017102924E-01   -0.13110E-03    0.83858E-04 16879   0.212E-03    0.714E-04
RMM:   8    -0.227522392823E-01   -0.50529E-04    0.10982E-03 19570   0.138E-03    0.476E-04
RMM:   9    -0.227436157069E-01    0.86236E-05    0.11368E-03 18234   0.102E-03    0.120E-04
RMM:  10    -0.227096029804E-01    0.34013E-04    0.14105E-03 21006   0.811E-04    0.875E-05
RMM:  11    -0.227412972141E-01   -0.31694E-04    0.11644E-03 19566   0.723E-04    0.218E-05
RMM:  12    -0.227040856942E-01    0.37212E-04    0.15439E-03 22347   0.681E-04    0.125E-05
RMM:  13    -0.227404061634E-01   -0.36320E-04    0.11833E-03 22419   0.665E-04    0.818E-06
 force on displaced ion       4 direction 2 :  -4.591 -13.079 -12.325
 Born effective charge ion    4 direction 2 :   0.131   0.259   0.161
 Linear response progress:
  Degree of freedom:  12/144
       N       E                     dE             d eps       ncg     rms          rms(c)
RMM:   1    -0.222057092305E-01   -0.22206E-01    0.15083E-02 23151   0.343E-01
RMM:   2    -0.415986566175E-01   -0.19393E-01    0.59577E-03 16547   0.977E-02    0.168E-01
RMM:   3    -0.319897501249E-01    0.96089E-02    0.26133E-03 17494   0.434E-02    0.865E-02
RMM:   4    -0.304812088484E-01    0.15085E-02    0.25699E-03 16596   0.225E-02    0.334E-02
RMM:   5    -0.325775556696E-01   -0.20963E-02    0.48651E-03 16747   0.125E-02    0.598E-03
RMM:   6    -0.322298658610E-01    0.34769E-03    0.45723E-03 18236   0.525E-03    0.244E-03
RMM:   7    -0.324855221746E-01   -0.25566E-03    0.48245E-03 16861   0.344E-03    0.141E-03
RMM:   8    -0.326814183985E-01   -0.19590E-03    0.54826E-03 20131   0.235E-03    0.723E-04
RMM:   9    -0.327181545591E-01   -0.36736E-04    0.54915E-03 18128   0.180E-03    0.181E-04
RMM:  10    -0.326979148244E-01    0.20240E-04    0.56861E-03 20581   0.148E-03    0.109E-04
RMM:  11    -0.327132541803E-01   -0.15339E-04    0.55799E-03 19926   0.135E-03    0.421E-05
RMM:  12    -0.326685057195E-01    0.44748E-04    0.60242E-03 22046   0.127E-03    0.286E-05
RMM:  13    -0.327078296269E-01   -0.39324E-04    0.56024E-03 21922   0.125E-03    0.341E-05
 force on displaced ion       4 direction 3 :  -7.613 -12.328 -25.422
 Born effective charge ion    4 direction 3 :   0.309   0.145   0.636
 Linear response progress:
  Degree of freedom:  13/144
       N       E                     dE             d eps       ncg     rms          rms(c)
RMM:   1    -0.158706301845E-01   -0.15871E-01    0.35595E-03 21660   0.242E-01
RMM:   2    -0.190078040694E-01   -0.31372E-02   -0.43297E-04 17316   0.592E-02    0.110E-01
RMM:   3    -0.178917432409E-01    0.11161E-02    0.31592E-05 16752   0.211E-02    0.637E-02
RMM:   4    -0.178648849704E-01    0.26858E-04    0.54141E-05 15972   0.174E-02    0.142E-02
RMM:   5    -0.184386884811E-01   -0.57380E-03    0.21386E-04 17080   0.737E-03    0.294E-03
RMM:   6    -0.183732969699E-01    0.65392E-04    0.27085E-04 18607   0.299E-03    0.145E-03
RMM:   7    -0.184187541175E-01   -0.45457E-04    0.14096E-04 17377   0.190E-03    0.596E-04
RMM:   8    -0.184746366682E-01   -0.55883E-04    0.14229E-04 19728   0.121E-03    0.420E-04
RMM:   9    -0.184656866437E-01    0.89500E-05    0.14806E-04 19018   0.941E-04    0.939E-05
RMM:  10    -0.184570760878E-01    0.86106E-05    0.17512E-04 20575   0.771E-04    0.100E-04
RMM:  11    -0.184621017124E-01   -0.50256E-05    0.18674E-04 21030   0.687E-04    0.221E-05
RMM:  12    -0.184623044348E-01   -0.20272E-06    0.19204E-04 21807   0.646E-04    0.173E-05
RMM:  13    -0.184620298497E-01    0.27459E-06    0.18698E-04 22757   0.631E-04    0.520E-06
 force on displaced ion       5 direction 1 :  -7.865   4.592  -7.612
 Born effective charge ion    5 direction 1 :   0.498  -0.114   0.238
 Linear response progress:
  Degree of freedom:  14/144
       N       E                     dE             d eps       ncg     rms          rms(c)
RMM:   1    -0.174827104963E-01   -0.17483E-01    0.26243E-03 22209   0.248E-01
RMM:   2     0.609886920805E-03    0.18093E-01   -0.49988E-03 16900   0.658E-02    0.131E-01
RMM:   3    -0.402774849859E-02   -0.46376E-02   -0.23782E-03 16976   0.297E-02    0.712E-02
RMM:   4    -0.546495421963E-02   -0.14372E-02   -0.17948E-03 16357   0.169E-02    0.234E-02
RMM:   5    -0.479131564599E-02    0.67364E-03   -0.16170E-03 16499   0.839E-03    0.358E-03
RMM:   6    -0.480301149894E-02   -0.11696E-04   -0.13727E-03 18164   0.349E-03    0.164E-03
RMM:   7    -0.473237506872E-02    0.70636E-04   -0.16884E-03 16793   0.225E-03    0.730E-04
RMM:   8    -0.465646324355E-02    0.75912E-04   -0.18118E-03 19502   0.153E-03    0.499E-04
RMM:   9    -0.470820588904E-02   -0.51743E-04   -0.22753E-03 18188   0.117E-03    0.122E-04
RMM:  10    -0.471068243746E-02   -0.24765E-05   -0.22239E-03 20944   0.954E-04    0.769E-05
RMM:  11    -0.469837539223E-02    0.12307E-04   -0.21556E-03 19613   0.865E-04    0.377E-05
RMM:  12    -0.477084243585E-02   -0.72467E-04   -0.29072E-03 22266   0.827E-04    0.163E-05
RMM:  13    -0.468656336295E-02    0.84279E-04   -0.20626E-03 22503   0.809E-04    0.107E-05
 force on displaced ion       5 direction 2 :   4.591 -13.079  12.327
 Born effective charge ion    5 direction 2 :  -0.131   0.260  -0.161
 Linear response progress:
  Degree of freedom:  15/144
       N       E                     dE             d eps       ncg     rms          rms(c)
RMM:   1    -0.221243510197E-01   -0.22124E-01    0.15547E-02 23184   0.339E-01
RMM:   2    -0.415207075488E-01   -0.19396E-01    0.59494E-03 16574   0.968E-02    0.168E-01
RMM:   3    -0.319136062508E-01    0.96071E-02    0.28646E-03 17489   0.435E-02    0.865E-02
RMM:   4    -0.304317581252E-01    0.14818E-02    0.25900E-03 16582   0.225E-02    0.334E-02
RMM:   5    -0.325263503909E-01   -0.20946E-02    0.48200E-03 16756   0.125E-02    0.598E-03
RMM:   6    -0.321725052669E-01    0.35385E-03    0.46017E-03 18245   0.524E-03    0.244E-03
RMM:   7    -0.324227788691E-01   -0.25027E-03    0.48652E-03 16857   0.344E-03    0.142E-03
RMM:   8    -0.326216016315E-01   -0.19882E-03    0.54804E-03 20131   0.235E-03    0.719E-04
RMM:   9    -0.326547706660E-01   -0.33169E-04    0.55317E-03 18137   0.180E-03    0.182E-04
RMM:  10    -0.326361362622E-01    0.18634E-04    0.57097E-03 20590   0.148E-03    0.109E-04
RMM:  11    -0.326553461452E-01   -0.19210E-04    0.55599E-03 19927   0.135E-03    0.430E-05
RMM:  12    -0.326086305294E-01    0.46716E-04    0.60245E-03 21931   0.128E-03    0.284E-05
RMM:  13    -0.326507194985E-01   -0.42089E-04    0.55753E-03 21845   0.125E-03    0.347E-05
 force on displaced ion       5 direction 3 :  -7.613  12.328 -25.422
 Born effective charge ion    5 direction 3 :   0.309  -0.145   0.636
 Linear response progress:
  Degree of freedom:  16/144
       N       E                     dE             d eps       ncg     rms          rms(c)
RMM:   1    -0.158815784623E-01   -0.15882E-01    0.35794E-03 21691   0.245E-01
RMM:   2    -0.190355167241E-01   -0.31539E-02   -0.54359E-04 17289   0.597E-02    0.110E-01
RMM:   3    -0.179058178985E-01    0.11297E-02    0.31355E-05 16773   0.212E-02    0.637E-02
RMM:   4    -0.178798079845E-01    0.26010E-04    0.48160E-05 15944   0.174E-02    0.142E-02
RMM:   5    -0.184537192540E-01   -0.57391E-03    0.21403E-04 17064   0.736E-03    0.294E-03
RMM:   6    -0.183882657468E-01    0.65454E-04    0.27683E-04 18608   0.299E-03    0.145E-03
RMM:   7    -0.184351647379E-01   -0.46899E-04    0.13220E-04 17381   0.190E-03    0.596E-04
RMM:   8    -0.184906248948E-01   -0.55460E-04    0.13761E-04 19750   0.121E-03    0.416E-04
RMM:   9    -0.184818359472E-01    0.87889E-05    0.14512E-04 19003   0.941E-04    0.937E-05
RMM:  10    -0.184736468723E-01    0.81891E-05    0.16834E-04 20511   0.771E-04    0.100E-04
RMM:  11    -0.184779588651E-01   -0.43120E-05    0.18695E-04 21068   0.688E-04    0.219E-05
RMM:  12    -0.184772895556E-01    0.66931E-06    0.20090E-04 21883   0.646E-04    0.174E-05
RMM:  13    -0.184781456211E-01   -0.85607E-06    0.18463E-04 22870   0.631E-04    0.523E-06
 force on displaced ion       6 direction 1 :  -7.865  -4.592   7.613
 Born effective charge ion    6 direction 1 :   0.498   0.114  -0.238
 Linear response progress:
  Degree of freedom:  17/144
       N       E                     dE             d eps       ncg     rms          rms(c)
RMM:   1    -0.175280217165E-01   -0.17528E-01    0.24747E-03 22189   0.251E-01
RMM:   2    -0.266489295183E-01   -0.91209E-02    0.98876E-04 16896   0.662E-02    0.131E-01
RMM:   3    -0.227499859602E-01    0.38989E-02    0.35262E-04 16910   0.297E-02    0.711E-02
RMM:   4    -0.219258025277E-01    0.82418E-03    0.41078E-04 16349   0.169E-02    0.234E-02
RMM:   5    -0.226751431019E-01   -0.74934E-03    0.74135E-04 16486   0.825E-03    0.356E-03
RMM:   6    -0.225675761740E-01    0.10757E-03    0.14358E-03 18201   0.335E-03    0.165E-03
RMM:   7    -0.226996608351E-01   -0.13208E-03    0.83877E-04 16859   0.212E-03    0.714E-04
RMM:   8    -0.227518994113E-01   -0.52239E-04    0.10789E-03 19573   0.138E-03    0.476E-04
RMM:   9    -0.227413343129E-01    0.10565E-04    0.11377E-03 18241   0.102E-03    0.120E-04
RMM:  10    -0.227064674930E-01    0.34867E-04    0.14198E-03 21023   0.810E-04    0.882E-05
RMM:  11    -0.227407686077E-01   -0.34301E-04    0.11484E-03 19497   0.721E-04    0.215E-05
RMM:  12    -0.226992396248E-01    0.41529E-04    0.15705E-03 22372   0.678E-04    0.132E-05
RMM:  13    -0.227394929500E-01   -0.40253E-04    0.11717E-03 22461   0.663E-04    0.871E-06
 force on displaced ion       6 direction 2 :  -4.591 -13.080  12.325
 Born effective charge ion    6 direction 2 :   0.131   0.259  -0.161
 Linear response progress:
  Degree of freedom:  18/144
       N       E                     dE             d eps       ncg     rms          rms(c)
RMM:   1    -0.222052870347E-01   -0.22205E-01    0.15086E-02 23108   0.343E-01
RMM:   2     0.103804817196E-01    0.32586E-01   -0.16010E-02 16557   0.977E-02    0.168E-01
RMM:   3     0.136517247623E-02   -0.90153E-02   -0.66529E-03 17506   0.434E-02    0.865E-02
RMM:   4    -0.702225076981E-03   -0.20674E-02   -0.50639E-03 16599   0.225E-02    0.334E-02
RMM:   5     0.983192766530E-03    0.16854E-02   -0.63629E-03 16741   0.125E-02    0.596E-03
RMM:   6     0.480705460304E-03   -0.50249E-03   -0.82357E-03 18160   0.530E-03    0.243E-03
RMM:   7     0.809689107160E-03    0.32898E-03   -0.82392E-03 16874   0.351E-03    0.142E-03
RMM:   8     0.106251763926E-02    0.25283E-03   -0.81859E-03 20315   0.242E-03    0.759E-04
RMM:   9     0.106849332002E-02    0.59757E-05   -0.84934E-03 18264   0.187E-03    0.185E-04
RMM:  10     0.102854321599E-02   -0.39950E-04   -0.88718E-03 20503   0.154E-03    0.107E-04
RMM:  11     0.100790846035E-02   -0.20635E-04   -0.91151E-03 20197   0.141E-03    0.423E-05
RMM:  12     0.101479240244E-02    0.68839E-05   -0.90384E-03 22059   0.133E-03    0.300E-05
RMM:  13     0.985764297400E-03   -0.29028E-04   -0.93026E-03 22051   0.131E-03    0.346E-05
 force on displaced ion       6 direction 3 :   7.612  12.327 -25.422
 Born effective charge ion    6 direction 3 :  -0.309  -0.145   0.636
 Linear response progress:
  Degree of freedom:  19/144
       N       E                     dE             d eps       ncg     rms          rms(c)
RMM:   1    -0.158788859540E-01   -0.15879E-01    0.35995E-03 21725   0.245E-01
RMM:   2    -0.854361410940E-02    0.73353E-02   -0.19369E-03 17303   0.596E-02    0.110E-01
RMM:   3    -0.102693626143E-01   -0.17257E-02   -0.77300E-04 16754   0.212E-02    0.637E-02
RMM:   4    -0.106356838208E-01   -0.36632E-03   -0.74694E-04 16064   0.174E-02    0.142E-02
RMM:   5    -0.982614164990E-02    0.80954E-03   -0.50176E-04 17020   0.746E-03    0.293E-03
RMM:   6    -0.990954615007E-02   -0.83405E-04   -0.53234E-04 18546   0.316E-03    0.144E-03
RMM:   7    -0.983252075253E-02    0.77025E-04   -0.42411E-04 17231   0.206E-03    0.574E-04
RMM:   8    -0.974606925234E-02    0.86452E-04   -0.36064E-04 19601   0.137E-03    0.378E-04
RMM:   9    -0.977246210575E-02   -0.26393E-04   -0.55338E-04 18952   0.111E-03    0.971E-05
RMM:  10    -0.978144001588E-02   -0.89779E-05   -0.54192E-04 20401   0.946E-04    0.107E-04
RMM:  11    -0.977178756956E-02    0.96524E-05   -0.54574E-04 20905   0.862E-04    0.213E-05
RMM:  12    -0.977553456665E-02   -0.37470E-05   -0.59708E-04 21712   0.818E-04    0.226E-05
RMM:  13    -0.976901696520E-02    0.65176E-05   -0.51539E-04 23051   0.804E-04    0.537E-06
 force on displaced ion       7 direction 1 :  -7.864   4.592   7.613
 Born effective charge ion    7 direction 1 :   0.498  -0.114  -0.238
 Linear response progress:
  Degree of freedom:  20/144
       N       E                     dE             d eps       ncg     rms          rms(c)
RMM:   1    -0.175277198856E-01   -0.17528E-01    0.24715E-03 22269   0.251E-01
RMM:   2    -0.266756704135E-01   -0.91480E-02    0.80164E-04 16904   0.661E-02    0.131E-01
RMM:   3    -0.227516217912E-01    0.39240E-02    0.33776E-04 16944   0.297E-02    0.711E-02
RMM:   4    -0.219252354329E-01    0.82639E-03    0.40325E-04 16330   0.169E-02    0.233E-02
RMM:   5    -0.226761605590E-01   -0.75093E-03    0.74717E-04 16481   0.825E-03    0.356E-03
RMM:   6    -0.225684435898E-01    0.10772E-03    0.14441E-03 18222   0.335E-03    0.165E-03
RMM:   7    -0.226977779486E-01   -0.12933E-03    0.87765E-04 16866   0.212E-03    0.713E-04
RMM:   8    -0.227515719815E-01   -0.53794E-04    0.11036E-03 19550   0.138E-03    0.476E-04
RMM:   9    -0.227383202413E-01    0.13252E-04    0.11884E-03 18231   0.102E-03    0.118E-04
RMM:  10    -0.227053690667E-01    0.32951E-04    0.14536E-03 21035   0.812E-04    0.855E-05
RMM:  11    -0.227364213508E-01   -0.31052E-04    0.12121E-03 19517   0.724E-04    0.232E-05
RMM:  12    -0.227005222930E-01    0.35899E-04    0.15808E-03 22376   0.683E-04    0.127E-05
RMM:  13    -0.227344637865E-01   -0.33941E-04    0.12421E-03 22454   0.668E-04    0.937E-06
 force on displaced ion       7 direction 2 :   4.591 -13.080 -12.325
 Born effective charge ion    7 direction 2 :  -0.131   0.259   0.161
 Linear response progress:
  Degree of freedom:  21/144
       N       E                     dE             d eps       ncg     rms          rms(c)
RMM:   1    -0.222029028531E-01   -0.22203E-01    0.15095E-02 23188   0.343E-01
RMM:   2    -0.416040366983E-01   -0.19401E-01    0.60914E-03 16536   0.976E-02    0.168E-01
RMM:   3    -0.320030728363E-01    0.96010E-02    0.25914E-03 17498   0.434E-02    0.865E-02
RMM:   4    -0.304908717990E-01    0.15122E-02    0.25346E-03 16599   0.225E-02    0.334E-02
RMM:   5    -0.325873497617E-01   -0.20965E-02    0.48693E-03 16757   0.125E-02    0.599E-03
RMM:   6    -0.322358812353E-01    0.35147E-03    0.45836E-03 18237   0.525E-03    0.244E-03
RMM:   7    -0.324903696112E-01   -0.25449E-03    0.48457E-03 16856   0.344E-03    0.141E-03
RMM:   8    -0.326848734294E-01   -0.19450E-03    0.55258E-03 20124   0.235E-03    0.725E-04
RMM:   9    -0.327211282221E-01   -0.36255E-04    0.55363E-03 18136   0.181E-03    0.181E-04
RMM:  10    -0.327026839125E-01    0.18444E-04    0.57129E-03 20588   0.148E-03    0.109E-04
RMM:  11    -0.327189323824E-01   -0.16248E-04    0.55960E-03 19877   0.135E-03    0.427E-05
RMM:  12    -0.326731406712E-01    0.45792E-04    0.60514E-03 22028   0.128E-03    0.288E-05
RMM:  13    -0.327160412995E-01   -0.42901E-04    0.55957E-03 21917   0.125E-03    0.336E-05
 force on displaced ion       7 direction 3 :   7.613 -12.328 -25.422
 Born effective charge ion    7 direction 3 :  -0.309   0.145   0.636
 Linear response progress:
  Degree of freedom:  22/144
       N       E                     dE             d eps       ncg     rms          rms(c)
RMM:   1    -0.158722535056E-01   -0.15872E-01    0.35364E-03 21713   0.242E-01
RMM:   2    -0.859119026441E-02    0.72811E-02   -0.21839E-03 17311   0.592E-02    0.110E-01
RMM:   3    -0.102868030147E-01   -0.16956E-02   -0.73798E-04 16779   0.212E-02    0.637E-02
RMM:   4    -0.106565730862E-01   -0.36977E-03   -0.72829E-04 16053   0.174E-02    0.142E-02
RMM:   5    -0.985200239021E-02    0.80457E-03   -0.52551E-04 17019   0.745E-03    0.293E-03
RMM:   6    -0.993208689914E-02   -0.80085E-04   -0.52191E-04 18542   0.315E-03    0.143E-03
RMM:   7    -0.985580889436E-02    0.76278E-04   -0.41756E-04 17253   0.206E-03    0.573E-04
RMM:   8    -0.977071204853E-02    0.85097E-04   -0.36682E-04 19610   0.137E-03    0.379E-04
RMM:   9    -0.979741950148E-02   -0.26707E-04   -0.55888E-04 18951   0.110E-03    0.974E-05
RMM:  10    -0.980641957177E-02   -0.90001E-05   -0.54677E-04 20376   0.946E-04    0.108E-04
RMM:  11    -0.979633445083E-02    0.10085E-04   -0.54714E-04 20930   0.863E-04    0.211E-05
RMM:  12    -0.979973294463E-02   -0.33985E-05   -0.59368E-04 21663   0.819E-04    0.222E-05
RMM:  13    -0.979362694586E-02    0.61060E-05   -0.51665E-04 23010   0.805E-04    0.556E-06
 force on displaced ion       8 direction 1 :  -7.864  -4.592  -7.614
 Born effective charge ion    8 direction 1 :   0.498   0.114   0.238
 Linear response progress:
  Degree of freedom:  23/144
       N       E                     dE             d eps       ncg     rms          rms(c)
RMM:   1    -0.174814714637E-01   -0.17481E-01    0.26300E-03 22211   0.248E-01
RMM:   2     0.522467522405E-03    0.18004E-01   -0.50130E-03 16905   0.657E-02    0.131E-01
RMM:   3    -0.408027471995E-02   -0.46027E-02   -0.23587E-03 16954   0.297E-02    0.712E-02
RMM:   4    -0.551118780998E-02   -0.14309E-02   -0.17873E-03 16365   0.170E-02    0.234E-02
RMM:   5    -0.484173342329E-02    0.66945E-03   -0.15812E-03 16489   0.839E-03    0.358E-03
RMM:   6    -0.486022490591E-02   -0.18491E-04   -0.14124E-03 18131   0.348E-03    0.165E-03
RMM:   7    -0.478225763226E-02    0.77967E-04   -0.16468E-03 16784   0.225E-03    0.730E-04
RMM:   8    -0.471303399198E-02    0.69224E-04   -0.18290E-03 19513   0.153E-03    0.499E-04
RMM:   9    -0.475897782656E-02   -0.45944E-04   -0.22349E-03 18176   0.117E-03    0.122E-04
RMM:  10    -0.477134667937E-02   -0.12369E-04   -0.22830E-03 20939   0.952E-04    0.771E-05
RMM:  11    -0.475403986855E-02    0.17307E-04   -0.21651E-03 19596   0.863E-04    0.376E-05
RMM:  12    -0.482357057753E-02   -0.69531E-04   -0.28875E-03 22173   0.825E-04    0.157E-05
RMM:  13    -0.473500892475E-02    0.88562E-04   -0.19996E-03 22323   0.808E-04    0.104E-05
 force on displaced ion       8 direction 2 :  -4.591 -13.079 -12.327
 Born effective charge ion    8 direction 2 :   0.131   0.260   0.161
 Linear response progress:
  Degree of freedom:  24/144
       N       E                     dE             d eps       ncg     rms          rms(c)
RMM:   1    -0.221215443439E-01   -0.22122E-01    0.15558E-02 23168   0.338E-01
RMM:   2     0.102691796867E-01    0.32391E-01   -0.16108E-02 16571   0.968E-02    0.168E-01
RMM:   3     0.132370398125E-02   -0.89455E-02   -0.64483E-03 17512   0.434E-02    0.865E-02
RMM:   4    -0.757347207046E-03   -0.20811E-02   -0.50447E-03 16589   0.225E-02    0.334E-02
RMM:   5     0.910125255411E-03    0.16675E-02   -0.64099E-03 16727   0.125E-02    0.596E-03
RMM:   6     0.422892209231E-03   -0.48723E-03   -0.81637E-03 18173   0.529E-03    0.243E-03
RMM:   7     0.745398123916E-03    0.32251E-03   -0.81941E-03 16874   0.351E-03    0.143E-03
RMM:   8     0.994246934368E-03    0.24885E-03   -0.81642E-03 20323   0.241E-03    0.755E-04
RMM:   9     0.100397608399E-02    0.97291E-05   -0.84424E-03 18240   0.186E-03    0.187E-04
RMM:  10     0.958269874353E-03   -0.45706E-04   -0.88733E-03 20507   0.154E-03    0.107E-04
RMM:  11     0.941038777734E-03   -0.17231E-04   -0.90813E-03 20156   0.141E-03    0.425E-05
RMM:  12     0.947634071313E-03    0.65953E-05   -0.90089E-03 21944   0.133E-03    0.296E-05
RMM:  13     0.920960148032E-03   -0.26674E-04   -0.92503E-03 21897   0.131E-03    0.339E-05
 force on displaced ion       8 direction 3 :  -7.612 -12.327 -25.422
 Born effective charge ion    8 direction 3 :   0.309   0.145   0.636
 Linear response progress:
  Degree of freedom:  25/144
       N       E                     dE             d eps       ncg     rms          rms(c)
RMM:   1    -0.276372543576E-01   -0.27637E-01    0.76948E-04 23626   0.347E-01
RMM:   2    -0.605422167355E-01   -0.32905E-01    0.11150E-02 16908   0.101E-01    0.193E-01
RMM:   3    -0.439771000344E-01    0.16565E-01    0.37813E-03 16628   0.513E-02    0.967E-02
RMM:   4    -0.408942344529E-01    0.30829E-02    0.38894E-03 16442   0.257E-02    0.388E-02
RMM:   5    -0.435486480811E-01   -0.26544E-02    0.95613E-03 16639   0.141E-02    0.697E-03
RMM:   6    -0.430802645754E-01    0.46838E-03    0.81063E-03 17677   0.590E-03    0.272E-03
RMM:   7    -0.432122649615E-01   -0.13200E-03    0.10178E-02 16681   0.364E-03    0.179E-03
RMM:   8    -0.436089555597E-01   -0.39669E-03    0.10500E-02 19605   0.261E-03    0.898E-04
RMM:   9    -0.435107482652E-01    0.98207E-04    0.11454E-02 17543   0.190E-03    0.172E-04
RMM:  10    -0.434059645236E-01    0.10478E-03    0.12848E-02 19863   0.153E-03    0.122E-04
RMM:  11    -0.435562922957E-01   -0.15033E-03    0.11347E-02 20041   0.142E-03    0.634E-05
RMM:  12    -0.433537712947E-01    0.20252E-03    0.13418E-02 20611   0.137E-03    0.379E-05
RMM:  13    -0.435790191665E-01   -0.22525E-03    0.11134E-02 22008   0.135E-03    0.546E-05
 force on displaced ion       9 direction 1 : -34.406   0.037   0.000
 Born effective charge ion    9 direction 1 :   0.897  -0.161   0.000
 Linear response progress:
  Degree of freedom:  26/144
       N       E                     dE             d eps       ncg     rms          rms(c)
RMM:   1    -0.156895326521E-01   -0.15690E-01   -0.10188E-02 19278   0.193E-01
RMM:   2    -0.148763638203E-01    0.81317E-03   -0.99499E-04 17080   0.430E-02    0.962E-02
RMM:   3    -0.145020129641E-01    0.37435E-03   -0.28673E-04 16442   0.126E-02    0.582E-02
RMM:   4    -0.144086509531E-01    0.93362E-04   -0.60323E-04 15042   0.145E-02    0.564E-03
RMM:   5    -0.145330669298E-01   -0.12442E-03   -0.50019E-04 17273   0.384E-03    0.216E-03
RMM:   6    -0.145456650381E-01   -0.12598E-04   -0.31435E-04 16844   0.217E-03    0.970E-04
RMM:   7    -0.145141471823E-01    0.31518E-04   -0.30957E-04 16807   0.140E-03    0.343E-04
RMM:   8    -0.145413462668E-01   -0.27199E-04   -0.42241E-04 18769   0.865E-04    0.172E-04
RMM:   9    -0.145430551079E-01   -0.17088E-05   -0.36644E-04 18089   0.633E-04    0.561E-05
RMM:  10    -0.145437738165E-01   -0.71871E-06   -0.38123E-04 19977   0.521E-04    0.314E-05
RMM:  11    -0.145446850048E-01   -0.91119E-06   -0.37539E-04 19730   0.476E-04    0.771E-06
RMM:  12    -0.145451154975E-01   -0.43049E-06   -0.37751E-04 22242   0.452E-04    0.506E-06
RMM:  13    -0.145449689832E-01    0.14651E-06   -0.37297E-04 21986   0.444E-04    0.204E-06
 force on displaced ion       9 direction 2 :   0.037  -5.590   0.000
 Born effective charge ion    9 direction 2 :  -0.192   0.237  -0.000
 Linear response progress:
  Degree of freedom:  27/144
       N       E                     dE             d eps       ncg     rms          rms(c)
RMM:   1    -0.155494899931E-01   -0.15549E-01   -0.73352E-03 19518   0.210E-01
RMM:   2    -0.132249935870E-01    0.23245E-02   -0.82521E-04 16760   0.497E-02    0.957E-02
RMM:   3    -0.132539457925E-01   -0.28952E-04    0.17126E-05 16350   0.144E-02    0.580E-02
RMM:   4    -0.134325605071E-01   -0.17861E-03   -0.19049E-04 14623   0.168E-02    0.474E-03
RMM:   5    -0.134084525341E-01    0.24108E-04    0.38390E-05 16896   0.540E-03    0.127E-03
RMM:   6    -0.133990542326E-01    0.93983E-05    0.13539E-04 17453   0.195E-03    0.750E-04
RMM:   7    -0.134088118806E-01   -0.97576E-05   -0.11365E-05 16089   0.140E-03    0.172E-04
RMM:   8    -0.134055238745E-01    0.32880E-05    0.17280E-05 19607   0.845E-04    0.125E-04
RMM:   9    -0.134145785565E-01   -0.90547E-05   -0.70717E-05 18310   0.674E-04    0.439E-05
RMM:  10    -0.134179045263E-01   -0.33260E-05   -0.10309E-04 21126   0.573E-04    0.257E-05
RMM:  11    -0.134158639391E-01    0.20406E-05   -0.81285E-05 19752   0.534E-04    0.801E-06
RMM:  12    -0.134212690339E-01   -0.54051E-05   -0.13574E-04 22743   0.513E-04    0.467E-06
RMM:  13    -0.134145750636E-01    0.66940E-05   -0.68757E-05 22101   0.506E-04    0.172E-06
 force on displaced ion       9 direction 3 :  -0.002   0.000  -5.257
 Born effective charge ion    9 direction 3 :   0.000  -0.000   0.267
 Linear response progress:
  Degree of freedom:  28/144
       N       E                     dE             d eps       ncg     rms          rms(c)
RMM:   1    -0.274197408775E-01   -0.27420E-01    0.22753E-03 23648   0.343E-01
RMM:   2    -0.607855643378E-01   -0.33366E-01    0.10556E-02 16917   0.998E-02    0.193E-01
RMM:   3    -0.440739455175E-01    0.16712E-01    0.38899E-03 16633   0.513E-02    0.967E-02
RMM:   4    -0.409921808103E-01    0.30818E-02    0.39736E-03 16450   0.256E-02    0.388E-02
RMM:   5    -0.436545097577E-01   -0.26623E-02    0.95583E-03 16620   0.141E-02    0.693E-03
RMM:   6    -0.431867099562E-01    0.46780E-03    0.81672E-03 17705   0.589E-03    0.271E-03
RMM:   7    -0.433297028745E-01   -0.14299E-03    0.10138E-02 16700   0.363E-03    0.179E-03
RMM:   8    -0.437226742177E-01   -0.39297E-03    0.10504E-02 19618   0.261E-03    0.897E-04
RMM:   9    -0.436198829370E-01    0.10279E-03    0.11505E-02 17554   0.190E-03    0.171E-04
RMM:  10    -0.435234305463E-01    0.96452E-04    0.12813E-02 19873   0.153E-03    0.122E-04
RMM:  11    -0.436625375817E-01   -0.13911E-03    0.11424E-02 20125   0.142E-03    0.643E-05
RMM:  12    -0.434623689424E-01    0.20017E-03    0.13474E-02 20729   0.137E-03    0.377E-05
RMM:  13    -0.436797661595E-01   -0.21740E-03    0.11266E-02 22036   0.135E-03    0.564E-05
 force on displaced ion      10 direction 1 : -34.406  -0.037   0.000
 Born effective charge ion   10 direction 1 :   0.897   0.161   0.000
 Linear response progress:
  Degree of freedom:  29/144
       N       E                     dE             d eps       ncg     rms          rms(c)
RMM:   1    -0.156811753740E-01   -0.15681E-01   -0.10162E-02 19252   0.191E-01
RMM:   2    -0.148782722580E-01    0.80290E-03   -0.68877E-04 17093   0.428E-02    0.962E-02
RMM:   3    -0.151395021469E-01   -0.26123E-03    0.52541E-05 16413   0.125E-02    0.582E-02
RMM:   4    -0.154179123142E-01   -0.27841E-03    0.85994E-05 15059   0.144E-02    0.563E-03
RMM:   5    -0.153336487589E-01    0.84264E-04    0.11691E-04 17227   0.369E-03    0.216E-03
RMM:   6    -0.153117889620E-01    0.21860E-04    0.90672E-05 16750   0.202E-03    0.973E-04
RMM:   7    -0.153234122882E-01   -0.11623E-04    0.11924E-04 16766   0.124E-03    0.361E-04
RMM:   8    -0.153158726963E-01    0.75396E-05    0.83139E-05 18653   0.703E-04    0.172E-04
RMM:   9    -0.153108093034E-01    0.50634E-05    0.91485E-05 18156   0.469E-04    0.567E-05
RMM:  10    -0.153118652077E-01   -0.10559E-05    0.84951E-05 20035   0.354E-04    0.315E-05
RMM:  11    -0.153135547136E-01   -0.16895E-05    0.63739E-05 19518   0.311E-04    0.875E-06
RMM:  12    -0.153120747280E-01    0.14800E-05    0.76818E-05 22060   0.286E-04    0.567E-06
RMM:  13    -0.153107382338E-01    0.13365E-05    0.88243E-05 21640   0.277E-04    0.261E-06
RMM:  14    -0.153123751369E-01   -0.16369E-05    0.72319E-05 22768   0.274E-04    0.131E-06
 force on displaced ion      10 direction 2 :  -0.039  -5.590  -0.000
 Born effective charge ion   10 direction 2 :   0.192   0.238   0.000
 Linear response progress:
  Degree of freedom:  30/144
       N       E                     dE             d eps       ncg     rms          rms(c)
RMM:   1    -0.155480938217E-01   -0.15548E-01   -0.73211E-03 19532   0.208E-01
RMM:   2    -0.132395405500E-01    0.23086E-02   -0.87277E-04 16791   0.496E-02    0.957E-02
RMM:   3    -0.132637314798E-01   -0.24191E-04    0.19495E-05 16349   0.143E-02    0.580E-02
RMM:   4    -0.134394911303E-01   -0.17576E-03   -0.16144E-04 14608   0.167E-02    0.474E-03
RMM:   5    -0.134190552286E-01    0.20436E-04    0.29794E-05 16880   0.538E-03    0.127E-03
RMM:   6    -0.134087841099E-01    0.10271E-04    0.13553E-04 17483   0.195E-03    0.750E-04
RMM:   7    -0.134172012599E-01   -0.84172E-05    0.20262E-06 16095   0.140E-03    0.172E-04
RMM:   8    -0.134150378381E-01    0.21634E-05    0.19393E-05 19568   0.845E-04    0.125E-04
RMM:   9    -0.134234926765E-01   -0.84548E-05   -0.62471E-05 18371   0.675E-04    0.439E-05
RMM:  10    -0.134279396236E-01   -0.44469E-05   -0.10614E-04 21093   0.573E-04    0.254E-05
RMM:  11    -0.134245586539E-01    0.33810E-05   -0.70947E-05 19767   0.535E-04    0.801E-06
RMM:  12    -0.134301059216E-01   -0.55473E-05   -0.12662E-04 22675   0.514E-04    0.461E-06
RMM:  13    -0.134243945951E-01    0.57113E-05   -0.69547E-05 22061   0.508E-04    0.171E-06
 force on displaced ion      10 direction 3 :  -0.002  -0.000  -5.257
 Born effective charge ion   10 direction 3 :   0.000   0.000   0.267
 Linear response progress:
  Degree of freedom:  31/144
       N       E                     dE             d eps       ncg     rms          rms(c)
RMM:   1    -0.274251100759E-01   -0.27425E-01    0.22426E-03 23631   0.344E-01
RMM:   2     0.101907987840E-01    0.37616E-01   -0.17287E-02 16891   0.998E-02    0.193E-01
RMM:   3    -0.137377498108E-03   -0.10328E-01   -0.62921E-03 16613   0.513E-02    0.968E-02
RMM:   4    -0.178345952910E-02   -0.16461E-02   -0.46067E-03 16413   0.256E-02    0.389E-02
RMM:   5     0.701539765846E-03    0.24850E-02   -0.61497E-03 16588   0.139E-02    0.691E-03
RMM:   6    -0.759673235225E-04   -0.77751E-03   -0.95645E-03 17645   0.564E-03    0.267E-03
RMM:   7     0.139793398762E-03    0.21576E-03   -0.10587E-02 16565   0.335E-03    0.175E-03
RMM:   8     0.507406773856E-03    0.36761E-03   -0.10315E-02 19720   0.230E-03    0.910E-04
RMM:   9     0.394912500417E-03   -0.11249E-03   -0.11638E-02 17619   0.159E-03    0.168E-04
RMM:  10     0.445026876515E-03    0.50114E-04   -0.11349E-02 19853   0.123E-03    0.113E-04
RMM:  11     0.318457919278E-03   -0.12657E-03   -0.12680E-02 20303   0.112E-03    0.588E-05
RMM:  12     0.481310913981E-03    0.16285E-03   -0.11089E-02 20036   0.107E-03    0.335E-05
RMM:  13     0.367748429636E-03   -0.11356E-03   -0.12211E-02 22169   0.105E-03    0.527E-05
 force on displaced ion      11 direction 1 : -34.403   0.037  -0.000
 Born effective charge ion   11 direction 1 :   0.896  -0.161  -0.000
 Linear response progress:
  Degree of freedom:  32/144
       N       E                     dE             d eps       ncg     rms          rms(c)
RMM:   1    -0.156814909366E-01   -0.15681E-01   -0.10162E-02 19287   0.191E-01
RMM:   2    -0.148607141089E-01    0.82078E-03   -0.70376E-04 17098   0.428E-02    0.962E-02
RMM:   3    -0.151211756699E-01   -0.26046E-03    0.38924E-05 16410   0.125E-02    0.582E-02
RMM:   4    -0.153984059604E-01   -0.27723E-03    0.80559E-05 15064   0.144E-02    0.563E-03
RMM:   5    -0.153139042348E-01    0.84502E-04    0.11841E-04 17215   0.369E-03    0.215E-03
RMM:   6    -0.152923804916E-01    0.21524E-04    0.90968E-05 16752   0.202E-03    0.972E-04
RMM:   7    -0.153040182016E-01   -0.11638E-04    0.11755E-04 16753   0.124E-03    0.361E-04
RMM:   8    -0.152964382558E-01    0.75799E-05    0.82379E-05 18658   0.702E-04    0.172E-04
RMM:   9    -0.152912610781E-01    0.51772E-05    0.91908E-05 18136   0.468E-04    0.564E-05
RMM:  10    -0.152923968702E-01   -0.11358E-05    0.84644E-05 20051   0.353E-04    0.314E-05
RMM:  11    -0.152940637832E-01   -0.16669E-05    0.63502E-05 19481   0.309E-04    0.868E-06
RMM:  12    -0.152926091750E-01    0.14546E-05    0.76352E-05 22109   0.284E-04    0.560E-06
RMM:  13    -0.152912822968E-01    0.13269E-05    0.87619E-05 21694   0.275E-04    0.254E-06
RMM:  14    -0.152929511272E-01   -0.16688E-05    0.71220E-05 22780   0.272E-04    0.130E-06
 force on displaced ion      11 direction 2 :   0.039  -5.590  -0.000
 Born effective charge ion   11 direction 2 :  -0.192   0.238   0.000
 Linear response progress:
  Degree of freedom:  33/144
       N       E                     dE             d eps       ncg     rms          rms(c)
RMM:   1    -0.155456566885E-01   -0.15546E-01   -0.72967E-03 19528   0.208E-01
RMM:   2    -0.132296877340E-01    0.23160E-02   -0.10340E-03 16740   0.493E-02    0.957E-02
RMM:   3    -0.132425442348E-01   -0.12857E-04   -0.31633E-05 16367   0.143E-02    0.580E-02
RMM:   4    -0.134142302419E-01   -0.17169E-03   -0.16952E-04 14608   0.167E-02    0.474E-03
RMM:   5    -0.133937361292E-01    0.20494E-04    0.25555E-05 16892   0.539E-03    0.127E-03
RMM:   6    -0.133829570595E-01    0.10779E-04    0.13705E-04 17500   0.195E-03    0.752E-04
RMM:   7    -0.133919263393E-01   -0.89693E-05   -0.17307E-06 16097   0.140E-03    0.172E-04
RMM:   8    -0.133897388751E-01    0.21875E-05    0.16120E-05 19593   0.846E-04    0.125E-04
RMM:   9    -0.133985195522E-01   -0.87807E-05   -0.68969E-05 18320   0.676E-04    0.437E-05
RMM:  10    -0.134029777419E-01   -0.44582E-05   -0.11260E-04 21094   0.575E-04    0.257E-05
RMM:  11    -0.133994262965E-01    0.35514E-05   -0.75769E-05 19761   0.537E-04    0.799E-06
RMM:  12    -0.134053330139E-01   -0.59067E-05   -0.13514E-04 22714   0.516E-04    0.476E-06
RMM:  13    -0.133997645929E-01    0.55684E-05   -0.79462E-05 22069   0.509E-04    0.173E-06
 force on displaced ion      11 direction 3 :   0.002  -0.000  -5.257
 Born effective charge ion   11 direction 3 :  -0.000   0.000   0.267
 Linear response progress:
  Degree of freedom:  34/144
       N       E                     dE             d eps       ncg     rms          rms(c)
RMM:   1    -0.276427358228E-01   -0.27643E-01    0.73621E-04 23615   0.348E-01
RMM:   2     0.100751091660E-01    0.37718E-01   -0.16609E-02 16890   0.101E-01    0.193E-01
RMM:   3    -0.250696966067E-03   -0.10326E-01   -0.62831E-03 16611   0.513E-02    0.968E-02
RMM:   4    -0.188552904062E-02   -0.16348E-02   -0.46118E-03 16408   0.256E-02    0.388E-02
RMM:   5     0.579252434572E-03    0.24648E-02   -0.62114E-03 16598   0.139E-02    0.691E-03
RMM:   6    -0.187701425228E-03   -0.76695E-03   -0.95367E-03 17626   0.564E-03    0.267E-03
RMM:   7     0.277503336414E-04    0.21545E-03   -0.10554E-02 16539   0.336E-03    0.174E-03
RMM:   8     0.392200922955E-03    0.36445E-03   -0.10300E-02 19703   0.230E-03    0.914E-04
RMM:   9     0.281516378622E-03   -0.11068E-03   -0.11595E-02 17615   0.159E-03    0.168E-04
RMM:  10     0.333791272223E-03    0.52275E-04   -0.11287E-02 19849   0.123E-03    0.112E-04
RMM:  11     0.207050060456E-03   -0.12674E-03   -0.12620E-02 20225   0.111E-03    0.583E-05
RMM:  12     0.367529562806E-03    0.16048E-03   -0.11052E-02 19930   0.107E-03    0.336E-05
RMM:  13     0.253187236976E-03   -0.11434E-03   -0.12182E-02 22010   0.105E-03    0.522E-05
 force on displaced ion      12 direction 1 : -34.404  -0.037  -0.000
 Born effective charge ion   12 direction 1 :   0.896   0.161  -0.000
 Linear response progress:
  Degree of freedom:  35/144
       N       E                     dE             d eps       ncg     rms          rms(c)
RMM:   1    -0.156898276473E-01   -0.15690E-01   -0.10186E-02 19309   0.193E-01
RMM:   2    -0.148903855678E-01    0.79944E-03   -0.10084E-03 17090   0.431E-02    0.962E-02
RMM:   3    -0.145157517586E-01    0.37463E-03   -0.29876E-04 16437   0.126E-02    0.582E-02
RMM:   4    -0.144219220450E-01    0.93830E-04   -0.60985E-04 15047   0.145E-02    0.564E-03
RMM:   5    -0.145453221355E-01   -0.12340E-03   -0.50050E-04 17268   0.383E-03    0.217E-03
RMM:   6    -0.145580415450E-01   -0.12719E-04   -0.31451E-04 16849   0.217E-03    0.970E-04
RMM:   7    -0.145266559803E-01    0.31386E-04   -0.31067E-04 16795   0.140E-03    0.344E-04
RMM:   8    -0.145538188932E-01   -0.27163E-04   -0.42308E-04 18777   0.867E-04    0.172E-04
RMM:   9    -0.145555955611E-01   -0.17767E-05   -0.36704E-04 18091   0.634E-04    0.567E-05
RMM:  10    -0.145562535319E-01   -0.65797E-06   -0.38139E-04 20029   0.522E-04    0.314E-05
RMM:  11    -0.145570971029E-01   -0.84357E-06   -0.37506E-04 19710   0.478E-04    0.766E-06
RMM:  12    -0.145575474472E-01   -0.45034E-06   -0.37733E-04 22181   0.454E-04    0.510E-06
RMM:  13    -0.145573934291E-01    0.15402E-06   -0.37241E-04 21904   0.446E-04    0.208E-06
 force on displaced ion      12 direction 2 :  -0.037  -5.590   0.000
 Born effective charge ion   12 direction 2 :   0.192   0.237  -0.000
 Linear response progress:
  Degree of freedom:  36/144
       N       E                     dE             d eps       ncg     rms          rms(c)
RMM:   1    -0.155523170244E-01   -0.15552E-01   -0.73634E-03 19526   0.211E-01
RMM:   2    -0.132347090597E-01    0.23176E-02   -0.98673E-04 16733   0.492E-02    0.957E-02
RMM:   3    -0.132523199245E-01   -0.17611E-04   -0.28970E-05 16357   0.143E-02    0.580E-02
RMM:   4    -0.134269276642E-01   -0.17461E-03   -0.19901E-04 14609   0.166E-02    0.474E-03
RMM:   5    -0.134025469777E-01    0.24381E-04    0.34117E-05 16896   0.538E-03    0.127E-03
RMM:   6    -0.133929421777E-01    0.96048E-05    0.13391E-04 17499   0.195E-03    0.751E-04
RMM:   7    -0.134031016866E-01   -0.10160E-04   -0.16213E-05 16083   0.140E-03    0.172E-04
RMM:   8    -0.133995219013E-01    0.35798E-05    0.15662E-05 19644   0.848E-04    0.125E-04
RMM:   9    -0.134090503939E-01   -0.95285E-05   -0.76632E-05 18334   0.678E-04    0.439E-05
RMM:  10    -0.134117537363E-01   -0.27033E-05   -0.10279E-04 21093   0.577E-04    0.257E-05
RMM:  11    -0.134096433577E-01    0.21104E-05   -0.80329E-05 19789   0.540E-04    0.800E-06
RMM:  12    -0.134150004324E-01   -0.53571E-05   -0.13411E-04 22697   0.519E-04    0.469E-06
RMM:  13    -0.134081615926E-01    0.68388E-05   -0.65780E-05 22017   0.513E-04    0.171E-06
 force on displaced ion      12 direction 3 :   0.002   0.000  -5.257
 Born effective charge ion   12 direction 3 :  -0.000  -0.000   0.267
 Linear response progress:
  Degree of freedom:  37/144
       N       E                     dE             d eps       ncg     rms          rms(c)
RMM:   1    -0.174583698119E-01   -0.17458E-01   -0.69256E-03 19612   0.190E-01
RMM:   2    -0.182021841618E-01   -0.74381E-03   -0.67201E-04 16182   0.442E-02    0.124E-01
RMM:   3    -0.173879173048E-01    0.81427E-03   -0.44718E-05 16446   0.203E-02    0.714E-02
RMM:   4    -0.170953082052E-01    0.29261E-03   -0.16624E-04 15298   0.178E-02    0.139E-02
RMM:   5    -0.173315670047E-01   -0.23626E-03   -0.32126E-06 16738   0.780E-03    0.306E-03
RMM:   6    -0.173483939927E-01   -0.16827E-04    0.46071E-05 16973   0.311E-03    0.116E-03
RMM:   7    -0.173476898155E-01    0.70418E-06    0.41259E-05 16620   0.159E-03    0.497E-04
RMM:   8    -0.173491346090E-01   -0.14448E-05    0.16878E-05 17177   0.103E-03    0.347E-04
RMM:   9    -0.173433631517E-01    0.57715E-05    0.36105E-05 19597   0.660E-04    0.175E-04
RMM:  10    -0.173505417043E-01   -0.71786E-05   -0.36203E-06 17460   0.477E-04    0.530E-05
RMM:  11    -0.173477141919E-01    0.28275E-05    0.17598E-05 21285   0.368E-04    0.224E-05
RMM:  12    -0.173511633368E-01   -0.34491E-05   -0.16744E-05 20419   0.327E-04    0.225E-05
RMM:  13    -0.173452431281E-01    0.59202E-05    0.43635E-05 21306   0.310E-04    0.531E-06
RMM:  14    -0.173469544350E-01   -0.17113E-05    0.26265E-05 22916   0.301E-04    0.312E-06
 force on displaced ion      13 direction 1 :  -7.302   3.773   7.468
 Born effective charge ion   13 direction 1 :   0.117  -0.015   0.009
 Linear response progress:
  Degree of freedom:  38/144
       N       E                     dE             d eps       ncg     rms          rms(c)
RMM:   1    -0.190928497291E-01   -0.19093E-01   -0.11054E-02 20782   0.205E-01
RMM:   2    -0.130214965793E-01    0.60714E-02   -0.23920E-03 15952   0.545E-02    0.142E-01
RMM:   3    -0.151961186935E-01   -0.21746E-02   -0.56888E-04 16714   0.252E-02    0.783E-02
RMM:   4    -0.164471911215E-01   -0.12511E-02   -0.27353E-04 15539   0.190E-02    0.186E-02
RMM:   5    -0.161313504178E-01    0.31584E-03   -0.10693E-04 16415   0.752E-03    0.283E-03
RMM:   6    -0.161294950547E-01    0.18554E-05    0.17817E-05 17714   0.286E-03    0.137E-03
RMM:   7    -0.161520475576E-01   -0.22553E-04    0.19092E-05 16079   0.167E-03    0.580E-04
RMM:   8    -0.161299416398E-01    0.22106E-04   -0.86226E-06 19289   0.908E-04    0.271E-04
RMM:   9    -0.161237159945E-01    0.62256E-05    0.34535E-07 16623   0.676E-04    0.199E-04
RMM:  10    -0.161281367482E-01   -0.44208E-05   -0.60725E-06 20804   0.482E-04    0.566E-05
RMM:  11    -0.161278802626E-01    0.25649E-06   -0.46186E-06 18692   0.403E-04    0.321E-05
RMM:  12    -0.161270935101E-01    0.78675E-06   -0.47833E-06 21652   0.358E-04    0.107E-05
RMM:  13    -0.161270021107E-01    0.91399E-07   -0.59520E-06 21504   0.340E-04    0.451E-06
RMM:  14    -0.161269609881E-01    0.41123E-07   -0.58651E-06 23012   0.330E-04    0.316E-06
 force on displaced ion      13 direction 2 :   3.772 -11.317 -10.705
 Born effective charge ion   13 direction 2 :  -0.028   0.076   0.010
 Linear response progress:
  Degree of freedom:  39/144
       N       E                     dE             d eps       ncg     rms          rms(c)
RMM:   1    -0.225302668696E-01   -0.22530E-01   -0.66145E-03 21947   0.249E-01
RMM:   2    -0.358675191138E-02    0.18944E-01   -0.80752E-03 15510   0.746E-02    0.180E-01
RMM:   3    -0.108914824174E-01   -0.73047E-02   -0.35670E-03 17038   0.361E-02    0.944E-02
RMM:   4    -0.141755272482E-01   -0.32840E-02   -0.12708E-03 16128   0.249E-02    0.311E-02
RMM:   5    -0.133500983063E-01    0.82543E-03   -0.16832E-03 16073   0.124E-02    0.528E-03
RMM:   6    -0.134235423676E-01   -0.73444E-04   -0.38994E-04 16962   0.502E-03    0.178E-03
RMM:   7    -0.134876792091E-01   -0.64137E-04   -0.44431E-04 17060   0.258E-03    0.103E-03
RMM:   8    -0.133960246753E-01    0.91655E-04   -0.46228E-04 17385   0.166E-03    0.902E-04
RMM:   9    -0.134314139508E-01   -0.35389E-04   -0.47484E-04 19350   0.103E-03    0.241E-04
RMM:  10    -0.134164457127E-01    0.14968E-04   -0.32441E-04 18348   0.800E-04    0.200E-04
RMM:  11    -0.134105941713E-01    0.58515E-05   -0.35054E-04 20612   0.646E-04    0.631E-05
RMM:  12    -0.134045277522E-01    0.60664E-05   -0.33786E-04 20509   0.573E-04    0.211E-05
RMM:  13    -0.134322245424E-01   -0.27697E-04   -0.62452E-04 21619   0.541E-04    0.209E-05
RMM:  14    -0.134125557601E-01    0.19669E-04   -0.42372E-04 23020   0.530E-04    0.121E-05
 force on displaced ion      13 direction 3 :   7.468 -10.705 -23.151
 Born effective charge ion   13 direction 3 :  -0.017  -0.017   0.114
 Linear response progress:
  Degree of freedom:  40/144
       N       E                     dE             d eps       ncg     rms          rms(c)
RMM:   1    -0.174505073808E-01   -0.17451E-01   -0.69143E-03 19659   0.188E-01
RMM:   2    -0.182039530029E-01   -0.75345E-03   -0.59267E-04 16217   0.440E-02    0.124E-01
RMM:   3    -0.173897436969E-01    0.81421E-03   -0.26655E-05 16439   0.203E-02    0.714E-02
RMM:   4    -0.170918443249E-01    0.29790E-03   -0.14640E-04 15302   0.179E-02    0.139E-02
RMM:   5    -0.173333200230E-01   -0.24148E-03   -0.84382E-06 16689   0.781E-03    0.308E-03
RMM:   6    -0.173490202712E-01   -0.15700E-04    0.46838E-05 16965   0.312E-03    0.116E-03
RMM:   7    -0.173486927000E-01    0.32757E-06    0.41269E-05 16618   0.159E-03    0.499E-04
RMM:   8    -0.173497579247E-01   -0.10652E-05    0.20877E-05 17186   0.103E-03    0.352E-04
RMM:   9    -0.173442114164E-01    0.55465E-05    0.37213E-05 19581   0.663E-04    0.177E-04
RMM:  10    -0.173515349773E-01   -0.73236E-05   -0.30188E-06 17484   0.480E-04    0.543E-05
RMM:  11    -0.173485086115E-01    0.30264E-05    0.19892E-05 21254   0.371E-04    0.224E-05
RMM:  12    -0.173520084022E-01   -0.34998E-05   -0.14852E-05 20431   0.330E-04    0.227E-05
RMM:  13    -0.173460463814E-01    0.59620E-05    0.45969E-05 21353   0.313E-04    0.541E-06
RMM:  14    -0.173477379378E-01   -0.16916E-05    0.28770E-05 23033   0.304E-04    0.323E-06
 force on displaced ion      14 direction 1 :  -7.302  -3.773  -7.468
 Born effective charge ion   14 direction 1 :   0.117   0.015  -0.009
 Linear response progress:
  Degree of freedom:  41/144
       N       E                     dE             d eps       ncg     rms          rms(c)
RMM:   1    -0.190727787275E-01   -0.19073E-01   -0.11007E-02 20820   0.203E-01
RMM:   2    -0.191764191871E-01   -0.10364E-03   -0.13071E-03 15966   0.541E-02    0.142E-01
RMM:   3    -0.176883424389E-01    0.14881E-02   -0.26601E-04 16707   0.252E-02    0.783E-02
RMM:   4    -0.172027517428E-01    0.48559E-03   -0.25954E-04 15539   0.190E-02    0.186E-02
RMM:   5    -0.175567992499E-01   -0.35405E-03   -0.22780E-05 16440   0.748E-03    0.284E-03
RMM:   6    -0.175644082059E-01   -0.76090E-05   -0.65808E-06 17730   0.282E-03    0.136E-03
RMM:   7    -0.175491309414E-01    0.15277E-04   -0.18187E-05 16115   0.163E-03    0.570E-04
RMM:   8    -0.175659243652E-01   -0.16793E-04   -0.84458E-06 19264   0.873E-04    0.284E-04
RMM:   9    -0.175668437918E-01   -0.91943E-06    0.25220E-06 16654   0.639E-04    0.184E-04
RMM:  10    -0.175648736735E-01    0.19701E-05    0.19208E-07 20908   0.447E-04    0.511E-05
RMM:  11    -0.175646510227E-01    0.22265E-06    0.42280E-06 18796   0.371E-04    0.307E-05
RMM:  12    -0.175653353014E-01   -0.68428E-06    0.28571E-06 21558   0.328E-04    0.109E-05
RMM:  13    -0.175656609677E-01   -0.32567E-06    0.14306E-06 21648   0.309E-04    0.475E-06
RMM:  14    -0.175652833092E-01    0.37766E-06    0.54098E-06 22853   0.300E-04    0.320E-06
 force on displaced ion      14 direction 2 :  -3.772 -11.317 -10.705
 Born effective charge ion   14 direction 2 :   0.028   0.076   0.010
 Linear response progress:
  Degree of freedom:  42/144
       N       E                     dE             d eps       ncg     rms          rms(c)
RMM:   1    -0.224546333518E-01   -0.22455E-01   -0.61446E-03 21939   0.246E-01
RMM:   2    -0.262234696018E-01   -0.37688E-02    0.47770E-05 15517   0.741E-02    0.180E-01
RMM:   3    -0.216362555378E-01    0.45872E-02    0.52976E-04 17008   0.361E-02    0.944E-02
RMM:   4    -0.200849863808E-01    0.15513E-02    0.12909E-04 16138   0.249E-02    0.311E-02
RMM:   5    -0.207487093233E-01   -0.66372E-03    0.35402E-04 16065   0.124E-02    0.533E-03
RMM:   6    -0.206981349329E-01    0.50574E-04    0.16292E-04 16935   0.498E-03    0.177E-03
RMM:   7    -0.206676401610E-01    0.30495E-04    0.22399E-04 17112   0.251E-03    0.104E-03
RMM:   8    -0.207251204312E-01   -0.57480E-04    0.13528E-04 17371   0.160E-03    0.935E-04
RMM:   9    -0.207085493363E-01    0.16571E-04    0.11834E-04 19429   0.971E-04    0.238E-04
RMM:  10    -0.207104587717E-01   -0.19094E-05    0.11848E-04 18371   0.724E-04    0.184E-04
RMM:  11    -0.207157074753E-01   -0.52487E-05    0.96430E-05 20712   0.568E-04    0.781E-05
RMM:  12    -0.207185272263E-01   -0.28198E-05    0.95762E-05 20516   0.498E-04    0.253E-05
RMM:  13    -0.207205336401E-01   -0.20064E-05    0.86674E-05 21750   0.465E-04    0.261E-05
RMM:  14    -0.207193070295E-01    0.12266E-05    0.96522E-05 23135   0.452E-04    0.175E-05
RMM:  15    -0.207184517466E-01    0.85528E-06    0.10286E-04 22728   0.448E-04    0.182E-06
 force on displaced ion      14 direction 3 :  -7.468 -10.705 -23.150
 Born effective charge ion   14 direction 3 :   0.017  -0.017   0.114
 Linear response progress:
  Degree of freedom:  43/144
       N       E                     dE             d eps       ncg     rms          rms(c)
[...]
RMM:   9    -0.146942822782E+00   -0.65404E-06    0.13486E-04 19639   0.774E-04    0.133E-04
RMM:  10    -0.146943714832E+00   -0.89205E-06    0.12708E-04 21803   0.604E-04    0.513E-05
RMM:  11    -0.146943493047E+00    0.22179E-06    0.12775E-04 21375   0.532E-04    0.140E-05
RMM:  12    -0.146943003475E+00    0.48957E-06    0.13294E-04 22578   0.508E-04    0.846E-06
RMM:  13    -0.146943544951E+00   -0.54148E-06    0.12756E-04 22357   0.500E-04    0.527E-06
 force on displaced ion      44 direction 2 :  -1.052  -1.783  -0.023
 Born effective charge ion   44 direction 2 :  -1.542  -2.276   0.028
 Linear response progress:
  Degree of freedom: 132/144
       N       E                     dE             d eps       ncg     rms          rms(c)
RMM:   1    -0.149617010740E+00   -0.14962E+00    0.60629E-02 19675   0.575E-01
RMM:   2    -0.148017444701E+00    0.15996E-02   -0.44667E-03 15396   0.165E-01    0.386E-02
RMM:   3    -0.148197433865E+00   -0.17999E-03   -0.29649E-04 16238   0.424E-02    0.213E-02
RMM:   4    -0.148483131925E+00   -0.28570E-03   -0.11504E-04 16975   0.177E-02    0.776E-03
RMM:   5    -0.148560111078E+00   -0.76979E-04   -0.19162E-04 17629   0.805E-03    0.455E-03
RMM:   6    -0.148575773318E+00   -0.15662E-04   -0.13961E-04 16997   0.358E-03    0.114E-03
RMM:   7    -0.148590989810E+00   -0.15216E-04   -0.99194E-05 18964   0.194E-03    0.696E-04
RMM:   8    -0.148593072712E+00   -0.20829E-05   -0.92637E-05 18760   0.120E-03    0.274E-04
RMM:   9    -0.148592984692E+00    0.88021E-07   -0.58831E-05 20550   0.795E-04    0.173E-04
RMM:  10    -0.148593045414E+00   -0.60723E-07   -0.50269E-05 21351   0.605E-04    0.394E-05
RMM:  11    -0.148590216086E+00    0.28293E-05   -0.21655E-05 21968   0.522E-04    0.215E-05
RMM:  12    -0.148589592978E+00    0.62311E-06   -0.16595E-05 22108   0.489E-04    0.108E-05
RMM:  13    -0.148588065360E+00    0.15276E-05   -0.23571E-06 22869   0.474E-04    0.391E-06
 force on displaced ion      44 direction 3 :   0.193  -0.023  -0.928
 Born effective charge ion   44 direction 3 :   0.077   0.001  -0.788
 Linear response progress:
  Degree of freedom: 133/144
       N       E                     dE             d eps       ncg     rms          rms(c)
RMM:   1    -0.244310876324E+00   -0.24431E+00    0.33836E-01 20274   0.820E-01
RMM:   2    -0.239361147288E+00    0.49497E-02   -0.70197E-03 16253   0.152E-01    0.248E-01
RMM:   3    -0.238658051247E+00    0.70310E-03   -0.79593E-04 16516   0.506E-02    0.133E-01
RMM:   4    -0.239309157787E+00   -0.65111E-03   -0.94602E-04 15981   0.465E-02    0.202E-02
RMM:   5    -0.239912073737E+00   -0.60292E-03   -0.40608E-04 17373   0.162E-02    0.613E-03
RMM:   6    -0.239824725560E+00    0.87348E-04    0.22050E-05 17242   0.528E-03    0.243E-03
RMM:   7    -0.239722162642E+00    0.10256E-03    0.14477E-04 17330   0.293E-03    0.797E-04
RMM:   8    -0.239756994623E+00   -0.34832E-04    0.24128E-05 18832   0.185E-03    0.387E-04
RMM:   9    -0.239777650738E+00   -0.20656E-04   -0.95329E-06 18391   0.134E-03    0.161E-04
RMM:  10    -0.239773312941E+00    0.43378E-05   -0.83509E-05 20122   0.110E-03    0.830E-05
RMM:  11    -0.239774276543E+00   -0.96360E-06   -0.45982E-05 21356   0.971E-04    0.400E-05
RMM:  12    -0.239775581496E+00   -0.13050E-05   -0.29881E-05 21717   0.916E-04    0.242E-05
RMM:  13    -0.239773284229E+00    0.22973E-05   -0.29575E-05 22763   0.883E-04    0.138E-05
 force on displaced ion      45 direction 1 : -60.647   5.580   0.001
 Born effective charge ion   45 direction 1 :  -0.800   0.086  -0.000
 Linear response progress:
  Degree of freedom: 134/144
       N       E                     dE             d eps       ncg     rms          rms(c)
RMM:   1    -0.236924900074E+00   -0.23692E+00    0.40178E-01 20476   0.819E-01
RMM:   2    -0.243435366800E+00   -0.65105E-02   -0.86182E-03 16273   0.149E-01    0.235E-01
RMM:   3    -0.240059175039E+00    0.33762E-02   -0.23860E-03 16892   0.542E-02    0.129E-01
RMM:   4    -0.240333231267E+00   -0.27406E-03   -0.17539E-03 16358   0.459E-02    0.278E-02
RMM:   5    -0.241895283926E+00   -0.15621E-02   -0.21122E-04 17072   0.176E-02    0.718E-03
RMM:   6    -0.242093543802E+00   -0.19826E-03   -0.45503E-05 16836   0.702E-03    0.314E-03
RMM:   7    -0.241747514308E+00    0.34603E-03    0.25186E-04 16633   0.407E-03    0.115E-03
RMM:   8    -0.241778373715E+00   -0.30859E-04    0.33322E-05 18278   0.243E-03    0.517E-04
RMM:   9    -0.241718568649E+00    0.59805E-04   -0.40437E-06 17269   0.176E-03    0.295E-04
RMM:  10    -0.241715858492E+00    0.27102E-05   -0.18713E-04 19496   0.144E-03    0.123E-04
RMM:  11    -0.241706907775E+00    0.89507E-05   -0.10764E-04 20225   0.126E-03    0.378E-05
RMM:  12    -0.241698518348E+00    0.83894E-05   -0.93470E-05 22364   0.119E-03    0.308E-05
RMM:  13    -0.241701439297E+00   -0.29209E-05   -0.15320E-04 22038   0.116E-03    0.885E-06
 force on displaced ion      45 direction 2 :   5.582 -49.306  -0.000
 Born effective charge ion   45 direction 2 :   0.144  -0.511  -0.000
 Linear response progress:
  Degree of freedom: 135/144
       N       E                     dE             d eps       ncg     rms          rms(c)
RMM:   1    -0.249331211181E+00   -0.24933E+00    0.31497E-01 19725   0.831E-01
RMM:   2    -0.230541983784E+00    0.18789E-01   -0.93601E-03 16340   0.174E-01    0.251E-01
RMM:   3    -0.231801788547E+00   -0.12598E-02   -0.43951E-03 16197   0.559E-02    0.134E-01
RMM:   4    -0.233667941710E+00   -0.18662E-02   -0.39161E-03 16568   0.515E-02    0.189E-02
RMM:   5    -0.233159833899E+00    0.50811E-03   -0.24947E-04 17014   0.172E-02    0.501E-03
RMM:   6    -0.233203447583E+00   -0.43614E-04   -0.10980E-04 17252   0.590E-03    0.174E-03
RMM:   7    -0.233254576274E+00   -0.51129E-04   -0.77424E-04 16716   0.338E-03    0.370E-04
RMM:   8    -0.233254607623E+00   -0.31349E-07   -0.80189E-04 19713   0.224E-03    0.240E-04
RMM:   9    -0.233249252388E+00    0.53552E-05   -0.73767E-04 18597   0.174E-03    0.927E-05
RMM:  10    -0.233222815349E+00    0.26437E-04   -0.46367E-04 21316   0.153E-03    0.565E-05
RMM:  11    -0.233249118302E+00   -0.26303E-04   -0.72565E-04 21371   0.142E-03    0.234E-05
RMM:  12    -0.233221377871E+00    0.27740E-04   -0.44967E-04 22738   0.137E-03    0.943E-06
RMM:  13    -0.233268357709E+00   -0.46980E-04   -0.91959E-04 23118   0.134E-03    0.719E-06
 force on displaced ion      45 direction 3 :   0.006  -0.001 -63.212
 Born effective charge ion   45 direction 3 :   0.000  -0.000  -0.594
 Linear response progress:
  Degree of freedom: 136/144
       N       E                     dE             d eps       ncg     rms          rms(c)
RMM:   1    -0.244236954976E+00   -0.24424E+00    0.33832E-01 20269   0.811E-01
RMM:   2    -0.239575441085E+00    0.46615E-02   -0.69203E-03 16250   0.151E-01    0.248E-01
RMM:   3    -0.238834686267E+00    0.74075E-03   -0.72981E-04 16529   0.506E-02    0.133E-01
RMM:   4    -0.239459681714E+00   -0.62500E-03   -0.88789E-04 15982   0.464E-02    0.201E-02
RMM:   5    -0.240067665634E+00   -0.60798E-03   -0.38603E-04 17406   0.162E-02    0.617E-03
RMM:   6    -0.239981598197E+00    0.86067E-04    0.27848E-05 17225   0.525E-03    0.242E-03
RMM:   7    -0.239880491640E+00    0.10111E-03    0.14266E-04 17345   0.291E-03    0.803E-04
RMM:   8    -0.239914349842E+00   -0.33858E-04    0.23691E-05 18834   0.185E-03    0.385E-04
RMM:   9    -0.239933715156E+00   -0.19365E-04    0.15290E-06 18480   0.133E-03    0.160E-04
RMM:  10    -0.239930089679E+00    0.36255E-05   -0.77243E-05 20142   0.110E-03    0.815E-05
RMM:  11    -0.239930897037E+00   -0.80736E-06   -0.39255E-05 21387   0.973E-04    0.399E-05
RMM:  12    -0.239931928839E+00   -0.10318E-05   -0.21406E-05 21645   0.918E-04    0.245E-05
RMM:  13    -0.239929141694E+00    0.27871E-05   -0.16272E-05 22656   0.887E-04    0.133E-05
 force on displaced ion      46 direction 1 : -60.647  -5.579   0.001
 Born effective charge ion   46 direction 1 :  -0.800  -0.086  -0.000
 Linear response progress:
  Degree of freedom: 137/144
       N       E                     dE             d eps       ncg     rms          rms(c)
RMM:   1    -0.236824733489E+00   -0.23682E+00    0.40231E-01 20476   0.810E-01
RMM:   2    -0.214686165292E+00    0.22139E-01   -0.64561E-03 16285   0.148E-01    0.235E-01
RMM:   3    -0.221134351544E+00   -0.64482E-02   -0.34341E-03 16904   0.541E-02    0.129E-01
RMM:   4    -0.223632012353E+00   -0.24977E-02   -0.32642E-03 16260   0.459E-02    0.278E-02
RMM:   5    -0.221258293212E+00    0.23737E-02   -0.21774E-04 17153   0.176E-02    0.718E-03
RMM:   6    -0.220998788598E+00    0.25950E-03   -0.57897E-05 16806   0.700E-03    0.315E-03
RMM:   7    -0.221412871197E+00   -0.41408E-03   -0.35371E-04 16737   0.404E-03    0.116E-03
RMM:   8    -0.221353389382E+00    0.59482E-04   -0.21192E-04 18143   0.241E-03    0.506E-04
RMM:   9    -0.221402751888E+00   -0.49363E-04   -0.16373E-04 17416   0.174E-03    0.312E-04
RMM:  10    -0.221438130802E+00   -0.35379E-04   -0.15822E-04 19382   0.143E-03    0.129E-04
RMM:  11    -0.221430215534E+00    0.79153E-05   -0.12888E-04 20347   0.124E-03    0.381E-05
RMM:  12    -0.221430011367E+00    0.20417E-06   -0.54616E-05 21903   0.118E-03    0.284E-05
RMM:  13    -0.221440841812E+00   -0.10830E-04   -0.12877E-04 22153   0.115E-03    0.757E-06
 force on displaced ion      46 direction 2 :  -5.575 -49.322   0.000
 Born effective charge ion   46 direction 2 :  -0.144  -0.510  -0.000
 Linear response progress:
  Degree of freedom: 138/144
       N       E                     dE             d eps       ncg     rms          rms(c)
RMM:   1    -0.249331663875E+00   -0.24933E+00    0.31496E-01 19713   0.822E-01
RMM:   2    -0.230587608813E+00    0.18744E-01   -0.90826E-03 16343   0.173E-01    0.251E-01
RMM:   3    -0.231852295930E+00   -0.12647E-02   -0.42732E-03 16185   0.559E-02    0.134E-01
RMM:   4    -0.233709275979E+00   -0.18570E-02   -0.38018E-03 16560   0.515E-02    0.189E-02
RMM:   5    -0.233206981839E+00    0.50229E-03   -0.19306E-04 17041   0.172E-02    0.503E-03
RMM:   6    -0.233250612230E+00   -0.43630E-04   -0.47826E-05 17257   0.589E-03    0.174E-03
RMM:   7    -0.233294236736E+00   -0.43625E-04   -0.62969E-04 16740   0.338E-03    0.370E-04
RMM:   8    -0.233308149618E+00   -0.13913E-04   -0.79804E-04 19690   0.223E-03    0.239E-04
RMM:   9    -0.233297045213E+00    0.11104E-04   -0.67665E-04 18642   0.174E-03    0.933E-05
RMM:  10    -0.233278398494E+00    0.18647E-04   -0.47959E-04 21362   0.153E-03    0.560E-05
RMM:  11    -0.233309141543E+00   -0.30743E-04   -0.78595E-04 21481   0.142E-03    0.230E-05
RMM:  12    -0.233274167783E+00    0.34974E-04   -0.43760E-04 22793   0.137E-03    0.938E-06
RMM:  13    -0.233321796864E+00   -0.47629E-04   -0.91405E-04 23170   0.134E-03    0.742E-06
 force on displaced ion      46 direction 3 :   0.007   0.001 -63.213
 Born effective charge ion   46 direction 3 :   0.000   0.000  -0.595
 Linear response progress:
  Degree of freedom: 139/144
       N       E                     dE             d eps       ncg     rms          rms(c)
RMM:   1    -0.244235025713E+00   -0.24424E+00    0.33836E-01 20259   0.812E-01
RMM:   2    -0.252086764907E+00   -0.78517E-02   -0.93227E-03 16262   0.151E-01    0.248E-01
RMM:   3    -0.250126496491E+00    0.19603E-02   -0.21719E-04 16562   0.508E-02    0.133E-01
RMM:   4    -0.248907869015E+00    0.12186E-02   -0.38437E-04 15927   0.466E-02    0.202E-02
RMM:   5    -0.247950379401E+00    0.95749E-03    0.87715E-05 17451   0.166E-02    0.612E-03
RMM:   6    -0.248097603730E+00   -0.14722E-03   -0.23186E-04 17182   0.580E-03    0.237E-03
RMM:   7    -0.248231571407E+00   -0.13397E-03    0.10292E-05 17439   0.346E-03    0.765E-04
RMM:   8    -0.248207332372E+00    0.24239E-04   -0.18300E-04 18960   0.237E-03    0.386E-04
RMM:   9    -0.248150398523E+00    0.56934E-04    0.70260E-05 18398   0.188E-03    0.152E-04
RMM:  10    -0.248178991394E+00   -0.28593E-04    0.40312E-05 20438   0.164E-03    0.912E-05
RMM:  11    -0.248184063929E+00   -0.50725E-05   -0.80754E-05 21516   0.151E-03    0.480E-05
RMM:  12    -0.248155277388E+00    0.28787E-04    0.11805E-04 21931   0.145E-03    0.269E-05
RMM:  13    -0.248181361176E+00   -0.26084E-04   -0.96583E-05 22979   0.142E-03    0.118E-05
 force on displaced ion      47 direction 1 : -60.659   5.584  -0.001
 Born effective charge ion   47 direction 1 :  -0.800   0.086   0.000
 Linear response progress:
  Degree of freedom: 140/144
       N       E                     dE             d eps       ncg     rms          rms(c)
RMM:   1    -0.236816472527E+00   -0.23682E+00    0.40242E-01 20467   0.812E-01
RMM:   2    -0.214428331055E+00    0.22388E-01   -0.66808E-03 16288   0.148E-01    0.235E-01
RMM:   3    -0.220925420955E+00   -0.64971E-02   -0.35050E-03 16896   0.541E-02    0.129E-01
RMM:   4    -0.223447208453E+00   -0.25218E-02   -0.32630E-03 16254   0.459E-02    0.278E-02
RMM:   5    -0.221066984124E+00    0.23802E-02   -0.22000E-04 17169   0.176E-02    0.719E-03
RMM:   6    -0.220801402649E+00    0.26558E-03   -0.58379E-05 16795   0.699E-03    0.315E-03
RMM:   7    -0.221217316334E+00   -0.41591E-03   -0.37047E-04 16730   0.403E-03    0.115E-03
RMM:   8    -0.221156298099E+00    0.61018E-04   -0.20048E-04 18154   0.241E-03    0.504E-04
RMM:   9    -0.221210667229E+00   -0.54369E-04   -0.18354E-04 17371   0.174E-03    0.308E-04
RMM:  10    -0.221242764383E+00   -0.32097E-04   -0.16019E-04 19502   0.142E-03    0.130E-04
RMM:  11    -0.221236193320E+00    0.65711E-05   -0.13791E-04 20318   0.123E-03    0.384E-05
RMM:  12    -0.221234936564E+00    0.12568E-05   -0.55913E-05 22020   0.117E-03    0.293E-05
RMM:  13    -0.221246788842E+00   -0.11852E-04   -0.14130E-04 22262   0.114E-03    0.777E-06
 force on displaced ion      47 direction 2 :   5.575 -49.322  -0.000
 Born effective charge ion   47 direction 2 :   0.144  -0.510  -0.000
 Linear response progress:
  Degree of freedom: 141/144
       N       E                     dE             d eps       ncg     rms          rms(c)
RMM:   1    -0.249334341498E+00   -0.24933E+00    0.31494E-01 19717   0.823E-01
RMM:   2    -0.230405214553E+00    0.18929E-01   -0.89248E-03 16342   0.173E-01    0.251E-01
RMM:   3    -0.231713709163E+00   -0.13085E-02   -0.42709E-03 16201   0.557E-02    0.134E-01
RMM:   4    -0.233594652936E+00   -0.18809E-02   -0.37821E-03 16575   0.513E-02    0.189E-02
RMM:   5    -0.233091053409E+00    0.50360E-03   -0.18462E-04 17002   0.171E-02    0.503E-03
RMM:   6    -0.233133085855E+00   -0.42032E-04   -0.26161E-05 17257   0.590E-03    0.174E-03
RMM:   7    -0.233179141564E+00   -0.46056E-04   -0.63988E-04 16747   0.338E-03    0.371E-04
RMM:   8    -0.233185928329E+00   -0.67868E-05   -0.73399E-04 19681   0.223E-03    0.239E-04
RMM:   9    -0.233183739429E+00    0.21889E-05   -0.69979E-04 18656   0.173E-03    0.935E-05
RMM:  10    -0.233160437910E+00    0.23302E-04   -0.45687E-04 21300   0.152E-03    0.560E-05
RMM:  11    -0.233197910163E+00   -0.37472E-04   -0.83054E-04 21492   0.141E-03    0.229E-05
RMM:  12    -0.233155504947E+00    0.42405E-04   -0.40767E-04 22802   0.136E-03    0.917E-06
RMM:  13    -0.233205943688E+00   -0.50439E-04   -0.91235E-04 23121   0.133E-03    0.755E-06
 force on displaced ion      47 direction 3 :  -0.007   0.002 -63.212
 Born effective charge ion   47 direction 3 :  -0.000   0.000  -0.594
 Linear response progress:
  Degree of freedom: 142/144
       N       E                     dE             d eps       ncg     rms          rms(c)
RMM:   1    -0.244311020903E+00   -0.24431E+00    0.33839E-01 20254   0.821E-01
RMM:   2    -0.252302970570E+00   -0.79919E-02   -0.94325E-03 16257   0.152E-01    0.248E-01
RMM:   3    -0.250300917359E+00    0.20021E-02   -0.22962E-04 16549   0.509E-02    0.133E-01
RMM:   4    -0.249051966108E+00    0.12490E-02   -0.39691E-04 15937   0.466E-02    0.202E-02
RMM:   5    -0.248095025443E+00    0.95694E-03    0.82749E-05 17440   0.167E-02    0.608E-03
RMM:   6    -0.248242234517E+00   -0.14721E-03   -0.20177E-04 17191   0.581E-03    0.237E-03
RMM:   7    -0.248374786156E+00   -0.13255E-03    0.59962E-05 17393   0.346E-03    0.762E-04
RMM:   8    -0.248352964421E+00    0.21822E-04   -0.17137E-04 18979   0.237E-03    0.386E-04
RMM:   9    -0.248296458371E+00    0.56506E-04    0.78525E-05 18372   0.188E-03    0.153E-04
RMM:  10    -0.248323929054E+00   -0.27471E-04    0.60021E-05 20383   0.164E-03    0.921E-05
RMM:  11    -0.248332067497E+00   -0.81384E-05   -0.94412E-05 21433   0.150E-03    0.480E-05
RMM:  12    -0.248300298078E+00    0.31769E-04    0.13298E-04 21939   0.144E-03    0.272E-05
RMM:  13    -0.248329257630E+00   -0.28960E-04   -0.10866E-04 22967   0.141E-03    0.122E-05
 force on displaced ion      48 direction 1 : -60.659  -5.585  -0.001
 Born effective charge ion   48 direction 1 :  -0.800  -0.086   0.000
 Linear response progress:
  Degree of freedom: 143/144
       N       E                     dE             d eps       ncg     rms          rms(c)
RMM:   1    -0.236918288619E+00   -0.23692E+00    0.40190E-01 20442   0.821E-01
RMM:   2    -0.243636493863E+00   -0.67182E-02   -0.88698E-03 16259   0.149E-01    0.235E-01
RMM:   3    -0.240195975797E+00    0.34405E-02   -0.24010E-03 16884   0.542E-02    0.129E-01
RMM:   4    -0.240440711054E+00   -0.24474E-03   -0.17101E-03 16359   0.459E-02    0.278E-02
RMM:   5    -0.242012503901E+00   -0.15718E-02   -0.21800E-04 17078   0.176E-02    0.718E-03
RMM:   6    -0.242210234422E+00   -0.19773E-03   -0.43806E-05 16837   0.702E-03    0.314E-03
RMM:   7    -0.241864466239E+00    0.34577E-03    0.24019E-04 16638   0.407E-03    0.114E-03
RMM:   8    -0.241894830151E+00   -0.30364E-04    0.24693E-05 18295   0.243E-03    0.516E-04
RMM:   9    -0.241834583548E+00    0.60247E-04   -0.61264E-06 17305   0.176E-03    0.292E-04
RMM:  10    -0.241832475485E+00    0.21081E-05   -0.19717E-04 19541   0.144E-03    0.121E-04
RMM:  11    -0.241822570530E+00    0.99050E-05   -0.10691E-04 20261   0.125E-03    0.378E-05
RMM:  12    -0.241815208994E+00    0.73615E-05   -0.10380E-04 22361   0.118E-03    0.304E-05
RMM:  13    -0.241817593011E+00   -0.23840E-05   -0.15901E-04 22020   0.116E-03    0.887E-06
 force on displaced ion      48 direction 2 :  -5.582 -49.306   0.000
 Born effective charge ion   48 direction 2 :  -0.144  -0.511  -0.000
 Linear response progress:
  Degree of freedom: 144/144
       N       E                     dE             d eps       ncg     rms          rms(c)
RMM:   1    -0.249333390669E+00   -0.24933E+00    0.31495E-01 19717   0.832E-01
RMM:   2    -0.230507526108E+00    0.18826E-01   -0.92197E-03 16349   0.172E-01    0.251E-01
RMM:   3    -0.231787201025E+00   -0.12797E-02   -0.43801E-03 16200   0.556E-02    0.134E-01
RMM:   4    -0.233656308894E+00   -0.18691E-02   -0.38757E-03 16569   0.512E-02    0.189E-02
RMM:   5    -0.233147448646E+00    0.50886E-03   -0.21187E-04 16998   0.171E-02    0.502E-03
RMM:   6    -0.233191082160E+00   -0.43634E-04   -0.69771E-05 17277   0.589E-03    0.174E-03
RMM:   7    -0.233244808393E+00   -0.53726E-04   -0.75872E-04 16745   0.338E-03    0.370E-04
RMM:   8    -0.233240942814E+00    0.38656E-05   -0.74747E-04 19724   0.223E-03    0.240E-04
RMM:   9    -0.233241158332E+00   -0.21552E-06   -0.73915E-04 18633   0.173E-03    0.940E-05
RMM:  10    -0.233214180093E+00    0.26978E-04   -0.45928E-04 21203   0.152E-03    0.564E-05
RMM:  11    -0.233238234410E+00   -0.24054E-04   -0.69840E-04 21388   0.141E-03    0.229E-05
RMM:  12    -0.233219290726E+00    0.18944E-04   -0.51029E-04 22733   0.136E-03    0.966E-06
RMM:  13    -0.233256601202E+00   -0.37310E-04   -0.88352E-04 23137   0.133E-03    0.751E-06
 force on displaced ion      48 direction 3 :  -0.006  -0.002 -63.211
 Born effective charge ion   48 direction 3 :  -0.000  -0.000  -0.595
 Born effective charges drift removed
 Linear response finished
