<?xml version="1.0" encoding="ISO-8859-1"?>
<modeling>
 <generator>
  <i name="program" type="string">vasp </i>
  <i name="version" type="string">5.4.4.18Apr17-6-g9f103f2a35  </i>
  <i name="subversion" type="string">(build Aug 24 2017 11:22:49) complex            parallel </i>
  <i name="platform" type="string">LinuxIFC </i>
  <i name="date" type="string">2023 12 25 </i>
  <i name="time" type="string">13:07:54 </i>
 </generator>
 <incar>
  <i type="string" name="PREC">accurate</i>
  <i type="string" name="ALGO"> Normal</i>
  <i type="int" name="NELM">   100</i>
  <i type="int" name="IBRION">     8</i>
  <i name="EDIFF">      0.00000001</i>
  <i name="SYMPREC">      0.00000001</i>
  <i name="ENCUT">    520.00000000</i>
  <i type="logical" name="LREAL"> F  </i>
  <i type="int" name="ISMEAR">     0</i>
  <i name="SIGMA">      0.01000000</i>
  <i type="logical" name="LWAVE"> F  </i>
  <v type="int" name="KPOINT_BSE">    -1     0     0     0</v>
  <i type="int" name="NELM">   100</i>
  <i type="logical" name="LPEAD"> T  </i>
  <i type="logical" name="LEPSILON"> T  </i>
 </incar>
 <structure name="primitive_cell" >
  <crystal>
   <varray name="basis" >
    <v>       8.06459038       0.00000000       0.00000000 </v>
    <v>       0.00000000       8.77600633       0.00000000 </v>
    <v>       0.00000000       0.00000000      12.08306207 </v>
   </varray>
   <i name="volume">    855.17746386 </i>
   <varray name="rec_basis" >
    <v>       0.12399886       0.00000000       0.00000000 </v>
    <v>       0.00000000       0.11394705       0.00000000 </v>
    <v>       0.00000000       0.00000000       0.08276048 </v>
   </varray>
  </crystal>
  <varray name="positions" >
   <v>      -0.49126496      -0.34477495      -0.31926995 </v>
   <v>      -0.45086496      -0.40374995      -0.24999994 </v>
   <v>      -0.49126496      -0.34477495      -0.18072994 </v>
   <v>      -0.32172795      -0.40469595      -0.24999994 </v>
   <v>       0.48106504       0.43774803      -0.24999994 </v>
   <v>       0.34586903       0.44386203      -0.24999994 </v>
   <v>      -0.47597196       0.37841103      -0.32436495 </v>
   <v>       0.29577602      -0.28895295      -0.47063996 </v>
   <v>      -0.47597196       0.37841103      -0.17563494 </v>
   <v>      -0.20422394      -0.21104694      -0.47063996 </v>
   <v>       0.46697104       0.01811500      -0.24999994 </v>
   <v>       0.17827201      -0.09530393      -0.24999994 </v>
   <v>      -0.49999996       0.00000000      -0.49999996 </v>
   <v>       0.29577602      -0.28895295      -0.02935993 </v>
   <v>      -0.03302893       0.48188504      -0.24999994 </v>
   <v>       0.47597204      -0.37841095       0.32436502 </v>
   <v>      -0.20422394      -0.21104694      -0.02935993 </v>
   <v>       0.00873500      -0.15522494      -0.31926995 </v>
   <v>       0.04913500      -0.09624993      -0.24999994 </v>
   <v>      -0.29577595       0.28895302       0.47064004 </v>
   <v>      -0.15413094       0.05613800      -0.24999994 </v>
   <v>       0.00873500      -0.15522494      -0.18072994 </v>
   <v>       0.00000000      -0.49999996      -0.49999996 </v>
   <v>      -0.49999996       0.00000000       0.00000000 </v>
   <v>       0.49126504       0.34477503       0.31927002 </v>
   <v>       0.20422402       0.21104702       0.47064004 </v>
   <v>      -0.48106496      -0.43774796       0.25000002 </v>
   <v>      -0.01893492       0.06225200      -0.24999994 </v>
   <v>      -0.34586895      -0.44386196       0.25000002 </v>
   <v>      -0.29577595       0.28895302       0.02936000 </v>
   <v>       0.02402800       0.12158901      -0.32436495 </v>
   <v>       0.45086503       0.40375003       0.25000002 </v>
   <v>       0.00000000      -0.49999996       0.00000000 </v>
   <v>       0.32172802       0.40469603       0.25000002 </v>
   <v>       0.02402800       0.12158901      -0.17563494 </v>
   <v>      -0.46697096      -0.01811492       0.25000002 </v>
   <v>       0.47597204      -0.37841095       0.17563501 </v>
   <v>      -0.02402793      -0.12158893       0.32436502 </v>
   <v>       0.20422402       0.21104702       0.02936000 </v>
   <v>       0.15413101      -0.05613793       0.25000002 </v>
   <v>       0.03302900      -0.48188496       0.25000002 </v>
   <v>       0.49126504       0.34477503       0.18073001 </v>
   <v>      -0.17827194       0.09530401       0.25000002 </v>
   <v>       0.01893500      -0.06225193       0.25000002 </v>
   <v>      -0.00873492       0.15522501       0.31927002 </v>
   <v>      -0.02402793      -0.12158893       0.17563501 </v>
   <v>      -0.04913493       0.09625001       0.25000002 </v>
   <v>      -0.00873492       0.15522501       0.18073001 </v>
  </varray>
 </structure>
 <varray name="primitive_index" >
  <v type="int" >        1 </v>
  <v type="int" >       45 </v>
  <v type="int" >        7 </v>
  <v type="int" >        9 </v>
  <v type="int" >       29 </v>
  <v type="int" >       21 </v>
  <v type="int" >       13 </v>
  <v type="int" >       38 </v>
  <v type="int" >       19 </v>
  <v type="int" >       43 </v>
  <v type="int" >       33 </v>
  <v type="int" >       10 </v>
  <v type="int" >       27 </v>
  <v type="int" >       44 </v>
  <v type="int" >       34 </v>
  <v type="int" >       17 </v>
  <v type="int" >       37 </v>
  <v type="int" >        8 </v>
  <v type="int" >       46 </v>
  <v type="int" >       42 </v>
  <v type="int" >       22 </v>
  <v type="int" >        2 </v>
  <v type="int" >       26 </v>
  <v type="int" >       25 </v>
  <v type="int" >        5 </v>
  <v type="int" >       39 </v>
  <v type="int" >       31 </v>
  <v type="int" >       30 </v>
  <v type="int" >       23 </v>
  <v type="int" >       40 </v>
  <v type="int" >       20 </v>
  <v type="int" >       47 </v>
  <v type="int" >       28 </v>
  <v type="int" >       11 </v>
  <v type="int" >       14 </v>
  <v type="int" >       35 </v>
  <v type="int" >       15 </v>
  <v type="int" >       16 </v>
  <v type="int" >       41 </v>
  <v type="int" >       24 </v>
  <v type="int" >       36 </v>
  <v type="int" >        3 </v>
  <v type="int" >       12 </v>
  <v type="int" >       32 </v>
  <v type="int" >        4 </v>
  <v type="int" >       18 </v>
  <v type="int" >       48 </v>
  <v type="int" >        6 </v>
 </varray>
 <kpoints>
  <generation param="Gamma">
   <v type="int" name="divisions">       4        4        4 </v>
   <v name="usershift">      0.00000000       0.00000000       0.00000000 </v>
   <v name="genvec1">      0.25000000       0.00000000       0.00000000 </v>
   <v name="genvec2">      0.00000000       0.25000000       0.00000000 </v>
   <v name="genvec3">      0.00000000       0.00000000       0.25000000 </v>
   <v name="shift">      0.00000000       0.00000000       0.00000000 </v>
  </generation>
  <varray name="kpointlist" >
   <v>       0.00000000       0.00000000       0.00000000 </v>
   <v>       0.25000000       0.00000000       0.00000000 </v>
   <v>       0.50000000       0.00000000       0.00000000 </v>
   <v>       0.00000000       0.25000000       0.00000000 </v>
   <v>       0.25000000       0.25000000       0.00000000 </v>
   <v>       0.50000000       0.25000000       0.00000000 </v>
   <v>      -0.25000000       0.25000000       0.00000000 </v>
   <v>       0.00000000       0.50000000       0.00000000 </v>
   <v>       0.25000000       0.50000000       0.00000000 </v>
   <v>       0.50000000       0.50000000       0.00000000 </v>
   <v>       0.00000000       0.00000000       0.25000000 </v>
   <v>       0.25000000       0.00000000       0.25000000 </v>
   <v>       0.50000000       0.00000000       0.25000000 </v>
   <v>      -0.25000000       0.00000000       0.25000000 </v>
   <v>       0.00000000       0.25000000       0.25000000 </v>
   <v>       0.25000000       0.25000000       0.25000000 </v>
   <v>       0.50000000       0.25000000       0.25000000 </v>
   <v>      -0.25000000       0.25000000       0.25000000 </v>
   <v>       0.00000000       0.50000000       0.25000000 </v>
   <v>       0.25000000       0.50000000       0.25000000 </v>
   <v>       0.50000000       0.50000000       0.25000000 </v>
   <v>      -0.25000000       0.50000000       0.25000000 </v>
   <v>       0.00000000      -0.25000000       0.25000000 </v>
   <v>       0.25000000      -0.25000000       0.25000000 </v>
   <v>       0.50000000      -0.25000000       0.25000000 </v>
   <v>      -0.25000000      -0.25000000       0.25000000 </v>
   <v>       0.00000000       0.00000000       0.50000000 </v>
   <v>       0.25000000       0.00000000       0.50000000 </v>
   <v>       0.50000000       0.00000000       0.50000000 </v>
   <v>       0.00000000       0.25000000       0.50000000 </v>
   <v>       0.25000000       0.25000000       0.50000000 </v>
   <v>       0.50000000       0.25000000       0.50000000 </v>
   <v>      -0.25000000       0.25000000       0.50000000 </v>
   <v>       0.00000000       0.50000000       0.50000000 </v>
   <v>       0.25000000       0.50000000       0.50000000 </v>
   <v>       0.50000000       0.50000000       0.50000000 </v>
  </varray>
  <varray name="weights" >
   <v>       0.01562500 </v>
   <v>       0.03125000 </v>
   <v>       0.01562500 </v>
   <v>       0.03125000 </v>
   <v>       0.03125000 </v>
   <v>       0.03125000 </v>
   <v>       0.03125000 </v>
   <v>       0.01562500 </v>
   <v>       0.03125000 </v>
   <v>       0.01562500 </v>
   <v>       0.03125000 </v>
   <v>       0.03125000 </v>
   <v>       0.03125000 </v>
   <v>       0.03125000 </v>
   <v>       0.03125000 </v>
   <v>       0.03125000 </v>
   <v>       0.03125000 </v>
   <v>       0.03125000 </v>
   <v>       0.03125000 </v>
   <v>       0.03125000 </v>
   <v>       0.03125000 </v>
   <v>       0.03125000 </v>
   <v>       0.03125000 </v>
   <v>       0.03125000 </v>
   <v>       0.03125000 </v>
   <v>       0.03125000 </v>
   <v>       0.01562500 </v>
   <v>       0.03125000 </v>
   <v>       0.01562500 </v>
   <v>       0.03125000 </v>
   <v>       0.03125000 </v>
   <v>       0.03125000 </v>
   <v>       0.03125000 </v>
   <v>       0.01562500 </v>
   <v>       0.03125000 </v>
   <v>       0.01562500 </v>
  </varray>
 </kpoints>
 <parameters>
  <separator name="general" >
   <i type="string" name="SYSTEM">unknown system</i>
   <i type="logical" name="LCOMPAT"> F  </i>
  </separator>
  <separator name="electronic" >
   <i type="string" name="PREC">accura</i>
   <i name="ENMAX">    520.00000000</i>
   <i name="ENAUG">    644.87300000</i>
   <i name="EDIFF">      0.00000001</i>
   <i type="int" name="IALGO">    38</i>
   <i type="int" name="IWAVPR">    11</i>
   <i type="int" name="NBANDS">   128</i>
   <i name="NELECT">    200.00000000</i>
   <i type="int" name="TURBO">     0</i>
   <i type="int" name="IRESTART">     0</i>
   <i type="int" name="NREBOOT">     0</i>
   <i type="int" name="NMIN">     0</i>
   <i name="EREF">      0.00000000</i>
   <separator name="electronic smearing" >
    <i type="int" name="ISMEAR">     0</i>
    <i name="SIGMA">      0.01000000</i>
    <i name="KSPACING">      0.50000000</i>
    <i type="logical" name="KGAMMA"> T  </i>
   </separator>
   <separator name="electronic projectors" >
    <i type="logical" name="LREAL"> F  </i>
    <v name="ROPT">      0.00000000      0.00000000      0.00000000      0.00000000      0.00000000</v>
    <i type="int" name="LMAXPAW">  -100</i>
    <i type="int" name="LMAXMIX">     2</i>
    <i type="logical" name="NLSPLINE"> F  </i>
   </separator>
   <separator name="electronic startup" >
    <i type="int" name="ISTART">     0</i>
    <i type="int" name="ICHARG">     2</i>
    <i type="int" name="INIWAV">     1</i>
   </separator>
   <separator name="electronic spin" >
    <i type="int" name="ISPIN">     1</i>
    <i type="logical" name="LNONCOLLINEAR"> F  </i>
    <v name="MAGMOM">      1.00000000      1.00000000      1.00000000      1.00000000      1.00000000      1.00000000      1.00000000      1.00000000      1.00000000      1.00000000      1.00000000      1.00000000      1.00000000      1.00000000      1.00000000      1.00000000      1.00000000      1.00000000      1.00000000      1.00000000
      1.00000000      1.00000000      1.00000000      1.00000000      1.00000000      1.00000000      1.00000000      1.00000000      1.00000000      1.00000000      1.00000000      1.00000000      1.00000000      1.00000000      1.00000000      1.00000000      1.00000000      1.00000000      1.00000000      1.00000000
      1.00000000      1.00000000      1.00000000      1.00000000      1.00000000      1.00000000      1.00000000      1.00000000</v>
    <i name="NUPDOWN">     -1.00000000</i>
    <i type="logical" name="LSORBIT"> F  </i>
    <v name="SAXIS">      0.00000000      0.00000000      1.00000000</v>
    <i type="logical" name="LSPIRAL"> F  </i>
    <v name="QSPIRAL">      0.00000000      0.00000000      0.00000000</v>
    <i type="logical" name="LZEROZ"> F  </i>
   </separator>
   <separator name="electronic exchange-correlation" >
    <i type="logical" name="LASPH"> F  </i>
    <i type="logical" name="LMETAGGA"> F  </i>
   </separator>
   <separator name="electronic convergence" >
    <i type="int" name="NELM">   100</i>
    <i type="int" name="NELMDL">    -5</i>
    <i type="int" name="NELMIN">     2</i>
    <i name="ENINI">    520.00000000</i>
    <separator name="electronic convergence detail" >
     <i type="logical" name="LDIAG"> T  </i>
     <i type="logical" name="LSUBROT"> F  </i>
     <i name="WEIMIN">      0.00100000</i>
     <i name="EBREAK">      0.00000000</i>
     <i name="DEPER">      0.30000000</i>
     <i type="int" name="NRMM">     4</i>
     <i name="TIME">      0.40000000</i>
    </separator>
   </separator>
   <separator name="electronic mixer" >
    <i name="AMIX">      0.40000000</i>
    <i name="BMIX">      1.00000000</i>
    <i name="AMIN">      0.10000000</i>
    <i name="AMIX_MAG">      1.60000000</i>
    <i name="BMIX_MAG">      1.00000000</i>
    <separator name="electronic mixer details" >
     <i type="int" name="IMIX">     4</i>
     <i type="logical" name="MIXFIRST"> F  </i>
     <i type="int" name="MAXMIX">   -45</i>
     <i name="WC">    100.00000000</i>
     <i type="int" name="INIMIX">     1</i>
     <i type="int" name="MIXPRE">     1</i>
     <i type="int" name="MREMOVE">     5</i>
    </separator>
   </separator>
   <separator name="electronic dipolcorrection" >
    <i type="logical" name="LDIPOL"> F  </i>
    <i type="logical" name="LMONO"> F  </i>
    <i type="int" name="IDIPOL">     0</i>
    <i name="EPSILON">      1.00000000</i>
    <v name="DIPOL">   -100.00000000   -100.00000000   -100.00000000</v>
    <i name="EFIELD">      0.00000000</i>
   </separator>
  </separator>
  <separator name="grids" >
   <i type="int" name="NGX">    60</i>
   <i type="int" name="NGY">    70</i>
   <i type="int" name="NGZ">    90</i>
   <i type="int" name="NGXF">   120</i>
   <i type="int" name="NGYF">   140</i>
   <i type="int" name="NGZF">   180</i>
   <i type="logical" name="ADDGRID"> F  </i>
  </separator>
  <separator name="ionic" >
   <i type="int" name="NSW">     1</i>
   <i type="int" name="IBRION">     8</i>
   <i type="int" name="MDALGO">     0</i>
   <i type="int" name="ISIF">     2</i>
   <i name="PSTRESS">      0.00000000</i>
   <i name="EDIFFG">      0.00000010</i>
   <i type="int" name="NFREE">     0</i>
   <i name="POTIM">      0.50000000</i>
   <i name="SMASS">     -3.00000000</i>
   <i name="SCALEE">      1.00000000</i>
  </separator>
  <separator name="ionic md" >
   <i name="TEBEG">      0.00010000</i>
   <i name="TEEND">      0.00010000</i>
   <i type="int" name="NBLOCK">     1</i>
   <i type="int" name="KBLOCK">     1</i>
   <i type="int" name="NPACO">   256</i>
   <i name="APACO">     16.00000000</i>
  </separator>
  <separator name="symmetry" >
   <i type="int" name="ISYM">     2</i>
   <i name="SYMPREC">      0.00000001</i>
  </separator>
  <separator name="dos" >
   <i type="int" name="LORBIT">     0</i>
   <v name="RWIGS">     -1.00000000     -1.00000000     -1.00000000     -1.00000000     -1.00000000</v>
   <i type="int" name="NEDOS">   301</i>
   <i name="EMIN">     10.00000000</i>
   <i name="EMAX">    -10.00000000</i>
   <i name="EFERMI">      0.00000000</i>
  </separator>
  <separator name="writing" >
   <i type="int" name="NWRITE">     2</i>
   <i type="logical" name="LWAVE"> F  </i>
   <i type="logical" name="LDOWNSAMPLE"> F  </i>
   <i type="logical" name="LCHARG"> T  </i>
   <i type="logical" name="LPARD"> F  </i>
   <i type="logical" name="LVTOT"> F  </i>
   <i type="logical" name="LVHAR"> F  </i>
   <i type="logical" name="LELF"> F  </i>
   <i type="logical" name="LOPTICS"> F  </i>
   <v name="STM">      0.00000000      0.00000000      0.00000000      0.00000000      0.00000000      0.00000000      0.00000000</v>
  </separator>
  <separator name="performance" >
   <i type="int" name="NPAR">     8</i>
   <i type="int" name="NSIM">     4</i>
   <i type="int" name="NBLK">    -1</i>
   <i type="logical" name="LPLANE"> T  </i>
   <i type="logical" name="LSCALAPACK"> T  </i>
   <i type="logical" name="LSCAAWARE"> F  </i>
   <i type="logical" name="LSCALU"> F  </i>
   <i type="logical" name="LASYNC"> F  </i>
   <i type="logical" name="LORBITALREAL"> F  </i>
  </separator>
  <separator name="miscellaneous" >
   <i type="int" name="IDIOT">     3</i>
   <i type="int" name="ISPECIAL">     0</i>
   <i type="logical" name="LMUSIC"> F  </i>
   <v name="POMASS">      1.00000000    207.20000000     12.01100000     79.90400000     14.00100000</v>
   <v name="DARWINR">      0.00000000      0.00000000      0.00000000      0.00000000      0.00000000</v>
   <v name="DARWINV">      1.00000000      1.00000000      1.00000000      1.00000000      1.00000000</v>
   <i type="logical" name="LCORR"> T  </i>
  </separator>
  <i type="logical" name="GGA_COMPAT"> T  </i>
  <i type="logical" name="LBERRY"> F  </i>
  <i type="int" name="ICORELEVEL">     0</i>
  <i type="logical" name="LDAU"> F  </i>
  <i type="int" name="I_CONSTRAINED_M">     0</i>
  <separator name="electronic exchange-correlation" >
   <i type="string" name="GGA">--</i>
   <i type="int" name="VOSKOWN">     0</i>
   <i type="logical" name="LHFCALC"> F  </i>
   <i type="string" name="PRECFOCK"></i>
   <i type="logical" name="LSYMGRAD"> F  </i>
   <i type="logical" name="LHFONE"> F  </i>
   <i type="logical" name="LRHFCALC"> F  </i>
   <i type="logical" name="LTHOMAS"> F  </i>
   <i type="logical" name="LMODELHF"> F  </i>
   <i name="ENCUT4O">     -1.00000000</i>
   <i type="int" name="EXXOEP">     0</i>
   <i type="int" name="FOURORBIT">     0</i>
   <i name="AEXX">      0.00000000</i>
   <i name="HFALPHA">      0.00000000</i>
   <i name="MCALPHA">      0.00000000</i>
   <i name="ALDAX">      1.00000000</i>
   <i name="AGGAX">      1.00000000</i>
   <i name="ALDAC">      1.00000000</i>
   <i name="AGGAC">      1.00000000</i>
   <i type="int" name="NKREDX">     1</i>
   <i type="int" name="NKREDY">     1</i>
   <i type="int" name="NKREDZ">     1</i>
   <i type="logical" name="SHIFTRED"> F  </i>
   <i type="logical" name="ODDONLY"> F  </i>
   <i type="logical" name="EVENONLY"> F  </i>
   <i type="int" name="LMAXFOCK">     0</i>
   <i type="int" name="NMAXFOCKAE">     0</i>
   <i type="logical" name="LFOCKAEDFT"> F  </i>
   <i name="HFSCREEN">      0.00000000</i>
   <i name="HFSCREENC">      0.00000000</i>
   <i type="int" name="NBANDSGWLOW">     0</i>
  </separator>
  <separator name="vdW DFT" >
   <i type="logical" name="LUSE_VDW"> F  </i>
   <i name="Zab_VDW">     -0.84910000</i>
   <i name="PARAM1">      0.12340000</i>
   <i name="PARAM2">      1.00000000</i>
   <i name="PARAM3">      0.00000000</i>
  </separator>
  <separator name="model GW" >
   <i type="int" name="MODEL_GW">     0</i>
   <i name="MODEL_EPS0">     10.68971830</i>
   <i name="MODEL_ALPHA">      1.00000000</i>
  </separator>
  <separator name="linear response parameters" >
   <i type="logical" name="LEPSILON"> T  </i>
   <i type="logical" name="LRPA"> F  </i>
   <i type="logical" name="LNABLA"> F  </i>
   <i type="logical" name="LVEL"> F  </i>
   <i type="int" name="KINTER">     0</i>
   <i name="CSHIFT">      0.10000000</i>
   <i name="OMEGAMAX">     -1.00000000</i>
   <i name="DEG_THRESHOLD">      0.00200000</i>
   <i name="RTIME">     -0.10000000</i>
   <i name="WPLASMAI">      0.00000000</i>
   <v name="DFIELD">      0.00000000      0.00000000      0.00000000</v>
   <v name="WPLASMA">      0.00000000      0.00000000      0.00000000      0.00000000      0.00000000      0.00000000      0.00000000      0.00000000      0.00000000</v>
  </separator>
  <separator name="orbital magnetization" >
   <i type="logical" name="NUCIND"> F  </i>
   <v name="MAGPOS">      0.00000000      0.00000000      0.00000000</v>
   <i type="logical" name="LNICSALL"> T  </i>
   <i type="logical" name="ORBITALMAG"> F  </i>
   <i type="logical" name="LMAGBLOCH"> F  </i>
   <i type="logical" name="LCHIMAG"> F  </i>
   <i type="logical" name="LGAUGE"> T  </i>
   <i type="int" name="MAGATOM">     0</i>
   <v name="MAGDIPOL">      0.00000000      0.00000000      0.00000000</v>
   <v name="AVECCONST">      0.00000000      0.00000000      0.00000000</v>
  </separator>
  <separator name="response functions" >
   <i type="logical" name="LADDER"> F  </i>
   <i type="logical" name="LRPAFORCE"> F  </i>
   <i type="logical" name="LFXC"> F  </i>
   <i type="logical" name="LHARTREE"> T  </i>
   <i type="int" name="IBSE">     0</i>
   <v type="int" name="KPOINT">    -1     0     0     0</v>
   <i type="logical" name="LTCTE"> F  </i>
   <i type="logical" name="LTETE"> F  </i>
   <i type="logical" name="LTRIPLET"> F  </i>
   <i type="logical" name="LFXCEPS"> F  </i>
   <i type="logical" name="LFXHEG"> F  </i>
   <i type="int" name="NATURALO">     2</i>
   <i type="logical" name="L2ORDER"> F  </i>
   <i type="logical" name="LMP2LT"> F  </i>
   <i type="logical" name="LUSEW"> F  </i>
   <i name="ENCUTGW">     -2.00000000</i>
   <i name="ENCUTGWSOFT">     -2.00000000</i>
   <i name="ENCUTLF">     -1.00000000</i>
   <i type="int" name="LMAXMP2">    -1</i>
   <i name="SCISSOR">      0.00000000</i>
   <i type="int" name="NOMEGA">     0</i>
   <i type="int" name="NOMEGAR">     0</i>
   <i type="int" name="NBANDSGW">    -1</i>
   <i type="int" name="NBANDSO">    -1</i>
   <i type="int" name="NBANDSV">    -1</i>
   <i type="int" name="NELM">   100</i>
   <i type="int" name="NELMHF">     1</i>
   <i type="int" name="DIM">     3</i>
   <i type="int" name="ANTIRES">     0</i>
   <i name="OMEGAMAX">    -30.00000000</i>
   <i name="OMEGAMIN">    -30.00000000</i>
   <i name="OMEGATL">   -200.00000000</i>
   <i type="int" name="OMEGAGRID">   140</i>
   <i name="CSHIFT">     -0.10000000</i>
   <i type="logical" name="SELFENERGY"> F  </i>
   <i type="logical" name="LSPECTRAL"> F  </i>
   <i type="logical" name="LSPECTRALGW"> F  </i>
   <i type="logical" name="LSINGLES"> F  </i>
   <i type="logical" name="LFERMIGW"> F  </i>
   <i type="logical" name="ODDONLYGW"> F  </i>
   <i type="logical" name="EVENONLYGW"> F  </i>
   <i type="int" name="NKREDLFX">     1</i>
   <i type="int" name="NKREDLFY">     1</i>
   <i type="int" name="NKREDLFZ">     1</i>
   <i type="int" name="MAXMEM">  2800</i>
   <i type="int" name="TELESCOPE">     0</i>
   <i type="int" name="TAUPAR">     1</i>
   <i type="int" name="OMEGAPAR">    -1</i>
   <i name="LAMBDA">      1.00000000</i>
  </separator>
  <separator name="External order field" >
   <i name="OFIELD_KAPPA">      0.00000000</i>
   <v name="OFIELD_K">      0.00000000      0.00000000      0.00000000</v>
   <i name="OFIELD_Q6_NEAR">      0.00000000</i>
   <i name="OFIELD_Q6_FAR">      0.00000000</i>
   <i name="OFIELD_A">      0.00000000</i>
  </separator>
 </parameters>
 <atominfo>
  <atoms>      48 </atoms>
  <types>       5 </types>
  <array name="atoms" >
   <dimension dim="1">ion</dimension>
   <field type="string">element</field>
   <field type="int">atomtype</field>
   <set>
    <rc><c>H </c><c>   1</c></rc>
    <rc><c>H </c><c>   1</c></rc>
    <rc><c>H </c><c>   1</c></rc>
    <rc><c>H </c><c>   1</c></rc>
    <rc><c>H </c><c>   1</c></rc>
    <rc><c>H </c><c>   1</c></rc>
    <rc><c>H </c><c>   1</c></rc>
    <rc><c>H </c><c>   1</c></rc>
    <rc><c>H </c><c>   1</c></rc>
    <rc><c>H </c><c>   1</c></rc>
    <rc><c>H </c><c>   1</c></rc>
    <rc><c>H </c><c>   1</c></rc>
    <rc><c>H </c><c>   1</c></rc>
    <rc><c>H </c><c>   1</c></rc>
    <rc><c>H </c><c>   1</c></rc>
    <rc><c>H </c><c>   1</c></rc>
    <rc><c>H </c><c>   1</c></rc>
    <rc><c>H </c><c>   1</c></rc>
    <rc><c>H </c><c>   1</c></rc>
    <rc><c>H </c><c>   1</c></rc>
    <rc><c>H </c><c>   1</c></rc>
    <rc><c>H </c><c>   1</c></rc>
    <rc><c>H </c><c>   1</c></rc>
    <rc><c>H </c><c>   1</c></rc>
    <rc><c>Pb</c><c>   2</c></rc>
    <rc><c>Pb</c><c>   2</c></rc>
    <rc><c>Pb</c><c>   2</c></rc>
    <rc><c>Pb</c><c>   2</c></rc>
    <rc><c>C </c><c>   3</c></rc>
    <rc><c>C </c><c>   3</c></rc>
    <rc><c>C </c><c>   3</c></rc>
    <rc><c>C </c><c>   3</c></rc>
    <rc><c>Br</c><c>   4</c></rc>
    <rc><c>Br</c><c>   4</c></rc>
    <rc><c>Br</c><c>   4</c></rc>
    <rc><c>Br</c><c>   4</c></rc>
    <rc><c>Br</c><c>   4</c></rc>
    <rc><c>Br</c><c>   4</c></rc>
    <rc><c>Br</c><c>   4</c></rc>
    <rc><c>Br</c><c>   4</c></rc>
    <rc><c>Br</c><c>   4</c></rc>
    <rc><c>Br</c><c>   4</c></rc>
    <rc><c>Br</c><c>   4</c></rc>
    <rc><c>Br</c><c>   4</c></rc>
    <rc><c>N </c><c>   5</c></rc>
    <rc><c>N </c><c>   5</c></rc>
    <rc><c>N </c><c>   5</c></rc>
    <rc><c>N </c><c>   5</c></rc>
   </set>
  </array>
  <array name="atomtypes" >
   <dimension dim="1">type</dimension>
   <field type="int">atomspertype</field>
   <field type="string">element</field>
   <field>mass</field>
   <field>valence</field>
   <field type="string">pseudopotential</field>
   <set>
    <rc><c>  24</c><c>H </c><c>      1.00000000</c><c>      1.00000000</c><c>  PAW_PBE H 15Jun2001                   </c></rc>
    <rc><c>   4</c><c>Pb</c><c>    207.20000000</c><c>     14.00000000</c><c>  PAW_PBE Pb_d 06Sep2000                </c></rc>
    <rc><c>   4</c><c>C </c><c>     12.01100000</c><c>      4.00000000</c><c>  PAW_PBE C 08Apr2002                   </c></rc>
    <rc><c>  12</c><c>Br</c><c>     79.90400000</c><c>      7.00000000</c><c>  PAW_PBE Br 06Sep2000                  </c></rc>
    <rc><c>   4</c><c>N </c><c>     14.00100000</c><c>      5.00000000</c><c>  PAW_PBE N 08Apr2002                   </c></rc>
   </set>
  </array>
 </atominfo>
 <structure name="initialpos" >
  <crystal>
   <varray name="basis" >
    <v>       8.06459038       0.00000000       0.00000000 </v>
    <v>       0.00000000       8.77600633       0.00000000 </v>
    <v>       0.00000000       0.00000000      12.08306207 </v>
   </varray>
   <i name="volume">    855.17746386 </i>
   <varray name="rec_basis" >
    <v>       0.12399886       0.00000000       0.00000000 </v>
    <v>       0.00000000       0.11394705       0.00000000 </v>
    <v>       0.00000000       0.00000000       0.08276048 </v>
   </varray>
  </crystal>
  <varray name="positions" >
   <v>       0.50873504       0.65522505       0.68073005 </v>
   <v>       0.00873500       0.84477506       0.81927006 </v>
   <v>       0.49126504       0.34477503       0.18073001 </v>
   <v>       0.99126508       0.15522501       0.31927002 </v>
   <v>       0.49126504       0.34477503       0.31927002 </v>
   <v>       0.99126508       0.15522501       0.18073001 </v>
   <v>       0.50873504       0.65522505       0.81927006 </v>
   <v>       0.00873500       0.84477506       0.68073005 </v>
   <v>       0.67827205       0.59530405       0.75000006 </v>
   <v>       0.17827201       0.90469607       0.75000006 </v>
   <v>       0.32172802       0.40469603       0.25000002 </v>
   <v>       0.82172806       0.09530401       0.25000002 </v>
   <v>       0.52402804       0.37841103       0.67563505 </v>
   <v>       0.02402800       0.12158901       0.82436506 </v>
   <v>       0.47597204       0.62158905       0.17563501 </v>
   <v>       0.97597207       0.87841107       0.32436502 </v>
   <v>       0.47597204       0.62158905       0.32436502 </v>
   <v>       0.97597207       0.87841107       0.17563501 </v>
   <v>       0.52402804       0.37841103       0.82436506 </v>
   <v>       0.02402800       0.12158901       0.67563505 </v>
   <v>       0.34586903       0.44386203       0.75000006 </v>
   <v>       0.84586906       0.05613800       0.75000006 </v>
   <v>       0.65413105       0.55613804       0.25000002 </v>
   <v>       0.15413101       0.94386207       0.25000002 </v>
   <v>       0.50000004       0.00000000       0.00000000 </v>
   <v>       0.00000000       0.50000004       0.50000004 </v>
   <v>       0.50000004       0.00000000       0.50000004 </v>
   <v>       0.00000000       0.50000004       0.00000000 </v>
   <v>       0.48106504       0.43774803       0.75000006 </v>
   <v>       0.98106508       0.06225200       0.75000006 </v>
   <v>       0.51893504       0.56225204       0.25000002 </v>
   <v>       0.01893500       0.93774807       0.25000002 </v>
   <v>       0.46697104       0.01811500       0.75000006 </v>
   <v>       0.96697107       0.48188504       0.75000006 </v>
   <v>       0.53302904       0.98188508       0.25000002 </v>
   <v>       0.03302900       0.51811504       0.25000002 </v>
   <v>       0.79577606       0.78895306       0.97064007 </v>
   <v>       0.29577602       0.71104705       0.52936004 </v>
   <v>       0.20422402       0.21104702       0.47064004 </v>
   <v>       0.70422405       0.28895302       0.02936000 </v>
   <v>       0.20422402       0.21104702       0.02936000 </v>
   <v>       0.70422405       0.28895302       0.47064004 </v>
   <v>       0.79577606       0.78895306       0.52936004 </v>
   <v>       0.29577602       0.71104705       0.97064007 </v>
   <v>       0.54913504       0.59625005       0.75000006 </v>
   <v>       0.04913500       0.90375007       0.75000006 </v>
   <v>       0.45086503       0.40375003       0.25000002 </v>
   <v>       0.95086507       0.09625001       0.25000002 </v>
  </varray>
 </structure>
 <calculation>
  <scstep>
   <time name="dav">   63.38   63.38</time>
   <time name="total">   63.63   63.64</time>
   <energy>
    <i name="alphaZ">    345.63901470 </i>
    <i name="ewald">  -8378.66300472 </i>
    <i name="hartreedc">  -3992.23016021 </i>
    <i name="XCdc">    458.69261547 </i>
    <i name="pawpsdc">  10587.63680873 </i>
    <i name="pawaedc"> -10454.11636424 </i>
    <i name="eentropy">     -0.00050446 </i>
    <i name="bandstr">    142.40568960 </i>
    <i name="atom">  13014.25909828 </i>
    <i name="e_fr_energy">   1723.62319314 </i>
    <i name="e_wo_entrp">   1723.62369760 </i>
    <i name="e_0_energy">   1723.62344537 </i>
   </energy>
  </scstep>
  <scstep>
   <time name="dav">   67.85   67.90</time>
   <time name="total">   67.85   67.90</time>
   <energy>
    <i name="e_fr_energy">     57.80044162 </i>
    <i name="e_wo_entrp">     57.80044162 </i>
    <i name="e_0_energy">     57.80044162 </i>
   </energy>
  </scstep>
  <scstep>
   <time name="dav">   75.31   75.32</time>
   <time name="total">   75.31   75.32</time>
   <energy>
    <i name="e_fr_energy">   -210.78236297 </i>
    <i name="e_wo_entrp">   -210.78236297 </i>
    <i name="e_0_energy">   -210.78236297 </i>
   </energy>
  </scstep>
  <scstep>
   <time name="dav">   73.26   73.26</time>
   <time name="total">   73.26   73.26</time>
   <energy>
    <i name="e_fr_energy">   -223.44221354 </i>
    <i name="e_wo_entrp">   -223.44221354 </i>
    <i name="e_0_energy">   -223.44221354 </i>
   </energy>
  </scstep>
  <scstep>
   <time name="dav">   76.85   76.86</time>
   <time name="total">   79.44   79.44</time>
   <energy>
    <i name="e_fr_energy">   -223.91745827 </i>
    <i name="e_wo_entrp">   -223.91745827 </i>
    <i name="e_0_energy">   -223.91745827 </i>
   </energy>
  </scstep>
  <scstep>
   <time name="dav">   77.74   77.74</time>
   <time name="total">   80.58   80.59</time>
   <energy>
    <i name="e_fr_energy">   -212.40741382 </i>
    <i name="e_wo_entrp">   -212.40741382 </i>
    <i name="e_0_energy">   -212.40741382 </i>
   </energy>
  </scstep>
  <scstep>
   <time name="dav">   79.18   79.19</time>
   <time name="total">   82.01   82.01</time>
   <energy>
    <i name="e_fr_energy">   -210.93741759 </i>
    <i name="e_wo_entrp">   -210.93741759 </i>
    <i name="e_0_energy">   -210.93741759 </i>
   </energy>
  </scstep>
  <scstep>
   <time name="dav">   69.65   69.65</time>
   <time name="total">   72.47   72.48</time>
   <energy>
    <i name="e_fr_energy">   -210.84825242 </i>
    <i name="e_wo_entrp">   -210.84825242 </i>
    <i name="e_0_energy">   -210.84825242 </i>
   </energy>
  </scstep>
  <scstep>
   <time name="dav">   79.26   79.26</time>
   <time name="total">   82.08   82.08</time>
   <energy>
    <i name="e_fr_energy">   -210.84244373 </i>
    <i name="e_wo_entrp">   -210.84244373 </i>
    <i name="e_0_energy">   -210.84244373 </i>
   </energy>
  </scstep>
  <scstep>
   <time name="dav">   68.33   68.33</time>
   <time name="total">   71.16   71.16</time>
   <energy>
    <i name="e_fr_energy">   -210.84747832 </i>
    <i name="e_wo_entrp">   -210.84747832 </i>
    <i name="e_0_energy">   -210.84747832 </i>
   </energy>
  </scstep>
  <scstep>
   <time name="dav">   72.68   72.69</time>
   <time name="total">   75.50   75.51</time>
   <energy>
    <i name="e_fr_energy">   -210.84771935 </i>
    <i name="e_wo_entrp">   -210.84771935 </i>
    <i name="e_0_energy">   -210.84771935 </i>
   </energy>
  </scstep>
  <scstep>
   <time name="dav">   65.18   65.18</time>
   <time name="total">   68.01   68.01</time>
   <energy>
    <i name="e_fr_energy">   -210.84816733 </i>
    <i name="e_wo_entrp">   -210.84816733 </i>
    <i name="e_0_energy">   -210.84816733 </i>
   </energy>
  </scstep>
  <scstep>
   <time name="dav">   76.00   76.01</time>
   <time name="total">   78.82   78.83</time>
   <energy>
    <i name="e_fr_energy">   -210.84819837 </i>
    <i name="e_wo_entrp">   -210.84819837 </i>
    <i name="e_0_energy">   -210.84819837 </i>
   </energy>
  </scstep>
  <scstep>
   <time name="dav">   70.64   70.64</time>
   <time name="total">   73.45   73.46</time>
   <energy>
    <i name="e_fr_energy">   -210.84820683 </i>
    <i name="e_wo_entrp">   -210.84820683 </i>
    <i name="e_0_energy">   -210.84820683 </i>
   </energy>
  </scstep>
  <scstep>
   <time name="dav">   63.83   63.84</time>
   <time name="total">   66.63   66.64</time>
   <energy>
    <i name="e_fr_energy">   -210.84821491 </i>
    <i name="e_wo_entrp">   -210.84821491 </i>
    <i name="e_0_energy">   -210.84821491 </i>
   </energy>
  </scstep>
  <scstep>
   <time name="dav">   72.98   72.99</time>
   <time name="total">   75.82   75.83</time>
   <energy>
    <i name="e_fr_energy">   -210.84821517 </i>
    <i name="e_wo_entrp">   -210.84821517 </i>
    <i name="e_0_energy">   -210.84821517 </i>
   </energy>
  </scstep>
  <scstep>
   <time name="dav">   71.73   71.74</time>
   <time name="total">   74.59   74.60</time>
   <energy>
    <i name="e_fr_energy">   -210.84821532 </i>
    <i name="e_wo_entrp">   -210.84821532 </i>
    <i name="e_0_energy">   -210.84821532 </i>
   </energy>
  </scstep>
  <scstep>
   <time name="dav">   63.54   63.54</time>
   <time name="total">   66.38   66.38</time>
   <energy>
    <i name="e_fr_energy">   -210.84821533 </i>
    <i name="e_wo_entrp">   -210.84821533 </i>
    <i name="e_0_energy">   -210.84821533 </i>
   </energy>
  </scstep>
  <scstep>
   <time name="dav">   58.68   58.69</time>
   <time name="total">   61.51   61.52</time>
   <energy>
    <i name="e_fr_energy">   -210.84821535 </i>
    <i name="e_wo_entrp">   -210.84821535 </i>
    <i name="e_0_energy">   -210.84821535 </i>
   </energy>
  </scstep>
  <scstep>
   <time name="dav">   47.16   47.16</time>
   <time name="total">   47.40   47.40</time>
   <energy>
    <i name="alphaZ">    345.63901470 </i>
    <i name="ewald">  -8378.66300472 </i>
    <i name="hartreedc">  -4161.97015680 </i>
    <i name="XCdc">    476.13457554 </i>
    <i name="pawpsdc">  14466.09160786 </i>
    <i name="pawaedc"> -14329.62003290 </i>
    <i name="eentropy">     -0.00000000 </i>
    <i name="bandstr">  -1642.71931732 </i>
    <i name="atom">  13014.25909828 </i>
    <i name="e_fr_energy">   -210.84821536 </i>
    <i name="e_wo_entrp">   -210.84821536 </i>
    <i name="e_0_energy">   -210.84821536 </i>
   </energy>
  </scstep>
  <structure>
   <crystal>
    <varray name="basis" >
     <v>       8.06459038       0.00000000       0.00000000 </v>
     <v>       0.00000000       8.77600633       0.00000000 </v>
     <v>       0.00000000       0.00000000      12.08306207 </v>
    </varray>
    <i name="volume">    855.17746386 </i>
    <varray name="rec_basis" >
     <v>       0.12399886       0.00000000       0.00000000 </v>
     <v>       0.00000000       0.11394705       0.00000000 </v>
     <v>       0.00000000       0.00000000       0.08276048 </v>
    </varray>
   </crystal>
   <varray name="positions" >
    <v>       0.50873504       0.65522505       0.68073005 </v>
    <v>       0.00873500       0.84477506       0.81927006 </v>
    <v>       0.49126504       0.34477503       0.18073001 </v>
    <v>       0.99126508       0.15522501       0.31927002 </v>
    <v>       0.49126504       0.34477503       0.31927002 </v>
    <v>       0.99126508       0.15522501       0.18073001 </v>
    <v>       0.50873504       0.65522505       0.81927006 </v>
    <v>       0.00873500       0.84477506       0.68073005 </v>
    <v>       0.67827205       0.59530405       0.75000006 </v>
    <v>       0.17827201       0.90469607       0.75000006 </v>
    <v>       0.32172802       0.40469603       0.25000002 </v>
    <v>       0.82172806       0.09530401       0.25000002 </v>
    <v>       0.52402804       0.37841103       0.67563505 </v>
    <v>       0.02402800       0.12158901       0.82436506 </v>
    <v>       0.47597204       0.62158905       0.17563501 </v>
    <v>       0.97597207       0.87841107       0.32436502 </v>
    <v>       0.47597204       0.62158905       0.32436502 </v>
    <v>       0.97597207       0.87841107       0.17563501 </v>
    <v>       0.52402804       0.37841103       0.82436506 </v>
    <v>       0.02402800       0.12158901       0.67563505 </v>
    <v>       0.34586903       0.44386203       0.75000006 </v>
    <v>       0.84586906       0.05613800       0.75000006 </v>
    <v>       0.65413105       0.55613804       0.25000002 </v>
    <v>       0.15413101       0.94386207       0.25000002 </v>
    <v>       0.50000004       0.00000000       0.00000000 </v>
    <v>       0.00000000       0.50000004       0.50000004 </v>
    <v>       0.50000004       0.00000000       0.50000004 </v>
    <v>       0.00000000       0.50000004       0.00000000 </v>
    <v>       0.48106504       0.43774803       0.75000006 </v>
    <v>       0.98106508       0.06225200       0.75000006 </v>
    <v>       0.51893504       0.56225204       0.25000002 </v>
    <v>       0.01893500       0.93774807       0.25000002 </v>
    <v>       0.46697104       0.01811500       0.75000006 </v>
    <v>       0.96697107       0.48188504       0.75000006 </v>
    <v>       0.53302904       0.98188508       0.25000002 </v>
    <v>       0.03302900       0.51811504       0.25000002 </v>
    <v>       0.79577606       0.78895306       0.97064007 </v>
    <v>       0.29577602       0.71104705       0.52936004 </v>
    <v>       0.20422402       0.21104702       0.47064004 </v>
    <v>       0.70422405       0.28895302       0.02936000 </v>
    <v>       0.20422402       0.21104702       0.02936000 </v>
    <v>       0.70422405       0.28895302       0.47064004 </v>
    <v>       0.79577606       0.78895306       0.52936004 </v>
    <v>       0.29577602       0.71104705       0.97064007 </v>
    <v>       0.54913504       0.59625005       0.75000006 </v>
    <v>       0.04913500       0.90375007       0.75000006 </v>
    <v>       0.45086503       0.40375003       0.25000002 </v>
    <v>       0.95086507       0.09625001       0.25000002 </v>
   </varray>
  </structure>
  <varray name="forces" >
   <v>      -0.02814802       0.00079027      -0.02552718 </v>
   <v>      -0.02814755      -0.00079080       0.02552716 </v>
   <v>       0.02814801      -0.00079039      -0.02552730 </v>
   <v>       0.02814780       0.00079106       0.02552735 </v>
   <v>       0.02814796      -0.00079040       0.02552724 </v>
   <v>       0.02814782       0.00079106      -0.02552747 </v>
   <v>      -0.02814809       0.00079023       0.02552728 </v>
   <v>      -0.02814748      -0.00079082      -0.02552699 </v>
   <v>      -0.11699231      -0.05259304       0.00000011 </v>
   <v>      -0.11699200       0.05259056       0.00000008 </v>
   <v>       0.11699202       0.05259306      -0.00000009 </v>
   <v>       0.11699152      -0.05259067      -0.00000007 </v>
   <v>       0.04531624       0.05056150       0.01896913 </v>
   <v>       0.04532040      -0.05055753      -0.01896511 </v>
   <v>      -0.04531623      -0.05056160       0.01896948 </v>
   <v>      -0.04532029       0.05055753      -0.01896528 </v>
   <v>      -0.04531625      -0.05056156      -0.01896931 </v>
   <v>      -0.04532024       0.05055761       0.01896545 </v>
   <v>       0.04531625       0.05056150      -0.01896919 </v>
   <v>       0.04532039      -0.05055749       0.01896504 </v>
   <v>      -0.10664208       0.04934795       0.00000004 </v>
   <v>      -0.10664381      -0.04934649       0.00000000 </v>
   <v>       0.10664209      -0.04934795      -0.00000003 </v>
   <v>       0.10664358       0.04934649      -0.00000003 </v>
   <v>      -0.00000051       0.00000105       0.00000146 </v>
   <v>       0.00000067      -0.00000064      -0.00000128 </v>
   <v>      -0.00000039       0.00000080      -0.00000100 </v>
   <v>       0.00000059      -0.00000101       0.00000176 </v>
   <v>       0.07570239      -0.01682746       0.00000005 </v>
   <v>       0.07568451       0.01683837       0.00000022 </v>
   <v>      -0.07570266       0.01682735      -0.00000009 </v>
   <v>      -0.07568453      -0.01683798      -0.00000056 </v>
   <v>      -0.03142159      -0.02252584      -0.00000130 </v>
   <v>      -0.03142188       0.02252610      -0.00000126 </v>
   <v>       0.03142169       0.02252578       0.00000112 </v>
   <v>       0.03142158      -0.02252616       0.00000111 </v>
   <v>       0.03352662       0.01133647      -0.01949486 </v>
   <v>       0.03352669      -0.01133676       0.01949426 </v>
   <v>      -0.03352653      -0.01133646      -0.01949452 </v>
   <v>      -0.03352683       0.01133659       0.01949460 </v>
   <v>      -0.03352647      -0.01133638       0.01949452 </v>
   <v>      -0.03352674       0.01133664      -0.01949414 </v>
   <v>       0.03352657       0.01133646       0.01949473 </v>
   <v>       0.03352682      -0.01133671      -0.01949491 </v>
   <v>       0.07755310      -0.11571287       0.00000006 </v>
   <v>       0.07756320       0.11569719       0.00000006 </v>
   <v>      -0.07755300       0.11571304      -0.00000012 </v>
   <v>      -0.07756302      -0.11569762      -0.00000022 </v>
  </varray>
  <varray name="stress" >
   <v>       0.77770086      -0.00003967       0.00000250 </v>
   <v>      -0.00003958       1.09003302      -0.00000003 </v>
   <v>       0.00000247      -0.00000021       1.28897905 </v>
  </varray>
  <energy>
   <i name="e_fr_energy">   -210.84821536 </i>
   <i name="e_wo_entrp">   -210.84821536 </i>
   <i name="e_0_energy">     -0.00000000 </i>
  </energy>
  <scstep>
   <time name="total">   94.11   94.11</time>
   <energy>
    <i name="e_fr_energy">     -7.82607644 </i>
    <i name="e_wo_entrp">     -7.82607644 </i>
    <i name="e_0_energy">     -7.82607644 </i>
   </energy>
  </scstep>
  <scstep>
   <time name="total">   78.61   78.61</time>
   <energy>
    <i name="e_fr_energy">     -8.28892864 </i>
    <i name="e_wo_entrp">     -8.28892864 </i>
    <i name="e_0_energy">     -8.28892864 </i>
   </energy>
  </scstep>
  <scstep>
   <time name="total">   84.15   84.15</time>
   <energy>
    <i name="e_fr_energy">     -8.29424939 </i>
    <i name="e_wo_entrp">     -8.29424939 </i>
    <i name="e_0_energy">     -8.29424939 </i>
   </energy>
  </scstep>
  <scstep>
   <time name="total">   79.38   79.38</time>
   <energy>
    <i name="e_fr_energy">     -8.29500209 </i>
    <i name="e_wo_entrp">     -8.29500209 </i>
    <i name="e_0_energy">     -8.29500209 </i>
   </energy>
  </scstep>
  <scstep>
   <time name="total">   89.88   89.88</time>
   <energy>
    <i name="e_fr_energy">     -8.29504421 </i>
    <i name="e_wo_entrp">     -8.29504421 </i>
    <i name="e_0_energy">     -8.29504421 </i>
   </energy>
  </scstep>
  <scstep>
   <time name="total">   85.75   85.75</time>
   <energy>
    <i name="e_fr_energy">     -8.29505750 </i>
    <i name="e_wo_entrp">     -8.29505750 </i>
    <i name="e_0_energy">     -8.29505750 </i>
   </energy>
  </scstep>
  <scstep>
   <time name="total">   88.58   88.58</time>
   <energy>
    <i name="e_fr_energy">     -8.29505916 </i>
    <i name="e_wo_entrp">     -8.29505916 </i>
    <i name="e_0_energy">     -8.29505916 </i>
   </energy>
  </scstep>
  <scstep>
   <time name="total">   90.26   90.26</time>
   <energy>
    <i name="e_fr_energy">     -8.29506052 </i>
    <i name="e_wo_entrp">     -8.29506052 </i>
    <i name="e_0_energy">     -8.29506052 </i>
   </energy>
  </scstep>
  <scstep>
   <time name="total">   89.52   89.52</time>
   <energy>
    <i name="e_fr_energy">     -8.29506074 </i>
    <i name="e_wo_entrp">     -8.29506074 </i>
    <i name="e_0_energy">     -8.29506074 </i>
   </energy>
  </scstep>
  <scstep>
   <time name="total">   90.35   90.35</time>
   <energy>
    <i name="e_fr_energy">     -8.29506081 </i>
    <i name="e_wo_entrp">     -8.29506081 </i>
    <i name="e_0_energy">     -8.29506081 </i>
   </energy>
  </scstep>
  <scstep>
   <time name="total">   90.66   90.66</time>
   <energy>
    <i name="e_fr_energy">     -8.29506084 </i>
    <i name="e_wo_entrp">     -8.29506084 </i>
    <i name="e_0_energy">     -8.29506084 </i>
   </energy>
  </scstep>
  <scstep>
   <time name="total">   90.62   90.62</time>
   <energy>
    <i name="e_fr_energy">     -8.29506085 </i>
    <i name="e_wo_entrp">     -8.29506085 </i>
    <i name="e_0_energy">     -8.29506085 </i>
   </energy>
  </scstep>
  <scstep>
   <time name="total">   90.82   90.82</time>
   <energy>
    <i name="e_fr_energy">     -8.29506085 </i>
    <i name="e_wo_entrp">     -8.29506085 </i>
    <i name="e_0_energy">     -8.29506085 </i>
   </energy>
  </scstep>
  <scstep>
   <time name="total">   91.12   91.12</time>
   <energy>
    <i name="e_fr_energy">     -8.29506086 </i>
    <i name="e_wo_entrp">     -8.29506086 </i>
    <i name="e_0_energy">     -8.29506086 </i>
   </energy>
  </scstep>
  <scstep>
   <time name="total">   91.07   91.07</time>
   <energy>
    <i name="e_fr_energy">     -8.29506086 </i>
    <i name="e_wo_entrp">     -8.29506086 </i>
    <i name="e_0_energy">     -8.29506086 </i>
   </energy>
  </scstep>
  <scstep>
   <time name="total">   90.98   90.98</time>
   <energy>
    <i name="e_fr_energy">     -8.29506086 </i>
    <i name="e_wo_entrp">     -8.29506086 </i>
    <i name="e_0_energy">     -8.29506086 </i>
   </energy>
  </scstep>
  <scstep>
   <time name="total">   93.10   93.10</time>
   <energy>
    <i name="e_fr_energy">     -8.01661591 </i>
    <i name="e_wo_entrp">     -8.01661591 </i>
    <i name="e_0_energy">     -8.01661591 </i>
   </energy>
  </scstep>
  <scstep>
   <time name="total">   78.59   78.59</time>
   <energy>
    <i name="e_fr_energy">     -8.51306919 </i>
    <i name="e_wo_entrp">     -8.51306919 </i>
    <i name="e_0_energy">     -8.51306919 </i>
   </energy>
  </scstep>
  <scstep>
   <time name="total">   84.53   84.53</time>
   <energy>
    <i name="e_fr_energy">     -8.51953930 </i>
    <i name="e_wo_entrp">     -8.51953930 </i>
    <i name="e_0_energy">     -8.51953930 </i>
   </energy>
  </scstep>
  <scstep>
   <time name="total">   79.59   79.59</time>
   <energy>
    <i name="e_fr_energy">     -8.52036756 </i>
    <i name="e_wo_entrp">     -8.52036756 </i>
    <i name="e_0_energy">     -8.52036756 </i>
   </energy>
  </scstep>
  <scstep>
   <time name="total">   89.54   89.54</time>
   <energy>
    <i name="e_fr_energy">     -8.52043643 </i>
    <i name="e_wo_entrp">     -8.52043643 </i>
    <i name="e_0_energy">     -8.52043643 </i>
   </energy>
  </scstep>
  <scstep>
   <time name="total">   85.25   85.25</time>
   <energy>
    <i name="e_fr_energy">     -8.52044803 </i>
    <i name="e_wo_entrp">     -8.52044803 </i>
    <i name="e_0_energy">     -8.52044803 </i>
   </energy>
  </scstep>
  <scstep>
   <time name="total">   91.93   91.93</time>
   <energy>
    <i name="e_fr_energy">     -8.52044998 </i>
    <i name="e_wo_entrp">     -8.52044998 </i>
    <i name="e_0_energy">     -8.52044998 </i>
   </energy>
  </scstep>
  <scstep>
   <time name="total">   90.31   90.31</time>
   <energy>
    <i name="e_fr_energy">     -8.52045102 </i>
    <i name="e_wo_entrp">     -8.52045102 </i>
    <i name="e_0_energy">     -8.52045102 </i>
   </energy>
  </scstep>
  <scstep>
   <time name="total">   91.03   91.03</time>
   <energy>
    <i name="e_fr_energy">     -8.52045126 </i>
    <i name="e_wo_entrp">     -8.52045126 </i>
    <i name="e_0_energy">     -8.52045126 </i>
   </energy>
  </scstep>
  <scstep>
   <time name="total">   92.17   92.17</time>
   <energy>
    <i name="e_fr_energy">     -8.52045133 </i>
    <i name="e_wo_entrp">     -8.52045133 </i>
    <i name="e_0_energy">     -8.52045133 </i>
   </energy>
  </scstep>
  <scstep>
   <time name="total">   91.65   91.65</time>
   <energy>
    <i name="e_fr_energy">     -8.52045136 </i>
    <i name="e_wo_entrp">     -8.52045136 </i>
    <i name="e_0_energy">     -8.52045136 </i>
   </energy>
  </scstep>
  <scstep>
   <time name="total">   92.44   92.44</time>
   <energy>
    <i name="e_fr_energy">     -8.52045137 </i>
    <i name="e_wo_entrp">     -8.52045137 </i>
    <i name="e_0_energy">     -8.52045137 </i>
   </energy>
  </scstep>
  <scstep>
   <time name="total">   92.94   92.94</time>
   <energy>
    <i name="e_fr_energy">     -8.52045137 </i>
    <i name="e_wo_entrp">     -8.52045137 </i>
    <i name="e_0_energy">     -8.52045137 </i>
   </energy>
  </scstep>
  <scstep>
   <time name="total">   92.57   92.58</time>
   <energy>
    <i name="e_fr_energy">     -8.52045137 </i>
    <i name="e_wo_entrp">     -8.52045137 </i>
    <i name="e_0_energy">     -8.52045137 </i>
   </energy>
  </scstep>
  <scstep>
   <time name="total">   92.01   92.01</time>
   <energy>
    <i name="e_fr_energy">     -8.52045137 </i>
    <i name="e_wo_entrp">     -8.52045137 </i>
    <i name="e_0_energy">     -8.52045137 </i>
   </energy>
  </scstep>
  <scstep>
   <time name="total">   92.66   92.66</time>
   <energy>
    <i name="e_fr_energy">     -8.52045137 </i>
    <i name="e_wo_entrp">     -8.52045137 </i>
    <i name="e_0_energy">     -8.52045137 </i>
   </energy>
  </scstep>
  <scstep>
   <time name="total">   92.98   92.98</time>
   <energy>
    <i name="e_fr_energy">     -8.33718409 </i>
    <i name="e_wo_entrp">     -8.33718409 </i>
    <i name="e_0_energy">     -8.33718409 </i>
   </energy>
  </scstep>
  <scstep>
   <time name="total">   78.35   78.35</time>
   <energy>
    <i name="e_fr_energy">     -8.76671887 </i>
    <i name="e_wo_entrp">     -8.76671887 </i>
    <i name="e_0_energy">     -8.76671887 </i>
   </energy>
  </scstep>
  <scstep>
   <time name="total">   83.70   83.70</time>
   <energy>
    <i name="e_fr_energy">     -8.77221310 </i>
    <i name="e_wo_entrp">     -8.77221310 </i>
    <i name="e_0_energy">     -8.77221310 </i>
   </energy>
  </scstep>
  <scstep>
   <time name="total">   79.15   79.15</time>
   <energy>
    <i name="e_fr_energy">     -8.77293727 </i>
    <i name="e_wo_entrp">     -8.77293727 </i>
    <i name="e_0_energy">     -8.77293727 </i>
   </energy>
  </scstep>
  <scstep>
   <time name="total">   88.87   88.87</time>
   <energy>
    <i name="e_fr_energy">     -8.77298811 </i>
    <i name="e_wo_entrp">     -8.77298811 </i>
    <i name="e_0_energy">     -8.77298811 </i>
   </energy>
  </scstep>
  <scstep>
   <time name="total">   85.52   85.52</time>
   <energy>
    <i name="e_fr_energy">     -8.77300054 </i>
    <i name="e_wo_entrp">     -8.77300054 </i>
    <i name="e_0_energy">     -8.77300054 </i>
   </energy>
  </scstep>
  <scstep>
   <time name="total">   88.02   88.02</time>
   <energy>
    <i name="e_fr_energy">     -8.77300172 </i>
    <i name="e_wo_entrp">     -8.77300172 </i>
    <i name="e_0_energy">     -8.77300172 </i>
   </energy>
  </scstep>
  <scstep>
   <time name="total">   88.60   88.60</time>
   <energy>
    <i name="e_fr_energy">     -8.77300297 </i>
    <i name="e_wo_entrp">     -8.77300297 </i>
    <i name="e_0_energy">     -8.77300297 </i>
   </energy>
  </scstep>
  <scstep>
   <time name="total">   88.00   88.00</time>
   <energy>
    <i name="e_fr_energy">     -8.77300322 </i>
    <i name="e_wo_entrp">     -8.77300322 </i>
    <i name="e_0_energy">     -8.77300322 </i>
   </energy>
  </scstep>
  <scstep>
   <time name="total">   89.05   89.06</time>
   <energy>
    <i name="e_fr_energy">     -8.77300328 </i>
    <i name="e_wo_entrp">     -8.77300328 </i>
    <i name="e_0_energy">     -8.77300328 </i>
   </energy>
  </scstep>
  <scstep>
   <time name="total">   89.04   89.04</time>
   <energy>
    <i name="e_fr_energy">     -8.77300331 </i>
    <i name="e_wo_entrp">     -8.77300331 </i>
    <i name="e_0_energy">     -8.77300331 </i>
   </energy>
  </scstep>
  <scstep>
   <time name="total">   89.25   89.25</time>
   <energy>
    <i name="e_fr_energy">     -8.77300332 </i>
    <i name="e_wo_entrp">     -8.77300332 </i>
    <i name="e_0_energy">     -8.77300332 </i>
   </energy>
  </scstep>
  <scstep>
   <time name="total">   90.10   90.10</time>
   <energy>
    <i name="e_fr_energy">     -8.77300333 </i>
    <i name="e_wo_entrp">     -8.77300333 </i>
    <i name="e_0_energy">     -8.77300333 </i>
   </energy>
  </scstep>
  <scstep>
   <time name="total">   89.22   89.22</time>
   <energy>
    <i name="e_fr_energy">     -8.77300333 </i>
    <i name="e_wo_entrp">     -8.77300333 </i>
    <i name="e_0_energy">     -8.77300333 </i>
   </energy>
  </scstep>
  <scstep>
   <time name="total">   89.55   89.55</time>
   <energy>
    <i name="e_fr_energy">     -8.77300333 </i>
    <i name="e_wo_entrp">     -8.77300333 </i>
    <i name="e_0_energy">     -8.77300333 </i>
   </energy>
  </scstep>
  <scstep>
   <time name="total">   89.44   89.44</time>
   <energy>
    <i name="e_fr_energy">     -8.77300333 </i>
    <i name="e_wo_entrp">     -8.77300333 </i>
    <i name="e_0_energy">     -8.77300333 </i>
   </energy>
  </scstep>
  <varray name="epsilon_rpa" >
   <v>       4.51041759       0.00000144       0.00000010 </v>
   <v>      -0.00000183       4.60580391       0.00000043 </v>
   <v>      -0.00000043       0.00000046       4.71268179 </v>
  </varray>
  <kpoints>
   <generation param="Gamma">
    <v type="int" name="divisions">       4        4        4 </v>
    <v name="usershift">      0.00000000       0.00000000       0.00000000 </v>
    <v name="genvec1">      0.25000000       0.00000000       0.00000000 </v>
    <v name="genvec2">      0.00000000       0.25000000       0.00000000 </v>
    <v name="genvec3">      0.00000000       0.00000000       0.25000000 </v>
    <v name="shift">      0.00000000       0.00000000       0.00000000 </v>
   </generation>
   <varray name="kpointlist" >
    <v>       0.00000000       0.00000000       0.00000000 </v>
    <v>       0.25000000       0.00000000       0.00000000 </v>
    <v>       0.50000000       0.00000000       0.00000000 </v>
    <v>       0.00000000       0.25000000       0.00000000 </v>
    <v>       0.25000000       0.25000000       0.00000000 </v>
    <v>       0.50000000       0.25000000       0.00000000 </v>
    <v>      -0.25000000       0.25000000       0.00000000 </v>
    <v>       0.00000000       0.50000000       0.00000000 </v>
    <v>       0.25000000       0.50000000       0.00000000 </v>
    <v>       0.50000000       0.50000000       0.00000000 </v>
    <v>       0.00000000       0.00000000       0.25000000 </v>
    <v>       0.25000000       0.00000000       0.25000000 </v>
    <v>       0.50000000       0.00000000       0.25000000 </v>
    <v>      -0.25000000       0.00000000       0.25000000 </v>
    <v>       0.00000000       0.25000000       0.25000000 </v>
    <v>       0.25000000       0.25000000       0.25000000 </v>
    <v>       0.50000000       0.25000000       0.25000000 </v>
    <v>      -0.25000000       0.25000000       0.25000000 </v>
    <v>       0.00000000       0.50000000       0.25000000 </v>
    <v>       0.25000000       0.50000000       0.25000000 </v>
    <v>       0.50000000       0.50000000       0.25000000 </v>
    <v>      -0.25000000       0.50000000       0.25000000 </v>
    <v>       0.00000000      -0.25000000       0.25000000 </v>
    <v>       0.25000000      -0.25000000       0.25000000 </v>
    <v>       0.50000000      -0.25000000       0.25000000 </v>
    <v>      -0.25000000      -0.25000000       0.25000000 </v>
    <v>       0.00000000       0.00000000       0.50000000 </v>
    <v>       0.25000000       0.00000000       0.50000000 </v>
    <v>       0.50000000       0.00000000       0.50000000 </v>
    <v>       0.00000000       0.25000000       0.50000000 </v>
    <v>       0.25000000       0.25000000       0.50000000 </v>
    <v>       0.50000000       0.25000000       0.50000000 </v>
    <v>      -0.25000000       0.25000000       0.50000000 </v>
    <v>       0.00000000       0.50000000       0.50000000 </v>
    <v>       0.25000000       0.50000000       0.50000000 </v>
    <v>       0.50000000       0.50000000       0.50000000 </v>
   </varray>
   <varray name="weights" >
    <v>       0.01562500 </v>
    <v>       0.03125000 </v>
    <v>       0.01562500 </v>
    <v>       0.03125000 </v>
    <v>       0.03125000 </v>
    <v>       0.03125000 </v>
    <v>       0.03125000 </v>
    <v>       0.01562500 </v>
    <v>       0.03125000 </v>
    <v>       0.01562500 </v>
    <v>       0.03125000 </v>
    <v>       0.03125000 </v>
    <v>       0.03125000 </v>
    <v>       0.03125000 </v>
    <v>       0.03125000 </v>
    <v>       0.03125000 </v>
    <v>       0.03125000 </v>
    <v>       0.03125000 </v>
    <v>       0.03125000 </v>
    <v>       0.03125000 </v>
    <v>       0.03125000 </v>
    <v>       0.03125000 </v>
    <v>       0.03125000 </v>
    <v>       0.03125000 </v>
    <v>       0.03125000 </v>
    <v>       0.03125000 </v>
    <v>       0.01562500 </v>
    <v>       0.03125000 </v>
    <v>       0.01562500 </v>
    <v>       0.03125000 </v>
    <v>       0.03125000 </v>
    <v>       0.03125000 </v>
    <v>       0.03125000 </v>
    <v>       0.01562500 </v>
    <v>       0.03125000 </v>
    <v>       0.01562500 </v>
   </varray>
  </kpoints>
  <scstep>
   <time name="total">   94.05   94.05</time>
   <energy>
    <i name="e_fr_energy">     -7.82607644 </i>
    <i name="e_wo_entrp">     -7.82607644 </i>
    <i name="e_0_energy">     -7.82607644 </i>
   </energy>
  </scstep>
  <scstep>
   <time name="total">   84.05   84.05</time>
   <energy>
    <i name="e_fr_energy">     -8.28892864 </i>
    <i name="e_wo_entrp">     -8.28892864 </i>
    <i name="e_0_energy">     -8.28892864 </i>
   </energy>
  </scstep>
  <scstep>
   <time name="total">   96.32   96.33</time>
   <energy>
    <i name="e_fr_energy">     -7.70480323 </i>
    <i name="e_wo_entrp">     -7.70480323 </i>
    <i name="e_0_energy">     -7.70480323 </i>
   </energy>
  </scstep>
  <scstep>
   <time name="total">  104.61  104.62</time>
   <energy>
    <i name="e_fr_energy">     -7.87455515 </i>
    <i name="e_wo_entrp">     -7.87455515 </i>
    <i name="e_0_energy">     -7.87455515 </i>
   </energy>
  </scstep>
  <scstep>
   <time name="total">  107.88  107.88</time>
   <energy>
    <i name="e_fr_energy">     -8.02403019 </i>
    <i name="e_wo_entrp">     -8.02403019 </i>
    <i name="e_0_energy">     -8.02403019 </i>
   </energy>
  </scstep>
  <scstep>
   <time name="total">  109.59  109.60</time>
   <energy>
    <i name="e_fr_energy">     -8.05085751 </i>
    <i name="e_wo_entrp">     -8.05085751 </i>
    <i name="e_0_energy">     -8.05085751 </i>
   </energy>
  </scstep>
  <scstep>
   <time name="total">  110.71  110.71</time>
   <energy>
    <i name="e_fr_energy">     -8.06139520 </i>
    <i name="e_wo_entrp">     -8.06139520 </i>
    <i name="e_0_energy">     -8.06139520 </i>
   </energy>
  </scstep>
  <scstep>
   <time name="total">  111.40  111.40</time>
   <energy>
    <i name="e_fr_energy">     -8.05747770 </i>
    <i name="e_wo_entrp">     -8.05747770 </i>
    <i name="e_0_energy">     -8.05747770 </i>
   </energy>
  </scstep>
  <scstep>
   <time name="total">  115.01  115.02</time>
   <energy>
    <i name="e_fr_energy">     -8.06304222 </i>
    <i name="e_wo_entrp">     -8.06304222 </i>
    <i name="e_0_energy">     -8.06304222 </i>
   </energy>
  </scstep>
  <scstep>
   <time name="total">  115.21  115.21</time>
   <energy>
    <i name="e_fr_energy">     -8.05508469 </i>
    <i name="e_wo_entrp">     -8.05508469 </i>
    <i name="e_0_energy">     -8.05508469 </i>
   </energy>
  </scstep>
  <scstep>
   <time name="total">  121.20  121.20</time>
   <energy>
    <i name="e_fr_energy">     -8.06502060 </i>
    <i name="e_wo_entrp">     -8.06502060 </i>
    <i name="e_0_energy">     -8.06502060 </i>
   </energy>
  </scstep>
  <scstep>
   <time name="total">  128.06  128.06</time>
   <energy>
    <i name="e_fr_energy">     -8.05603001 </i>
    <i name="e_wo_entrp">     -8.05603001 </i>
    <i name="e_0_energy">     -8.05603001 </i>
   </energy>
  </scstep>
  <scstep>
   <time name="total">  130.90  130.90</time>
   <energy>
    <i name="e_fr_energy">     -8.06294832 </i>
    <i name="e_wo_entrp">     -8.06294832 </i>
    <i name="e_0_energy">     -8.06294832 </i>
   </energy>
  </scstep>
  <scstep>
   <time name="total">  131.34  131.34</time>
   <energy>
    <i name="e_fr_energy">     -8.05621967 </i>
    <i name="e_wo_entrp">     -8.05621967 </i>
    <i name="e_0_energy">     -8.05621967 </i>
   </energy>
  </scstep>
  <scstep>
   <time name="total">  132.22  132.22</time>
   <energy>
    <i name="e_fr_energy">     -8.06177710 </i>
    <i name="e_wo_entrp">     -8.06177710 </i>
    <i name="e_0_energy">     -8.06177710 </i>
   </energy>
  </scstep>
  <scstep>
   <time name="total">  132.06  132.06</time>
   <energy>
    <i name="e_fr_energy">     -8.05735133 </i>
    <i name="e_wo_entrp">     -8.05735133 </i>
    <i name="e_0_energy">     -8.05735133 </i>
   </energy>
  </scstep>
  <scstep>
   <time name="total">  132.82  132.82</time>
   <energy>
    <i name="e_fr_energy">     -8.06045111 </i>
    <i name="e_wo_entrp">     -8.06045111 </i>
    <i name="e_0_energy">     -8.06045111 </i>
   </energy>
  </scstep>
  <scstep>
   <time name="total">  132.00  132.00</time>
   <energy>
    <i name="e_fr_energy">     -8.05794087 </i>
    <i name="e_wo_entrp">     -8.05794087 </i>
    <i name="e_0_energy">     -8.05794087 </i>
   </energy>
  </scstep>
  <kpoints>
   <generation param="Gamma">
    <v type="int" name="divisions">       4        4        4 </v>
    <v name="usershift">      0.00000000       0.00000000       0.00000000 </v>
    <v name="genvec1">      0.25000000       0.00000000       0.00000000 </v>
    <v name="genvec2">      0.00000000       0.25000000       0.00000000 </v>
    <v name="genvec3">      0.00000000       0.00000000       0.25000000 </v>
    <v name="shift">      0.00000000       0.00000000       0.00000000 </v>
   </generation>
   <varray name="kpointlist" >
    <v>       0.00000000       0.00000000       0.00000000 </v>
    <v>       0.25000000       0.00000000       0.00000000 </v>
    <v>       0.50000000       0.00000000       0.00000000 </v>
    <v>       0.00000000       0.25000000       0.00000000 </v>
    <v>       0.25000000       0.25000000       0.00000000 </v>
    <v>       0.50000000       0.25000000       0.00000000 </v>
    <v>      -0.25000000       0.25000000       0.00000000 </v>
    <v>       0.00000000       0.50000000       0.00000000 </v>
    <v>       0.25000000       0.50000000       0.00000000 </v>
    <v>       0.50000000       0.50000000       0.00000000 </v>
    <v>       0.00000000       0.00000000       0.25000000 </v>
    <v>       0.25000000       0.00000000       0.25000000 </v>
    <v>       0.50000000       0.00000000       0.25000000 </v>
    <v>      -0.25000000       0.00000000       0.25000000 </v>
    <v>       0.00000000       0.25000000       0.25000000 </v>
    <v>       0.25000000       0.25000000       0.25000000 </v>
    <v>       0.50000000       0.25000000       0.25000000 </v>
    <v>      -0.25000000       0.25000000       0.25000000 </v>
    <v>       0.00000000       0.50000000       0.25000000 </v>
    <v>       0.25000000       0.50000000       0.25000000 </v>
    <v>       0.50000000       0.50000000       0.25000000 </v>
    <v>      -0.25000000       0.50000000       0.25000000 </v>
    <v>       0.00000000      -0.25000000       0.25000000 </v>
    <v>       0.25000000      -0.25000000       0.25000000 </v>
    <v>       0.50000000      -0.25000000       0.25000000 </v>
    <v>      -0.25000000      -0.25000000       0.25000000 </v>
    <v>       0.00000000       0.00000000       0.50000000 </v>
    <v>       0.25000000       0.00000000       0.50000000 </v>
    <v>       0.50000000       0.00000000       0.50000000 </v>
    <v>       0.00000000       0.25000000       0.50000000 </v>
    <v>       0.25000000       0.25000000       0.50000000 </v>
    <v>       0.50000000       0.25000000       0.50000000 </v>
    <v>      -0.25000000       0.25000000       0.50000000 </v>
    <v>       0.00000000       0.50000000       0.50000000 </v>
    <v>       0.25000000       0.50000000       0.50000000 </v>
    <v>       0.50000000       0.50000000       0.50000000 </v>
   </varray>
   <varray name="weights" >
    <v>       0.01562500 </v>
    <v>       0.03125000 </v>
    <v>       0.01562500 </v>
    <v>       0.03125000 </v>
    <v>       0.03125000 </v>
    <v>       0.03125000 </v>
    <v>       0.03125000 </v>
    <v>       0.01562500 </v>
    <v>       0.03125000 </v>
    <v>       0.01562500 </v>
    <v>       0.03125000 </v>
    <v>       0.03125000 </v>
    <v>       0.03125000 </v>
    <v>       0.03125000 </v>
    <v>       0.03125000 </v>
    <v>       0.03125000 </v>
    <v>       0.03125000 </v>
    <v>       0.03125000 </v>
    <v>       0.03125000 </v>
    <v>       0.03125000 </v>
    <v>       0.03125000 </v>
    <v>       0.03125000 </v>
    <v>       0.03125000 </v>
    <v>       0.03125000 </v>
    <v>       0.03125000 </v>
    <v>       0.03125000 </v>
    <v>       0.01562500 </v>
    <v>       0.03125000 </v>
    <v>       0.01562500 </v>
    <v>       0.03125000 </v>
    <v>       0.03125000 </v>
    <v>       0.03125000 </v>
    <v>       0.03125000 </v>
    <v>       0.01562500 </v>
    <v>       0.03125000 </v>
    <v>       0.01562500 </v>
   </varray>
  </kpoints>
  <scstep>
   <time name="total">   93.42   93.42</time>
   <energy>
    <i name="e_fr_energy">     -8.01661591 </i>
    <i name="e_wo_entrp">     -8.01661591 </i>
    <i name="e_0_energy">     -8.01661591 </i>
   </energy>
  </scstep>
  <scstep>
   <time name="total">   84.13   84.13</time>
   <energy>
    <i name="e_fr_energy">     -8.51306919 </i>
    <i name="e_wo_entrp">     -8.51306919 </i>
    <i name="e_0_energy">     -8.51306919 </i>
   </energy>
  </scstep>
  <scstep>
   <time name="total">   98.55   98.55</time>
   <energy>
    <i name="e_fr_energy">     -7.91438885 </i>
    <i name="e_wo_entrp">     -7.91438885 </i>
    <i name="e_0_energy">     -7.91438885 </i>
   </energy>
  </scstep>
  <scstep>
   <time name="total">  106.03  106.03</time>
   <energy>
    <i name="e_fr_energy">     -8.04462292 </i>
    <i name="e_wo_entrp">     -8.04462292 </i>
    <i name="e_0_energy">     -8.04462292 </i>
   </energy>
  </scstep>
  <scstep>
   <time name="total">  108.96  108.96</time>
   <energy>
    <i name="e_fr_energy">     -8.18156819 </i>
    <i name="e_wo_entrp">     -8.18156819 </i>
    <i name="e_0_energy">     -8.18156819 </i>
   </energy>
  </scstep>
  <scstep>
   <time name="total">  109.46  109.46</time>
   <energy>
    <i name="e_fr_energy">     -8.21032482 </i>
    <i name="e_wo_entrp">     -8.21032482 </i>
    <i name="e_0_energy">     -8.21032482 </i>
   </energy>
  </scstep>
  <scstep>
   <time name="total">  111.88  111.88</time>
   <energy>
    <i name="e_fr_energy">     -8.20948411 </i>
    <i name="e_wo_entrp">     -8.20948411 </i>
    <i name="e_0_energy">     -8.20948411 </i>
   </energy>
  </scstep>
  <scstep>
   <time name="total">  111.29  111.29</time>
   <energy>
    <i name="e_fr_energy">     -8.20328016 </i>
    <i name="e_wo_entrp">     -8.20328016 </i>
    <i name="e_0_energy">     -8.20328016 </i>
   </energy>
  </scstep>
  <scstep>
   <time name="total">  112.99  112.99</time>
   <energy>
    <i name="e_fr_energy">     -8.20771006 </i>
    <i name="e_wo_entrp">     -8.20771006 </i>
    <i name="e_0_energy">     -8.20771006 </i>
   </energy>
  </scstep>
  <scstep>
   <time name="total">  117.08  117.08</time>
   <energy>
    <i name="e_fr_energy">     -8.20954865 </i>
    <i name="e_wo_entrp">     -8.20954865 </i>
    <i name="e_0_energy">     -8.20954865 </i>
   </energy>
  </scstep>
  <scstep>
   <time name="total">  118.79  118.79</time>
   <energy>
    <i name="e_fr_energy">     -8.21007636 </i>
    <i name="e_wo_entrp">     -8.21007636 </i>
    <i name="e_0_energy">     -8.21007636 </i>
   </energy>
  </scstep>
  <scstep>
   <time name="total">  125.52  125.52</time>
   <energy>
    <i name="e_fr_energy">     -8.21151818 </i>
    <i name="e_wo_entrp">     -8.21151818 </i>
    <i name="e_0_energy">     -8.21151818 </i>
   </energy>
  </scstep>
  <scstep>
   <time name="total">  125.30  125.30</time>
   <energy>
    <i name="e_fr_energy">     -8.21086209 </i>
    <i name="e_wo_entrp">     -8.21086209 </i>
    <i name="e_0_energy">     -8.21086209 </i>
   </energy>
  </scstep>
  <scstep>
   <time name="total">  133.95  133.95</time>
   <energy>
    <i name="e_fr_energy">     -8.21194316 </i>
    <i name="e_wo_entrp">     -8.21194316 </i>
    <i name="e_0_energy">     -8.21194316 </i>
   </energy>
  </scstep>
  <scstep>
   <time name="total">  133.90  133.90</time>
   <energy>
    <i name="e_fr_energy">     -8.21058394 </i>
    <i name="e_wo_entrp">     -8.21058394 </i>
    <i name="e_0_energy">     -8.21058394 </i>
   </energy>
  </scstep>
  <scstep>
   <time name="total">  135.16  135.16</time>
   <energy>
    <i name="e_fr_energy">     -8.21201994 </i>
    <i name="e_wo_entrp">     -8.21201994 </i>
    <i name="e_0_energy">     -8.21201994 </i>
   </energy>
  </scstep>
  <scstep>
   <time name="total">  134.51  134.51</time>
   <energy>
    <i name="e_fr_energy">     -8.21104545 </i>
    <i name="e_wo_entrp">     -8.21104545 </i>
    <i name="e_0_energy">     -8.21104545 </i>
   </energy>
  </scstep>
  <scstep>
   <time name="total">  135.94  135.94</time>
   <energy>
    <i name="e_fr_energy">     -8.21201699 </i>
    <i name="e_wo_entrp">     -8.21201699 </i>
    <i name="e_0_energy">     -8.21201699 </i>
   </energy>
  </scstep>
  <scstep>
   <time name="total">  135.03  135.03</time>
   <energy>
    <i name="e_fr_energy">     -8.21146574 </i>
    <i name="e_wo_entrp">     -8.21146574 </i>
    <i name="e_0_energy">     -8.21146574 </i>
   </energy>
  </scstep>
  <scstep>
   <time name="total">  135.89  135.89</time>
   <energy>
    <i name="e_fr_energy">     -8.21186756 </i>
    <i name="e_wo_entrp">     -8.21186756 </i>
    <i name="e_0_energy">     -8.21186756 </i>
   </energy>
  </scstep>
  <scstep>
   <time name="total">  135.60  135.60</time>
   <energy>
    <i name="e_fr_energy">     -8.21185528 </i>
    <i name="e_wo_entrp">     -8.21185528 </i>
    <i name="e_0_energy">     -8.21185528 </i>
   </energy>
  </scstep>
  <scstep>
   <time name="total">  136.13  136.13</time>
   <energy>
    <i name="e_fr_energy">     -8.21176767 </i>
    <i name="e_wo_entrp">     -8.21176767 </i>
    <i name="e_0_energy">     -8.21176767 </i>
   </energy>
  </scstep>
  <scstep>
   <time name="total">  135.60  135.60</time>
   <energy>
    <i name="e_fr_energy">     -8.21195063 </i>
    <i name="e_wo_entrp">     -8.21195063 </i>
    <i name="e_0_energy">     -8.21195063 </i>
   </energy>
  </scstep>
  <scstep>
   <time name="total">  135.84  135.84</time>
   <energy>
    <i name="e_fr_energy">     -8.21193944 </i>
    <i name="e_wo_entrp">     -8.21193944 </i>
    <i name="e_0_energy">     -8.21193944 </i>
   </energy>
  </scstep>
  <scstep>
   <time name="total">  135.37  135.37</time>
   <energy>
    <i name="e_fr_energy">     -8.21175582 </i>
    <i name="e_wo_entrp">     -8.21175582 </i>
    <i name="e_0_energy">     -8.21175582 </i>
   </energy>
  </scstep>
  <scstep>
   <time name="total">  136.05  136.05</time>
   <energy>
    <i name="e_fr_energy">     -8.21231465 </i>
    <i name="e_wo_entrp">     -8.21231465 </i>
    <i name="e_0_energy">     -8.21231465 </i>
   </energy>
  </scstep>
  <scstep>
   <time name="total">  135.52  135.52</time>
   <energy>
    <i name="e_fr_energy">     -8.21136829 </i>
    <i name="e_wo_entrp">     -8.21136829 </i>
    <i name="e_0_energy">     -8.21136829 </i>
   </energy>
  </scstep>
  <kpoints>
   <generation param="Gamma">
    <v type="int" name="divisions">       4        4        4 </v>
    <v name="usershift">      0.00000000       0.00000000       0.00000000 </v>
    <v name="genvec1">      0.25000000       0.00000000       0.00000000 </v>
    <v name="genvec2">      0.00000000       0.25000000       0.00000000 </v>
    <v name="genvec3">      0.00000000       0.00000000       0.25000000 </v>
    <v name="shift">      0.00000000       0.00000000       0.00000000 </v>
   </generation>
   <varray name="kpointlist" >
    <v>       0.00000000       0.00000000       0.00000000 </v>
    <v>       0.25000000       0.00000000       0.00000000 </v>
    <v>       0.50000000       0.00000000       0.00000000 </v>
    <v>       0.00000000       0.25000000       0.00000000 </v>
    <v>       0.25000000       0.25000000       0.00000000 </v>
    <v>       0.50000000       0.25000000       0.00000000 </v>
    <v>      -0.25000000       0.25000000       0.00000000 </v>
    <v>       0.00000000       0.50000000       0.00000000 </v>
    <v>       0.25000000       0.50000000       0.00000000 </v>
    <v>       0.50000000       0.50000000       0.00000000 </v>
    <v>       0.00000000       0.00000000       0.25000000 </v>
    <v>       0.25000000       0.00000000       0.25000000 </v>
    <v>       0.50000000       0.00000000       0.25000000 </v>
    <v>      -0.25000000       0.00000000       0.25000000 </v>
    <v>       0.00000000       0.25000000       0.25000000 </v>
    <v>       0.25000000       0.25000000       0.25000000 </v>
    <v>       0.50000000       0.25000000       0.25000000 </v>
    <v>      -0.25000000       0.25000000       0.25000000 </v>
    <v>       0.00000000       0.50000000       0.25000000 </v>
    <v>       0.25000000       0.50000000       0.25000000 </v>
    <v>       0.50000000       0.50000000       0.25000000 </v>
    <v>      -0.25000000       0.50000000       0.25000000 </v>
    <v>       0.00000000      -0.25000000       0.25000000 </v>
    <v>       0.25000000      -0.25000000       0.25000000 </v>
    <v>       0.50000000      -0.25000000       0.25000000 </v>
    <v>      -0.25000000      -0.25000000       0.25000000 </v>
    <v>       0.00000000       0.00000000       0.50000000 </v>
    <v>       0.25000000       0.00000000       0.50000000 </v>
    <v>       0.50000000       0.00000000       0.50000000 </v>
    <v>       0.00000000       0.25000000       0.50000000 </v>
    <v>       0.25000000       0.25000000       0.50000000 </v>
    <v>       0.50000000       0.25000000       0.50000000 </v>
    <v>      -0.25000000       0.25000000       0.50000000 </v>
    <v>       0.00000000       0.50000000       0.50000000 </v>
    <v>       0.25000000       0.50000000       0.50000000 </v>
    <v>       0.50000000       0.50000000       0.50000000 </v>
   </varray>
   <varray name="weights" >
    <v>       0.01562500 </v>
    <v>       0.03125000 </v>
    <v>       0.01562500 </v>
    <v>       0.03125000 </v>
    <v>       0.03125000 </v>
    <v>       0.03125000 </v>
    <v>       0.03125000 </v>
    <v>       0.01562500 </v>
    <v>       0.03125000 </v>
    <v>       0.01562500 </v>
    <v>       0.03125000 </v>
    <v>       0.03125000 </v>
    <v>       0.03125000 </v>
    <v>       0.03125000 </v>
    <v>       0.03125000 </v>
    <v>       0.03125000 </v>
    <v>       0.03125000 </v>
    <v>       0.03125000 </v>
    <v>       0.03125000 </v>
    <v>       0.03125000 </v>
    <v>       0.03125000 </v>
    <v>       0.03125000 </v>
    <v>       0.03125000 </v>
    <v>       0.03125000 </v>
    <v>       0.03125000 </v>
    <v>       0.03125000 </v>
    <v>       0.01562500 </v>
    <v>       0.03125000 </v>
    <v>       0.01562500 </v>
    <v>       0.03125000 </v>
    <v>       0.03125000 </v>
    <v>       0.03125000 </v>
    <v>       0.03125000 </v>
    <v>       0.01562500 </v>
    <v>       0.03125000 </v>
    <v>       0.01562500 </v>
   </varray>
  </kpoints>
  <scstep>
   <time name="total">   93.54   93.54</time>
   <energy>
    <i name="e_fr_energy">     -8.33718409 </i>
    <i name="e_wo_entrp">     -8.33718409 </i>
    <i name="e_0_energy">     -8.33718409 </i>
   </energy>
  </scstep>
  <scstep>
   <time name="total">   83.74   83.75</time>
   <energy>
    <i name="e_fr_energy">     -8.76671887 </i>
    <i name="e_wo_entrp">     -8.76671887 </i>
    <i name="e_0_energy">     -8.76671887 </i>
   </energy>
  </scstep>
  <scstep>
   <time name="total">   91.57   91.57</time>
   <energy>
    <i name="e_fr_energy">     -8.20875672 </i>
    <i name="e_wo_entrp">     -8.20875672 </i>
    <i name="e_0_energy">     -8.20875672 </i>
   </energy>
  </scstep>
  <scstep>
   <time name="total">  103.05  103.05</time>
   <energy>
    <i name="e_fr_energy">     -8.38990578 </i>
    <i name="e_wo_entrp">     -8.38990578 </i>
    <i name="e_0_energy">     -8.38990578 </i>
   </energy>
  </scstep>
  <scstep>
   <time name="total">  102.99  102.99</time>
   <energy>
    <i name="e_fr_energy">     -8.54979814 </i>
    <i name="e_wo_entrp">     -8.54979814 </i>
    <i name="e_0_energy">     -8.54979814 </i>
   </energy>
  </scstep>
  <scstep>
   <time name="total">  106.71  106.71</time>
   <energy>
    <i name="e_fr_energy">     -8.57229414 </i>
    <i name="e_wo_entrp">     -8.57229414 </i>
    <i name="e_0_energy">     -8.57229414 </i>
   </energy>
  </scstep>
  <scstep>
   <time name="total">  107.22  107.22</time>
   <energy>
    <i name="e_fr_energy">     -8.58178229 </i>
    <i name="e_wo_entrp">     -8.58178229 </i>
    <i name="e_0_energy">     -8.58178229 </i>
   </energy>
  </scstep>
  <scstep>
   <time name="total">  110.91  110.91</time>
   <energy>
    <i name="e_fr_energy">     -8.58076269 </i>
    <i name="e_wo_entrp">     -8.58076269 </i>
    <i name="e_0_energy">     -8.58076269 </i>
   </energy>
  </scstep>
  <scstep>
   <time name="total">  107.97  107.97</time>
   <energy>
    <i name="e_fr_energy">     -8.58178021 </i>
[...]
       <r>    2.9669    0.0000 </r>
       <r>    2.9669    0.0000 </r>
       <r>    2.9669    0.0000 </r>
       <r>    2.9669    0.0000 </r>
       <r>    4.1032    0.0000 </r>
       <r>    4.1032    0.0000 </r>
       <r>    4.1032    0.0000 </r>
       <r>    4.1032    0.0000 </r>
       <r>    5.2983    0.0000 </r>
       <r>    5.2983    0.0000 </r>
       <r>    5.2983    0.0000 </r>
       <r>    5.2983    0.0000 </r>
       <r>    5.5735    0.0000 </r>
       <r>    5.5735    0.0000 </r>
       <r>    5.5735    0.0000 </r>
       <r>    5.5735    0.0000 </r>
       <r>    6.4184    0.0000 </r>
       <r>    6.4184    0.0000 </r>
       <r>    6.4184    0.0000 </r>
       <r>    6.4184    0.0000 </r>
       <r>    7.0252    0.0000 </r>
       <r>    7.0252    0.0000 </r>
       <r>    7.0252    0.0000 </r>
       <r>    7.0252    0.0000 </r>
       <r>    7.1836    0.0000 </r>
       <r>    7.1836    0.0000 </r>
       <r>    7.1836    0.0000 </r>
       <r>    7.1840    0.0000 </r>
      </set>
     </set>
    </set>
   </array>
  </eigenvalues>
  <separator name="orbital magnetization" >
   <v name="MAGDIPOLOUT">      0.00000000      0.00000000      0.00000000</v>
  </separator>
  <dos>
   <i name="efermi">      0.35263117 </i>
   <total>
    <array>
     <dimension dim="1">gridpoints</dimension>
     <dimension dim="2">spin</dimension>
     <field>energy</field>
     <field>total</field>
     <field>integrated</field>
     <set>
      <set comment="spin 1">
       <r>   -20.4899     0.0000     0.0000 </r>
       <r>   -20.3926     0.0000     0.0000 </r>
       <r>   -20.2953     0.0000     0.0000 </r>
       <r>   -20.1979     0.0000     0.0000 </r>
       <r>   -20.1006     0.0000     0.0000 </r>
       <r>   -20.0032     0.0000     0.0000 </r>
       <r>   -19.9059     0.0000     0.0000 </r>
       <r>   -19.8086     0.0000     0.0000 </r>
       <r>   -19.7112     0.0000     0.0000 </r>
       <r>   -19.6139     0.0000     0.0000 </r>
       <r>   -19.5166     0.0000     0.0000 </r>
       <r>   -19.4192     0.0000     0.0000 </r>
       <r>   -19.3219     0.0000     0.0000 </r>
       <r>   -19.2245     0.0000     0.0000 </r>
       <r>   -19.1272    82.1857     7.9998 </r>
       <r>   -19.0299     0.0000     8.0000 </r>
       <r>   -18.9325     0.0000     8.0000 </r>
       <r>   -18.8352     0.0000     8.0000 </r>
       <r>   -18.7378     0.0000     8.0000 </r>
       <r>   -18.6405     0.0000     8.0000 </r>
       <r>   -18.5432     0.0000     8.0000 </r>
       <r>   -18.4458     0.0000     8.0000 </r>
       <r>   -18.3485     0.0000     8.0000 </r>
       <r>   -18.2512     0.0000     8.0000 </r>
       <r>   -18.1538     0.0000     8.0000 </r>
       <r>   -18.0565     0.0000     8.0000 </r>
       <r>   -17.9591     0.0000     8.0000 </r>
       <r>   -17.8618     0.0000     8.0000 </r>
       <r>   -17.7645     0.0000     8.0000 </r>
       <r>   -17.6671     0.0000     8.0000 </r>
       <r>   -17.5698     0.0000     8.0000 </r>
       <r>   -17.4724     0.0000     8.0000 </r>
       <r>   -17.3751     0.0000     8.0000 </r>
       <r>   -17.2778     0.0000     8.0000 </r>
       <r>   -17.1804     0.0000     8.0000 </r>
       <r>   -17.0831     0.0000     8.0000 </r>
       <r>   -16.9858     0.0000     8.0000 </r>
       <r>   -16.8884     0.0000     8.0000 </r>
       <r>   -16.7911     0.0000     8.0000 </r>
       <r>   -16.6937     0.0000     8.0000 </r>
       <r>   -16.5964     0.0000     8.0000 </r>
       <r>   -16.4991     0.0000     8.0000 </r>
       <r>   -16.4017     0.0000     8.0000 </r>
       <r>   -16.3044     0.0000     8.0000 </r>
       <r>   -16.2070     0.0000     8.0000 </r>
       <r>   -16.1097   160.3988    23.6130 </r>
       <r>   -16.0124   164.3697    48.0000 </r>
       <r>   -15.9150     0.0000    48.0000 </r>
       <r>   -15.8177     0.0000    48.0000 </r>
       <r>   -15.7204     0.0000    48.0000 </r>
       <r>   -15.6230     0.0000    48.0000 </r>
       <r>   -15.5257     0.0000    48.0000 </r>
       <r>   -15.4283     0.0000    48.0000 </r>
       <r>   -15.3310     0.0000    48.0000 </r>
       <r>   -15.2337     0.0000    48.0000 </r>
       <r>   -15.1363     0.0000    48.0000 </r>
       <r>   -15.0390     0.0000    48.0000 </r>
       <r>   -14.9416     0.0000    48.0000 </r>
       <r>   -14.8443     0.0000    48.0000 </r>
       <r>   -14.7470     0.0000    48.0000 </r>
       <r>   -14.6496     0.0000    48.0000 </r>
       <r>   -14.5523     0.0000    48.0000 </r>
       <r>   -14.4550     0.0000    48.0000 </r>
       <r>   -14.3576     0.0000    48.0000 </r>
       <r>   -14.2603     0.0000    48.0000 </r>
       <r>   -14.1629     0.0000    48.0000 </r>
       <r>   -14.0656     0.0000    48.0000 </r>
       <r>   -13.9683     0.0000    48.0000 </r>
       <r>   -13.8709     0.0000    48.0000 </r>
       <r>   -13.7736     0.0000    48.0000 </r>
       <r>   -13.6763     0.0775    48.0075 </r>
       <r>   -13.5789    15.0512    49.4967 </r>
       <r>   -13.4816    34.7951    53.4203 </r>
       <r>   -13.3842    32.8470    57.5728 </r>
       <r>   -13.2869    51.0666    64.0662 </r>
       <r>   -13.1896    53.5636    70.3085 </r>
       <r>   -13.0922     4.4913    72.0000 </r>
       <r>   -12.9949     0.0000    72.0000 </r>
       <r>   -12.8975     0.0000    72.0000 </r>
       <r>   -12.8002     0.0000    72.0000 </r>
       <r>   -12.7029     0.0000    72.0000 </r>
       <r>   -12.6055     0.0000    72.0000 </r>
       <r>   -12.5082     0.0000    72.0000 </r>
       <r>   -12.4109     0.0000    72.0000 </r>
       <r>   -12.3135     0.0000    72.0000 </r>
       <r>   -12.2162     0.0000    72.0000 </r>
       <r>   -12.1188    47.7744    76.6503 </r>
       <r>   -12.0215     0.0000    80.0000 </r>
       <r>   -11.9242     0.0000    80.0000 </r>
       <r>   -11.8268     0.0000    80.0000 </r>
       <r>   -11.7295     0.0000    80.0000 </r>
       <r>   -11.6321     0.0000    80.0000 </r>
       <r>   -11.5348     0.0000    80.0000 </r>
       <r>   -11.4375     0.0000    80.0000 </r>
       <r>   -11.3401     0.0000    80.0000 </r>
       <r>   -11.2428     0.0000    80.0000 </r>
       <r>   -11.1455     0.0000    80.0000 </r>
       <r>   -11.0481     0.0000    80.0000 </r>
       <r>   -10.9508     0.0000    80.0000 </r>
       <r>   -10.8534     0.0000    80.0000 </r>
       <r>   -10.7561     0.0000    80.0000 </r>
       <r>   -10.6588     0.0000    80.0000 </r>
       <r>   -10.5614     0.0000    80.0000 </r>
       <r>   -10.4641     0.0000    80.0000 </r>
       <r>   -10.3667     0.0000    80.0000 </r>
       <r>   -10.2694     0.0000    80.0000 </r>
       <r>   -10.1721     0.0000    80.0000 </r>
       <r>   -10.0747     0.0000    80.0000 </r>
       <r>    -9.9774     0.0000    80.0000 </r>
       <r>    -9.8801     0.0000    80.0000 </r>
       <r>    -9.7827     0.0000    80.0000 </r>
       <r>    -9.6854     0.0000    80.0000 </r>
       <r>    -9.5880     0.0000    80.0000 </r>
       <r>    -9.4907     0.0000    80.0000 </r>
       <r>    -9.3934     0.0000    80.0000 </r>
       <r>    -9.2960     0.0000    80.0000 </r>
       <r>    -9.1987     0.0000    80.0000 </r>
       <r>    -9.1014     0.0000    80.0000 </r>
       <r>    -9.0040     0.0000    80.0000 </r>
       <r>    -8.9067     0.0000    80.0000 </r>
       <r>    -8.8093     0.0000    80.0000 </r>
       <r>    -8.7120     0.0000    80.0000 </r>
       <r>    -8.6147    93.2429    89.0761 </r>
       <r>    -8.5173    24.0508    96.0000 </r>
       <r>    -8.4200     0.0000    96.0000 </r>
       <r>    -8.3226     0.0000    96.0000 </r>
       <r>    -8.2253     0.0000    96.0000 </r>
       <r>    -8.1280     0.0000    96.0000 </r>
       <r>    -8.0306     0.0000    96.0000 </r>
       <r>    -7.9333     0.0000    96.0000 </r>
       <r>    -7.8360     0.1858    96.0181 </r>
       <r>    -7.7386     0.7499    96.1042 </r>
       <r>    -7.6413     3.3096    96.5409 </r>
       <r>    -7.5439     2.5734    96.9067 </r>
       <r>    -7.4466     3.8130    97.2779 </r>
       <r>    -7.3493    12.5562    98.9411 </r>
       <r>    -7.2519     3.9315    99.4452 </r>
       <r>    -7.1546    11.4522   100.6148 </r>
       <r>    -7.0572     3.5631   101.1593 </r>
       <r>    -6.9599     8.2583   102.4914 </r>
       <r>    -6.8626     3.8524   103.0937 </r>
       <r>    -6.7652     2.5684   103.3438 </r>
       <r>    -6.6679     4.4946   103.7812 </r>
       <r>    -6.5706     1.2842   103.9062 </r>
       <r>    -6.4732    82.3091   111.9181 </r>
       <r>    -6.3759     0.3210   112.0000 </r>
       <r>    -6.2785     0.0000   112.0000 </r>
       <r>    -6.1812     0.0000   112.0000 </r>
       <r>    -6.0839     0.0000   112.0000 </r>
       <r>    -5.9865     0.0000   112.0000 </r>
       <r>    -5.8892     0.0000   112.0000 </r>
       <r>    -5.7918     0.0000   112.0000 </r>
       <r>    -5.6945     0.0000   112.0000 </r>
       <r>    -5.5972     0.0000   112.0000 </r>
       <r>    -5.4998     0.0000   112.0000 </r>
       <r>    -5.4025     0.0000   112.0000 </r>
       <r>    -5.3052     0.0000   112.0000 </r>
       <r>    -5.2078     0.0000   112.0000 </r>
       <r>    -5.1105     0.0000   112.0000 </r>
       <r>    -5.0131     0.0000   112.0000 </r>
       <r>    -4.9158     0.0000   112.0000 </r>
       <r>    -4.8185     0.0000   112.0000 </r>
       <r>    -4.7211     0.0000   112.0000 </r>
       <r>    -4.6238     0.0000   112.0000 </r>
       <r>    -4.5265     0.0000   112.0000 </r>
       <r>    -4.4291   130.3181   124.6849 </r>
       <r>    -4.3318     6.4073   128.0000 </r>
       <r>    -4.2344     0.0000   128.0000 </r>
       <r>    -4.1371     0.0000   128.0000 </r>
       <r>    -4.0398     0.0000   128.0000 </r>
       <r>    -3.9424     0.0000   128.0000 </r>
       <r>    -3.8451     0.0000   128.0000 </r>
       <r>    -3.7477     0.0000   128.0000 </r>
       <r>    -3.6504     0.0000   128.0000 </r>
       <r>    -3.5531     0.0000   128.0000 </r>
       <r>    -3.4557     0.0000   128.0000 </r>
       <r>    -3.3584     0.0000   128.0000 </r>
       <r>    -3.2611     0.0000   128.0000 </r>
       <r>    -3.1637     0.9926   128.0966 </r>
       <r>    -3.0664     4.2874   128.6361 </r>
       <r>    -2.9690    18.3831   130.6956 </r>
       <r>    -2.8717    14.3742   132.2429 </r>
       <r>    -2.7744    11.7983   133.3989 </r>
       <r>    -2.6770    11.7562   135.1134 </r>
       <r>    -2.5797    12.8420   136.7501 </r>
       <r>    -2.4823     6.1238   137.4088 </r>
       <r>    -2.3850     3.2683   137.9431 </r>
       <r>    -2.2877    12.8739   139.2535 </r>
       <r>    -2.1903    18.6762   141.3191 </r>
       <r>    -2.0930     8.9712   142.3743 </r>
       <r>    -1.9957     3.9896   142.7634 </r>
       <r>    -1.8983    12.1642   144.1217 </r>
       <r>    -1.8010    40.0550   148.8992 </r>
       <r>    -1.7036    17.5264   151.8640 </r>
       <r>    -1.6063    20.5547   154.3447 </r>
       <r>    -1.5090    27.5997   157.4384 </r>
       <r>    -1.4116    21.0698   160.1759 </r>
       <r>    -1.3143    37.7261   164.4548 </r>
       <r>    -1.2169    55.5284   170.4053 </r>
       <r>    -1.1196    52.5836   176.7139 </r>
       <r>    -1.0223    40.1341   182.0328 </r>
       <r>    -0.9249    51.1574   187.7643 </r>
       <r>    -0.8276    31.8736   191.8526 </r>
       <r>    -0.7303    22.6672   194.9252 </r>
       <r>    -0.6329    10.4072   196.1697 </r>
       <r>    -0.5356    11.2245   197.4060 </r>
       <r>    -0.4382     5.0164   198.5511 </r>
       <r>    -0.3409     3.1691   198.8710 </r>
       <r>    -0.2436     5.1361   199.4376 </r>
       <r>    -0.1462     1.7484   199.6078 </r>
       <r>    -0.0489     2.5682   199.9062 </r>
       <r>     0.0484     0.5654   199.9613 </r>
       <r>     0.1458     0.0000   199.9688 </r>
       <r>     0.2431     0.3095   199.9989 </r>
       <r>     0.3405     0.0000   200.0000 </r>
       <r>     0.4378     0.0000   200.0000 </r>
       <r>     0.5351     0.0000   200.0000 </r>
       <r>     0.6325     0.0000   200.0000 </r>
       <r>     0.7298     0.0000   200.0000 </r>
       <r>     0.8272     0.0000   200.0000 </r>
       <r>     0.9245     0.0000   200.0000 </r>
       <r>     1.0218     0.0000   200.0000 </r>
       <r>     1.1192     0.0000   200.0000 </r>
       <r>     1.2165     0.0000   200.0000 </r>
       <r>     1.3138     0.0000   200.0000 </r>
       <r>     1.4112     0.0000   200.0000 </r>
       <r>     1.5085     0.0000   200.0000 </r>
       <r>     1.6059     0.0000   200.0000 </r>
       <r>     1.7032     0.0000   200.0000 </r>
       <r>     1.8005     0.0000   200.0000 </r>
       <r>     1.8979     0.0000   200.0000 </r>
       <r>     1.9952     0.0000   200.0000 </r>
       <r>     2.0926     0.0000   200.0000 </r>
       <r>     2.1899     0.0000   200.0000 </r>
       <r>     2.2872     0.0000   200.0000 </r>
       <r>     2.3846     0.5188   200.0505 </r>
       <r>     2.4819     2.0475   200.2618 </r>
       <r>     2.5792     1.9292   200.4690 </r>
       <r>     2.6766     5.5539   201.0096 </r>
       <r>     2.7739     1.9469   201.4708 </r>
       <r>     2.8713     8.3625   202.3459 </r>
       <r>     2.9686     7.8335   203.1688 </r>
       <r>     3.0659     9.8967   204.2453 </r>
       <r>     3.1633    12.1348   205.5562 </r>
       <r>     3.2606    10.2819   206.7509 </r>
       <r>     3.3580    11.1154   207.8950 </r>
       <r>     3.4553     5.1840   208.4421 </r>
       <r>     3.5526     3.2091   209.0000 </r>
       <r>     3.6500     0.0000   209.0000 </r>
       <r>     3.7473     0.6115   209.0595 </r>
       <r>     3.8446     4.1235   209.4640 </r>
       <r>     3.9420     7.5130   210.3564 </r>
       <r>     4.0393     4.9774   211.0470 </r>
       <r>     4.1367    16.0396   212.6863 </r>
       <r>     4.2340     3.2104   213.4375 </r>
       <r>     4.3313     7.6821   214.1853 </r>
       <r>     4.4287     7.0606   214.9999 </r>
       <r>     4.5260     0.0221   215.0022 </r>
       <r>     4.6233     0.8905   215.1179 </r>
       <r>     4.7207     8.9617   216.2790 </r>
       <r>     4.8180     6.4036   216.9049 </r>
       <r>     4.9154     7.8961   217.6758 </r>
       <r>     5.0127    15.8530   219.5744 </r>
       <r>     5.1100     2.4442   220.0192 </r>
       <r>     5.2074     4.8239   220.6571 </r>
       <r>     5.3047    11.2233   221.7496 </r>
       <r>     5.4021     9.1901   222.8008 </r>
       <r>     5.4994    15.6740   224.6828 </r>
       <r>     5.5967    11.8430   226.3722 </r>
       <r>     5.6941     7.2397   227.3297 </r>
       <r>     5.7914     5.1352   228.0936 </r>
       <r>     5.8887    17.5018   229.7982 </r>
       <r>     5.9861     5.7596   230.6551 </r>
       <r>     6.0834     6.4510   231.4717 </r>
       <r>     6.1808     9.4456   232.5757 </r>
       <r>     6.2781    12.0744   234.1757 </r>
       <r>     6.3754     9.8957   235.2132 </r>
       <r>     6.4728    25.2074   237.7974 </r>
       <r>     6.5701    16.5046   239.7013 </r>
       <r>     6.6675     5.1382   240.5626 </r>
       <r>     6.7648    10.0898   241.6384 </r>
       <r>     6.8621    22.7202   243.8999 </r>
       <r>     6.9595    18.9553   246.3141 </r>
       <r>     7.0568    23.1682   249.0075 </r>
       <r>     7.1541    29.0028   252.4497 </r>
       <r>     7.2515    24.3108   255.1168 </r>
       <r>     7.3488     7.1453   255.8834 </r>
       <r>     7.4462     0.6421   256.0000 </r>
       <r>     7.5435     0.0000   256.0000 </r>
       <r>     7.6408     0.0000   256.0000 </r>
       <r>     7.7382     0.0000   256.0000 </r>
       <r>     7.8355     0.0000   256.0000 </r>
       <r>     7.9329     0.0000   256.0000 </r>
       <r>     8.0302     0.0000   256.0000 </r>
       <r>     8.1275     0.0000   256.0000 </r>
       <r>     8.2249     0.0000   256.0000 </r>
       <r>     8.3222     0.0000   256.0000 </r>
       <r>     8.4195     0.0000   256.0000 </r>
       <r>     8.5169     0.0000   256.0000 </r>
       <r>     8.6142     0.0000   256.0000 </r>
       <r>     8.7116     0.0000   256.0000 </r>
      </set>
     </set>
    </array>
   </total>
  </dos>
 </calculation>
 <structure name="finalpos" >
  <crystal>
   <varray name="basis" >
    <v>       8.06459038       0.00000000       0.00000000 </v>
    <v>       0.00000000       8.77600633       0.00000000 </v>
    <v>       0.00000000       0.00000000      12.08306207 </v>
   </varray>
   <i name="volume">    855.17746386 </i>
   <varray name="rec_basis" >
    <v>       0.12399886       0.00000000       0.00000000 </v>
    <v>       0.00000000       0.11394705       0.00000000 </v>
    <v>       0.00000000       0.00000000       0.08276048 </v>
   </varray>
  </crystal>
  <varray name="positions" >
   <v>       0.50873504       0.65522505       0.68073005 </v>
   <v>       0.00873500       0.84477506       0.81927006 </v>
   <v>       0.49126504       0.34477503       0.18073001 </v>
   <v>       0.99126508       0.15522501       0.31927002 </v>
   <v>       0.49126504       0.34477503       0.31927002 </v>
   <v>       0.99126508       0.15522501       0.18073001 </v>
   <v>       0.50873504       0.65522505       0.81927006 </v>
   <v>       0.00873500       0.84477506       0.68073005 </v>
   <v>       0.67827205       0.59530405       0.75000006 </v>
   <v>       0.17827201       0.90469607       0.75000006 </v>
   <v>       0.32172802       0.40469603       0.25000002 </v>
   <v>       0.82172806       0.09530401       0.25000002 </v>
   <v>       0.52402804       0.37841103       0.67563505 </v>
   <v>       0.02402800       0.12158901       0.82436506 </v>
   <v>       0.47597204       0.62158905       0.17563501 </v>
   <v>       0.97597207       0.87841107       0.32436502 </v>
   <v>       0.47597204       0.62158905       0.32436502 </v>
   <v>       0.97597207       0.87841107       0.17563501 </v>
   <v>       0.52402804       0.37841103       0.82436506 </v>
   <v>       0.02402800       0.12158901       0.67563505 </v>
   <v>       0.34586903       0.44386203       0.75000006 </v>
   <v>       0.84586906       0.05613800       0.75000006 </v>
   <v>       0.65413105       0.55613804       0.25000002 </v>
   <v>       0.15413101       0.94386207       0.25000002 </v>
   <v>       0.50000004       0.00000000       0.00000000 </v>
   <v>       0.00000000       0.50000004       0.50000004 </v>
   <v>       0.50000004       0.00000000       0.50000004 </v>
   <v>       0.00000000       0.50000004       0.00000000 </v>
   <v>       0.48106504       0.43774803       0.75000006 </v>
   <v>       0.98106508       0.06225200       0.75000006 </v>
   <v>       0.51893504       0.56225204       0.25000002 </v>
   <v>       0.01893500       0.93774807       0.25000002 </v>
   <v>       0.46697104       0.01811500       0.75000006 </v>
   <v>       0.96697107       0.48188504       0.75000006 </v>
   <v>       0.53302904       0.98188508       0.25000002 </v>
   <v>       0.03302900       0.51811504       0.25000002 </v>
   <v>       0.79577606       0.78895306       0.97064007 </v>
   <v>       0.29577602       0.71104705       0.52936004 </v>
   <v>       0.20422402       0.21104702       0.47064004 </v>
   <v>       0.70422405       0.28895302       0.02936000 </v>
   <v>       0.20422402       0.21104702       0.02936000 </v>
   <v>       0.70422405       0.28895302       0.47064004 </v>
   <v>       0.79577606       0.78895306       0.52936004 </v>
   <v>       0.29577602       0.71104705       0.97064007 </v>
   <v>       0.54913504       0.59625005       0.75000006 </v>
   <v>       0.04913500       0.90375007       0.75000006 </v>
   <v>       0.45086503       0.40375003       0.25000002 </v>
   <v>       0.95086507       0.09625001       0.25000002 </v>
  </varray>
 </structure>
</modeling>
