
     Program PWSCF v.7.1 starts on  3Jan2024 at 15:15:26 

     This program is part of the open-source Quantum ESPRESSO suite
     for quantum simulation of materials; please cite
         "P. Giannozzi et al., J. Phys.:Condens. Matter 21 395502 (2009);
         "P. Giannozzi et al., J. Phys.:Condens. Matter 29 465901 (2017);
         "P. Giannozzi et al., J. Chem. Phys. 152 154105 (2020);
          URL http://www.quantum-espresso.org", 
     in publications or presentations arising from this work. More details at
     http://www.quantum-espresso.org/quote

     Parallel version (MPI), running on     8 processors

     MPI processes distributed on     1 nodes
     123661 MiB available memory on the printing compute node when the environment starts
 
     Reading input from pw_mp-23291_scf_k3000_E65.in
Warning: card &CELL ignored
Warning: card / ignored

     Current dimensions of program PWSCF are:
     Max number of different atomic species (ntypx) = 10
     Max number of k-points (npk) =  40000
     Max angular momentum in pseudopotentials (lmaxx) =  4
 
     R & G space division:  proc/nbgrp/npool/nimage =       8
     Subspace diagonalization in iterative solution of the eigenvalue problem:
     a serial algorithm will be used

 
     Parallelization info
     --------------------
     sticks:   dense  smooth     PW     G-vecs:    dense   smooth      PW
     Min         322     322     90                19102    19102    2830
     Max         323     323     91                19107    19107    2834
     Sum        2579    2579    721               152827   152827   22651
 
     Using Slab Decomposition
 


     bravais-lattice index     =            8
     lattice parameter (alat)  =       8.5945  a.u.
     unit-cell volume          =    2159.3465 (a.u.)^3
     number of atoms/cell      =           12
     number of atomic types    =            2
     number of electrons       =       112.00
     number of Kohn-Sham states=          112
     kinetic-energy cutoff     =      65.0000  Ry
     charge density cutoff     =     260.0000  Ry
     scf convergence threshold =      1.0E-10
     mixing beta               =       0.7000
     number of iterations used =            8  plain     mixing
     Exchange-correlation= PBE
                           (   1   4   3   4   0   0   0)

     celldm(1)=   8.594524  celldm(2)=   1.686778  celldm(3)=   2.016503
     celldm(4)=   0.000000  celldm(5)=   0.000000  celldm(6)=   0.000000

     crystal axes: (cart. coord. in units of alat)
               a(1) = (   1.000000   0.000000   0.000000 )  
               a(2) = (   0.000000   1.686778   0.000000 )  
               a(3) = (   0.000000   0.000000   2.016503 )  

     reciprocal axes: (cart. coord. in units 2 pi/alat)
               b(1) = (  1.000000  0.000000  0.000000 )  
               b(2) = (  0.000000  0.592846  0.000000 )  
               b(3) = (  0.000000  0.000000  0.495908 )  


     PseudoPot. # 1 for Cl read from file:
     /usr/scratch4/magr4985/MG/devEb/pseudo/SG15/Cl.upf
     MD5 check sum: d09d09b0a9f35bc416b5a5b3d9ab34ee
     Pseudo is Norm-conserving, Zval =  7.0
     Generated using ONCVPSP code by D. R. Hamann
     Using radial grid of  602 points,  4 beta functions with: 
                l(1) =   0
                l(2) =   0
                l(3) =   1
                l(4) =   1

     PseudoPot. # 2 for Pb read from file:
     /usr/scratch4/magr4985/MG/devEb/pseudo/SG15/Pb.upf
     MD5 check sum: 18da7c9819a8d2a15024df9e07e1e14a
     Pseudo is Norm-conserving, Zval = 14.0
     Generated using ONCVPSP code by D. R. Hamann
     Using radial grid of  602 points,  8 beta functions with: 
                l(1) =   0
                l(2) =   0
                l(3) =   1
                l(4) =   1
                l(5) =   2
                l(6) =   2
                l(7) =   3
                l(8) =   3

     atomic species   valence    mass     pseudopotential
        Cl             7.00    35.45300     Cl( 1.00)
        Pb            14.00   207.20000     Pb( 1.00)

      8 Sym. Ops., with inversion, found ( 6 have fractional translation)



   Cartesian axes

     site n.     atom                  positions (alat units)
         1           Pb  tau(   1) = (   0.2500000   0.4447236   1.8339008  )
         2           Pb  tau(   2) = (   0.7500001   1.2420547   0.1826025  )
         3           Pb  tau(   3) = (   0.2500000   1.2881128   1.1908541  )
         4           Pb  tau(   4) = (   0.7500001   0.3986655   0.8256492  )
         5           Cl  tau(   5) = (   0.2500000   0.8143243   0.3178971  )
         6           Cl  tau(   6) = (   0.7500001   0.8724541   1.6986062  )
         7           Cl  tau(   7) = (   0.2500000   1.6577134   0.6903546  )
         8           Cl  tau(   8) = (   0.7500001   0.0290649   1.3261487  )
         9           Cl  tau(   9) = (   0.7500001   1.0820031   0.8522280  )
        10           Cl  tau(  10) = (   0.2500000   0.6047752   1.1642753  )
        11           Cl  tau(  11) = (   0.7500001   0.2386139   0.1560237  )
        12           Cl  tau(  12) = (   0.2500000   1.4481644   1.8604796  )

     number of k points=    72  Gaussian smearing, width (Ry)=  0.0005
                       cart. coord. in units 2pi/alat
        k(    1) = (   0.0000000   0.0000000   0.0000000), wk =   0.0083333
        k(    2) = (   0.0000000   0.0000000   0.1239770), wk =   0.0166667
        k(    3) = (   0.0000000   0.0000000  -0.2479540), wk =   0.0083333
        k(    4) = (   0.0000000   0.0988077   0.0000000), wk =   0.0166667
        k(    5) = (   0.0000000   0.0988077   0.1239770), wk =   0.0333333
        k(    6) = (   0.0000000   0.0988077  -0.2479540), wk =   0.0166667
        k(    7) = (   0.0000000   0.1976154   0.0000000), wk =   0.0166667
        k(    8) = (   0.0000000   0.1976154   0.1239770), wk =   0.0333333
        k(    9) = (   0.0000000   0.1976154  -0.2479540), wk =   0.0166667
        k(   10) = (   0.0000000  -0.2964231   0.0000000), wk =   0.0083333
        k(   11) = (   0.0000000  -0.2964231   0.1239770), wk =   0.0166667
        k(   12) = (   0.0000000  -0.2964231  -0.2479540), wk =   0.0083333
        k(   13) = (   0.1000000   0.0000000   0.0000000), wk =   0.0166667
        k(   14) = (   0.1000000   0.0000000   0.1239770), wk =   0.0333333
        k(   15) = (   0.1000000   0.0000000  -0.2479540), wk =   0.0166667
        k(   16) = (   0.1000000   0.0988077   0.0000000), wk =   0.0333333
        k(   17) = (   0.1000000   0.0988077   0.1239770), wk =   0.0666667
        k(   18) = (   0.1000000   0.0988077  -0.2479540), wk =   0.0333333
        k(   19) = (   0.1000000   0.1976154   0.0000000), wk =   0.0333333
        k(   20) = (   0.1000000   0.1976154   0.1239770), wk =   0.0666667
        k(   21) = (   0.1000000   0.1976154  -0.2479540), wk =   0.0333333
        k(   22) = (   0.1000000  -0.2964231   0.0000000), wk =   0.0166667
        k(   23) = (   0.1000000  -0.2964231   0.1239770), wk =   0.0333333
        k(   24) = (   0.1000000  -0.2964231  -0.2479540), wk =   0.0166667
        k(   25) = (   0.2000000   0.0000000   0.0000000), wk =   0.0166667
        k(   26) = (   0.2000000   0.0000000   0.1239770), wk =   0.0333333
        k(   27) = (   0.2000000   0.0000000  -0.2479540), wk =   0.0166667
        k(   28) = (   0.2000000   0.0988077   0.0000000), wk =   0.0333333
        k(   29) = (   0.2000000   0.0988077   0.1239770), wk =   0.0666667
        k(   30) = (   0.2000000   0.0988077  -0.2479540), wk =   0.0333333
        k(   31) = (   0.2000000   0.1976154   0.0000000), wk =   0.0333333
        k(   32) = (   0.2000000   0.1976154   0.1239770), wk =   0.0666667
        k(   33) = (   0.2000000   0.1976154  -0.2479540), wk =   0.0333333
        k(   34) = (   0.2000000  -0.2964231   0.0000000), wk =   0.0166667
        k(   35) = (   0.2000000  -0.2964231   0.1239770), wk =   0.0333333
        k(   36) = (   0.2000000  -0.2964231  -0.2479540), wk =   0.0166667
        k(   37) = (   0.3000000   0.0000000   0.0000000), wk =   0.0166667
        k(   38) = (   0.3000000   0.0000000   0.1239770), wk =   0.0333333
        k(   39) = (   0.3000000   0.0000000  -0.2479540), wk =   0.0166667
        k(   40) = (   0.3000000   0.0988077   0.0000000), wk =   0.0333333
        k(   41) = (   0.3000000   0.0988077   0.1239770), wk =   0.0666667
        k(   42) = (   0.3000000   0.0988077  -0.2479540), wk =   0.0333333
        k(   43) = (   0.3000000   0.1976154   0.0000000), wk =   0.0333333
        k(   44) = (   0.3000000   0.1976154   0.1239770), wk =   0.0666667
        k(   45) = (   0.3000000   0.1976154  -0.2479540), wk =   0.0333333
        k(   46) = (   0.3000000  -0.2964231   0.0000000), wk =   0.0166667
        k(   47) = (   0.3000000  -0.2964231   0.1239770), wk =   0.0333333
        k(   48) = (   0.3000000  -0.2964231  -0.2479540), wk =   0.0166667
        k(   49) = (   0.4000000   0.0000000   0.0000000), wk =   0.0166667
        k(   50) = (   0.4000000   0.0000000   0.1239770), wk =   0.0333333
        k(   51) = (   0.4000000   0.0000000  -0.2479540), wk =   0.0166667
        k(   52) = (   0.4000000   0.0988077   0.0000000), wk =   0.0333333
        k(   53) = (   0.4000000   0.0988077   0.1239770), wk =   0.0666667
        k(   54) = (   0.4000000   0.0988077  -0.2479540), wk =   0.0333333
        k(   55) = (   0.4000000   0.1976154   0.0000000), wk =   0.0333333
        k(   56) = (   0.4000000   0.1976154   0.1239770), wk =   0.0666667
        k(   57) = (   0.4000000   0.1976154  -0.2479540), wk =   0.0333333
        k(   58) = (   0.4000000  -0.2964231   0.0000000), wk =   0.0166667
        k(   59) = (   0.4000000  -0.2964231   0.1239770), wk =   0.0333333
        k(   60) = (   0.4000000  -0.2964231  -0.2479540), wk =   0.0166667
        k(   61) = (  -0.5000000   0.0000000   0.0000000), wk =   0.0083333
        k(   62) = (  -0.5000000   0.0000000   0.1239770), wk =   0.0166667
        k(   63) = (  -0.5000000   0.0000000  -0.2479540), wk =   0.0083333
        k(   64) = (  -0.5000000   0.0988077   0.0000000), wk =   0.0166667
        k(   65) = (  -0.5000000   0.0988077   0.1239770), wk =   0.0333333
        k(   66) = (  -0.5000000   0.0988077  -0.2479540), wk =   0.0166667
        k(   67) = (  -0.5000000   0.1976154   0.0000000), wk =   0.0166667
        k(   68) = (  -0.5000000   0.1976154   0.1239770), wk =   0.0333333
        k(   69) = (  -0.5000000   0.1976154  -0.2479540), wk =   0.0166667
        k(   70) = (  -0.5000000  -0.2964231   0.0000000), wk =   0.0083333
        k(   71) = (  -0.5000000  -0.2964231   0.1239770), wk =   0.0166667
        k(   72) = (  -0.5000000  -0.2964231  -0.2479540), wk =   0.0083333

     Dense  grid:   152827 G-vectors     FFT dimensions: (  48,  80,  90)

     Estimated max dynamical RAM per process >     331.27 MB

     Estimated total dynamical RAM >       2.59 GB

     Initial potential from superposition of free atoms

     starting charge     111.5543, renormalised to     112.0000
     Starting wfcs are random

     total cpu time spent up to now is       13.0 secs

     Self-consistent Calculation

     iteration #  1     ecut=    65.00 Ry     beta= 0.70
     ParO style diagonalization
     ethr =  5.00E-06,  avg # of iterations = 22.7

     total cpu time spent up to now is      353.2 secs

     total energy              =    -693.87875511 Ry
     estimated scf accuracy    <       0.61393647 Ry

     iteration #  2     ecut=    65.00 Ry     beta= 0.70
     ParO style diagonalization
     ethr =  5.48E-04,  avg # of iterations =  6.6

     total cpu time spent up to now is      467.7 secs

     total energy              =    -694.04022535 Ry
     estimated scf accuracy    <       0.30331641 Ry

     iteration #  3     ecut=    65.00 Ry     beta= 0.70
     ParO style diagonalization
     ethr =  2.71E-04,  avg # of iterations =  5.7

     total cpu time spent up to now is      569.2 secs

     total energy              =    -694.10961523 Ry
     estimated scf accuracy    <       0.00445695 Ry

     iteration #  4     ecut=    65.00 Ry     beta= 0.70
     ParO style diagonalization
     ethr =  3.98E-06,  avg # of iterations =  5.9

     total cpu time spent up to now is      675.1 secs

     total energy              =    -694.11028690 Ry
     estimated scf accuracy    <       0.00160817 Ry

     iteration #  5     ecut=    65.00 Ry     beta= 0.70
     ParO style diagonalization
     ethr =  1.44E-06,  avg # of iterations =  6.1

     total cpu time spent up to now is      780.7 secs

     total energy              =    -694.11064005 Ry
     estimated scf accuracy    <       0.00013220 Ry

     iteration #  6     ecut=    65.00 Ry     beta= 0.70
     ParO style diagonalization
     ethr =  1.18E-07,  avg # of iterations =  6.0

     total cpu time spent up to now is      884.2 secs

     total energy              =    -694.11066562 Ry
     estimated scf accuracy    <       0.00000654 Ry

     iteration #  7     ecut=    65.00 Ry     beta= 0.70
     ParO style diagonalization
     ethr =  5.84E-09,  avg # of iterations =  6.7

     total cpu time spent up to now is     1001.0 secs

     total energy              =    -694.11066712 Ry
     estimated scf accuracy    <       0.00000184 Ry

     iteration #  8     ecut=    65.00 Ry     beta= 0.70
     ParO style diagonalization
     ethr =  1.64E-09,  avg # of iterations =  5.7

     total cpu time spent up to now is     1102.5 secs

     total energy              =    -694.11066745 Ry
     estimated scf accuracy    <       0.00000019 Ry

     iteration #  9     ecut=    65.00 Ry     beta= 0.70
     ParO style diagonalization
     ethr =  1.68E-10,  avg # of iterations =  5.5

     total cpu time spent up to now is     1200.7 secs

     total energy              =    -694.11066748 Ry
     estimated scf accuracy    <       0.00000001 Ry

     iteration # 10     ecut=    65.00 Ry     beta= 0.70
     ParO style diagonalization
     ethr =  8.95E-12,  avg # of iterations =  6.2

     total cpu time spent up to now is     1308.4 secs

     total energy              =    -694.11066748 Ry
     estimated scf accuracy    <          9.7E-10 Ry

     iteration # 11     ecut=    65.00 Ry     beta= 0.70
     ParO style diagonalization
     ethr =  8.68E-13,  avg # of iterations =  6.0

     total cpu time spent up to now is     1416.1 secs

     End of self-consistent calculation

          k = 0.0000 0.0000 0.0000 ( 19091 PWs)   bands (ev):

   -10.5250 -10.5192 -10.4708 -10.4693 -10.4688 -10.4478 -10.4358 -10.4355
   -10.4351 -10.4314 -10.4310 -10.4285 -10.4282 -10.4267 -10.4239 -10.4212
   -10.4164 -10.4146 -10.4116 -10.4102  -9.0022  -8.6040  -8.3270  -8.3155
    -8.1373  -8.0495  -7.9755  -7.8653  -1.9260  -1.6204  -1.3599  -0.4699
     2.1126   2.2203   2.2680   2.6004   2.7571   2.7594   3.1213   3.1631
     3.4068   3.4154   3.4348   3.6630   3.7208   3.9010   3.9142   3.9160
     3.9242   3.9270   3.9867   4.1832   4.2038   4.4792   4.6009   4.6829
     8.9865   9.1115   9.1263   9.4148   9.6424   9.6653   9.7893   9.8070
     9.8432  10.1791  10.6342  11.0469  12.7149  13.6703  14.0288  14.2698
    14.4289  14.7266  15.0865  15.2457  15.2640  15.7702  15.8709  15.9216
    16.0328  16.0406  16.1323  16.1566  16.5115  16.5266  16.7343  17.0025
    17.3708  17.7590  17.9839  18.2317  18.6944  18.7808  18.9635  19.0831
    19.1035  19.3164  19.8136  19.8151  19.9200  20.0470  20.1961  20.3260
    20.9832  21.0283  21.1023  21.1900  21.3900  21.6180  21.7982  21.8764

          k = 0.0000 0.0000 0.1240 ( 19070 PWs)   bands (ev):

   -10.5240 -10.5199 -10.4715 -10.4694 -10.4654 -10.4513 -10.4349 -10.4346
   -10.4342 -10.4320 -10.4315 -10.4291 -10.4277 -10.4250 -10.4245 -10.4205
   -10.4171 -10.4165 -10.4115 -10.4106  -8.9622  -8.6996  -8.3077  -8.2383
    -8.1689  -8.0874  -7.9383  -7.8737  -1.9058  -1.6835  -1.2154  -0.5915
     2.1283   2.1778   2.1972   2.6070   2.6933   2.8981   3.0068   3.2444
     3.4227   3.4254   3.5468   3.5776   3.5853   3.8170   3.9203   3.9684
     3.9716   3.9981   4.0793   4.2110   4.2502   4.4895   4.5138   4.7140
     8.9446   9.0944   9.2955   9.3825   9.4949   9.5206   9.5703   9.8438
    10.1238  10.3944  10.5056  10.9254  12.8864  13.5958  14.1149  14.1338
    14.5843  14.6375  14.9375  14.9654  15.1562  15.5605  15.7540  15.9279
    16.0755  16.2900  16.3367  16.4120  16.4557  16.8631  16.9538  17.0372
    17.4015  17.9388  18.2073  18.3733  18.4077  18.4498  18.7297  18.8095
    18.9215  19.3126  19.4570  19.7543  20.1690  20.1745  20.2834  20.3667
    20.6186  20.9365  21.1826  21.2386  21.5592  21.9907  22.1458  22.3211

          k = 0.0000 0.0000-0.2480 ( 19104 PWs)   bands (ev):

   -10.5217 -10.5217 -10.4707 -10.4707 -10.4584 -10.4584 -10.4333 -10.4333
   -10.4333 -10.4333 -10.4312 -10.4312 -10.4260 -10.4260 -10.4209 -10.4209
   -10.4187 -10.4187 -10.4112 -10.4112  -8.8508  -8.8508  -8.2435  -8.2435
    -8.1458  -8.1457  -7.8980  -7.8980  -1.8139  -1.8139  -0.8945  -0.8945
     2.1003   2.1003   2.3600   2.3600   2.8394   2.8394   3.1813   3.1813
     3.4354   3.4354   3.4809   3.4809   3.7006   3.7006   3.9520   3.9520
     4.0285   4.0285   4.1344   4.1344   4.4654   4.4654   4.5865   4.5865
     8.9602   8.9603   9.3521   9.3521   9.4665   9.4665   9.7076   9.7076
    10.4003  10.4003  10.5746  10.5746  13.3115  13.3115  14.1198  14.1198
    14.6321  14.6321  14.6966  14.6967  15.4237  15.4237  15.8581  15.8581
    16.1175  16.1175  16.1835  16.1835  17.1883  17.1883  17.3745  17.3745
    17.5344  17.5344  18.1250  18.1250  18.3093  18.3093  18.5494  18.5494
    19.2748  19.2748  19.7129  19.7130  19.8230  19.8230  20.4168  20.4168
    20.8702  20.8703  20.8984  20.8984  21.8019  21.8019  22.4097  22.4097

          k = 0.0000 0.0988 0.0000 ( 19073 PWs)   bands (ev):

   -10.5245 -10.5187 -10.4812 -10.4771 -10.4570 -10.4422 -10.4362 -10.4361
   -10.4344 -10.4320 -10.4317 -10.4279 -10.4270 -10.4251 -10.4249 -10.4205
   -10.4169 -10.4146 -10.4115 -10.4103  -8.9730  -8.5870  -8.4273  -8.3345
    -8.0718  -8.0554  -7.9736  -7.8602  -1.8876  -1.5485  -1.3973  -0.5529
     2.1601   2.2488   2.2693   2.6659   2.6673   2.7959   3.0705   3.1183
     3.1516   3.3854   3.5545   3.5863   3.6479   3.7377   3.9479   3.9733
     4.0023   4.0799   4.0868   4.2513   4.2709   4.5169   4.6196   4.6731
     9.0276   9.0521   9.0747   9.2961   9.5413   9.6825   9.7034   9.8167
     9.9569  10.2099  10.4353  10.9421  12.8522  13.7732  14.2480  14.5206
    14.5391  14.7936  14.9989  15.1963  15.3420  15.6332  15.7265  15.8376
    15.9769  16.0752  16.2788  16.2969  16.5128  16.8881  16.8896  17.0350
    17.1308  17.4596  17.5408  18.4638  18.5272  18.8298  18.9907  19.2347
    19.3904  19.4290  19.6315  19.7192  20.1838  20.3385  20.3910  20.3964
    20.4048  20.6173  20.8221  21.0038  21.7201  21.7300  21.7636  22.0189

          k = 0.0000 0.0988 0.1240 ( 19087 PWs)   bands (ev):

   -10.5234 -10.5193 -10.4805 -10.4776 -10.4551 -10.4450 -10.4357 -10.4341
   -10.4339 -10.4326 -10.4320 -10.4274 -10.4270 -10.4252 -10.4247 -10.4202
   -10.4175 -10.4165 -10.4115 -10.4106  -8.9338  -8.6784  -8.4043  -8.3063
    -8.1028  -8.0394  -7.9470  -7.8707  -1.8600  -1.6148  -1.2628  -0.6707
     2.1567   2.2205   2.2245   2.6480   2.6552   2.8742   2.9463   3.1568
     3.2596   3.3807   3.4790   3.5898   3.6637   3.8373   3.9167   3.9768
     4.0326   4.0599   4.1118   4.2518   4.3628   4.5108   4.5361   4.7119
     8.8567   9.0615   9.1679   9.3279   9.5395   9.5653   9.6466   9.7924
    10.0961  10.2639  10.4931  10.8251  12.9886  13.6873  14.0940  14.4843
    14.6772  14.8219  14.9846  15.0213  15.1692  15.5887  15.6730  15.8600
    16.0310  16.0857  16.2718  16.5265  16.6511  16.6925  17.0585  17.2085
    17.3301  17.6272  17.8739  18.1803  18.2750  18.6108  18.8897  19.0275
    19.1603  19.5645  19.7386  19.7814  20.0195  20.0286  20.3668  20.5069
    20.5231  20.7176  21.0932  21.4272  21.4417  21.9322  21.9640  22.0111

          k = 0.0000 0.0988-0.2480 ( 19096 PWs)   bands (ev):

   -10.5212 -10.5212 -10.4789 -10.4789 -10.4504 -10.4503 -10.4341 -10.4341
   -10.4329 -10.4329 -10.4303 -10.4303 -10.4262 -10.4262 -10.4208 -10.4208
   -10.4190 -10.4189 -10.4112 -10.4111  -8.8250  -8.8250  -8.3446  -8.3446
    -8.0704  -8.0704  -7.9014  -7.9014  -1.7550  -1.7550  -0.9604  -0.9604
     2.1325   2.1325   2.4043   2.4043   2.7651   2.7651   3.1748   3.1748
     3.2623   3.2623   3.4982   3.4982   3.8064   3.8064   3.9745   3.9745
     4.0094   4.0094   4.1922   4.1922   4.5031   4.5031   4.6015   4.6015
     8.8245   8.8246   9.4482   9.4482   9.5333   9.5333   9.5588   9.5588
    10.3898  10.3899  10.5009  10.5009  13.3710  13.3710  14.2108  14.2108
    14.7589  14.7589  14.8652  14.8652  15.4288  15.4288  15.8197  15.8197
    16.0721  16.0721  16.1533  16.1533  17.1333  17.1333  17.2249  17.2249
    17.7502  17.7502  17.8558  17.8558  18.3384  18.3384  18.4934  18.4934
    19.3128  19.3128  19.9932  19.9932  20.1529  20.1529  20.2505  20.2505
    20.9962  20.9962  21.0680  21.0680  21.5037  21.5037  22.1553  22.1553

          k = 0.0000 0.1976 0.0000 ( 19085 PWs)   bands (ev):

   -10.5225 -10.5180 -10.4891 -10.4878 -10.4463 -10.4378 -10.4364 -10.4359
   -10.4328 -10.4323 -10.4319 -10.4279 -10.4273 -10.4268 -10.4200 -10.4197
   -10.4180 -10.4149 -10.4113 -10.4105  -8.8884  -8.5984  -8.5332  -8.3894
    -8.0574  -8.0335  -7.9357  -7.8600  -1.7832  -1.5009  -1.3477  -0.7746
     2.2484   2.2992   2.3919   2.5076   2.7576   2.7982   2.9137   2.9825
     3.1175   3.2700   3.3961   3.3973   3.6519   3.6996   4.0653   4.0677
     4.1111   4.1776   4.1911   4.3343   4.4437   4.5891   4.6582   4.6617
     8.8539   8.8972   9.1000   9.2299   9.3170   9.7251   9.7721   9.9682
     9.9844  10.0996  10.2025  10.6635  13.1087  13.7315  14.6289  14.9223
    14.9436  14.9894  15.0922  15.2918  15.3671  15.4828  15.5719  15.6989
    16.0719  16.1204  16.3677  16.4490  16.6774  16.8632  16.8939  17.0841
    17.2322  17.3422  17.4139  17.7569  18.5098  18.8089  18.8296  18.9890
    19.4411  19.4762  19.4835  19.7346  19.9787  20.2445  20.4645  20.7142
    20.7366  21.0781  21.1536  21.1610  21.5373  21.6097  21.7603  21.9597

          k = 0.0000 0.1976 0.1240 ( 19079 PWs)   bands (ev):

   -10.5217 -10.5185 -10.4888 -10.4880 -10.4449 -10.4382 -10.4372 -10.4339
   -10.4325 -10.4325 -10.4317 -10.4273 -10.4267 -10.4265 -10.4221 -10.4197
   -10.4184 -10.4167 -10.4113 -10.4107  -8.8516  -8.6195  -8.5638  -8.4127
    -8.0474  -7.9792  -7.9489  -7.8732  -1.7349  -1.4256  -1.3900  -0.8813
     2.2147   2.3251   2.3611   2.4975   2.7306   2.7646   2.8552   3.0120
     3.1740   3.2823   3.3499   3.4876   3.7254   3.8248   4.0391   4.0726
     4.1162   4.1411   4.1444   4.2998   4.5135   4.5515   4.6101   4.7151
     8.7490   8.8561   8.9811   9.2743   9.4960   9.6627   9.8410   9.9114
    10.0284  10.0427  10.3455  10.5587  13.2622  13.8180  14.3069  14.8164
    14.9079  15.0187  15.0493  15.1438  15.3937  15.5087  15.5617  15.7919
    15.9199  16.1410  16.2554  16.6349  16.7478  16.7630  17.0855  17.2048
    17.2708  17.3596  17.5386  17.7279  18.4919  18.7319  18.9342  19.1405
    19.1964  19.5580  19.6966  19.7125  20.0428  20.1009  20.4179  20.7536
    20.7666  20.8905  21.1506  21.2331  21.2462  21.4818  21.8175  22.0392

          k = 0.0000 0.1976-0.2480 ( 19076 PWs)   bands (ev):

   -10.5199 -10.5198 -10.4884 -10.4883 -10.4416 -10.4416 -10.4354 -10.4354
   -10.4318 -10.4318 -10.4281 -10.4281 -10.4269 -10.4269 -10.4212 -10.4212
   -10.4193 -10.4193 -10.4112 -10.4111  -8.7504  -8.7504  -8.4919  -8.4919
    -7.9926  -7.9925  -7.9133  -7.9133  -1.5928  -1.5928  -1.1359  -1.1359
     2.2251   2.2251   2.5335   2.5336   2.5796   2.5796   2.9919   2.9920
     3.2167   3.2167   3.4823   3.4823   3.8760   3.8760   4.0448   4.0448
     4.0550   4.0550   4.2170   4.2170   4.5701   4.5701   4.6518   4.6518
     8.6921   8.6921   9.1283   9.1283   9.7186   9.7186   9.7532   9.7532
    10.2437  10.2437  10.2998  10.2998  13.6487  13.6487  14.4113  14.4113
    14.8702  14.8702  14.9588  14.9588  15.5336  15.5336  15.7716  15.7716
    15.8360  15.8360  16.5217  16.5217  17.0567  17.0567  17.0943  17.0943
    17.4578  17.4578  17.6012  17.6012  18.4725  18.4725  19.0066  19.0066
    19.2949  19.2949  19.8021  19.8021  19.9708  19.9708  20.6842  20.6842
    21.0604  21.0604  21.1940  21.1940  21.5325  21.5325  21.8193  21.8193

          k = 0.0000-0.2964 0.0000 ( 19114 PWs)   bands (ev):

   -10.5195 -10.5195 -10.4922 -10.4922 -10.4406 -10.4406 -10.4349 -10.4349
   -10.4319 -10.4318 -10.4303 -10.4303 -10.4274 -10.4274 -10.4190 -10.4190
   -10.4164 -10.4164 -10.4109 -10.4109  -8.7575  -8.7575  -8.4644  -8.4644
    -8.0455  -8.0455  -7.8839  -7.8839  -1.6415  -1.6415  -1.0667  -1.0667
     2.3184   2.3184   2.5189   2.5189   2.6341   2.6341   3.0432   3.0432
     3.0817   3.0817   3.3214   3.3214   3.6691   3.6691   4.1071   4.1071
     4.1686   4.1686   4.3216   4.3216   4.5685   4.5685   4.6781   4.6781
     8.7832   8.7832   9.0677   9.0677   9.6390   9.6390   9.7659   9.7660
    10.1278  10.1278  10.3064  10.3064  13.4187  13.4187  14.9342  14.9342
    15.0709  15.0709  15.3128  15.3128  15.4277  15.4277  15.8301  15.8301
    16.0245  16.0245  16.2655  16.2655  16.9866  16.9867  17.1900  17.1900
    17.2275  17.2275  17.3195  17.3195  18.2679  18.2679  18.8688  18.8688
    19.2573  19.2573  19.6268  19.6268  20.5333  20.5333  20.6923  20.6924
    20.9388  20.9388  21.2860  21.2860  21.3876  21.3876  21.9851  21.9851

          k = 0.0000-0.2964 0.1240 ( 19076 PWs)   bands (ev):

   -10.5193 -10.5193 -10.4922 -10.4922 -10.4397 -10.4397 -10.4350 -10.4350
   -10.4315 -10.4315 -10.4292 -10.4292 -10.4275 -10.4274 -10.4192 -10.4192
   -10.4185 -10.4185 -10.4111 -10.4110  -8.7245  -8.7245  -8.5226  -8.5226
    -8.0066  -8.0066  -7.8977  -7.8977  -1.5637  -1.5637  -1.1579  -1.1579
     2.3175   2.3175   2.5234   2.5234   2.5762   2.5762   2.9523   2.9523
     3.1692   3.1692   3.3785   3.3785   3.7771   3.7771   4.1165   4.1165
     4.1363   4.1364   4.2583   4.2583   4.5678   4.5678   4.6937   4.6937
     8.7236   8.7236   9.0163   9.0163   9.7409   9.7409   9.8202   9.8203
    10.1363  10.1363  10.2205  10.2205  13.6043  13.6043  14.7342  14.7342
    15.0545  15.0545  15.0847  15.0847  15.4749  15.4749  15.6038  15.6038
    16.0760  16.0760  16.6169  16.6169  16.9096  16.9096  17.0507  17.0507
    17.2009  17.2009  17.5217  17.5217  18.4639  18.4639  18.9669  18.9669
    19.5769  19.5769  19.6239  19.6239  20.1886  20.1887  20.2915  20.2915
    20.8156  20.8156  21.4252  21.4252  21.5732  21.5732  22.1020  22.1020

          k = 0.0000-0.2964-0.2480 ( 19020 PWs)   bands (ev):

   -10.5190 -10.5190 -10.4922 -10.4922 -10.4379 -10.4379 -10.4367 -10.4367
   -10.4311 -10.4311 -10.4276 -10.4275 -10.4253 -10.4253 -10.4227 -10.4227
   -10.4194 -10.4194 -10.4112 -10.4112  -8.6466  -8.6466  -8.6220  -8.6220
    -7.9504  -7.9504  -7.9325  -7.9325  -1.3706  -1.3705  -1.3645  -1.3645
     2.3515   2.3516   2.4066   2.4066   2.7216   2.7217   2.7518   2.7518
     3.2684   3.2684   3.4418   3.4418   3.8890   3.8890   4.0832   4.0832
     4.1408   4.1408   4.1613   4.1613   4.6198   4.6198   4.6679   4.6679
     8.6851   8.6851   8.9307   8.9308   9.9157   9.9157   9.9802   9.9802
    10.0199  10.0199  10.0940  10.0940  13.9074  13.9074  14.4451  14.4451
    14.8192  14.8192  15.1999  15.1999  15.3227  15.3227  15.4734  15.4734
    16.1099  16.1099  16.7967  16.7967  17.1046  17.1046  17.1547  17.1547
    17.2253  17.2253  17.4117  17.4117  18.7131  18.7132  18.8369  18.8369
    19.4715  19.4715  19.8278  19.8278  19.8475  19.8475  20.2260  20.2260
    21.0699  21.0699  21.4767  21.4767  21.7407  21.7407  22.1168  22.1168

          k = 0.1000 0.0000 0.0000 ( 19086 PWs)   bands (ev):

   -10.5216 -10.5150 -10.4767 -10.4727 -10.4717 -10.4557 -10.4375 -10.4354
   -10.4344 -10.4313 -10.4301 -10.4298 -10.4270 -10.4257 -10.4251 -10.4213
   -10.4176 -10.4142 -10.4127 -10.4113  -8.9717  -8.5834  -8.3068  -8.2957
    -8.1327  -8.0422  -7.9777  -7.8860  -1.9431  -1.6378  -1.3778  -0.5493
     2.1580   2.2141   2.2332   2.3555   2.6174   2.7798   2.9518   3.0632
     3.3549   3.4299   3.5524   3.6458   3.6945   3.8601   3.9197   3.9450
     4.0048   4.1020   4.1233   4.1987   4.2226   4.5519   4.6139   4.6264
     9.0031   9.0546   9.2192   9.5089   9.5297   9.8121   9.8341   9.8384
     9.9403  10.3145  10.5404  10.9214  12.8104  13.7847  14.0170  14.4563
    14.5441  14.6075  14.7743  15.3463  15.3931  15.4244  15.6701  15.7617
    15.9418  16.1251  16.2860  16.4521  16.6910  16.7123  17.0636  17.0800
    17.1540  17.9043  17.9858  18.0445  18.5036  19.0213  19.0510  19.2247
    19.2722  19.3211  19.6186  19.8381  19.9245  20.3139  20.3666  20.6693
    20.9323  20.9894  21.1644  21.2972  21.4681  21.5371  21.7384  22.1468

          k = 0.1000 0.0000 0.1240 ( 19097 PWs)   bands (ev):

   -10.5205 -10.5158 -10.4764 -10.4726 -10.4703 -10.4587 -10.4362 -10.4354
   -10.4337 -10.4317 -10.4303 -10.4303 -10.4270 -10.4253 -10.4238 -10.4207
   -10.4181 -10.4159 -10.4126 -10.4116  -8.9324  -8.6757  -8.2884  -8.2229
    -8.1604  -8.0790  -7.9449  -7.8926  -1.9191  -1.6982  -1.2449  -0.6637
     2.1279   2.1290   2.2725   2.4181   2.6503   2.7642   2.9044   3.0535
     3.3075   3.3496   3.4961   3.6875   3.8124   3.8610   3.9456   3.9648
     4.0830   4.0959   4.1779   4.1899   4.2358   4.5235   4.5673   4.6822
     8.9616   8.9889   9.3539   9.4313   9.5169   9.5934   9.8923   9.9126
    10.0618  10.3640  10.4723  10.8341  12.9784  13.6770  14.1024  14.1288
    14.6622  14.7044  14.8971  14.9355  14.9949  15.5878  15.6011  15.9489
    16.1759  16.2750  16.3296  16.4676  16.7852  16.8432  17.1259  17.1393
    17.3660  17.6776  18.1090  18.1408  18.4081  18.4548  18.8068  19.2439
    19.3268  19.4165  19.6968  19.9918  20.0416  20.1134  20.2462  20.5619
    20.7181  20.8719  21.1098  21.3020  21.6683  21.7998  22.0757  22.4033

          k = 0.1000 0.0000-0.2480 ( 19130 PWs)   bands (ev):

   -10.5180 -10.5179 -10.4747 -10.4747 -10.4648 -10.4648 -10.4352 -10.4352
   -10.4323 -10.4323 -10.4311 -10.4310 -10.4261 -10.4260 -10.4199 -10.4198
   -10.4193 -10.4193 -10.4122 -10.4122  -8.8232  -8.8232  -8.2283  -8.2283
    -8.1351  -8.1351  -7.9116  -7.9116  -1.8252  -1.8252  -0.9468  -0.9468
     2.0832   2.0832   2.3857   2.3857   2.7004   2.7004   2.9900   2.9900
     3.2146   3.2146   3.6609   3.6609   3.8325   3.8325   3.9981   3.9981
     4.0451   4.0451   4.2148   4.2148   4.4862   4.4862   4.5798   4.5799
     8.9025   8.9025   9.4015   9.4015   9.6545   9.6545   9.8088   9.8088
    10.2406  10.2406  10.6084  10.6084  13.3899  13.3899  14.1354  14.1354
    14.4921  14.4921  14.7306  14.7306  15.6036  15.6036  15.6926  15.6926
    16.1023  16.1023  16.4866  16.4866  17.1447  17.1447  17.3005  17.3005
    17.4299  17.4299  17.9700  17.9700  18.4987  18.4987  19.0061  19.0061
    19.1003  19.1003  19.6890  19.6890  20.0554  20.0555  20.5831  20.5831
    20.7814  20.7814  21.2481  21.2481  21.8160  21.8160  22.1242  22.1242

          k = 0.1000 0.0988 0.0000 ( 19088 PWs)   bands (ev):

   -10.5211 -10.5146 -10.4846 -10.4804 -10.4617 -10.4491 -10.4385 -10.4356
   -10.4335 -10.4321 -10.4319 -10.4290 -10.4270 -10.4259 -10.4236 -10.4210
   -10.4181 -10.4144 -10.4127 -10.4114  -8.9428  -8.5662  -8.4062  -8.3146
    -8.0695  -8.0501  -7.9749  -7.8782  -1.9061  -1.5689  -1.4172  -0.6271
     2.1737   2.2244   2.2787   2.4190   2.5934   2.6880   2.9740   2.9741
     3.3207   3.3503   3.5443   3.6927   3.7387   3.8030   3.9129   3.9397
     4.0580   4.0901   4.1807   4.2147   4.3349   4.5630   4.6055   4.6365
     8.9708   9.1419   9.1716   9.3292   9.3642   9.7963   9.8498   9.8964
    10.0024  10.3530  10.3792  10.8503  12.9557  13.8876  14.1770  14.5077
    14.6871  14.7720  14.7946  15.1168  15.4203  15.5178  15.6566  15.7113
    15.8696  16.1920  16.4991  16.5004  16.5163  16.7407  17.0036  17.1316
    17.2748  17.5213  17.9747  18.4889  18.5354  18.7712  18.9237  19.0061
    19.2894  19.4464  19.8568  20.0705  20.2408  20.2905  20.3084  20.3384
    20.6908  20.7717  21.0524  21.1430  21.4872  21.6548  21.9316  22.0243

          k = 0.1000 0.0988 0.1240 ( 19106 PWs)   bands (ev):

   -10.5200 -10.5154 -10.4839 -10.4809 -10.4603 -10.4515 -10.4371 -10.4355
   -10.4333 -10.4322 -10.4318 -10.4297 -10.4269 -10.4250 -10.4232 -10.4206
   -10.4184 -10.4159 -10.4126 -10.4117  -8.9043  -8.6547  -8.3839  -8.2891
    -8.0958  -8.0344  -7.9533  -7.8873  -1.8752  -1.6325  -1.2927  -0.7381
     2.1329   2.1594   2.2985   2.4465   2.5970   2.7623   2.8889   3.0124
     3.2918   3.3287   3.5533   3.6904   3.7136   3.8449   3.9221   3.9855
     4.0363   4.1402   4.1807   4.2326   4.3769   4.5404   4.5676   4.6837
     8.9277   8.9945   9.1804   9.4040   9.5383   9.6362   9.7885   9.9469
    10.0805  10.2849  10.4768  10.7483  13.0774  13.7631  14.0957  14.4434
    14.6633  14.8355  14.8794  14.9427  15.1717  15.4919  15.7365  15.8636
    16.0186  16.2646  16.3918  16.5151  16.6465  16.8044  17.0817  17.2973
    17.3153  17.7843  17.9507  18.1973  18.2440  18.5989  18.7551  19.3083
    19.4218  19.5399  19.7483  19.9857  20.0108  20.2565  20.2805  20.3205
    20.5376  20.9368  21.0857  21.4511  21.6406  21.7205  22.0253  22.1261

          k = 0.1000 0.0988-0.2480 ( 19104 PWs)   bands (ev):

   -10.5175 -10.5175 -10.4824 -10.4824 -10.4563 -10.4563 -10.4356 -10.4356
   -10.4327 -10.4327 -10.4313 -10.4313 -10.4257 -10.4257 -10.4204 -10.4204
   -10.4188 -10.4188 -10.4123 -10.4123  -8.7977  -8.7977  -8.3266  -8.3266
    -8.0633  -8.0633  -7.9138  -7.9138  -1.7689  -1.7689  -1.0101  -1.0101
     2.0976   2.0976   2.3952   2.3952   2.6814   2.6814   2.9767   2.9767
     3.2578   3.2578   3.6208   3.6209   3.7868   3.7868   3.9736   3.9736
     4.0919   4.0919   4.2429   4.2429   4.4932   4.4932   4.6144   4.6144
     8.8523   8.8523   9.4240   9.4240   9.5833   9.5833   9.7670   9.7670
    10.3098  10.3098  10.5093  10.5093  13.4374  13.4374  14.2161  14.2161
    14.6497  14.6497  14.8298  14.8298  15.4983  15.4983  15.7730  15.7731
    16.0628  16.0628  16.4993  16.4993  17.0456  17.0456  17.2629  17.2629
    17.4636  17.4636  18.0047  18.0047  18.3992  18.3992  18.9571  18.9571
    19.1911  19.1911  19.8983  19.8983  20.0624  20.0624  20.5699  20.5699
    21.0198  21.0198  21.1391  21.1391  21.6384  21.6384  21.9303  21.9303

          k = 0.1000 0.1976 0.0000 ( 19071 PWs)   bands (ev):

   -10.5192 -10.5142 -10.4913 -10.4902 -10.4497 -10.4416 -10.4393 -10.4366
   -10.4335 -10.4328 -10.4323 -10.4304 -10.4278 -10.4265 -10.4208 -10.4196
   -10.4193 -10.4149 -10.4127 -10.4117  -8.8590  -8.5722  -8.5143  -8.3695
    -8.0548  -8.0342  -7.9380  -7.8730  -1.8047  -1.5237  -1.3776  -0.8353
     2.2322   2.2461   2.3809   2.5209   2.5495   2.5851   2.8742   2.9485
     3.1722   3.2446   3.5056   3.5186   3.8139   3.9082   3.9688   3.9952
     4.1104   4.1151   4.2575   4.2906   4.4471   4.5573   4.6034   4.6548
     8.9156   9.0475   9.0652   9.1114   9.3623   9.7883   9.8159   9.9927
    10.0267  10.1505  10.4306  10.6479  13.2254  13.8223  14.4419  14.8093
    14.8738  14.9229  14.9652  15.2785  15.3474  15.3899  15.6725  15.7194
    16.1423  16.3111  16.3712  16.5126  16.6139  16.6483  17.0493  17.2909
    17.3861  17.5484  17.7345  17.8450  18.5453  18.7778  18.8846  18.9895
    19.4310  19.5363  19.6713  19.7238  20.0874  20.2011  20.4185  20.4981
    20.6235  21.0549  21.0871  21.2290  21.5896  21.6871  21.7635  22.1589

          k = 0.1000 0.1976 0.1240 ( 19086 PWs)   bands (ev):

   -10.5183 -10.5147 -10.4911 -10.4903 -10.4484 -10.4427 -10.4380 -10.4362
   -10.4335 -10.4331 -10.4326 -10.4309 -10.4271 -10.4254 -10.4219 -10.4206
   -10.4184 -10.4161 -10.4126 -10.4119  -8.8229  -8.5952  -8.5412  -8.3931
    -8.0447  -7.9824  -7.9510  -7.8850  -1.7551  -1.4513  -1.4200  -0.9364
     2.1680   2.2189   2.3503   2.4019   2.5749   2.7964   2.8197   3.0544
     3.2073   3.2307   3.4984   3.5381   3.8021   3.8950   3.9364   4.0307
     4.0420   4.1341   4.2318   4.2894   4.4981   4.5522   4.6027   4.6886
     8.8666   8.8888   9.0570   9.2482   9.5157   9.7643   9.7984   9.9359
    10.0579  10.1922  10.3969  10.5597  13.3447  13.8966  14.2690  14.7052
    14.7498  14.8588  14.9608  15.0209  15.4714  15.4942  15.6992  15.9286
    15.9941  16.2648  16.3782  16.5648  16.7199  16.8297  16.9065  17.2837
    17.4102  17.5900  17.8784  17.9134  18.4942  18.6656  18.9997  19.0748
    19.3736  19.5792  19.6454  19.8315  19.9896  20.1205  20.2676  20.6058
    20.7783  20.9753  21.1104  21.2762  21.3734  21.6760  21.8371  22.1997

          k = 0.1000 0.1976-0.2480 ( 19086 PWs)   bands (ev):

   -10.5163 -10.5163 -10.4907 -10.4907 -10.4455 -10.4455 -10.4363 -10.4363
   -10.4337 -10.4337 -10.4321 -10.4321 -10.4253 -10.4253 -10.4218 -10.4218
   -10.4180 -10.4180 -10.4123 -10.4123  -8.7239  -8.7238  -8.4704  -8.4704
    -7.9916  -7.9916  -7.9220  -7.9220  -1.6141  -1.6141  -1.1781  -1.1781
     2.1404   2.1404   2.3555   2.3555   2.7143   2.7143   2.9563   2.9563
     3.3116   3.3116   3.4805   3.4805   3.8034   3.8034   3.9966   3.9966
     4.1171   4.1171   4.2335   4.2335   4.5407   4.5407   4.6623   4.6623
     8.7930   8.7930   9.2192   9.2193   9.6164   9.6164   9.9118   9.9118
    10.2399  10.2399  10.3205  10.3205  13.6936  13.6936  14.4096  14.4096
    14.6421  14.6421  14.9298  14.9298  15.5210  15.5210  15.8772  15.8772
    16.1643  16.1643  16.4595  16.4595  16.9509  16.9509  17.1130  17.1130
    17.4311  17.4312  18.0126  18.0126  18.4464  18.4464  19.2176  19.2176
    19.3553  19.3554  19.6889  19.6889  19.8650  19.8650  20.5888  20.5888
    20.9993  20.9993  21.3555  21.3555  21.5874  21.5874  21.8805  21.8805

          k = 0.1000-0.2964 0.0000 ( 19088 PWs)   bands (ev):

   -10.5160 -10.5160 -10.4940 -10.4939 -10.4404 -10.4404 -10.4393 -10.4393
   -10.4328 -10.4328 -10.4326 -10.4326 -10.4274 -10.4274 -10.4203 -10.4203
   -10.4164 -10.4164 -10.4123 -10.4123  -8.7297  -8.7296  -8.4446  -8.4446
    -8.0449  -8.0449  -7.8915  -7.8915  -1.6653  -1.6653  -1.1108  -1.1108
     2.2991   2.2991   2.3697   2.3697   2.7235   2.7235   2.7781   2.7781
     3.1689   3.1689   3.4417   3.4417   3.8610   3.8610   4.0804   4.0805
     4.1361   4.1361   4.2863   4.2863   4.5153   4.5153   4.6389   4.6389
     8.9044   8.9044   9.0098   9.0098   9.6396   9.6396   9.8007   9.8007
    10.2056  10.2056  10.4424  10.4424  13.5178  13.5178  14.7041  14.7042
    14.9553  14.9553  15.2453  15.2453  15.4575  15.4575  15.8345  15.8345
    16.1150  16.1150  16.3660  16.3660  16.8579  16.8579  17.2841  17.2842
    17.3962  17.3962  17.7067  17.7067  18.2990  18.2990  18.8870  18.8870
    19.2349  19.2349  19.8964  19.8964  20.2412  20.2412  20.5714  20.5714
    20.7774  20.7774  21.4370  21.4370  21.6022  21.6022  21.8861  21.8861

          k = 0.1000-0.2964 0.1240 ( 19074 PWs)   bands (ev):

   -10.5158 -10.5158 -10.4940 -10.4940 -10.4394 -10.4394 -10.4386 -10.4386
   -10.4341 -10.4341 -10.4325 -10.4325 -10.4265 -10.4265 -10.4212 -10.4212
   -10.4171 -10.4171 -10.4123 -10.4123  -8.6974  -8.6973  -8.5013  -8.5013
    -8.0080  -8.0080  -7.9042  -7.9042  -1.5895  -1.5895  -1.1978  -1.1978
     2.2463   2.2464   2.3187   2.3187   2.6875   2.6875   2.9831   2.9831
     3.1590   3.1590   3.4521   3.4521   3.8579   3.8579   4.0559   4.0559
     4.1101   4.1101   4.2446   4.2446   4.5450   4.5450   4.6647   4.6647
     8.8302   8.8303   9.0598   9.0598   9.7299   9.7299   9.8389   9.8389
    10.1108  10.1108  10.3959  10.3959  13.6772  13.6772  14.6193  14.6193
    14.7770  14.7770  15.1431  15.1431  15.4054  15.4054  15.8617  15.8617
    16.1182  16.1182  16.4930  16.4930  16.9443  16.9444  17.1993  17.1993
    17.4489  17.4490  17.6971  17.6971  18.5082  18.5083  19.0628  19.0628
    19.3433  19.3433  19.6401  19.6401  20.2132  20.2132  20.3797  20.3797
    20.9967  20.9967  21.1426  21.1426  21.7928  21.7928  21.9408  21.9408

          k = 0.1000-0.2964-0.2480 ( 19024 PWs)   bands (ev):

   -10.5156 -10.5156 -10.4941 -10.4941 -10.4377 -10.4377 -10.4373 -10.4372
   -10.4365 -10.4365 -10.4327 -10.4327 -10.4245 -10.4245 -10.4232 -10.4232
   -10.4177 -10.4177 -10.4123 -10.4123  -8.6185  -8.6185  -8.6011  -8.6010
    -7.9570  -7.9570  -7.9345  -7.9344  -1.3998  -1.3997  -1.3988  -1.3987
     2.1996   2.1996   2.2714   2.2714   2.8384   2.8384   2.8703   2.8704
     3.3602   3.3603   3.3782   3.3782   3.8127   3.8127   4.0805   4.0805
     4.1381   4.1382   4.1477   4.1477   4.5774   4.5774   4.6765   4.6765
     8.8006   8.8006   9.0499   9.0499   9.8181   9.8181   9.9471   9.9471
    10.0429  10.0429  10.2706  10.2706  13.9514  13.9514  14.3522  14.3523
    14.7234  14.7234  14.9198  14.9198  15.4055  15.4055  15.9108  15.9108
    16.2687  16.2687  16.4506  16.4506  17.1229  17.1229  17.1441  17.1441
    17.3597  17.3597  17.8467  17.8467  18.7056  18.7056  18.9141  18.9141
    19.5556  19.5556  19.6044  19.6044  19.8040  19.8040  20.4968  20.4968
    20.9650  20.9650  21.4344  21.4345  21.7037  21.7037  21.8495  21.8495

          k = 0.2000 0.0000 0.0000 ( 19082 PWs)   bands (ev):

   -10.5130 -10.5038 -10.4915 -10.4845 -10.4837 -10.4743 -10.4439 -10.4372
   -10.4330 -10.4304 -10.4284 -10.4278 -10.4262 -10.4238 -10.4233 -10.4213
   -10.4192 -10.4151 -10.4140 -10.4134  -8.8833  -8.5254  -8.2521  -8.2423
    -8.1264  -8.0250  -7.9838  -7.9494  -1.9727  -1.6821  -1.4338  -0.7704
     2.0680   2.1425   2.1587   2.2736   2.3862   2.4384   2.7767   3.0083
     3.3683   3.3721   3.6118   3.6144   3.7344   3.7790   3.9829   4.0406
     4.0729   4.1014   4.2615   4.3280   4.4388   4.4748   4.6830   4.6929
     8.9560   9.2552   9.3200   9.4993   9.6916   9.7504  10.0490  10.0963
    10.2135  10.2997  10.5944  10.6533  13.1218  14.0381  14.0487  14.4228
    14.4906  14.5300  14.9235  15.1638  15.1660  15.2266  15.5208  15.7853
    16.0598  16.2316  16.4386  16.5393  16.7635  17.0922  17.3409  17.4820
    17.6681  17.7234  17.9174  18.0978  18.6080  18.9984  19.0444  19.3004
    19.3402  19.5510  19.6672  20.1231  20.3312  20.5517  20.8359  20.9443
    20.9623  21.0716  21.1114  21.3308  21.7056  21.7118  21.9446  22.0984

          k = 0.2000 0.0000 0.1240 ( 19125 PWs)   bands (ev):

   -10.5114 -10.5050 -10.4909 -10.4852 -10.4834 -10.4765 -10.4427 -10.4385
   -10.4319 -10.4299 -10.4288 -10.4280 -10.4258 -10.4242 -10.4214 -10.4209
   -10.4196 -10.4152 -10.4148 -10.4134  -8.8462  -8.6079  -8.2365  -8.1821
    -8.1425  -8.0589  -7.9639  -7.9502  -1.9426  -1.7344  -1.3293  -0.8621
     2.0968   2.1188   2.1756   2.3223   2.3765   2.4117   2.7442   2.9446
     3.1496   3.3303   3.5652   3.7877   3.8396   3.9189   3.9336   3.9980
     4.0880   4.1664   4.2269   4.3491   4.4589   4.5411   4.6570   4.6814
     8.9001   9.0329   9.4963   9.5980   9.7069   9.8075  10.0189  10.1082
    10.1414  10.3841  10.4972  10.5745  13.2790  13.8388  14.1042  14.1890
    14.5922  14.6051  14.6931  14.8462  15.3183  15.3790  15.7058  15.8144
    16.2354  16.3398  16.4402  16.5675  16.7821  17.2068  17.3881  17.4328
    17.5470  17.6034  17.8359  18.0269  18.6997  18.8250  19.0018  19.3670
    19.5335  19.6397  19.8745  19.9755  20.1979  20.4350  20.4723  20.9527
    20.9569  21.0570  21.1947  21.4524  21.5645  21.7319  21.9703  22.3152

          k = 0.2000 0.0000-0.2480 ( 19134 PWs)   bands (ev):

   -10.5080 -10.5080 -10.4885 -10.4885 -10.4805 -10.4804 -10.4406 -10.4406
   -10.4302 -10.4302 -10.4288 -10.4288 -10.4248 -10.4248 -10.4203 -10.4203
   -10.4180 -10.4180 -10.4140 -10.4140  -8.7440  -8.7439  -8.1894  -8.1894
    -8.1086  -8.1086  -7.9524  -7.9524  -1.8488  -1.8488  -1.0902  -1.0902
     2.0912   2.0912   2.2903   2.2903   2.4317   2.4317   2.7078   2.7078
     3.1800   3.1800   3.7009   3.7009   3.9110   3.9110   4.0402   4.0402
     4.1590   4.1590   4.2931   4.2931   4.5142   4.5142   4.6580   4.6580
     8.8918   8.8918   9.5588   9.5588   9.9088   9.9088  10.0487  10.0487
    10.1690  10.1690  10.4972  10.4972  13.6237  13.6238  14.1716  14.1717
    14.2823  14.2823  14.7875  14.7875  15.4407  15.4407  16.0144  16.0144
    16.1719  16.1719  16.6660  16.6660  16.9029  16.9029  17.3428  17.3428
    17.5729  17.5729  17.9303  17.9303  18.8518  18.8518  19.1927  19.1927
    19.5485  19.5485  19.6524  19.6524  20.3519  20.3519  20.8038  20.8038
    20.9970  20.9970  21.3531  21.3531  21.7115  21.7115  22.2127  22.2127

          k = 0.2000 0.0988 0.0000 ( 19122 PWs)   bands (ev):

   -10.5124 -10.5038 -10.4956 -10.4909 -10.4767 -10.4678 -10.4442 -10.4368
   -10.4330 -10.4320 -10.4294 -10.4286 -10.4260 -10.4234 -10.4225 -10.4212
   -10.4196 -10.4155 -10.4142 -10.4136  -8.8554  -8.5084  -8.3489  -8.2609
    -8.0680  -8.0418  -7.9791  -7.9305  -1.9406  -1.6228  -1.4760  -0.8348
     2.0727   2.1901   2.1997   2.2488   2.3810   2.4844   2.7409   3.0221
     3.3515   3.3911   3.4680   3.5167   3.8884   3.9101   3.9586   4.0119
     4.1145   4.1352   4.2148   4.3273   4.4417   4.4676   4.6207   4.6813
     8.9938   9.0386   9.3244   9.4769   9.5407   9.9685   9.9757  10.1157
    10.2066  10.2508  10.6094  10.6715  13.2586  14.1213  14.1536  14.4313
    14.4850  14.6782  14.8895  15.1377  15.1725  15.2243  15.4844  15.8620
    16.1288  16.2058  16.3634  16.6383  16.8799  17.0611  17.1656  17.4124
    17.5999  17.8890  18.0715  18.3118  18.6078  18.8195  19.0717  19.1955
    19.5551  19.5827  19.9418  19.9624  20.2130  20.2681  20.6466  20.7653
    20.7783  20.9875  21.0980  21.1962  21.6441  21.8011  21.9296  22.2009

          k = 0.2000 0.0988 0.1240 ( 19104 PWs)   bands (ev):

   -10.5110 -10.5049 -10.4952 -10.4918 -10.4760 -10.4698 -10.4430 -10.4381
   -10.4324 -10.4316 -10.4293 -10.4288 -10.4256 -10.4238 -10.4215 -10.4209
   -10.4194 -10.4154 -10.4149 -10.4135  -8.8192  -8.5877  -8.3289  -8.2434
    -8.0805  -8.0252  -7.9736  -7.9352  -1.9051  -1.6780  -1.3764  -0.9246
     2.0383   2.1451   2.2062   2.2826   2.3966   2.5532   2.7201   2.9609
     3.1675   3.3348   3.5920   3.6555   3.8093   3.9567   3.9827   4.0301
     4.0666   4.1643   4.2050   4.3326   4.4609   4.5511   4.5979   4.6884
     8.8674   9.0945   9.3213   9.5796   9.7001   9.8077   9.9740  10.0723
    10.2202  10.3482  10.5335  10.5532  13.3527  13.9023  14.1579  14.3986
    14.5733  14.6100  14.7465  14.8826  15.2965  15.3786  15.6230  15.9109
    16.2545  16.3250  16.4640  16.6088  16.8417  17.1684  17.2357  17.3834
    17.4999  17.8971  18.0219  18.1149  18.4680  18.9242  19.0507  19.2318
    19.5825  19.6347  19.9668  20.0118  20.0680  20.2653  20.3965  20.5587
    20.8685  21.0224  21.2809  21.5076  21.6237  21.7801  22.0728  22.1357

          k = 0.2000 0.0988-0.2480 ( 19108 PWs)   bands (ev):

   -10.5079 -10.5078 -10.4938 -10.4938 -10.4734 -10.4734 -10.4406 -10.4406
   -10.4316 -10.4316 -10.4291 -10.4291 -10.4246 -10.4246 -10.4207 -10.4207
   -10.4176 -10.4176 -10.4141 -10.4141  -8.7195  -8.7195  -8.2790  -8.2790
    -8.0471  -8.0471  -7.9516  -7.9516  -1.8008  -1.8008  -1.1463  -1.1463
     2.0419   2.0419   2.2695   2.2695   2.5435   2.5435   2.7724   2.7724
     3.1543   3.1543   3.7262   3.7262   3.8607   3.8607   4.0116   4.0116
     4.1587   4.1587   4.3029   4.3029   4.4542   4.4542   4.6826   4.6826
     8.9170   8.9170   9.5411   9.5411   9.7681   9.7681  10.0349  10.0349
    10.2877  10.2877  10.4345  10.4345  13.6361  13.6361  14.2404  14.2404
    14.4389  14.4390  14.7991  14.7991  15.4174  15.4174  15.9251  15.9251
    16.2242  16.2242  16.7339  16.7339  17.1262  17.1262  17.2622  17.2622
    17.4625  17.4625  18.1066  18.1066  18.6266  18.6267  19.0590  19.0590
    19.6201  19.6201  19.8356  19.8356  20.2255  20.2255  20.7833  20.7833
    21.0600  21.0600  21.3253  21.3253  21.6902  21.6902  21.9749  21.9749

          k = 0.2000 0.1976 0.0000 ( 19118 PWs)   bands (ev):

   -10.5106 -10.5042 -10.4993 -10.4983 -10.4663 -10.4608 -10.4440 -10.4373
   -10.4333 -10.4332 -10.4317 -10.4309 -10.4256 -10.4240 -10.4214 -10.4206
   -10.4197 -10.4158 -10.4150 -10.4141  -8.7749  -8.5019  -8.4603  -8.3158
    -8.0533  -8.0392  -7.9474  -7.9110  -1.8510  -1.5852  -1.4601  -1.0069
     2.0983   2.1889   2.2251   2.3047   2.4868   2.5456   2.6708   2.9639
     3.1970   3.3016   3.5774   3.6420   3.7187   4.0245   4.0588   4.0785
     4.1113   4.1840   4.1930   4.2921   4.4404   4.4564   4.4982   4.6398
     8.7996   9.0115   9.2013   9.4628   9.5377   9.8867   9.8965  10.0360
    10.3283  10.3582  10.5795  10.6983  13.5254  14.0150  14.2903  14.6000
    14.7289  14.8310  14.8640  14.9736  15.1703  15.2717  15.5902  15.9759
    16.0863  16.4784  16.5460  16.7650  16.8117  16.9065  17.1442  17.4007
    17.6412  18.0669  18.0870  18.1642  18.5315  18.9501  19.1125  19.2899
    19.4462  19.6260  19.6913  19.8160  20.0804  20.2334  20.2578  20.3579
    20.6620  20.8596  21.2389  21.4882  21.5116  21.5339  21.9857  22.0052

          k = 0.2000 0.1976 0.1240 ( 19106 PWs)   bands (ev):

   -10.5096 -10.5051 -10.4994 -10.4986 -10.4658 -10.4619 -10.4431 -10.4382
   -10.4336 -10.4330 -10.4317 -10.4306 -10.4253 -10.4234 -10.4222 -10.4213
   -10.4184 -10.4156 -10.4153 -10.4138  -8.7411  -8.5297  -8.4768  -8.3402
    -8.0412  -7.9973  -7.9582  -7.9198  -1.8011  -1.5238  -1.4982  -1.0906
     2.0186   2.0959   2.2355   2.2685   2.5255   2.6501   2.7726   2.9759
     3.2223   3.3040   3.6286   3.6387   3.7177   3.8812   3.9820   4.0311
     4.0933   4.1989   4.2063   4.2798   4.4229   4.4927   4.6109   4.6758
     8.8172   9.1089   9.2672   9.4015   9.6722   9.8056   9.9078  10.0392
    10.2293  10.3625  10.4835  10.6037  13.5670  14.0360  14.2792  14.4858
    14.5890  14.7010  14.8357  14.8770  15.3671  15.4830  15.5553  15.9769
    16.2619  16.4994  16.5980  16.6867  16.8518  17.0233  17.1737  17.3752
    17.5299  17.9126  18.2666  18.3881  18.6502  18.7771  19.0728  19.0879
    19.2858  19.5867  19.7198  19.9259  20.0016  20.1262  20.2902  20.4881
    20.8714  21.0764  21.1764  21.2319  21.5247  21.6372  22.0155  22.1988

          k = 0.2000 0.1976-0.2480 ( 19084 PWs)   bands (ev):

   -10.5073 -10.5073 -10.4992 -10.4992 -10.4642 -10.4642 -10.4407 -10.4407
   -10.4333 -10.4333 -10.4310 -10.4309 -10.4244 -10.4243 -10.4219 -10.4218
   -10.4167 -10.4167 -10.4144 -10.4143  -8.6490  -8.6490  -8.4116  -8.4116
    -7.9938  -7.9938  -7.9482  -7.9482  -1.6687  -1.6687  -1.2935  -1.2935
     1.9881   1.9881   2.2290   2.2290   2.7385   2.7385   2.8560   2.8560
     3.2070   3.2070   3.6962   3.6963   3.7920   3.7920   3.9428   3.9428
     4.1242   4.1242   4.2637   4.2637   4.4429   4.4429   4.6980   4.6980
     8.9917   8.9917   9.4185   9.4185   9.6687   9.6687  10.0725  10.0725
    10.2442  10.2442  10.4041  10.4041  13.8155  13.8155  14.3779  14.3779
    14.4938  14.4938  14.7775  14.7775  15.5931  15.5932  15.7802  15.7802
    16.4894  16.4895  16.7295  16.7295  16.9588  16.9588  17.3056  17.3056
    17.5935  17.5935  18.3648  18.3648  18.5967  18.5967  19.0272  19.0272
    19.4705  19.4705  19.6818  19.6818  20.1221  20.1221  20.6347  20.6347
    21.0291  21.0291  21.3170  21.3170  21.6784  21.6784  21.8931  21.8931

          k = 0.2000-0.2964 0.0000 ( 19078 PWs)   bands (ev):

   -10.5073 -10.5072 -10.5007 -10.5006 -10.4595 -10.4595 -10.4414 -10.4413
   -10.4337 -10.4336 -10.4321 -10.4321 -10.4249 -10.4249 -10.4214 -10.4213
   -10.4171 -10.4171 -10.4149 -10.4149  -8.6516  -8.6516  -8.3904  -8.3904
    -8.0470  -8.0470  -7.9155  -7.9155  -1.7228  -1.7228  -1.2357  -1.2357
     2.1426   2.1426   2.2769   2.2769   2.5610   2.5610   2.8064   2.8064
     3.1794   3.1794   3.6149   3.6149   3.9489   3.9489   4.0931   4.0931
     4.1274   4.1274   4.2245   4.2245   4.4334   4.4334   4.5547   4.5547
     8.8073   8.8073   9.3312   9.3312   9.7227   9.7227   9.8868   9.8868
    10.4549  10.4549  10.6087  10.6087  13.7664  13.7664  14.5064  14.5064
    14.8004  14.8004  15.0091  15.0091  15.2567  15.2567  15.7365  15.7365
    16.3976  16.3976  16.6692  16.6692  16.9366  16.9366  17.4962  17.4962
    17.6654  17.6655  18.1435  18.1435  18.5256  18.5256  19.0411  19.0411
    19.4753  19.4753  19.7600  19.7600  20.2097  20.2097  20.4993  20.4993
    20.7255  20.7255  21.1603  21.1603  21.6203  21.6203  21.7802  21.7802

          k = 0.2000-0.2964 0.1240 ( 19102 PWs)   bands (ev):

   -10.5071 -10.5070 -10.5010 -10.5010 -10.4597 -10.4597 -10.4411 -10.4411
   -10.4336 -10.4336 -10.4323 -10.4323 -10.4246 -10.4246 -10.4220 -10.4220
   -10.4169 -10.4169 -10.4146 -10.4145  -8.6217  -8.6217  -8.4425  -8.4425
    -8.0158  -8.0158  -7.9250  -7.9250  -1.6543  -1.6543  -1.3096  -1.3096
     2.0501   2.0501   2.2395   2.2395   2.6216   2.6216   2.9517   2.9517
     3.2298   3.2298   3.6016   3.6016   3.8349   3.8349   4.0256   4.0256
     4.1063   4.1063   4.2088   4.2088   4.4522   4.4523   4.6486   4.6486
     8.8958   8.8958   9.3725   9.3725   9.6983   9.6983   9.9347   9.9348
    10.2977  10.2977  10.5604  10.5604  13.8464  13.8464  14.4722  14.4722
    14.6056  14.6056  14.9564  14.9564  15.4401  15.4401  15.6904  15.6904
    16.5108  16.5108  16.6725  16.6725  17.0011  17.0011  17.3507  17.3507
    17.7076  17.7076  18.2232  18.2232  18.8349  18.8349  19.0391  19.0391
    19.3588  19.3588  19.5009  19.5009  20.2110  20.2110  20.4533  20.4533
    20.8957  20.8957  21.1391  21.1391  21.6347  21.6347  21.9166  21.9166

          k = 0.2000-0.2964-0.2480 ( 19080 PWs)   bands (ev):

   -10.5068 -10.5068 -10.5014 -10.5014 -10.4598 -10.4598 -10.4408 -10.4408
   -10.4336 -10.4336 -10.4327 -10.4327 -10.4237 -10.4237 -10.4231 -10.4231
   -10.4162 -10.4162 -10.4146 -10.4145  -8.5419  -8.5419  -8.5412  -8.5412
    -7.9781  -7.9781  -7.9443  -7.9443  -1.4920  -1.4920  -1.4773  -1.4773
     1.9752   1.9753   2.2010   2.2010   2.8307   2.8307   2.8855   2.8855
     3.3219   3.3219   3.5765   3.5765   3.7593   3.7593   3.9804   3.9804
     4.0732   4.0733   4.1986   4.1986   4.4741   4.4741   4.7010   4.7010
     9.0704   9.0704   9.2809   9.2809   9.7012   9.7013  10.0758  10.0758
    10.1611  10.1611  10.4188  10.4188  14.0265  14.0265  14.2263  14.2263
    14.6731  14.6731  14.7309  14.7309  15.6055  15.6055  15.7312  15.7312
    16.6602  16.6602  16.7015  16.7015  17.1255  17.1255  17.1268  17.1268
    17.7131  17.7131  18.2064  18.2064  19.0552  19.0552  19.0976  19.0976
    19.2170  19.2170  19.5212  19.5212  19.9490  19.9490  20.4951  20.4951
    21.1222  21.1222  21.1992  21.1992  21.5574  21.5574  22.0034  22.0034

          k = 0.3000 0.0000 0.0000 ( 19112 PWs)   bands (ev):

   -10.5121 -10.5032 -10.5015 -10.4982 -10.4966 -10.4882 -10.4528 -10.4425
   -10.4314 -10.4283 -10.4268 -10.4266 -10.4229 -10.4211 -10.4201 -10.4197
   -10.4189 -10.4165 -10.4143 -10.4141  -8.7456  -8.4404  -8.1777  -8.1719
    -8.1365  -8.0557  -8.0104  -7.9929  -1.9661  -1.7298  -1.5257  -1.0811
     1.8386   1.9395   1.9998   2.2535   2.2927   2.4685   2.5884   2.9516
     3.3515   3.3945   3.5477   3.5737   3.6666   3.7923   3.9324   3.9927
     4.1699   4.1916   4.3490   4.3700   4.4013   4.6680   4.7529   4.7540
     9.1281   9.2102   9.5615   9.5877   9.8044   9.9670   9.9814  10.1975
    10.2760  10.4550  10.5366  11.0070  13.6591  14.1313  14.1511  14.3229
    14.4163  14.5311  14.5574  15.0786  15.1137  15.2842  15.3573  16.0161
    16.2326  16.4005  16.5824  16.9229  17.1632  17.2639  17.4210  17.4349
    17.7828  17.8306  17.9608  18.3006  19.0238  19.2067  19.3055  19.3169
    19.5287  19.7208  19.8446  20.0661  20.2322  20.2591  20.3525  20.8581
    21.1772  21.4643  21.5199  21.5321  21.8255  21.9569  22.0232  22.0266

          k = 0.3000 0.0000 0.1240 ( 19111 PWs)   bands (ev):

   -10.5109 -10.5047 -10.5023 -10.4983 -10.4962 -10.4897 -10.4512 -10.4444
   -10.4304 -10.4280 -10.4276 -10.4262 -10.4227 -10.4208 -10.4203 -10.4198
   -10.4180 -10.4154 -10.4146 -10.4138  -8.7128  -8.5072  -8.1702  -8.1395
    -8.1316  -8.0430  -8.0387  -7.9891  -1.9364  -1.7689  -1.4543  -1.1384
     1.9128   2.0078   2.0372   2.1154   2.2795   2.4115   2.5001   2.9752
     3.1466   3.3106   3.5398   3.7477   3.7719   3.8181   3.9451   4.0359
     4.1855   4.2428   4.3086   4.3683   4.5165   4.6528   4.7146   4.7546
     9.0020   9.0771   9.6410   9.7428   9.9528  10.0183  10.0515  10.1103
    10.2615  10.3895  10.5081  10.8315  13.7640  13.8808  14.2275  14.2421
    14.3833  14.5604  14.7101  14.8537  15.2060  15.4359  15.5446  15.9467
    16.1771  16.5046  16.5900  16.8701  17.0004  17.1101  17.3977  17.5702
    17.7772  17.9061  18.0106  18.4721  18.7789  19.1153  19.1157  19.3379
    19.4187  19.5686  20.0656  20.2630  20.3045  20.4249  20.7015  21.0518
    21.0836  21.1542  21.3426  21.3637  21.6805  21.7917  21.9128  21.9694

          k = 0.3000 0.0000-0.2480 ( 19138 PWs)   bands (ev):

   -10.5080 -10.5080 -10.5013 -10.5013 -10.4930 -10.4930 -10.4480 -10.4480
   -10.4288 -10.4288 -10.4271 -10.4271 -10.4215 -10.4215 -10.4201 -10.4201
   -10.4158 -10.4158 -10.4141 -10.4141  -8.6232  -8.6232  -8.1512  -8.1512
    -8.0823  -8.0823  -8.0099  -8.0099  -1.8571  -1.8571  -1.2899  -1.2899
     2.0220   2.0220   2.1408   2.1409   2.2075   2.2075   2.5898   2.5899
     3.2450   3.2450   3.7048   3.7048   3.9214   3.9214   3.9437   3.9437
     4.2375   4.2375   4.3035   4.3035   4.6294   4.6294   4.7337   4.7337
     8.9534   8.9534   9.7296   9.7296  10.0323  10.0323  10.2459  10.2459
    10.3414  10.3414  10.4275  10.4275  13.8432  13.8432  14.1748  14.1748
    14.3606  14.3607  14.8728  14.8728  15.3933  15.3933  16.0988  16.0988
    16.1223  16.1223  16.4396  16.4396  17.1359  17.1360  17.5481  17.5481
    17.7349  17.7349  18.3464  18.3464  18.8586  18.8586  19.1942  19.1942
    19.5459  19.5459  20.1903  20.1903  20.5816  20.5816  20.9143  20.9143
    21.0233  21.0233  21.4331  21.4331  21.5115  21.5115  21.8726  21.8726

          k = 0.3000 0.0988 0.0000 ( 19106 PWs)   bands (ev):

   -10.5118 -10.5060 -10.5051 -10.4944 -10.4931 -10.4858 -10.4523 -10.4422
   -10.4318 -10.4299 -10.4273 -10.4258 -10.4249 -10.4208 -10.4203 -10.4199
   -10.4184 -10.4169 -10.4146 -10.4143  -8.7202  -8.4255  -8.2739  -8.1919
    -8.0776  -8.0698  -7.9885  -7.9880  -1.9436  -1.6872  -1.5648  -1.1279
     1.8647   1.9428   2.0583   2.2599   2.3445   2.4433   2.6619   2.9813
     3.2906   3.3772   3.4889   3.5129   3.7266   3.8230   3.9655   4.0960
     4.1183   4.1354   4.3349   4.3543   4.4309   4.5818   4.6564   4.7587
     8.9187   9.1923   9.5407   9.6325   9.8745   9.9769   9.9858  10.1549
    10.2818  10.5835  10.5872  10.9488  13.7577  14.1412  14.1871  14.3949
    14.4953  14.5544  14.7304  15.0701  15.0709  15.2569  15.3188  15.9631
    16.3129  16.3250  16.5868  16.8745  17.0533  17.2539  17.4202  17.6922
    17.7668  17.9867  18.0768  18.3378  18.8433  19.1373  19.3670  19.4044
    19.6833  19.7606  19.9979  20.0564  20.0603  20.0663  20.4730  20.7716
    20.9781  21.1637  21.2387  21.4070  21.4602  21.6808  21.7182  21.9234

          k = 0.3000 0.0988 0.1240 ( 19118 PWs)   bands (ev):

   -10.5114 -10.5074 -10.5040 -10.4968 -10.4918 -10.4871 -10.4509 -10.4441
   -10.4311 -10.4300 -10.4274 -10.4257 -10.4242 -10.4210 -10.4206 -10.4199
   -10.4176 -10.4157 -10.4147 -10.4140  -8.6883  -8.4895  -8.2592  -8.1900
    -8.0735  -8.0425  -8.0093  -7.9843  -1.9102  -1.7286  -1.4954  -1.1851
     1.9322   1.9699   2.0398   2.1873   2.3036   2.5162   2.5452   3.0085
     3.0766   3.2884   3.5710   3.6674   3.7230   3.8640   4.0224   4.0859
     4.1480   4.1930   4.2648   4.3506   4.5395   4.5687   4.6271   4.7594
     8.8712   9.2167   9.5517   9.7166   9.8868   9.9997  10.0193  10.1969
    10.2735  10.4733  10.5528  10.7899  13.7914  13.9602  14.2742  14.3840
    14.4398  14.5549  14.7412  14.9178  15.1310  15.3921  15.5007  16.0086
    16.1301  16.5372  16.6397  16.9680  17.0375  17.1610  17.4343  17.5613
    17.7392  17.9317  18.1522  18.5432  18.7322  18.9387  19.2325  19.3676
    19.4408  19.6558  19.9710  20.0721  20.2410  20.3132  20.5507  20.8305
    20.9481  21.0391  21.2315  21.4154  21.4951  21.7923  21.9128  22.0134

          k = 0.3000 0.0988-0.2480 ( 19136 PWs)   bands (ev):

   -10.5099 -10.5099 -10.5008 -10.5008 -10.4897 -10.4896 -10.4477 -10.4477
   -10.4303 -10.4303 -10.4268 -10.4268 -10.4223 -10.4223 -10.4202 -10.4202
   -10.4157 -10.4157 -10.4141 -10.4141  -8.6014  -8.6014  -8.2226  -8.2226
    -8.0390  -8.0390  -8.0059  -8.0059  -1.8231  -1.8230  -1.3347  -1.3347
     1.9864   1.9864   2.1087   2.1087   2.3336   2.3336   2.7219   2.7219
     3.1137   3.1137   3.7375   3.7375   3.8848   3.8848   4.0304   4.0304
     4.1837   4.1837   4.2664   4.2664   4.5579   4.5579   4.7234   4.7234
     8.9944   8.9944   9.6922   9.6922  10.0010  10.0010  10.1655  10.1655
    10.3541  10.3541  10.5025  10.5025  13.8852  13.8852  14.2491  14.2492
    14.4290  14.4290  14.8448  14.8448  15.3531  15.3531  15.9025  15.9025
    16.3227  16.3227  16.7232  16.7232  17.2326  17.2326  17.4443  17.4443
    17.7053  17.7054  18.4221  18.4221  18.7417  18.7417  19.1369  19.1369
    19.6396  19.6396  19.9033  19.9033  20.5696  20.5696  20.8055  20.8055
    20.9960  20.9960  21.3057  21.3057  21.6529  21.6529  21.9468  21.9468

          k = 0.3000 0.1976 0.0000 ( 19126 PWs)   bands (ev):

   -10.5124 -10.5106 -10.5034 -10.4954 -10.4856 -10.4813 -10.4505 -10.4430
   -10.4317 -10.4316 -10.4295 -10.4282 -10.4240 -10.4213 -10.4213 -10.4208
   -10.4174 -10.4172 -10.4151 -10.4149  -8.6477  -8.4104  -8.3781  -8.2482
    -8.0715  -8.0541  -7.9705  -7.9636  -1.8782  -1.6628  -1.5711  -1.2512
     1.9322   1.9834   2.0989   2.2814   2.3587   2.5650   2.7982   2.9675
     3.1902   3.2518   3.5606   3.5611   3.8161   3.8237   3.9688   4.0194
     4.1456   4.1606   4.1683   4.3095   4.4396   4.4477   4.5627   4.7294
     8.7169   9.1309   9.3703   9.7606   9.7632   9.9514  10.0781  10.1983
    10.4355  10.6498  10.7030  10.8639  13.9520  14.1818  14.3231  14.3890
    14.6197  14.7545  14.8977  14.9778  15.0574  15.1708  15.4555  15.7434
    16.2309  16.6117  16.8203  16.9455  16.9671  17.0653  17.4262  17.6431
    17.9736  18.2642  18.2864  18.3347  18.7786  19.0392  19.3224  19.4411
    19.4609  19.7900  19.8700  19.8985  20.1836  20.2498  20.2988  20.3495
    20.5832  20.7247  21.0258  21.2189  21.4415  21.4665  21.6183  21.9365

          k = 0.3000 0.1976 0.1240 ( 19115 PWs)   bands (ev):

   -10.5125 -10.5112 -10.5025 -10.4971 -10.4851 -10.4823 -10.4497 -10.4446
   -10.4318 -10.4313 -10.4290 -10.4278 -10.4240 -10.4220 -10.4216 -10.4206
   -10.4167 -10.4159 -10.4148 -10.4143  -8.6184  -8.4401  -8.3843  -8.2732
    -8.0507  -8.0324  -7.9779  -7.9684  -1.8354  -1.6202  -1.5969  -1.3073
     1.9098   1.9958   2.0705   2.2656   2.3642   2.6079   2.7755   2.9520
     3.0806   3.3298   3.4838   3.6473   3.7763   3.8875   3.9246   4.0596
     4.1150   4.1722   4.1958   4.3428   4.3895   4.4460   4.6271   4.7411
     8.8026   9.2345   9.4536   9.6670   9.8466   9.8909  10.0704  10.2101
    10.4061  10.5250  10.6376  10.7313  13.9159  14.1218  14.3457  14.4382
    14.5024  14.7309  14.8400  14.8938  15.1329  15.3787  15.4820  15.9055
    16.1644  16.6740  16.8061  16.9610  17.1461  17.3272  17.3944  17.5459
    17.9056  18.0589  18.3695  18.4625  18.7615  18.9822  19.0103  19.3271
    19.4293  19.6300  19.7764  20.0328  20.1216  20.2461  20.3127  20.4001
    20.8414  20.8957  20.9776  21.1324  21.3119  21.7102  21.8910  21.9622

          k = 0.3000 0.1976-0.2480 ( 19108 PWs)   bands (ev):

   -10.5123 -10.5122 -10.5001 -10.5001 -10.4840 -10.4840 -10.4475 -10.4475
   -10.4315 -10.4315 -10.4280 -10.4280 -10.4234 -10.4234 -10.4211 -10.4211
   -10.4152 -10.4152 -10.4143 -10.4143  -8.5393  -8.5392  -8.3330  -8.3329
    -8.0176  -8.0176  -7.9836  -7.9836  -1.7287  -1.7287  -1.4495  -1.4495
     1.9110   1.9110   2.1709   2.1709   2.5268   2.5268   2.8684   2.8684
     3.0577   3.0577   3.6765   3.6766   3.8439   3.8439   4.0303   4.0303
     4.1064   4.1064   4.2677   4.2677   4.4184   4.4184   4.7110   4.7110
     9.1072   9.1072   9.5292   9.5292   9.9533   9.9533  10.1659  10.1659
    10.3582  10.3582  10.5515  10.5515  14.0312  14.0312  14.2882  14.2882
    14.6060  14.6061  14.7773  14.7773  15.4424  15.4424  15.7338  15.7338
    16.4624  16.4625  17.0722  17.0722  17.1766  17.1766  17.5857  17.5857
    17.8671  17.8671  18.3431  18.3431  18.7358  18.7358  19.0665  19.0665
    19.3485  19.3485  19.9302  19.9302  20.3221  20.3221  20.5283  20.5283
    20.9631  20.9631  21.2986  21.2986  21.5491  21.5491  21.7521  21.7521

          k = 0.3000-0.2964 0.0000 ( 19150 PWs)   bands (ev):

   -10.5126 -10.5126 -10.4991 -10.4991 -10.4807 -10.4807 -10.4467 -10.4467
   -10.4313 -10.4313 -10.4307 -10.4306 -10.4224 -10.4224 -10.4218 -10.4218
   -10.4169 -10.4169 -10.4153 -10.4153  -8.5381  -8.5381  -8.3181  -8.3181
    -8.0608  -8.0608  -7.9571  -7.9571  -1.7783  -1.7783  -1.4129  -1.4129
     2.0059   2.0059   2.1339   2.1339   2.5489   2.5490   2.9159   2.9159
     3.1838   3.1838   3.5998   3.5998   3.8271   3.8272   3.9920   3.9920
     4.0894   4.0894   4.2539   4.2539   4.3363   4.3363   4.6650   4.6650
     8.8097   8.8097   9.5762   9.5763   9.8894   9.8894  10.0992  10.0992
    10.6714  10.6714  10.7542  10.7542  14.1022  14.1022  14.5018  14.5018
    14.7085  14.7085  14.7624  14.7624  15.2380  15.2380  15.5961  15.5961
    16.5227  16.5227  16.8213  16.8213  17.1654  17.1654  17.5605  17.5605
    17.9559  17.9560  18.4666  18.4666  19.0455  19.0455  19.1970  19.1970
    19.3089  19.3089  19.8856  19.8856  20.1689  20.1689  20.3998  20.3998
    20.6936  20.6936  20.9267  20.9267  21.3411  21.3411  21.9219  21.9219

          k = 0.3000-0.2964 0.1240 ( 19114 PWs)   bands (ev):

   -10.5129 -10.5128 -10.4994 -10.4994 -10.4810 -10.4810 -10.4472 -10.4472
   -10.4311 -10.4311 -10.4302 -10.4302 -10.4229 -10.4229 -10.4219 -10.4219
   -10.4160 -10.4160 -10.4147 -10.4147  -8.5131  -8.5131  -8.3613  -8.3613
    -8.0383  -8.0383  -7.9623  -7.9623  -1.7243  -1.7243  -1.4652  -1.4652
     1.9410   1.9410   2.1863   2.1863   2.5290   2.5290   2.9151   2.9151
     3.2609   3.2609   3.5366   3.5367   3.8210   3.8210   3.9114   3.9114
     4.1385   4.1385   4.2991   4.2991   4.3219   4.3219   4.6960   4.6960
     8.9367   8.9367   9.6591   9.6591   9.7785   9.7785  10.1314  10.1314
    10.5496  10.5496  10.6651  10.6651  14.0841  14.0841  14.4192  14.4192
    14.6351  14.6351  14.9069  14.9069  15.2600  15.2600  15.6366  15.6366
    16.5458  16.5458  16.9507  16.9507  17.1896  17.1896  17.6012  17.6012
    17.9354  17.9354  18.5120  18.5120  18.8171  18.8171  19.1909  19.1909
    19.3900  19.3900  19.8333  19.8333  20.1769  20.1769  20.3923  20.3923
    20.6704  20.6704  21.0073  21.0073  21.4075  21.4075  21.7034  21.7034

          k = 0.3000-0.2964-0.2480 ( 19108 PWs)   bands (ev):

   -10.5131 -10.5131 -10.4998 -10.4998 -10.4813 -10.4813 -10.4477 -10.4477
   -10.4308 -10.4308 -10.4299 -10.4299 -10.4229 -10.4229 -10.4224 -10.4224
   -10.4147 -10.4147 -10.4146 -10.4146  -8.4553  -8.4553  -8.4342  -8.4342
    -8.0153  -8.0153  -7.9708  -7.9708  -1.6046  -1.6046  -1.5833  -1.5833
     1.8817   1.8817   2.2217   2.2217   2.6475   2.6476   2.7487   2.7487
     3.3711   3.3712   3.4746   3.4746   3.8041   3.8041   3.8936   3.8936
     4.1553   4.1553   4.2824   4.2824   4.3811   4.3811   4.6982   4.6982
     9.2820   9.2821   9.3057   9.3057   9.9546   9.9546  10.1747  10.1747
    10.3924  10.3924  10.5322  10.5322  14.1381  14.1381  14.2498  14.2498
    14.7135  14.7135  14.8088  14.8088  15.4857  15.4857  15.5812  15.5813
    16.6390  16.6391  17.0118  17.0118  17.3145  17.3145  17.5162  17.5162
    18.0836  18.0836  18.3036  18.3036  18.7590  18.7590  19.1202  19.1203
    19.3212  19.3212  19.7034  19.7034  20.2671  20.2671  20.4341  20.4341
    20.8516  20.8516  21.1304  21.1304  21.5871  21.5871  21.7264  21.7264

          k = 0.4000 0.0000 0.0000 ( 19158 PWs)   bands (ev):

   -10.5247 -10.5206 -10.5156 -10.5135 -10.4867 -10.4734 -10.4634 -10.4504
   -10.4297 -10.4273 -10.4266 -10.4260 -10.4207 -10.4203 -10.4194 -10.4193
   -10.4147 -10.4141 -10.4139 -10.4125  -8.5734  -8.3434  -8.2116  -8.1782
    -8.1029  -8.0932  -8.0124  -8.0093  -1.8780  -1.7488  -1.6319  -1.4089
     1.6948   1.7428   1.8918   2.0644   2.3539   2.6138   2.7109   2.9038
     3.1111   3.3287   3.3941   3.5413   3.7622   3.8434   3.8549   3.9768
     4.2005   4.2824   4.3456   4.3591   4.4784   4.7271   4.7666   4.7923
     9.2655   9.4261   9.5369   9.7193   9.7786   9.8100   9.9147  10.3154
    10.3969  10.7226  10.8730  11.2016  13.9296  14.0465  14.2807  14.2995
    14.5439  14.5470  14.6393  15.1458  15.2533  15.2877  15.3122  15.8512
    16.3232  16.4790  16.7025  16.8782  17.3985  17.4004  17.4478  17.5852
    17.9678  18.1058  18.2352  18.2584  19.0578  19.1627  19.2271  19.4571
    19.5690  19.6988  19.7154  19.7935  20.0445  20.1390  20.5945  20.9333
    20.9905  20.9925  21.4296  21.4533  21.6529  21.7338  22.0862  22.2021

          k = 0.4000 0.0000 0.1240 ( 19136 PWs)   bands (ev):

   -10.5244 -10.5215 -10.5163 -10.5148 -10.4848 -10.4756 -10.4616 -10.4527
   -10.4292 -10.4276 -10.4265 -10.4259 -10.4208 -10.4206 -10.4189 -10.4186
   -10.4140 -10.4135 -10.4133 -10.4122  -8.5473  -8.3902  -8.2063  -8.1832
    -8.0906  -8.0679  -8.0298  -8.0106  -1.8613  -1.7711  -1.5894  -1.4287
     1.7577   1.7975   1.9149   1.9910   2.3302   2.4432   2.5625   2.9516
     3.1429   3.1442   3.4126   3.7912   3.8126   3.8739   3.8882   4.0040
     4.1978   4.2778   4.3286   4.3557   4.5431   4.7018   4.7743   4.7889
     9.1364   9.2106   9.6427   9.6985   9.9612  10.0000  10.0910  10.2280
    10.4110  10.6399  10.7540  11.0240  13.8763  13.9875  14.1783  14.2035
    14.6545  14.8030  14.8360  15.0046  15.2786  15.4133  15.4823  15.9315
    16.1803  16.4520  16.5804  16.8044  17.0613  17.3757  17.5865  17.7580
    17.7845  18.0971  18.1586  18.3813  18.5624  18.9280  19.1742  19.3831
    19.5984  19.6961  20.0280  20.0787  20.1611  20.3929  20.6497  20.9619
    21.0852  21.2784  21.3890  21.6082  21.7933  21.9026  21.9899  22.0902

          k = 0.4000 0.0000-0.2480 ( 19104 PWs)   bands (ev):

   -10.5233 -10.5233 -10.5164 -10.5164 -10.4804 -10.4804 -10.4574 -10.4574
   -10.4282 -10.4282 -10.4261 -10.4261 -10.4207 -10.4207 -10.4183 -10.4183
   -10.4133 -10.4133 -10.4120 -10.4120  -8.4773  -8.4773  -8.1949  -8.1949
    -8.0610  -8.0610  -8.0307  -8.0307  -1.8188  -1.8187  -1.4980  -1.4980
     1.8402   1.8402   1.9766   1.9766   2.2319   2.2319   2.6241   2.6242
     3.2431   3.2431   3.5860   3.5860   3.8872   3.8872   4.0018   4.0018
     4.2294   4.2294   4.3737   4.3737   4.6573   4.6573   4.7658   4.7658
     9.0734   9.0734   9.6656   9.6656  10.0921  10.0921  10.4133  10.4133
    10.4736  10.4736  10.5980  10.5980  13.8837  13.8837  14.1106  14.1106
    14.8135  14.8136  15.0652  15.0652  15.5250  15.5250  15.8514  15.8514
    16.0663  16.0663  16.4974  16.4974  17.1553  17.1553  17.6062  17.6062
    17.8164  17.8165  18.4331  18.4331  18.6284  18.6284  19.3719  19.3719
    19.5197  19.5197  20.2037  20.2037  20.5131  20.5131  20.8158  20.8158
    21.4554  21.4554  21.5518  21.5518  21.7069  21.7069  22.0719  22.0719

          k = 0.4000 0.0988 0.0000 ( 19112 PWs)   bands (ev):

   -10.5241 -10.5192 -10.5180 -10.5116 -10.4851 -10.4732 -10.4624 -10.4503
   -10.4301 -10.4284 -10.4268 -10.4266 -10.4225 -10.4202 -10.4201 -10.4193
   -10.4147 -10.4139 -10.4137 -10.4126  -8.5530  -8.3339  -8.2233  -8.2145
    -8.0970  -8.0849  -8.0107  -8.0106  -1.8697  -1.7287  -1.6579  -1.4368
     1.7274   1.7629   1.9550   2.0982   2.4580   2.5603   2.7255   2.9583
     3.1668   3.2334   3.4363   3.5096   3.6960   3.8502   3.8804   4.0995
     4.1071   4.1897   4.2418   4.2923   4.5755   4.6375   4.7084   4.7915
     9.0125   9.4573   9.6375   9.6761   9.8099   9.8752   9.9191  10.3653
    10.4574  10.7634  10.9102  11.1305  13.9710  14.1667  14.2771  14.3865
    14.5969  14.6822  14.6995  15.1577  15.1894  15.2879  15.3450  15.7673
    16.3985  16.4352  16.7588  16.8363  17.1571  17.2726  17.5942  17.6646
    17.9227  18.0425  18.2758  18.3367  19.0682  19.0993  19.2720  19.5040
    19.5925  19.7904  19.8283  19.9565  20.1050  20.1925  20.6850  20.7631
    20.7816  21.1340  21.1773  21.2926  21.3380  21.5289  21.5999  22.0291

          k = 0.4000 0.0988 0.1240 ( 19123 PWs)   bands (ev):

   -10.5240 -10.5208 -10.5174 -10.5131 -10.4835 -10.4752 -10.4608 -10.4526
   -10.4298 -10.4288 -10.4268 -10.4261 -10.4222 -10.4210 -10.4194 -10.4186
   -10.4140 -10.4133 -10.4130 -10.4122  -8.5279  -8.3778  -8.2215  -8.2132
    -8.0807  -8.0744  -8.0238  -8.0102  -1.8504  -1.7518  -1.6167  -1.4578
     1.8038   1.8188   1.9578   2.0582   2.3068   2.5216   2.6087   2.9343
     3.0472   3.2275   3.4461   3.7026   3.7635   3.8956   3.9481   4.0452
     4.1189   4.1925   4.2425   4.3356   4.5989   4.6419   4.6976   4.7909
     9.0045   9.3175   9.6141   9.6747   9.9088  10.0058  10.0990  10.3076
    10.4714  10.6767  10.7899  10.9689  13.9584  14.0970  14.2150  14.3250
    14.6929  14.7367  14.8818  15.0822  15.1799  15.3909  15.4536  15.9392
    16.1041  16.5643  16.7689  16.8344  17.1000  17.3662  17.4866  17.6828
    17.9377  17.9755  18.1824  18.4040  18.5993  18.8391  19.2250  19.5471
    19.6616  19.7720  19.9043  20.0597  20.1259  20.4134  20.4234  20.7396
    20.9059  21.1802  21.3089  21.4934  21.6608  21.7999  21.8652  21.9823

          k = 0.4000 0.0988-0.2480 ( 19118 PWs)   bands (ev):

   -10.5231 -10.5231 -10.5157 -10.5157 -10.4796 -10.4796 -10.4570 -10.4570
   -10.4293 -10.4293 -10.4262 -10.4262 -10.4216 -10.4216 -10.4186 -10.4186
   -10.4131 -10.4131 -10.4119 -10.4119  -8.4607  -8.4607  -8.2160  -8.2160
    -8.0651  -8.0651  -8.0238  -8.0238  -1.8029  -1.8029  -1.5274  -1.5274
     1.8979   1.8979   2.0068   2.0068   2.2490   2.2491   2.6670   2.6670
     3.1831   3.1831   3.6760   3.6761   3.7725   3.7725   4.0866   4.0866
     4.1295   4.1295   4.3286   4.3286   4.6419   4.6419   4.7353   4.7353
     9.1018   9.1018   9.6141   9.6141  10.1211  10.1211  10.3122  10.3122
    10.5406  10.5406  10.6415  10.6415  13.9926  13.9926  14.2133  14.2133
    14.7437  14.7437  15.0395  15.0395  15.4235  15.4235  15.7814  15.7814
    16.3010  16.3010  16.6893  16.6893  17.1952  17.1952  17.5494  17.5494
    17.8564  17.8564  18.3608  18.3608  18.6520  18.6520  19.3638  19.3638
    19.5170  19.5170  20.0678  20.0678  20.3318  20.3318  20.7142  20.7143
    21.2137  21.2137  21.6128  21.6128  21.6791  21.6791  22.0822  22.0822

          k = 0.4000 0.1976 0.0000 ( 19129 PWs)   bands (ev):

   -10.5230 -10.5204 -10.5157 -10.5106 -10.4812 -10.4736 -10.4596 -10.4514
   -10.4301 -10.4300 -10.4281 -10.4262 -10.4251 -10.4223 -10.4213 -10.4203
   -10.4144 -10.4134 -10.4132 -10.4128  -8.4952  -8.3241  -8.2928  -8.2312
    -8.0960  -8.0740  -8.0125  -8.0091  -1.8415  -1.7211  -1.6726  -1.5073
     1.8245   1.8348   2.0288   2.1151   2.5069   2.7142   2.8576   3.0248
     3.1581   3.1986   3.4336   3.4562   3.6497   3.8752   3.8819   3.9604
     4.0212   4.0913   4.1182   4.2453   4.4454   4.6161   4.6954   4.7503
     8.8757   9.2933   9.5227   9.6265   9.9027   9.9607  10.1408  10.3543
    10.6490  10.8474  10.9650  10.9881  14.1759  14.3708  14.3770  14.4966
    14.5985  14.8531  14.8824  14.9887  15.1689  15.3797  15.4015  15.5406
    16.4831  16.6640  16.7405  16.8997  17.0293  17.1935  17.4622  17.6745
    17.9803  18.0509  18.2618  18.3743  18.8462  19.1637  19.3890  19.4053
    19.5128  19.7101  19.9742  20.1351  20.2208  20.3557  20.3992  20.4205
    20.7208  20.8775  20.9412  21.0096  21.1995  21.4766  21.4798  21.8170

          k = 0.4000 0.1976 0.1240 ( 19124 PWs)   bands (ev):

   -10.5232 -10.5213 -10.5153 -10.5119 -10.4804 -10.4752 -10.4588 -10.4533
   -10.4302 -10.4299 -10.4277 -10.4262 -10.4244 -10.4225 -10.4210 -10.4198
   -10.4135 -10.4128 -10.4125 -10.4123  -8.4731  -8.3462  -8.2967  -8.2435
    -8.0804  -8.0679  -8.0181  -8.0108  -1.8162  -1.6992  -1.6815  -1.5306
     1.8597   1.9144   2.0065   2.1598   2.3694   2.6223   2.8016   2.9352
     3.0844   3.1380   3.3368   3.6470   3.7243   3.8751   3.9054   3.9630
     4.0737   4.1599   4.2091   4.3068   4.4605   4.5694   4.6688   4.7520
     8.9447   9.3473   9.4333   9.6296   9.9244  10.0748  10.1803  10.3224
    10.6197  10.7422  10.8381  10.8654  14.1971  14.3138  14.3322  14.5147
    14.6382  14.8210  14.9715  15.0300  15.0435  15.3626  15.4452  15.7183
    16.3388  16.7504  16.8142  17.0542  17.1916  17.3475  17.4614  17.6939
    17.8270  18.1202  18.1519  18.4317  18.6598  18.8421  19.0559  19.3898
    19.5987  19.8210  19.8700  20.0398  20.1900  20.2384  20.4358  20.5741
    20.5956  20.8153  21.0802  21.3243  21.4137  21.4993  21.7844  21.9946

          k = 0.4000 0.1976-0.2480 ( 19144 PWs)   bands (ev):

   -10.5228 -10.5228 -10.5141 -10.5140 -10.4781 -10.4781 -10.4566 -10.4566
   -10.4300 -10.4300 -10.4268 -10.4268 -10.4233 -10.4233 -10.4200 -10.4200
   -10.4125 -10.4125 -10.4117 -10.4117  -8.4146  -8.4146  -8.2721  -8.2720
    -8.0638  -8.0638  -8.0188  -8.0188  -1.7566  -1.7566  -1.5997  -1.5997
     1.9229   1.9230   2.1324   2.1324   2.3729   2.3730   2.7748   2.7748
     3.0504   3.0504   3.5323   3.5324   3.7941   3.7941   4.0611   4.0611
     4.1786   4.1786   4.2541   4.2542   4.5267   4.5268   4.6903   4.6903
     9.1731   9.1731   9.4875   9.4875  10.1654  10.1654  10.2552  10.2552
    10.5915  10.5915  10.6860  10.6860  14.2389  14.2389  14.4192  14.4192
    14.6679  14.6680  14.9781  14.9781  15.3164  15.3164  15.6893  15.6893
    16.4601  16.4601  17.0987  17.0987  17.3264  17.3264  17.5197  17.5197
    18.0335  18.0335  18.2338  18.2338  18.6671  18.6671  19.0721  19.0721
    19.5324  19.5324  19.8664  19.8664  20.2273  20.2273  20.5539  20.5539
    20.9938  20.9938  21.2970  21.2970  21.5748  21.5748  21.9459  21.9459

          k = 0.4000-0.2964 0.0000 ( 19146 PWs)   bands (ev):

   -10.5219 -10.5219 -10.5121 -10.5121 -10.4766 -10.4766 -10.4552 -10.4552
   -10.4296 -10.4296 -10.4284 -10.4284 -10.4243 -10.4243 -10.4218 -10.4218
   -10.4135 -10.4135 -10.4130 -10.4130  -8.4108  -8.4108  -8.2646  -8.2646
    -8.0830  -8.0830  -8.0107  -8.0107  -1.7897  -1.7897  -1.5936  -1.5936
     1.9348   1.9349   1.9979   1.9979   2.6963   2.6963   3.0601   3.0601
     3.1547   3.1547   3.3840   3.3841   3.7226   3.7226   3.8955   3.8955
     3.9785   3.9785   4.1768   4.1768   4.4714   4.4714   4.7397   4.7397
     8.9938   8.9938   9.5795   9.5795   9.9673   9.9673  10.2693  10.2693
    10.8463  10.8463  10.9360  10.9360  14.4542  14.4542  14.5139  14.5140
    14.6482  14.6482  14.8420  14.8420  15.3831  15.3831  15.4578  15.4578
    16.6689  16.6690  16.7864  16.7864  17.2480  17.2480  17.3819  17.3819
    18.2141  18.2141  18.4000  18.4000  18.5818  18.5818  19.3740  19.3740
    19.6557  19.6557  19.9502  19.9503  20.1029  20.1029  20.5443  20.5443
    20.6855  20.6855  20.9930  20.9930  21.5278  21.5278  21.6269  21.6269

          k = 0.4000-0.2964 0.1240 ( 19116 PWs)   bands (ev):

   -10.5223 -10.5223 -10.5126 -10.5126 -10.4770 -10.4770 -10.4559 -10.4559
   -10.4295 -10.4295 -10.4281 -10.4281 -10.4237 -10.4236 -10.4218 -10.4218
   -10.4128 -10.4128 -10.4125 -10.4125  -8.3939  -8.3939  -8.2902  -8.2902
    -8.0720  -8.0720  -8.0141  -8.0141  -1.7577  -1.7577  -1.6184  -1.6184
     1.9253   1.9253   2.0793   2.0793   2.6093   2.6093   2.9277   2.9277
     3.1461   3.1461   3.3043   3.3043   3.7506   3.7506   3.9663   3.9663
     4.1330   4.1330   4.2669   4.2669   4.4118   4.4118   4.7113   4.7113
     9.0732   9.0732   9.5380   9.5380  10.0288  10.0288  10.2675  10.2676
    10.7628  10.7628  10.8111  10.8111  14.4066  14.4066  14.4937  14.4937
    14.7026  14.7026  14.9186  14.9186  15.2791  15.2792  15.5037  15.5037
    16.6586  16.6586  16.9680  16.9680  17.2833  17.2833  17.6393  17.6394
    17.9546  17.9547  18.3855  18.3855  18.6701  18.6701  19.1238  19.1238
    19.5486  19.5486  19.8844  19.8844  20.2894  20.2894  20.4585  20.4585
    20.7312  20.7312  21.0967  21.0967  21.4559  21.4559  21.8756  21.8756

          k = 0.4000-0.2964-0.2480 ( 19128 PWs)   bands (ev):

   -10.5227 -10.5227 -10.5131 -10.5131 -10.4774 -10.4774 -10.4566 -10.4566
   -10.4294 -10.4293 -10.4279 -10.4279 -10.4229 -10.4229 -10.4220 -10.4220
   -10.4122 -10.4122 -10.4118 -10.4118  -8.3607  -8.3607  -8.3309  -8.3309
    -8.0607  -8.0607  -8.0188  -8.0188  -1.6919  -1.6919  -1.6770  -1.6769
     1.9134   1.9134   2.1936   2.1936   2.5667   2.5668   2.7279   2.7279
     3.1704   3.1704   3.1802   3.1802   3.9064   3.9064   4.0320   4.0320
     4.1964   4.1964   4.2577   4.2577   4.4601   4.4601   4.6454   4.6454
     9.2575   9.2575   9.3659   9.3659  10.2001  10.2001  10.2398  10.2398
    10.6407  10.6407  10.6669  10.6669  14.3808  14.3808  14.4498  14.4498
    14.7844  14.7844  14.9203  14.9203  15.3561  15.3561  15.4555  15.4555
    16.6480  16.6480  17.0662  17.0662  17.5421  17.5421  17.5579  17.5580
    18.1151  18.1151  18.2819  18.2819  18.5176  18.5176  18.9989  18.9989
    19.5690  19.5690  19.6412  19.6412  20.3433  20.3433  20.3842  20.3842
    20.9319  20.9319  21.0679  21.0679  21.6376  21.6377  21.7725  21.7725

          k =-0.5000 0.0000 0.0000 ( 19122 PWs)   bands (ev):

   -10.5285 -10.5285 -10.5205 -10.5205 -10.4748 -10.4748 -10.4606 -10.4606
   -10.4283 -10.4283 -10.4260 -10.4260 -10.4203 -10.4203 -10.4193 -10.4193
   -10.4137 -10.4137 -10.4115 -10.4115  -8.3873  -8.3873  -8.2509  -8.2508
    -8.0442  -8.0442  -8.0403  -8.0403  -1.7157  -1.7157  -1.6884  -1.6884
     1.6586   1.6586   1.9106   1.9106   2.5981   2.5981   2.7486   2.7486
     3.2656   3.2656   3.2977   3.2977   3.8596   3.8596   3.9356   3.9356
     4.2596   4.2596   4.3154   4.3154   4.6204   4.6204   4.8015   4.8015
     9.4640   9.4640   9.5715   9.5715   9.6916   9.6916  10.1840  10.1840
    10.6715  10.6716  11.1499  11.1499  13.8772  13.8772  14.3666  14.3666
    14.6895  14.6895  15.0699  15.0699  15.2238  15.2238  15.5646  15.5646
    16.4435  16.4435  16.6521  16.6521  17.4651  17.4651  17.4723  17.4723
    18.2225  18.2225  18.3173  18.3173  18.9295  18.9295  19.1983  19.1983
    19.6683  19.6683  19.8483  19.8483  20.2823  20.2823  20.5699  20.5699
    20.7271  20.7271  21.7130  21.7130  21.7655  21.7655  22.0353  22.0353

          k =-0.5000 0.0000 0.1240 ( 19106 PWs)   bands (ev):

   -10.5288 -10.5288 -10.5215 -10.5215 -10.4729 -10.4729 -10.4631 -10.4631
   -10.4282 -10.4282 -10.4259 -10.4259 -10.4204 -10.4204 -10.4185 -10.4185
   -10.4127 -10.4127 -10.4113 -10.4113  -8.3718  -8.3718  -8.2722  -8.2722
    -8.0431  -8.0431  -8.0367  -8.0367  -1.7411  -1.7411  -1.6520  -1.6520
     1.7139   1.7139   1.8932   1.8932   2.4350   2.4350   2.7658   2.7658
     3.0387   3.0387   3.6457   3.6457   3.8443   3.8443   3.9365   3.9365
     4.2322   4.2322   4.3601   4.3601   4.6223   4.6223   4.8040   4.8040
     9.2954   9.2954   9.5107   9.5107  10.0476  10.0476  10.1809  10.1809
    10.6167  10.6167  10.9899  10.9899  13.9090  13.9090  14.1605  14.1605
    14.9256  14.9256  15.1525  15.1525  15.2851  15.2851  15.7277  15.7277
    16.2089  16.2089  16.7865  16.7865  17.0685  17.0685  17.7070  17.7070
    17.9678  17.9678  18.1846  18.1846  18.6437  18.6437  19.3699  19.3699
    19.7237  19.7237  19.9274  19.9274  20.2850  20.2850  20.7720  20.7720
    21.1753  21.1753  21.7785  21.7785  21.9268  21.9268  22.1885  22.1885

          k =-0.5000 0.0000-0.2480 ( 19096 PWs)   bands (ev):

   -10.5292 -10.5292 -10.5224 -10.5224 -10.4685 -10.4685 -10.4680 -10.4680
   -10.4280 -10.4280 -10.4258 -10.4258 -10.4205 -10.4205 -10.4179 -10.4179
   -10.4118 -10.4118 -10.4109 -10.4109  -8.3443  -8.3443  -8.3050  -8.3050
    -8.0417  -8.0417  -8.0336  -8.0336  -1.7532  -1.7532  -1.6288  -1.6288
     1.7756   1.7756   1.9050   1.9050   2.2565   2.2565   2.6741   2.6741
     3.2285   3.2285   3.4640   3.4640   3.9297   3.9297   4.0562   4.0562
     4.2055   4.2055   4.4027   4.4027   4.6429   4.6429   4.7720   4.7720
     9.2198   9.2198   9.4577   9.4577  10.1840  10.1840  10.4991  10.4991
    10.5876  10.5876  10.6014  10.6014  13.9442  13.9442  14.0155  14.0155
    15.0899  15.0899  15.1874  15.1874  15.6184  15.6184  15.7876  15.7876
    16.1079  16.1079  16.5531  16.5531  16.9139  16.9139  17.5225  17.5225
    17.8129  17.8129  18.2061  18.2061  18.6936  18.6936  19.4124  19.4124
    19.7386  19.7386  19.8340  19.8340  20.6179  20.6179  20.9202  20.9202
    21.5683  21.5683  21.6564  21.6564  22.0383  22.0383  22.4100  22.4100

          k =-0.5000 0.0988 0.0000 ( 19128 PWs)   bands (ev):

   -10.5274 -10.5274 -10.5207 -10.5207 -10.4736 -10.4736 -10.4606 -10.4606
   -10.4284 -10.4283 -10.4273 -10.4272 -10.4211 -10.4211 -10.4196 -10.4196
   -10.4135 -10.4135 -10.4114 -10.4114  -8.3748  -8.3748  -8.2541  -8.2541
    -8.0507  -8.0507  -8.0447  -8.0447  -1.7201  -1.7201  -1.6975  -1.6975
     1.6895   1.6895   1.9684   1.9684   2.6946   2.6946   2.7037   2.7037
     3.2811   3.2811   3.2881   3.2881   3.8149   3.8149   4.0306   4.0306
     4.1171   4.1171   4.2238   4.2238   4.6841   4.6841   4.7263   4.7264
     9.2912   9.2912   9.6238   9.6238   9.8054   9.8054  10.2011  10.2011
    10.7271  10.7271  11.1234  11.1234  13.9762  13.9762  14.4351  14.4351
    14.7405  14.7405  15.0382  15.0382  15.2607  15.2607  15.5877  15.5877
    16.5180  16.5180  16.6178  16.6178  17.3536  17.3536  17.3924  17.3924
    18.1066  18.1066  18.2702  18.2702  19.0243  19.0243  19.3400  19.3400
    19.6788  19.6788  19.9433  19.9433  20.3690  20.3690  20.7018  20.7018
    20.7967  20.7967  21.3539  21.3539  21.5277  21.5277  21.7071  21.7071

          k =-0.5000 0.0988 0.1240 ( 19146 PWs)   bands (ev):

   -10.5277 -10.5277 -10.5216 -10.5216 -10.4720 -10.4720 -10.4629 -10.4629
   -10.4286 -10.4286 -10.4267 -10.4267 -10.4213 -10.4213 -10.4188 -10.4188
   -10.4125 -10.4125 -10.4110 -10.4110  -8.3607  -8.3606  -8.2722  -8.2721
    -8.0503  -8.0503  -8.0423  -8.0422  -1.7416  -1.7416  -1.6656  -1.6656
     1.7581   1.7581   1.9575   1.9575   2.4460   2.4460   2.7540   2.7540
     3.0886   3.0886   3.6000   3.6000   3.8841   3.8841   3.9325   3.9325
     4.1026   4.1026   4.3063   4.3063   4.6591   4.6591   4.7566   4.7566
     9.2398   9.2398   9.5293   9.5293  10.0554  10.0554  10.2021  10.2021
    10.6733  10.6733  10.9733  10.9733  14.0193  14.0193  14.2610  14.2610
    14.8966  14.8966  15.1725  15.1725  15.2213  15.2213  15.6930  15.6930
    16.3553  16.3553  16.8185  16.8185  17.1051  17.1051  17.5720  17.5720
    18.0069  18.0069  18.1709  18.1709  18.6036  18.6036  19.3350  19.3350
    19.9077  19.9077  19.9521  19.9521  20.2202  20.2202  20.7826  20.7826
    21.1079  21.1079  21.4950  21.4950  21.6727  21.6727  22.1271  22.1271

          k =-0.5000 0.0988-0.2480 ( 19140 PWs)   bands (ev):

   -10.5280 -10.5280 -10.5225 -10.5225 -10.4684 -10.4684 -10.4671 -10.4671
   -10.4288 -10.4288 -10.4264 -10.4264 -10.4213 -10.4213 -10.4182 -10.4182
   -10.4115 -10.4115 -10.4107 -10.4107  -8.3358  -8.3358  -8.3008  -8.3008
    -8.0489  -8.0489  -8.0409  -8.0409  -1.7513  -1.7513  -1.6452  -1.6452
     1.8697   1.8697   1.9313   1.9313   2.3000   2.3000   2.5871   2.5871
     3.3051   3.3051   3.5217   3.5217   3.7928   3.7928   4.0407   4.0407
     4.1519   4.1519   4.3604   4.3604   4.6791   4.6791   4.7289   4.7289
     9.2098   9.2098   9.4600   9.4600  10.1992  10.1992  10.3846  10.3846
    10.6316  10.6316  10.6881  10.6881  14.0722  14.0722  14.1254  14.1254
    15.0062  15.0062  15.1381  15.1382  15.5023  15.5023  15.6834  15.6834
    16.5295  16.5295  16.5426  16.5426  16.9833  16.9833  17.5822  17.5823
    17.8236  17.8236  18.1835  18.1835  18.5907  18.5907  19.2406  19.2406
    19.7695  19.7695  19.9162  19.9162  20.4888  20.4888  20.7751  20.7751
    21.5527  21.5527  21.6909  21.6909  21.9282  21.9282  22.0698  22.0698

          k =-0.5000 0.1976 0.0000 ( 19138 PWs)   bands (ev):

   -10.5249 -10.5249 -10.5212 -10.5212 -10.4702 -10.4702 -10.4617 -10.4617
   -10.4288 -10.4288 -10.4281 -10.4281 -10.4230 -10.4230 -10.4215 -10.4215
   -10.4126 -10.4126 -10.4112 -10.4112  -8.3417  -8.3417  -8.2687  -8.2687
    -8.0620  -8.0620  -8.0552  -8.0552  -1.7281  -1.7281  -1.7161  -1.7161
     1.7855   1.7856   2.0286   2.0286   2.7094   2.7094   2.9310   2.9310
     3.2573   3.2573   3.2748   3.2748   3.7040   3.7040   3.9752   3.9752
     3.9840   3.9840   4.1487   4.1487   4.6119   4.6119   4.7159   4.7159
     9.2215   9.2215   9.4635   9.4635  10.0304  10.0304  10.2125  10.2125
    10.8591  10.8591  11.0645  11.0645  14.2292  14.2292  14.5732  14.5732
    14.8273  14.8273  14.9307  14.9307  15.3440  15.3441  15.5367  15.5367
    16.7421  16.7421  16.7537  16.7538  17.1381  17.1381  17.1968  17.1968
    18.0081  18.0081  18.2031  18.2031  19.0197  19.0197  19.3188  19.3188
    19.6378  19.6378  20.0708  20.0708  20.5028  20.5028  20.6388  20.6388
    20.8762  20.8762  21.0149  21.0149  21.3480  21.3480  21.6221  21.6221

          k =-0.5000 0.1976 0.1240 ( 19120 PWs)   bands (ev):

   -10.5252 -10.5252 -10.5220 -10.5220 -10.4695 -10.4695 -10.4635 -10.4635
   -10.4292 -10.4292 -10.4274 -10.4274 -10.4231 -10.4231 -10.4205 -10.4205
   -10.4118 -10.4118 -10.4108 -10.4108  -8.3319  -8.3318  -8.2777  -8.2777
    -8.0635  -8.0635  -8.0556  -8.0556  -1.7385  -1.7385  -1.6960  -1.6960
     1.8588   1.8588   2.0417   2.0417   2.5625   2.5625   2.7810   2.7810
     3.1672   3.1672   3.3849   3.3849   3.7442   3.7442   3.9824   3.9824
     4.1051   4.1051   4.2391   4.2391   4.5867   4.5867   4.6999   4.6999
     9.2182   9.2182   9.4462   9.4462  10.1224  10.1224  10.2297  10.2297
    10.7849  10.7849  10.9349  10.9349  14.2927  14.2927  14.4993  14.4993
    14.8403  14.8403  15.0305  15.0305  15.2121  15.2121  15.6043  15.6043
    16.6558  16.6558  16.9332  16.9332  17.2099  17.2099  17.3756  17.3756
    17.9341  17.9341  18.1726  18.1726  18.7517  18.7517  19.0413  19.0413
    19.8524  19.8524  20.0264  20.0264  20.3064  20.3064  20.6859  20.6859
    20.8768  20.8768  21.0700  21.0700  21.5590  21.5590  21.8874  21.8874

          k =-0.5000 0.1976-0.2480 ( 19136 PWs)   bands (ev):

   -10.5255 -10.5255 -10.5228 -10.5228 -10.4679 -10.4679 -10.4661 -10.4661
   -10.4293 -10.4293 -10.4270 -10.4270 -10.4230 -10.4230 -10.4198 -10.4198
   -10.4110 -10.4110 -10.4104 -10.4103  -8.3152  -8.3152  -8.2936  -8.2936
    -8.0635  -8.0635  -8.0574  -8.0574  -1.7422  -1.7422  -1.6827  -1.6827
     1.9759   1.9759   2.0395   2.0395   2.4850   2.4850   2.5423   2.5423
     3.2651   3.2651   3.2853   3.2853   3.8907   3.8907   3.9245   3.9245
     4.2329   4.2329   4.2861   4.2861   4.6012   4.6012   4.6522   4.6522
     9.2245   9.2245   9.4149   9.4149  10.2392  10.2392  10.2916  10.2916
    10.7032  10.7032  10.7460  10.7460  14.3890  14.3890  14.3954  14.3954
    14.8405  14.8405  15.0696  15.0696  15.2459  15.2459  15.6415  15.6415
    16.6716  16.6716  16.8091  16.8091  17.4056  17.4056  17.4879  17.4879
    18.0642  18.0642  18.1063  18.1063  18.4783  18.4783  18.8945  18.8945
    19.6187  19.6187  20.0773  20.0773  20.3461  20.3461  20.4517  20.4517
    21.3906  21.3906  21.4281  21.4281  21.7332  21.7332  21.7774  21.7774

          k =-0.5000-0.2964 0.0000 ( 19120 PWs)   bands (ev):

   -10.5226 -10.5226 -10.5226 -10.5226 -10.4655 -10.4655 -10.4655 -10.4655
   -10.4284 -10.4284 -10.4283 -10.4283 -10.4236 -10.4236 -10.4235 -10.4235
   -10.4116 -10.4116 -10.4116 -10.4116  -8.3007  -8.3007  -8.3006  -8.3006
    -8.0639  -8.0639  -8.0639  -8.0639  -1.7286  -1.7286  -1.7286  -1.7286
     1.9293   1.9293   1.9293   1.9293   2.9423   2.9423   2.9423   2.9423
     3.2172   3.2172   3.2172   3.2172   3.7416   3.7416   3.7416   3.7416
     4.0523   4.0523   4.0523   4.0523   4.6569   4.6569   4.6570   4.6570
     9.2992   9.2992   9.2992   9.2992  10.1631  10.1631  10.1631  10.1631
    10.9834  10.9834  10.9834  10.9834  14.5164  14.5164  14.5164  14.5164
    14.8514  14.8514  14.8514  14.8514  15.4401  15.4401  15.4401  15.4401
    16.9621  16.9621  16.9621  16.9621  16.9914  16.9914  16.9914  16.9914
    18.1889  18.1889  18.1889  18.1889  18.8246  18.8246  18.8246  18.8246
    19.9443  19.9443  19.9443  19.9443  20.5314  20.5314  20.5314  20.5314
    21.0237  21.0237  21.0237  21.0237  21.3732  21.3732  21.3732  21.3732

          k =-0.5000-0.2964 0.1240 ( 19128 PWs)   bands (ev):

   -10.5231 -10.5231 -10.5231 -10.5231 -10.4662 -10.4662 -10.4662 -10.4662
   -10.4283 -10.4283 -10.4283 -10.4283 -10.4229 -10.4229 -10.4229 -10.4229
   -10.4111 -10.4111 -10.4111 -10.4111  -8.2988  -8.2988  -8.2987  -8.2987
    -8.0664  -8.0664  -8.0664  -8.0664  -1.7240  -1.7240  -1.7240  -1.7240
     1.9762   1.9762   1.9762   1.9762   2.8299   2.8299   2.8299   2.8299
     3.1023   3.1023   3.1023   3.1023   3.8547   3.8547   3.8547   3.8547
     4.1859   4.1860   4.1860   4.1860   4.6051   4.6051   4.6051   4.6051
     9.3029   9.3029   9.3029   9.3029  10.2034  10.2034  10.2034  10.2034
    10.8775  10.8775  10.8775  10.8775  14.5717  14.5717  14.5717  14.5717
    14.8325  14.8325  14.8325  14.8325  15.3837  15.3837  15.3838  15.3838
    16.9113  16.9113  16.9113  16.9114  17.2763  17.2763  17.2763  17.2763
    18.1466  18.1466  18.1466  18.1466  18.7107  18.7107  18.7107  18.7107
    19.8329  19.8329  19.8329  19.8329  20.5603  20.5603  20.5603  20.5603
    20.9554  20.9554  20.9554  20.9554  21.5369  21.5369  21.5369  21.5369

          k =-0.5000-0.2964-0.2480 ( 19160 PWs)   bands (ev):

   -10.5236 -10.5236 -10.5235 -10.5235 -10.4668 -10.4668 -10.4668 -10.4668
   -10.4282 -10.4282 -10.4282 -10.4282 -10.4224 -10.4224 -10.4224 -10.4224
   -10.4105 -10.4105 -10.4105 -10.4105  -8.2968  -8.2968  -8.2968  -8.2968
    -8.0689  -8.0689  -8.0689  -8.0689  -1.7194  -1.7194  -1.7194  -1.7194
     2.0336   2.0336   2.0336   2.0336   2.7310   2.7310   2.7310   2.7310
     2.9870   2.9870   2.9870   2.9870   4.0456   4.0456   4.0457   4.0457
     4.2084   4.2084   4.2084   4.2084   4.5629   4.5629   4.5629   4.5629
     9.3075   9.3075   9.3075   9.3075  10.2677  10.2677  10.2677  10.2677
    10.7459  10.7459  10.7459  10.7459  14.6011  14.6011  14.6011  14.6011
    14.8448  14.8448  14.8448  14.8448  15.3579  15.3579  15.3579  15.3579
    16.8349  16.8349  16.8349  16.8349  17.5610  17.5610  17.5610  17.5610
    18.1752  18.1752  18.1752  18.1752  18.5718  18.5718  18.5718  18.5718
    19.5679  19.5679  19.5679  19.5679  20.5960  20.5960  20.5960  20.5961
    21.2990  21.2990  21.2991  21.2991  21.6092  21.6092  21.6092  21.6092

     the Fermi energy is     5.9404 ev

!    total energy              =    -694.11066748 Ry
     estimated scf accuracy    <          2.5E-11 Ry
     smearing contrib. (-TS)   =      -0.00000000 Ry
     internal energy E=F+TS    =    -694.11066748 Ry

     The total energy is F=E-TS. E is the sum of the following terms:
     one-electron contribution =    -172.58254428 Ry
     hartree contribution      =     138.40595575 Ry
     xc contribution           =    -102.59184017 Ry
     ewald contribution        =    -557.34223878 Ry

     convergence has been achieved in  11 iterations

     Writing all to output data dir out/mp-23291.save/
 
     init_run     :     12.66s CPU     12.96s WALL (       1 calls)
     electrons    :   1387.95s CPU   1403.05s WALL (       1 calls)

     Called by init_run:
     wfcinit      :     12.08s CPU     12.34s WALL (       1 calls)
     potinit      :      0.14s CPU      0.15s WALL (       1 calls)
     hinit0       :      0.10s CPU      0.11s WALL (       1 calls)

     Called by electrons:
     c_bands      :   1342.64s CPU   1356.99s WALL (      11 calls)
     sum_band     :     45.03s CPU     45.76s WALL (      11 calls)
     v_of_rho     :      0.23s CPU      0.24s WALL (      12 calls)
     mix_rho      :      0.05s CPU      0.06s WALL (      11 calls)

     Called by c_bands:
     init_us_2    :      3.84s CPU      3.87s WALL (    1656 calls)
     init_us_2:cp :      3.83s CPU      3.87s WALL (    1656 calls)
     paro_k       :   1304.57s CPU   1318.29s WALL (     792 calls)

     Called by paro_*:
     h_psi        :    728.06s CPU    736.38s WALL (   18289 calls)
     g_psi        :     11.44s CPU     12.15s WALL (  756725 calls)

     Called by h_psi:
     h_psi:calbec :     82.22s CPU     82.78s WALL (   18289 calls)
     vloc_psi     :    555.10s CPU    562.66s WALL (   18289 calls)
     add_vuspsi   :     86.56s CPU     86.68s WALL (   18289 calls)

     General routines
     calbec       :     82.15s CPU     82.73s WALL (   18289 calls)
     fft          :      0.09s CPU      0.10s WALL (     119 calls)
     ffts         :      0.01s CPU      0.01s WALL (      11 calls)
     fftw         :    517.54s CPU    524.66s WALL ( 1390222 calls)
 
     Parallel routines
 
     PWSCF        :  23m22.46s CPU  23m39.82s WALL

 
   This run was terminated on:  15:39: 5   3Jan2024            

=------------------------------------------------------------------------------=
   JOB DONE.
=------------------------------------------------------------------------------=
