<?xml version="1.0" encoding="ISO-8859-1"?>
<modeling>
 <generator>
  <i name="program" type="string">vasp </i>
  <i name="version" type="string">5.4.4.18Apr17-6-g9f103f2a35  </i>
  <i name="subversion" type="string">(build Aug 24 2017 11:22:49) complex            parallel </i>
  <i name="platform" type="string">LinuxIFC </i>
  <i name="date" type="string">2023 12 25 </i>
  <i name="time" type="string">13:07:49 </i>
 </generator>
 <incar>
  <i type="string" name="PREC">accurate</i>
  <i type="string" name="ALGO"> Normal</i>
  <i type="int" name="NELM">   100</i>
  <i type="int" name="IBRION">     8</i>
  <i name="EDIFF">      0.00000001</i>
  <i name="SYMPREC">      0.00000001</i>
  <i name="ENCUT">    520.00000000</i>
  <i type="logical" name="LREAL"> F  </i>
  <i type="int" name="ISMEAR">     0</i>
  <i name="SIGMA">      0.01000000</i>
  <i type="logical" name="LWAVE"> F  </i>
  <v type="int" name="KPOINT_BSE">    -1     0     0     0</v>
  <i type="int" name="NELM">   100</i>
  <i type="logical" name="LPEAD"> T  </i>
  <i type="logical" name="LEPSILON"> T  </i>
 </incar>
 <structure name="primitive_cell" >
  <crystal>
   <varray name="basis" >
    <v>      -3.21865644       0.00000000       3.21865644 </v>
    <v>       0.00000000       3.21865644       3.21865644 </v>
    <v>      -3.21865644       3.21865644       0.00000000 </v>
   </varray>
   <i name="volume">     66.68894741 </i>
   <varray name="rec_basis" >
    <v>      -0.15534432      -0.15534432       0.15534432 </v>
    <v>       0.15534432       0.15534432       0.15534432 </v>
    <v>      -0.15534432       0.15534432      -0.15534432 </v>
   </varray>
  </crystal>
  <varray name="positions" >
   <v>       0.00000000       0.00000000       0.00000000 </v>
   <v>       0.49999996      -0.49999996       0.49999996 </v>
  </varray>
 </structure>
 <varray name="primitive_index" >
  <v type="int" >        1 </v>
  <v type="int" >        2 </v>
 </varray>
 <kpoints>
  <generation param="Gamma">
   <v type="int" name="divisions">      12       12       12 </v>
   <v name="usershift">      0.00000000       0.00000000       0.00000000 </v>
   <v name="genvec1">      0.08333333       0.00000000       0.00000000 </v>
   <v name="genvec2">      0.00000000       0.08333333      -0.00000000 </v>
   <v name="genvec3">     -0.00000000      -0.00000000       0.08333333 </v>
   <v name="shift">      0.00000000       0.00000000       0.00000000 </v>
  </generation>
  <varray name="kpointlist" >
   <v>       0.00000000       0.00000000       0.00000000 </v>
   <v>       0.08333333       0.00000000       0.00000000 </v>
   <v>       0.16666667       0.00000000      -0.00000000 </v>
   <v>       0.25000000       0.00000000       0.00000000 </v>
   <v>       0.33333333       0.00000000       0.00000000 </v>
   <v>       0.41666667      -0.00000000       0.00000000 </v>
   <v>       0.50000000       0.00000000       0.00000000 </v>
   <v>       0.08333333       0.08333333       0.00000000 </v>
   <v>       0.16666667       0.08333333       0.00000000 </v>
   <v>       0.25000000       0.08333333       0.00000000 </v>
   <v>       0.33333333       0.08333333       0.00000000 </v>
   <v>       0.41666667       0.08333333      -0.00000000 </v>
   <v>       0.50000000       0.08333333       0.00000000 </v>
   <v>      -0.41666667       0.08333333      -0.00000000 </v>
   <v>      -0.33333333       0.08333333       0.00000000 </v>
   <v>      -0.25000000       0.08333333      -0.00000000 </v>
   <v>      -0.16666667       0.08333333      -0.00000000 </v>
   <v>      -0.08333333       0.08333333      -0.00000000 </v>
   <v>       0.16666667       0.16666667       0.00000000 </v>
   <v>       0.25000000       0.16666667       0.00000000 </v>
   <v>       0.33333333       0.16666667       0.00000000 </v>
   <v>       0.41666667       0.16666667       0.00000000 </v>
   <v>       0.50000000       0.16666667      -0.00000000 </v>
   <v>      -0.41666667       0.16666667      -0.00000000 </v>
   <v>      -0.33333333       0.16666667      -0.00000000 </v>
   <v>      -0.25000000       0.16666667       0.00000000 </v>
   <v>      -0.16666667       0.16666667       0.00000000 </v>
   <v>       0.25000000       0.25000000       0.00000000 </v>
   <v>       0.33333333       0.25000000       0.00000000 </v>
   <v>       0.41666667       0.25000000       0.00000000 </v>
   <v>       0.50000000       0.25000000       0.00000000 </v>
   <v>      -0.41666667       0.25000000       0.00000000 </v>
   <v>      -0.33333333       0.25000000      -0.00000000 </v>
   <v>      -0.25000000       0.25000000      -0.00000000 </v>
   <v>       0.33333333       0.33333333       0.00000000 </v>
   <v>       0.41666667       0.33333333       0.00000000 </v>
   <v>       0.50000000       0.33333333       0.00000000 </v>
   <v>      -0.41666667       0.33333333       0.00000000 </v>
   <v>      -0.33333333       0.33333333      -0.00000000 </v>
   <v>       0.41666667       0.41666667       0.00000000 </v>
   <v>       0.50000000       0.41666667       0.00000000 </v>
   <v>      -0.41666667       0.41666667       0.00000000 </v>
   <v>       0.50000000       0.50000000       0.00000000 </v>
   <v>       0.08333333       0.00000000       0.08333333 </v>
   <v>       0.16666667       0.00000000       0.08333333 </v>
   <v>       0.25000000       0.00000000       0.08333333 </v>
   <v>       0.33333333       0.00000000       0.08333333 </v>
   <v>       0.41666667      -0.00000000       0.08333333 </v>
   <v>       0.50000000      -0.00000000       0.08333333 </v>
   <v>      -0.41666667      -0.00000000       0.08333333 </v>
   <v>      -0.33333333       0.00000000       0.08333333 </v>
   <v>      -0.25000000      -0.00000000       0.08333333 </v>
   <v>      -0.16666667      -0.00000000       0.08333333 </v>
   <v>      -0.08333333      -0.00000000       0.08333333 </v>
   <v>       0.25000000       0.16666667       0.08333333 </v>
   <v>       0.33333333       0.16666667       0.08333333 </v>
   <v>       0.41666667       0.16666667       0.08333333 </v>
   <v>       0.50000000       0.16666667       0.08333333 </v>
   <v>      -0.41666667       0.16666667       0.08333333 </v>
   <v>       0.16666667       0.25000000       0.08333333 </v>
   <v>       0.33333333       0.25000000       0.08333333 </v>
   <v>       0.41666667       0.25000000       0.08333333 </v>
   <v>       0.50000000       0.25000000       0.08333333 </v>
   <v>      -0.41666667       0.25000000       0.08333333 </v>
   <v>      -0.33333333       0.25000000       0.08333333 </v>
   <v>      -0.25000000       0.25000000       0.08333333 </v>
   <v>      -0.16666667       0.25000000       0.08333333 </v>
   <v>       0.16666667       0.33333333       0.08333333 </v>
   <v>       0.25000000       0.33333333       0.08333333 </v>
   <v>       0.41666667       0.33333333       0.08333333 </v>
   <v>       0.50000000       0.33333333       0.08333333 </v>
   <v>      -0.41666667       0.33333333       0.08333333 </v>
   <v>      -0.33333333       0.33333333       0.08333333 </v>
   <v>      -0.25000000       0.33333333       0.08333333 </v>
   <v>       0.16666667       0.41666667       0.08333333 </v>
   <v>       0.25000000       0.41666667       0.08333333 </v>
   <v>       0.33333333       0.41666667       0.08333333 </v>
   <v>       0.50000000       0.41666667       0.08333333 </v>
   <v>      -0.41666667       0.41666667       0.08333333 </v>
   <v>      -0.33333333       0.41666667       0.08333333 </v>
   <v>       0.16666667       0.50000000       0.08333333 </v>
   <v>       0.25000000       0.50000000       0.08333333 </v>
   <v>       0.33333333       0.50000000       0.08333333 </v>
   <v>       0.41666667       0.50000000       0.08333333 </v>
   <v>      -0.41666667       0.50000000       0.08333333 </v>
   <v>       0.16666667      -0.41666667       0.08333333 </v>
   <v>       0.25000000      -0.41666667       0.08333333 </v>
   <v>       0.33333333      -0.41666667       0.08333333 </v>
   <v>       0.41666667      -0.41666667       0.08333333 </v>
   <v>       0.50000000      -0.41666667       0.08333333 </v>
   <v>       0.16666667      -0.33333333       0.08333333 </v>
   <v>       0.25000000      -0.33333333       0.08333333 </v>
   <v>       0.33333333      -0.33333333       0.08333333 </v>
   <v>       0.41666667      -0.33333333       0.08333333 </v>
   <v>       0.16666667      -0.25000000       0.08333333 </v>
   <v>       0.25000000      -0.25000000       0.08333333 </v>
   <v>       0.33333333      -0.25000000       0.08333333 </v>
   <v>       0.16666667      -0.16666667       0.08333333 </v>
   <v>       0.25000000      -0.16666667       0.08333333 </v>
   <v>       0.16666667      -0.08333333       0.08333333 </v>
   <v>       0.16666667       0.00000000       0.16666667 </v>
   <v>       0.25000000       0.00000000       0.16666667 </v>
   <v>       0.33333333       0.00000000       0.16666667 </v>
   <v>       0.41666667       0.00000000       0.16666667 </v>
   <v>       0.50000000       0.00000000       0.16666667 </v>
   <v>      -0.41666667      -0.00000000       0.16666667 </v>
   <v>      -0.33333333      -0.00000000       0.16666667 </v>
   <v>      -0.25000000       0.00000000       0.16666667 </v>
   <v>      -0.16666667      -0.00000000       0.16666667 </v>
   <v>       0.50000000       0.33333333       0.16666667 </v>
   <v>      -0.41666667       0.33333333       0.16666667 </v>
   <v>      -0.33333333       0.33333333       0.16666667 </v>
   <v>       0.25000000       0.41666667       0.16666667 </v>
   <v>      -0.41666667       0.41666667       0.16666667 </v>
   <v>      -0.33333333       0.41666667       0.16666667 </v>
   <v>      -0.25000000       0.41666667       0.16666667 </v>
   <v>       0.25000000       0.50000000       0.16666667 </v>
   <v>       0.33333333       0.50000000       0.16666667 </v>
   <v>      -0.33333333       0.50000000       0.16666667 </v>
   <v>       0.25000000      -0.41666667       0.16666667 </v>
   <v>       0.33333333      -0.41666667       0.16666667 </v>
   <v>       0.41666667      -0.41666667       0.16666667 </v>
   <v>       0.25000000      -0.33333333       0.16666667 </v>
   <v>       0.33333333      -0.33333333       0.16666667 </v>
   <v>       0.41666667      -0.33333333       0.16666667 </v>
   <v>       0.50000000      -0.33333333       0.16666667 </v>
   <v>       0.25000000      -0.25000000       0.16666667 </v>
   <v>       0.33333333      -0.25000000       0.16666667 </v>
   <v>       0.41666667      -0.25000000       0.16666667 </v>
   <v>       0.25000000      -0.16666667       0.16666667 </v>
   <v>       0.33333333      -0.16666667       0.16666667 </v>
   <v>       0.25000000      -0.08333333       0.16666667 </v>
   <v>       0.25000000       0.00000000       0.25000000 </v>
   <v>       0.33333333       0.00000000       0.25000000 </v>
   <v>       0.41666667       0.00000000       0.25000000 </v>
   <v>       0.50000000       0.00000000       0.25000000 </v>
   <v>      -0.41666667       0.00000000       0.25000000 </v>
   <v>      -0.33333333      -0.00000000       0.25000000 </v>
   <v>      -0.25000000      -0.00000000       0.25000000 </v>
   <v>      -0.25000000       0.50000000       0.25000000 </v>
   <v>       0.33333333      -0.41666667       0.25000000 </v>
   <v>       0.33333333      -0.33333333       0.25000000 </v>
   <v>       0.41666667      -0.33333333       0.25000000 </v>
   <v>       0.33333333      -0.25000000       0.25000000 </v>
   <v>       0.41666667      -0.25000000       0.25000000 </v>
   <v>       0.50000000      -0.25000000       0.25000000 </v>
   <v>       0.33333333      -0.16666667       0.25000000 </v>
   <v>       0.41666667      -0.16666667       0.25000000 </v>
   <v>       0.33333333      -0.08333333       0.25000000 </v>
   <v>       0.33333333       0.00000000       0.33333333 </v>
   <v>       0.41666667       0.00000000       0.33333333 </v>
   <v>       0.50000000       0.00000000       0.33333333 </v>
   <v>      -0.41666667       0.00000000       0.33333333 </v>
   <v>      -0.33333333       0.00000000       0.33333333 </v>
   <v>       0.41666667      -0.25000000       0.33333333 </v>
   <v>       0.41666667      -0.16666667       0.33333333 </v>
   <v>       0.50000000      -0.16666667       0.33333333 </v>
   <v>       0.41666667      -0.08333333       0.33333333 </v>
   <v>       0.41666667       0.00000000       0.41666667 </v>
   <v>       0.50000000       0.00000000       0.41666667 </v>
   <v>      -0.41666667       0.00000000       0.41666667 </v>
   <v>       0.50000000      -0.08333333       0.41666667 </v>
   <v>       0.50000000       0.00000000       0.50000000 </v>
  </varray>
  <varray name="weights" >
   <v>       0.00057870 </v>
   <v>       0.00462963 </v>
   <v>       0.00462963 </v>
   <v>       0.00462963 </v>
   <v>       0.00462963 </v>
   <v>       0.00462963 </v>
   <v>       0.00231481 </v>
   <v>       0.00231481 </v>
   <v>       0.00925926 </v>
   <v>       0.00925926 </v>
   <v>       0.00925926 </v>
   <v>       0.00925926 </v>
   <v>       0.00925926 </v>
   <v>       0.00925926 </v>
   <v>       0.00925926 </v>
   <v>       0.00925926 </v>
   <v>       0.00925926 </v>
   <v>       0.00462963 </v>
   <v>       0.00231481 </v>
   <v>       0.00925926 </v>
   <v>       0.00925926 </v>
   <v>       0.00925926 </v>
   <v>       0.00925926 </v>
   <v>       0.00925926 </v>
   <v>       0.00925926 </v>
   <v>       0.00925926 </v>
   <v>       0.00462963 </v>
   <v>       0.00231481 </v>
   <v>       0.00925926 </v>
   <v>       0.00925926 </v>
   <v>       0.00925926 </v>
   <v>       0.00925926 </v>
   <v>       0.00925926 </v>
   <v>       0.00462963 </v>
   <v>       0.00231481 </v>
   <v>       0.00925926 </v>
   <v>       0.00925926 </v>
   <v>       0.00925926 </v>
   <v>       0.00462963 </v>
   <v>       0.00231481 </v>
   <v>       0.00925926 </v>
   <v>       0.00462963 </v>
   <v>       0.00115741 </v>
   <v>       0.00115741 </v>
   <v>       0.00462963 </v>
   <v>       0.00462963 </v>
   <v>       0.00462963 </v>
   <v>       0.00462963 </v>
   <v>       0.00462963 </v>
   <v>       0.00462963 </v>
   <v>       0.00462963 </v>
   <v>       0.00462963 </v>
   <v>       0.00462963 </v>
   <v>       0.00231481 </v>
   <v>       0.00462963 </v>
   <v>       0.00925926 </v>
   <v>       0.00925926 </v>
   <v>       0.00925926 </v>
   <v>       0.00462963 </v>
   <v>       0.00462963 </v>
   <v>       0.00462963 </v>
   <v>       0.00925926 </v>
   <v>       0.00925926 </v>
   <v>       0.00925926 </v>
   <v>       0.00925926 </v>
   <v>       0.00925926 </v>
   <v>       0.00462963 </v>
   <v>       0.00925926 </v>
   <v>       0.00462963 </v>
   <v>       0.00462963 </v>
   <v>       0.00925926 </v>
   <v>       0.00925926 </v>
   <v>       0.00925926 </v>
   <v>       0.00462963 </v>
   <v>       0.00925926 </v>
   <v>       0.00925926 </v>
   <v>       0.00462963 </v>
   <v>       0.00462963 </v>
   <v>       0.00925926 </v>
   <v>       0.00462963 </v>
   <v>       0.00925926 </v>
   <v>       0.00925926 </v>
   <v>       0.00925926 </v>
   <v>       0.00462963 </v>
   <v>       0.00231481 </v>
   <v>       0.00925926 </v>
   <v>       0.00925926 </v>
   <v>       0.00925926 </v>
   <v>       0.00925926 </v>
   <v>       0.00231481 </v>
   <v>       0.00925926 </v>
   <v>       0.00925926 </v>
   <v>       0.00925926 </v>
   <v>       0.00462963 </v>
   <v>       0.00925926 </v>
   <v>       0.00925926 </v>
   <v>       0.00462963 </v>
   <v>       0.00925926 </v>
   <v>       0.00462963 </v>
   <v>       0.00462963 </v>
   <v>       0.00115741 </v>
   <v>       0.00462963 </v>
   <v>       0.00462963 </v>
   <v>       0.00462963 </v>
   <v>       0.00462963 </v>
   <v>       0.00462963 </v>
   <v>       0.00462963 </v>
   <v>       0.00462963 </v>
   <v>       0.00231481 </v>
   <v>       0.00462963 </v>
   <v>       0.00925926 </v>
   <v>       0.00462963 </v>
   <v>       0.00462963 </v>
   <v>       0.00462963 </v>
   <v>       0.00925926 </v>
   <v>       0.00462963 </v>
   <v>       0.00925926 </v>
   <v>       0.00462963 </v>
   <v>       0.00231481 </v>
   <v>       0.00925926 </v>
   <v>       0.00925926 </v>
   <v>       0.00462963 </v>
   <v>       0.00925926 </v>
   <v>       0.00925926 </v>
   <v>       0.00925926 </v>
   <v>       0.00231481 </v>
   <v>       0.00925926 </v>
   <v>       0.00925926 </v>
   <v>       0.00462963 </v>
   <v>       0.00925926 </v>
   <v>       0.00462963 </v>
   <v>       0.00462963 </v>
   <v>       0.00115741 </v>
   <v>       0.00462963 </v>
   <v>       0.00462963 </v>
   <v>       0.00462963 </v>
   <v>       0.00462963 </v>
   <v>       0.00462963 </v>
   <v>       0.00231481 </v>
   <v>       0.00115741 </v>
   <v>       0.00462963 </v>
   <v>       0.00925926 </v>
   <v>       0.00462963 </v>
   <v>       0.00925926 </v>
   <v>       0.00925926 </v>
   <v>       0.00231481 </v>
   <v>       0.00925926 </v>
   <v>       0.00462963 </v>
   <v>       0.00462963 </v>
   <v>       0.00115741 </v>
   <v>       0.00462963 </v>
   <v>       0.00462963 </v>
   <v>       0.00462963 </v>
   <v>       0.00231481 </v>
   <v>       0.00462963 </v>
   <v>       0.00925926 </v>
   <v>       0.00231481 </v>
   <v>       0.00462963 </v>
   <v>       0.00115741 </v>
   <v>       0.00462963 </v>
   <v>       0.00231481 </v>
   <v>       0.00231481 </v>
   <v>       0.00057870 </v>
  </varray>
 </kpoints>
 <parameters>
  <separator name="general" >
   <i type="string" name="SYSTEM">unknown system</i>
   <i type="logical" name="LCOMPAT"> F  </i>
  </separator>
  <separator name="electronic" >
   <i type="string" name="PREC">accura</i>
   <i name="ENMAX">    520.00000000</i>
   <i name="ENAUG">    370.13900000</i>
   <i name="EDIFF">      0.00000001</i>
   <i type="int" name="IALGO">    38</i>
   <i type="int" name="IWAVPR">    11</i>
   <i type="int" name="NBANDS">    16</i>
   <i name="NELECT">     14.00000000</i>
   <i type="int" name="TURBO">     0</i>
   <i type="int" name="IRESTART">     0</i>
   <i type="int" name="NREBOOT">     0</i>
   <i type="int" name="NMIN">     0</i>
   <i name="EREF">      0.00000000</i>
   <separator name="electronic smearing" >
    <i type="int" name="ISMEAR">     0</i>
    <i name="SIGMA">      0.01000000</i>
    <i name="KSPACING">      0.50000000</i>
    <i type="logical" name="KGAMMA"> T  </i>
   </separator>
   <separator name="electronic projectors" >
    <i type="logical" name="LREAL"> F  </i>
    <v name="ROPT">      0.00000000      0.00000000</v>
    <i type="int" name="LMAXPAW">  -100</i>
    <i type="int" name="LMAXMIX">     2</i>
    <i type="logical" name="NLSPLINE"> F  </i>
   </separator>
   <separator name="electronic startup" >
    <i type="int" name="ISTART">     0</i>
    <i type="int" name="ICHARG">     2</i>
    <i type="int" name="INIWAV">     1</i>
   </separator>
   <separator name="electronic spin" >
    <i type="int" name="ISPIN">     1</i>
    <i type="logical" name="LNONCOLLINEAR"> F  </i>
    <v name="MAGMOM">      1.00000000      1.00000000</v>
    <i name="NUPDOWN">     -1.00000000</i>
    <i type="logical" name="LSORBIT"> F  </i>
    <v name="SAXIS">      0.00000000      0.00000000      1.00000000</v>
    <i type="logical" name="LSPIRAL"> F  </i>
    <v name="QSPIRAL">      0.00000000      0.00000000      0.00000000</v>
    <i type="logical" name="LZEROZ"> F  </i>
   </separator>
   <separator name="electronic exchange-correlation" >
    <i type="logical" name="LASPH"> F  </i>
    <i type="logical" name="LMETAGGA"> F  </i>
   </separator>
   <separator name="electronic convergence" >
    <i type="int" name="NELM">   100</i>
    <i type="int" name="NELMDL">    -5</i>
    <i type="int" name="NELMIN">     2</i>
    <i name="ENINI">    520.00000000</i>
    <separator name="electronic convergence detail" >
     <i type="logical" name="LDIAG"> T  </i>
     <i type="logical" name="LSUBROT"> F  </i>
     <i name="WEIMIN">      0.00100000</i>
     <i name="EBREAK">      0.00000000</i>
     <i name="DEPER">      0.30000000</i>
     <i type="int" name="NRMM">     4</i>
     <i name="TIME">      0.40000000</i>
    </separator>
   </separator>
   <separator name="electronic mixer" >
    <i name="AMIX">      0.40000000</i>
    <i name="BMIX">      1.00000000</i>
    <i name="AMIN">      0.10000000</i>
    <i name="AMIX_MAG">      1.60000000</i>
    <i name="BMIX_MAG">      1.00000000</i>
    <separator name="electronic mixer details" >
     <i type="int" name="IMIX">     4</i>
     <i type="logical" name="MIXFIRST"> F  </i>
     <i type="int" name="MAXMIX">   -45</i>
     <i name="WC">    100.00000000</i>
     <i type="int" name="INIMIX">     1</i>
     <i type="int" name="MIXPRE">     1</i>
     <i type="int" name="MREMOVE">     5</i>
    </separator>
   </separator>
   <separator name="electronic dipolcorrection" >
    <i type="logical" name="LDIPOL"> F  </i>
    <i type="logical" name="LMONO"> F  </i>
    <i type="int" name="IDIPOL">     0</i>
    <i name="EPSILON">      1.00000000</i>
    <v name="DIPOL">   -100.00000000   -100.00000000   -100.00000000</v>
    <i name="EFIELD">      0.00000000</i>
   </separator>
  </separator>
  <separator name="grids" >
   <i type="int" name="NGX">    36</i>
   <i type="int" name="NGY">    36</i>
   <i type="int" name="NGZ">    36</i>
   <i type="int" name="NGXF">    72</i>
   <i type="int" name="NGYF">    72</i>
   <i type="int" name="NGZF">    72</i>
   <i type="logical" name="ADDGRID"> F  </i>
  </separator>
  <separator name="ionic" >
   <i type="int" name="NSW">     1</i>
   <i type="int" name="IBRION">     8</i>
   <i type="int" name="MDALGO">     0</i>
   <i type="int" name="ISIF">     2</i>
   <i name="PSTRESS">      0.00000000</i>
   <i name="EDIFFG">      0.00000010</i>
   <i type="int" name="NFREE">     0</i>
   <i name="POTIM">      0.50000000</i>
   <i name="SMASS">     -3.00000000</i>
   <i name="SCALEE">      1.00000000</i>
  </separator>
  <separator name="ionic md" >
   <i name="TEBEG">      0.00010000</i>
   <i name="TEEND">      0.00010000</i>
   <i type="int" name="NBLOCK">     1</i>
   <i type="int" name="KBLOCK">     1</i>
   <i type="int" name="NPACO">   256</i>
   <i name="APACO">     16.00000000</i>
  </separator>
  <separator name="symmetry" >
   <i type="int" name="ISYM">     2</i>
   <i name="SYMPREC">      0.00000001</i>
  </separator>
  <separator name="dos" >
   <i type="int" name="LORBIT">     0</i>
   <v name="RWIGS">     -1.00000000     -1.00000000</v>
   <i type="int" name="NEDOS">   301</i>
   <i name="EMIN">     10.00000000</i>
   <i name="EMAX">    -10.00000000</i>
   <i name="EFERMI">      0.00000000</i>
  </separator>
  <separator name="writing" >
   <i type="int" name="NWRITE">     2</i>
   <i type="logical" name="LWAVE"> F  </i>
   <i type="logical" name="LDOWNSAMPLE"> F  </i>
   <i type="logical" name="LCHARG"> T  </i>
   <i type="logical" name="LPARD"> F  </i>
   <i type="logical" name="LVTOT"> F  </i>
   <i type="logical" name="LVHAR"> F  </i>
   <i type="logical" name="LELF"> F  </i>
   <i type="logical" name="LOPTICS"> F  </i>
   <v name="STM">      0.00000000      0.00000000      0.00000000      0.00000000      0.00000000      0.00000000      0.00000000</v>
  </separator>
  <separator name="performance" >
   <i type="int" name="NPAR">     8</i>
   <i type="int" name="NSIM">     4</i>
   <i type="int" name="NBLK">    -1</i>
   <i type="logical" name="LPLANE"> T  </i>
   <i type="logical" name="LSCALAPACK"> T  </i>
   <i type="logical" name="LSCAAWARE"> F  </i>
   <i type="logical" name="LSCALU"> F  </i>
   <i type="logical" name="LASYNC"> F  </i>
   <i type="logical" name="LORBITALREAL"> F  </i>
  </separator>
  <separator name="miscellaneous" >
   <i type="int" name="IDIOT">     3</i>
   <i type="int" name="ISPECIAL">     0</i>
   <i type="logical" name="LMUSIC"> F  </i>
   <v name="POMASS">     22.99000000    126.90400000</v>
   <v name="DARWINR">      0.00000000      0.00000000</v>
   <v name="DARWINV">      1.00000000      1.00000000</v>
   <i type="logical" name="LCORR"> T  </i>
  </separator>
  <i type="logical" name="GGA_COMPAT"> T  </i>
  <i type="logical" name="LBERRY"> F  </i>
  <i type="int" name="ICORELEVEL">     0</i>
  <i type="logical" name="LDAU"> F  </i>
  <i type="int" name="I_CONSTRAINED_M">     0</i>
  <separator name="electronic exchange-correlation" >
   <i type="string" name="GGA">--</i>
   <i type="int" name="VOSKOWN">     0</i>
   <i type="logical" name="LHFCALC"> F  </i>
   <i type="string" name="PRECFOCK"></i>
   <i type="logical" name="LSYMGRAD"> F  </i>
   <i type="logical" name="LHFONE"> F  </i>
   <i type="logical" name="LRHFCALC"> F  </i>
   <i type="logical" name="LTHOMAS"> F  </i>
   <i type="logical" name="LMODELHF"> F  </i>
   <i name="ENCUT4O">     -1.00000000</i>
   <i type="int" name="EXXOEP">     0</i>
   <i type="int" name="FOURORBIT">     0</i>
   <i name="AEXX">      0.00000000</i>
   <i name="HFALPHA">      0.00000000</i>
   <i name="MCALPHA">      0.00000000</i>
   <i name="ALDAX">      1.00000000</i>
   <i name="AGGAX">      1.00000000</i>
   <i name="ALDAC">      1.00000000</i>
   <i name="AGGAC">      1.00000000</i>
   <i type="int" name="NKREDX">     1</i>
   <i type="int" name="NKREDY">     1</i>
   <i type="int" name="NKREDZ">     1</i>
   <i type="logical" name="SHIFTRED"> F  </i>
   <i type="logical" name="ODDONLY"> F  </i>
   <i type="logical" name="EVENONLY"> F  </i>
   <i type="int" name="LMAXFOCK">     0</i>
   <i type="int" name="NMAXFOCKAE">     0</i>
   <i type="logical" name="LFOCKAEDFT"> F  </i>
   <i name="HFSCREEN">      0.00000000</i>
   <i name="HFSCREENC">      0.00000000</i>
   <i type="int" name="NBANDSGWLOW">     0</i>
  </separator>
  <separator name="vdW DFT" >
   <i type="logical" name="LUSE_VDW"> F  </i>
   <i name="Zab_VDW">     -0.84910000</i>
   <i name="PARAM1">      0.12340000</i>
   <i name="PARAM2">      1.00000000</i>
   <i name="PARAM3">      0.00000000</i>
  </separator>
  <separator name="model GW" >
   <i type="int" name="MODEL_GW">     0</i>
   <i name="MODEL_EPS0">     20.00668422</i>
   <i name="MODEL_ALPHA">      1.00000000</i>
  </separator>
  <separator name="linear response parameters" >
   <i type="logical" name="LEPSILON"> T  </i>
   <i type="logical" name="LRPA"> F  </i>
   <i type="logical" name="LNABLA"> F  </i>
   <i type="logical" name="LVEL"> F  </i>
   <i type="int" name="KINTER">     0</i>
   <i name="CSHIFT">      0.10000000</i>
   <i name="OMEGAMAX">     -1.00000000</i>
   <i name="DEG_THRESHOLD">      0.00200000</i>
   <i name="RTIME">     -0.10000000</i>
   <i name="WPLASMAI">      0.00000000</i>
   <v name="DFIELD">      0.00000000      0.00000000      0.00000000</v>
   <v name="WPLASMA">      0.00000000      0.00000000      0.00000000      0.00000000      0.00000000      0.00000000      0.00000000      0.00000000      0.00000000</v>
  </separator>
  <separator name="orbital magnetization" >
   <i type="logical" name="NUCIND"> F  </i>
   <v name="MAGPOS">      0.00000000      0.00000000      0.00000000</v>
   <i type="logical" name="LNICSALL"> T  </i>
   <i type="logical" name="ORBITALMAG"> F  </i>
   <i type="logical" name="LMAGBLOCH"> F  </i>
   <i type="logical" name="LCHIMAG"> F  </i>
   <i type="logical" name="LGAUGE"> T  </i>
   <i type="int" name="MAGATOM">     0</i>
   <v name="MAGDIPOL">      0.00000000      0.00000000      0.00000000</v>
   <v name="AVECCONST">      0.00000000      0.00000000      0.00000000</v>
  </separator>
  <separator name="response functions" >
   <i type="logical" name="LADDER"> F  </i>
   <i type="logical" name="LRPAFORCE"> F  </i>
   <i type="logical" name="LFXC"> F  </i>
   <i type="logical" name="LHARTREE"> T  </i>
   <i type="int" name="IBSE">     0</i>
   <v type="int" name="KPOINT">    -1     0     0     0</v>
   <i type="logical" name="LTCTE"> F  </i>
   <i type="logical" name="LTETE"> F  </i>
   <i type="logical" name="LTRIPLET"> F  </i>
   <i type="logical" name="LFXCEPS"> F  </i>
   <i type="logical" name="LFXHEG"> F  </i>
   <i type="int" name="NATURALO">     2</i>
   <i type="logical" name="L2ORDER"> F  </i>
   <i type="logical" name="LMP2LT"> F  </i>
   <i type="logical" name="LUSEW"> F  </i>
   <i name="ENCUTGW">     -2.00000000</i>
   <i name="ENCUTGWSOFT">     -2.00000000</i>
   <i name="ENCUTLF">     -1.00000000</i>
   <i type="int" name="LMAXMP2">    -1</i>
   <i name="SCISSOR">      0.00000000</i>
   <i type="int" name="NOMEGA">     0</i>
   <i type="int" name="NOMEGAR">     0</i>
   <i type="int" name="NBANDSGW">    -1</i>
   <i type="int" name="NBANDSO">    -1</i>
   <i type="int" name="NBANDSV">    -1</i>
   <i type="int" name="NELM">   100</i>
   <i type="int" name="NELMHF">     1</i>
   <i type="int" name="DIM">     3</i>
   <i type="int" name="ANTIRES">     0</i>
   <i name="OMEGAMAX">    -30.00000000</i>
   <i name="OMEGAMIN">    -30.00000000</i>
   <i name="OMEGATL">   -200.00000000</i>
   <i type="int" name="OMEGAGRID">   140</i>
   <i name="CSHIFT">     -0.10000000</i>
   <i type="logical" name="SELFENERGY"> F  </i>
   <i type="logical" name="LSPECTRAL"> F  </i>
   <i type="logical" name="LSPECTRALGW"> F  </i>
   <i type="logical" name="LSINGLES"> F  </i>
   <i type="logical" name="LFERMIGW"> F  </i>
   <i type="logical" name="ODDONLYGW"> F  </i>
   <i type="logical" name="EVENONLYGW"> F  </i>
   <i type="int" name="NKREDLFX">     1</i>
   <i type="int" name="NKREDLFY">     1</i>
   <i type="int" name="NKREDLFZ">     1</i>
   <i type="int" name="MAXMEM">  2800</i>
   <i type="int" name="TELESCOPE">     0</i>
   <i type="int" name="TAUPAR">     1</i>
   <i type="int" name="OMEGAPAR">    -1</i>
   <i name="LAMBDA">      1.00000000</i>
  </separator>
  <separator name="External order field" >
   <i name="OFIELD_KAPPA">      0.00000000</i>
   <v name="OFIELD_K">      0.00000000      0.00000000      0.00000000</v>
   <i name="OFIELD_Q6_NEAR">      0.00000000</i>
   <i name="OFIELD_Q6_FAR">      0.00000000</i>
   <i name="OFIELD_A">      0.00000000</i>
  </separator>
 </parameters>
 <atominfo>
  <atoms>       2 </atoms>
  <types>       2 </types>
  <array name="atoms" >
   <dimension dim="1">ion</dimension>
   <field type="string">element</field>
   <field type="int">atomtype</field>
   <set>
    <rc><c>Na</c><c>   1</c></rc>
    <rc><c>I </c><c>   2</c></rc>
   </set>
  </array>
  <array name="atomtypes" >
   <dimension dim="1">type</dimension>
   <field type="int">atomspertype</field>
   <field type="string">element</field>
   <field>mass</field>
   <field>valence</field>
   <field type="string">pseudopotential</field>
   <set>
    <rc><c>   1</c><c>Na</c><c>     22.99000000</c><c>      7.00000000</c><c>  PAW_PBE Na_pv 19Sep2006               </c></rc>
    <rc><c>   1</c><c>I </c><c>    126.90400000</c><c>      7.00000000</c><c>  PAW_PBE I 08Apr2002                   </c></rc>
   </set>
  </array>
 </atominfo>
 <structure name="initialpos" >
  <crystal>
   <varray name="basis" >
    <v>      -3.21865644       0.00000000       3.21865644 </v>
    <v>       0.00000000       3.21865644       3.21865644 </v>
    <v>      -3.21865644       3.21865644       0.00000000 </v>
   </varray>
   <i name="volume">     66.68894741 </i>
   <varray name="rec_basis" >
    <v>      -0.15534432      -0.15534432       0.15534432 </v>
    <v>       0.15534432       0.15534432       0.15534432 </v>
    <v>      -0.15534432       0.15534432      -0.15534432 </v>
   </varray>
  </crystal>
  <varray name="positions" >
   <v>       0.00000000       0.00000000       0.00000000 </v>
   <v>       0.49999996       0.50000004       0.49999996 </v>
  </varray>
 </structure>
 <calculation>
  <scstep>
   <time name="dav">    1.57    1.58</time>
   <time name="total">    1.60    1.61</time>
   <energy>
    <i name="alphaZ">     13.13540093 </i>
    <i name="ewald">   -621.98857393 </i>
    <i name="hartreedc">   -279.05701005 </i>
    <i name="XCdc">     11.41475552 </i>
    <i name="pawpsdc">    774.27592168 </i>
    <i name="pawaedc">   -836.56624056 </i>
    <i name="eentropy">     -0.00001349 </i>
    <i name="bandstr">    -56.94117288 </i>
    <i name="atom">   1081.90895258 </i>
    <i name="e_fr_energy">     86.18201982 </i>
    <i name="e_wo_entrp">     86.18203331 </i>
    <i name="e_0_energy">     86.18202656 </i>
   </energy>
  </scstep>
  <scstep>
   <time name="dav">    1.66    1.69</time>
   <time name="total">    1.66    1.69</time>
   <energy>
    <i name="e_fr_energy">      0.93622654 </i>
    <i name="e_wo_entrp">      0.93622654 </i>
    <i name="e_0_energy">      0.93622654 </i>
   </energy>
  </scstep>
  <scstep>
   <time name="dav">    1.89    1.90</time>
   <time name="total">    1.89    1.90</time>
   <energy>
    <i name="e_fr_energy">     -5.30937108 </i>
    <i name="e_wo_entrp">     -5.30937108 </i>
    <i name="e_0_energy">     -5.30937108 </i>
   </energy>
  </scstep>
  <scstep>
   <time name="dav">    1.94    1.95</time>
   <time name="total">    1.94    1.95</time>
   <energy>
    <i name="e_fr_energy">     -5.44407011 </i>
    <i name="e_wo_entrp">     -5.44407011 </i>
    <i name="e_0_energy">     -5.44407011 </i>
   </energy>
  </scstep>
  <scstep>
   <time name="dav">    1.97    1.98</time>
   <time name="total">    2.08    2.08</time>
   <energy>
    <i name="e_fr_energy">     -5.44650743 </i>
    <i name="e_wo_entrp">     -5.44650743 </i>
    <i name="e_0_energy">     -5.44650743 </i>
   </energy>
  </scstep>
  <scstep>
   <time name="dav">    1.81    1.82</time>
   <time name="total">    1.94    1.95</time>
   <energy>
    <i name="e_fr_energy">     -5.38732156 </i>
    <i name="e_wo_entrp">     -5.38732156 </i>
    <i name="e_0_energy">     -5.38732156 </i>
   </energy>
  </scstep>
  <scstep>
   <time name="dav">    1.80    1.82</time>
   <time name="total">    1.93    1.95</time>
   <energy>
    <i name="e_fr_energy">     -5.37906588 </i>
    <i name="e_wo_entrp">     -5.37906588 </i>
    <i name="e_0_energy">     -5.37906588 </i>
   </energy>
  </scstep>
  <scstep>
   <time name="dav">    1.72    1.72</time>
   <time name="total">    1.85    1.85</time>
   <energy>
    <i name="e_fr_energy">     -5.38105582 </i>
    <i name="e_wo_entrp">     -5.38105582 </i>
    <i name="e_0_energy">     -5.38105582 </i>
   </energy>
  </scstep>
  <scstep>
   <time name="dav">    1.78    1.79</time>
   <time name="total">    1.91    1.92</time>
   <energy>
    <i name="e_fr_energy">     -5.38101980 </i>
    <i name="e_wo_entrp">     -5.38101980 </i>
    <i name="e_0_energy">     -5.38101980 </i>
   </energy>
  </scstep>
  <scstep>
   <time name="dav">    1.95    1.95</time>
   <time name="total">    2.08    2.08</time>
   <energy>
    <i name="e_fr_energy">     -5.38103314 </i>
    <i name="e_wo_entrp">     -5.38103314 </i>
    <i name="e_0_energy">     -5.38103314 </i>
   </energy>
  </scstep>
  <scstep>
   <time name="dav">    1.82    1.83</time>
   <time name="total">    1.95    1.96</time>
   <energy>
    <i name="e_fr_energy">     -5.38103471 </i>
    <i name="e_wo_entrp">     -5.38103471 </i>
    <i name="e_0_energy">     -5.38103471 </i>
   </energy>
  </scstep>
  <scstep>
   <time name="dav">    1.74    1.75</time>
   <time name="total">    1.87    1.88</time>
   <energy>
    <i name="e_fr_energy">     -5.38103506 </i>
    <i name="e_wo_entrp">     -5.38103506 </i>
    <i name="e_0_energy">     -5.38103506 </i>
   </energy>
  </scstep>
  <scstep>
   <time name="dav">    1.99    1.99</time>
   <time name="total">    2.12    2.12</time>
   <energy>
    <i name="e_fr_energy">     -5.38103510 </i>
    <i name="e_wo_entrp">     -5.38103510 </i>
    <i name="e_0_energy">     -5.38103510 </i>
   </energy>
  </scstep>
  <scstep>
   <time name="dav">    1.67    1.68</time>
   <time name="total">    1.69    1.70</time>
   <energy>
    <i name="alphaZ">     13.13540093 </i>
    <i name="ewald">   -621.98857393 </i>
    <i name="hartreedc">   -278.91863598 </i>
    <i name="XCdc">     11.84537691 </i>
    <i name="pawpsdc">    871.70850435 </i>
    <i name="pawaedc">   -934.10621712 </i>
    <i name="eentropy">     -0.00000000 </i>
    <i name="bandstr">   -148.96584283 </i>
    <i name="atom">   1081.90895258 </i>
    <i name="e_fr_energy">     -5.38103510 </i>
    <i name="e_wo_entrp">     -5.38103510 </i>
    <i name="e_0_energy">     -5.38103510 </i>
   </energy>
  </scstep>
  <structure>
   <crystal>
    <varray name="basis" >
     <v>      -3.21865644       0.00000000       3.21865644 </v>
     <v>       0.00000000       3.21865644       3.21865644 </v>
     <v>      -3.21865644       3.21865644       0.00000000 </v>
    </varray>
    <i name="volume">     66.68894741 </i>
    <varray name="rec_basis" >
     <v>      -0.15534432      -0.15534432       0.15534432 </v>
     <v>       0.15534432       0.15534432       0.15534432 </v>
     <v>      -0.15534432       0.15534432      -0.15534432 </v>
    </varray>
   </crystal>
   <varray name="positions" >
    <v>       0.00000000       0.00000000       0.00000000 </v>
    <v>       0.49999996       0.50000004       0.49999996 </v>
   </varray>
  </structure>
  <varray name="forces" >
   <v>       0.00000023       0.00000000       0.00000000 </v>
   <v>      -0.00000023      -0.00000000      -0.00000000 </v>
  </varray>
  <varray name="stress" >
   <v>       7.24675916       0.00000000       0.00000000 </v>
   <v>       0.00000000       7.24675540      -0.00000000 </v>
   <v>       0.00000000      -0.00000000       7.24675540 </v>
  </varray>
  <energy>
   <i name="e_fr_energy">     -5.38103510 </i>
   <i name="e_wo_entrp">     -5.38103510 </i>
   <i name="e_0_energy">     -0.00000000 </i>
  </energy>
  <scstep>
   <time name="total">    1.65    1.65</time>
   <energy>
    <i name="e_fr_energy">     -0.48466161 </i>
    <i name="e_wo_entrp">     -0.48466161 </i>
    <i name="e_0_energy">     -0.48466161 </i>
   </energy>
  </scstep>
  <scstep>
   <time name="total">    1.78    1.78</time>
   <energy>
    <i name="e_fr_energy">     -0.50722170 </i>
    <i name="e_wo_entrp">     -0.50722170 </i>
    <i name="e_0_energy">     -0.50722170 </i>
   </energy>
  </scstep>
  <scstep>
   <time name="total">    1.73    1.73</time>
   <energy>
    <i name="e_fr_energy">     -0.50720764 </i>
    <i name="e_wo_entrp">     -0.50720764 </i>
    <i name="e_0_energy">     -0.50720764 </i>
   </energy>
  </scstep>
  <scstep>
   <time name="total">    1.79    1.79</time>
   <energy>
    <i name="e_fr_energy">     -0.50720790 </i>
    <i name="e_wo_entrp">     -0.50720790 </i>
    <i name="e_0_energy">     -0.50720790 </i>
   </energy>
  </scstep>
  <scstep>
   <time name="total">    1.68    1.68</time>
   <energy>
    <i name="e_fr_energy">     -0.50720790 </i>
    <i name="e_wo_entrp">     -0.50720790 </i>
    <i name="e_0_energy">     -0.50720790 </i>
   </energy>
  </scstep>
  <scstep>
   <time name="total">    1.64    1.64</time>
   <energy>
    <i name="e_fr_energy">     -0.50720790 </i>
    <i name="e_wo_entrp">     -0.50720790 </i>
    <i name="e_0_energy">     -0.50720790 </i>
   </energy>
  </scstep>
  <scstep>
   <time name="total">    1.78    1.78</time>
   <energy>
    <i name="e_fr_energy">     -0.54521257 </i>
    <i name="e_wo_entrp">     -0.54521257 </i>
    <i name="e_0_energy">     -0.54521257 </i>
   </energy>
  </scstep>
  <scstep>
   <time name="total">    1.85    1.85</time>
   <energy>
    <i name="e_fr_energy">     -0.57331837 </i>
    <i name="e_wo_entrp">     -0.57331837 </i>
    <i name="e_0_energy">     -0.57331837 </i>
   </energy>
  </scstep>
  <scstep>
   <time name="total">    1.82    1.82</time>
   <energy>
    <i name="e_fr_energy">     -0.57330055 </i>
    <i name="e_wo_entrp">     -0.57330055 </i>
    <i name="e_0_energy">     -0.57330055 </i>
   </energy>
  </scstep>
  <scstep>
   <time name="total">    1.80    1.80</time>
   <energy>
    <i name="e_fr_energy">     -0.57330081 </i>
    <i name="e_wo_entrp">     -0.57330081 </i>
    <i name="e_0_energy">     -0.57330081 </i>
   </energy>
  </scstep>
  <scstep>
   <time name="total">    1.74    1.74</time>
   <energy>
    <i name="e_fr_energy">     -0.57330081 </i>
    <i name="e_wo_entrp">     -0.57330081 </i>
    <i name="e_0_energy">     -0.57330081 </i>
   </energy>
  </scstep>
  <scstep>
   <time name="total">    1.70    1.70</time>
   <energy>
    <i name="e_fr_energy">     -0.57330081 </i>
    <i name="e_wo_entrp">     -0.57330081 </i>
    <i name="e_0_energy">     -0.57330081 </i>
   </energy>
  </scstep>
  <scstep>
   <time name="total">    1.68    1.68</time>
   <energy>
    <i name="e_fr_energy">     -0.42413842 </i>
    <i name="e_wo_entrp">     -0.42413842 </i>
    <i name="e_0_energy">     -0.42413842 </i>
   </energy>
  </scstep>
  <scstep>
   <time name="total">    1.81    1.81</time>
   <energy>
    <i name="e_fr_energy">     -0.44111091 </i>
    <i name="e_wo_entrp">     -0.44111091 </i>
    <i name="e_0_energy">     -0.44111091 </i>
   </energy>
  </scstep>
  <scstep>
   <time name="total">    1.76    1.76</time>
   <energy>
    <i name="e_fr_energy">     -0.44110043 </i>
    <i name="e_wo_entrp">     -0.44110043 </i>
    <i name="e_0_energy">     -0.44110043 </i>
   </energy>
  </scstep>
  <scstep>
   <time name="total">    1.80    1.80</time>
   <energy>
    <i name="e_fr_energy">     -0.44110069 </i>
    <i name="e_wo_entrp">     -0.44110069 </i>
    <i name="e_0_energy">     -0.44110069 </i>
   </energy>
  </scstep>
  <scstep>
   <time name="total">    1.68    1.68</time>
   <energy>
    <i name="e_fr_energy">     -0.44110070 </i>
    <i name="e_wo_entrp">     -0.44110070 </i>
    <i name="e_0_energy">     -0.44110070 </i>
   </energy>
  </scstep>
  <scstep>
   <time name="total">    1.65    1.65</time>
   <energy>
    <i name="e_fr_energy">     -0.44110070 </i>
    <i name="e_wo_entrp">     -0.44110070 </i>
    <i name="e_0_energy">     -0.44110070 </i>
   </energy>
  </scstep>
  <varray name="epsilon_rpa" >
   <v>       3.75250468      -0.00000000       0.00000000 </v>
   <v>      -0.00000000       3.75246588      -0.00000000 </v>
   <v>       0.00000000      -0.00000000       3.75246588 </v>
  </varray>
  <kpoints>
   <generation param="Gamma">
    <v type="int" name="divisions">      12       12       12 </v>
    <v name="usershift">      0.00000000       0.00000000       0.00000000 </v>
    <v name="genvec1">      0.08333333       0.00000000       0.00000000 </v>
    <v name="genvec2">      0.00000000       0.08333333      -0.00000000 </v>
    <v name="genvec3">     -0.00000000      -0.00000000       0.08333333 </v>
    <v name="shift">      0.00000000       0.00000000       0.00000000 </v>
   </generation>
   <varray name="kpointlist" >
    <v>       0.00000000       0.00000000       0.00000000 </v>
    <v>       0.08333333       0.00000000       0.00000000 </v>
    <v>       0.16666667       0.00000000      -0.00000000 </v>
    <v>       0.25000000       0.00000000       0.00000000 </v>
    <v>       0.33333333       0.00000000       0.00000000 </v>
    <v>       0.41666667      -0.00000000       0.00000000 </v>
    <v>       0.50000000       0.00000000       0.00000000 </v>
    <v>       0.08333333       0.08333333       0.00000000 </v>
    <v>       0.16666667       0.08333333       0.00000000 </v>
    <v>       0.25000000       0.08333333       0.00000000 </v>
    <v>       0.33333333       0.08333333       0.00000000 </v>
    <v>       0.41666667       0.08333333      -0.00000000 </v>
    <v>       0.50000000       0.08333333       0.00000000 </v>
    <v>      -0.41666667       0.08333333      -0.00000000 </v>
    <v>      -0.33333333       0.08333333       0.00000000 </v>
    <v>      -0.25000000       0.08333333      -0.00000000 </v>
    <v>      -0.16666667       0.08333333      -0.00000000 </v>
    <v>      -0.08333333       0.08333333      -0.00000000 </v>
    <v>       0.16666667       0.16666667       0.00000000 </v>
    <v>       0.25000000       0.16666667       0.00000000 </v>
    <v>       0.33333333       0.16666667       0.00000000 </v>
    <v>       0.41666667       0.16666667       0.00000000 </v>
    <v>       0.50000000       0.16666667      -0.00000000 </v>
    <v>      -0.41666667       0.16666667      -0.00000000 </v>
    <v>      -0.33333333       0.16666667      -0.00000000 </v>
    <v>      -0.25000000       0.16666667       0.00000000 </v>
    <v>      -0.16666667       0.16666667       0.00000000 </v>
    <v>       0.25000000       0.25000000       0.00000000 </v>
    <v>       0.33333333       0.25000000       0.00000000 </v>
    <v>       0.41666667       0.25000000       0.00000000 </v>
    <v>       0.50000000       0.25000000       0.00000000 </v>
    <v>      -0.41666667       0.25000000       0.00000000 </v>
    <v>      -0.33333333       0.25000000      -0.00000000 </v>
    <v>      -0.25000000       0.25000000      -0.00000000 </v>
    <v>       0.33333333       0.33333333       0.00000000 </v>
    <v>       0.41666667       0.33333333       0.00000000 </v>
    <v>       0.50000000       0.33333333       0.00000000 </v>
    <v>      -0.41666667       0.33333333       0.00000000 </v>
    <v>      -0.33333333       0.33333333      -0.00000000 </v>
    <v>       0.41666667       0.41666667       0.00000000 </v>
    <v>       0.50000000       0.41666667       0.00000000 </v>
    <v>      -0.41666667       0.41666667       0.00000000 </v>
    <v>       0.50000000       0.50000000       0.00000000 </v>
    <v>       0.08333333       0.00000000       0.08333333 </v>
    <v>       0.16666667       0.00000000       0.08333333 </v>
    <v>       0.25000000       0.00000000       0.08333333 </v>
    <v>       0.33333333       0.00000000       0.08333333 </v>
    <v>       0.41666667      -0.00000000       0.08333333 </v>
    <v>       0.50000000      -0.00000000       0.08333333 </v>
    <v>      -0.41666667      -0.00000000       0.08333333 </v>
    <v>      -0.33333333       0.00000000       0.08333333 </v>
    <v>      -0.25000000      -0.00000000       0.08333333 </v>
    <v>      -0.16666667      -0.00000000       0.08333333 </v>
    <v>      -0.08333333      -0.00000000       0.08333333 </v>
    <v>       0.25000000       0.16666667       0.08333333 </v>
    <v>       0.33333333       0.16666667       0.08333333 </v>
    <v>       0.41666667       0.16666667       0.08333333 </v>
    <v>       0.50000000       0.16666667       0.08333333 </v>
    <v>      -0.41666667       0.16666667       0.08333333 </v>
    <v>       0.16666667       0.25000000       0.08333333 </v>
    <v>       0.33333333       0.25000000       0.08333333 </v>
    <v>       0.41666667       0.25000000       0.08333333 </v>
    <v>       0.50000000       0.25000000       0.08333333 </v>
    <v>      -0.41666667       0.25000000       0.08333333 </v>
    <v>      -0.33333333       0.25000000       0.08333333 </v>
    <v>      -0.25000000       0.25000000       0.08333333 </v>
    <v>      -0.16666667       0.25000000       0.08333333 </v>
    <v>       0.16666667       0.33333333       0.08333333 </v>
    <v>       0.25000000       0.33333333       0.08333333 </v>
    <v>       0.41666667       0.33333333       0.08333333 </v>
    <v>       0.50000000       0.33333333       0.08333333 </v>
    <v>      -0.41666667       0.33333333       0.08333333 </v>
    <v>      -0.33333333       0.33333333       0.08333333 </v>
    <v>      -0.25000000       0.33333333       0.08333333 </v>
    <v>       0.16666667       0.41666667       0.08333333 </v>
    <v>       0.25000000       0.41666667       0.08333333 </v>
    <v>       0.33333333       0.41666667       0.08333333 </v>
    <v>       0.50000000       0.41666667       0.08333333 </v>
    <v>      -0.41666667       0.41666667       0.08333333 </v>
    <v>      -0.33333333       0.41666667       0.08333333 </v>
    <v>       0.16666667       0.50000000       0.08333333 </v>
    <v>       0.25000000       0.50000000       0.08333333 </v>
    <v>       0.33333333       0.50000000       0.08333333 </v>
    <v>       0.41666667       0.50000000       0.08333333 </v>
    <v>      -0.41666667       0.50000000       0.08333333 </v>
    <v>       0.16666667      -0.41666667       0.08333333 </v>
    <v>       0.25000000      -0.41666667       0.08333333 </v>
    <v>       0.33333333      -0.41666667       0.08333333 </v>
    <v>       0.41666667      -0.41666667       0.08333333 </v>
    <v>       0.50000000      -0.41666667       0.08333333 </v>
    <v>       0.16666667      -0.33333333       0.08333333 </v>
    <v>       0.25000000      -0.33333333       0.08333333 </v>
    <v>       0.33333333      -0.33333333       0.08333333 </v>
    <v>       0.41666667      -0.33333333       0.08333333 </v>
    <v>       0.16666667      -0.25000000       0.08333333 </v>
    <v>       0.25000000      -0.25000000       0.08333333 </v>
    <v>       0.33333333      -0.25000000       0.08333333 </v>
    <v>       0.16666667      -0.16666667       0.08333333 </v>
    <v>       0.25000000      -0.16666667       0.08333333 </v>
    <v>       0.16666667      -0.08333333       0.08333333 </v>
    <v>       0.16666667       0.00000000       0.16666667 </v>
    <v>       0.25000000       0.00000000       0.16666667 </v>
    <v>       0.33333333       0.00000000       0.16666667 </v>
    <v>       0.41666667       0.00000000       0.16666667 </v>
    <v>       0.50000000       0.00000000       0.16666667 </v>
    <v>      -0.41666667      -0.00000000       0.16666667 </v>
    <v>      -0.33333333      -0.00000000       0.16666667 </v>
    <v>      -0.25000000       0.00000000       0.16666667 </v>
    <v>      -0.16666667      -0.00000000       0.16666667 </v>
    <v>       0.50000000       0.33333333       0.16666667 </v>
    <v>      -0.41666667       0.33333333       0.16666667 </v>
    <v>      -0.33333333       0.33333333       0.16666667 </v>
    <v>       0.25000000       0.41666667       0.16666667 </v>
    <v>      -0.41666667       0.41666667       0.16666667 </v>
    <v>      -0.33333333       0.41666667       0.16666667 </v>
    <v>      -0.25000000       0.41666667       0.16666667 </v>
    <v>       0.25000000       0.50000000       0.16666667 </v>
    <v>       0.33333333       0.50000000       0.16666667 </v>
    <v>      -0.33333333       0.50000000       0.16666667 </v>
    <v>       0.25000000      -0.41666667       0.16666667 </v>
    <v>       0.33333333      -0.41666667       0.16666667 </v>
    <v>       0.41666667      -0.41666667       0.16666667 </v>
    <v>       0.25000000      -0.33333333       0.16666667 </v>
    <v>       0.33333333      -0.33333333       0.16666667 </v>
    <v>       0.41666667      -0.33333333       0.16666667 </v>
    <v>       0.50000000      -0.33333333       0.16666667 </v>
    <v>       0.25000000      -0.25000000       0.16666667 </v>
    <v>       0.33333333      -0.25000000       0.16666667 </v>
    <v>       0.41666667      -0.25000000       0.16666667 </v>
    <v>       0.25000000      -0.16666667       0.16666667 </v>
    <v>       0.33333333      -0.16666667       0.16666667 </v>
    <v>       0.25000000      -0.08333333       0.16666667 </v>
    <v>       0.25000000       0.00000000       0.25000000 </v>
    <v>       0.33333333       0.00000000       0.25000000 </v>
    <v>       0.41666667       0.00000000       0.25000000 </v>
    <v>       0.50000000       0.00000000       0.25000000 </v>
    <v>      -0.41666667       0.00000000       0.25000000 </v>
    <v>      -0.33333333      -0.00000000       0.25000000 </v>
    <v>      -0.25000000      -0.00000000       0.25000000 </v>
    <v>      -0.25000000       0.50000000       0.25000000 </v>
    <v>       0.33333333      -0.41666667       0.25000000 </v>
    <v>       0.33333333      -0.33333333       0.25000000 </v>
    <v>       0.41666667      -0.33333333       0.25000000 </v>
    <v>       0.33333333      -0.25000000       0.25000000 </v>
    <v>       0.41666667      -0.25000000       0.25000000 </v>
    <v>       0.50000000      -0.25000000       0.25000000 </v>
    <v>       0.33333333      -0.16666667       0.25000000 </v>
    <v>       0.41666667      -0.16666667       0.25000000 </v>
    <v>       0.33333333      -0.08333333       0.25000000 </v>
    <v>       0.33333333       0.00000000       0.33333333 </v>
    <v>       0.41666667       0.00000000       0.33333333 </v>
    <v>       0.50000000       0.00000000       0.33333333 </v>
    <v>      -0.41666667       0.00000000       0.33333333 </v>
    <v>      -0.33333333       0.00000000       0.33333333 </v>
    <v>       0.41666667      -0.25000000       0.33333333 </v>
    <v>       0.41666667      -0.16666667       0.33333333 </v>
    <v>       0.50000000      -0.16666667       0.33333333 </v>
    <v>       0.41666667      -0.08333333       0.33333333 </v>
    <v>       0.41666667       0.00000000       0.41666667 </v>
    <v>       0.50000000       0.00000000       0.41666667 </v>
    <v>      -0.41666667       0.00000000       0.41666667 </v>
    <v>       0.50000000      -0.08333333       0.41666667 </v>
    <v>       0.50000000       0.00000000       0.50000000 </v>
   </varray>
   <varray name="weights" >
    <v>       0.00057870 </v>
    <v>       0.00462963 </v>
    <v>       0.00462963 </v>
    <v>       0.00462963 </v>
    <v>       0.00462963 </v>
    <v>       0.00462963 </v>
    <v>       0.00231481 </v>
    <v>       0.00231481 </v>
    <v>       0.00925926 </v>
    <v>       0.00925926 </v>
    <v>       0.00925926 </v>
    <v>       0.00925926 </v>
    <v>       0.00925926 </v>
    <v>       0.00925926 </v>
    <v>       0.00925926 </v>
    <v>       0.00925926 </v>
    <v>       0.00925926 </v>
    <v>       0.00462963 </v>
    <v>       0.00231481 </v>
    <v>       0.00925926 </v>
    <v>       0.00925926 </v>
    <v>       0.00925926 </v>
    <v>       0.00925926 </v>
    <v>       0.00925926 </v>
    <v>       0.00925926 </v>
    <v>       0.00925926 </v>
    <v>       0.00462963 </v>
    <v>       0.00231481 </v>
    <v>       0.00925926 </v>
    <v>       0.00925926 </v>
    <v>       0.00925926 </v>
    <v>       0.00925926 </v>
    <v>       0.00925926 </v>
    <v>       0.00462963 </v>
    <v>       0.00231481 </v>
    <v>       0.00925926 </v>
    <v>       0.00925926 </v>
    <v>       0.00925926 </v>
    <v>       0.00462963 </v>
    <v>       0.00231481 </v>
    <v>       0.00925926 </v>
    <v>       0.00462963 </v>
    <v>       0.00115741 </v>
    <v>       0.00115741 </v>
    <v>       0.00462963 </v>
    <v>       0.00462963 </v>
    <v>       0.00462963 </v>
    <v>       0.00462963 </v>
    <v>       0.00462963 </v>
    <v>       0.00462963 </v>
    <v>       0.00462963 </v>
    <v>       0.00462963 </v>
    <v>       0.00462963 </v>
    <v>       0.00231481 </v>
    <v>       0.00462963 </v>
    <v>       0.00925926 </v>
    <v>       0.00925926 </v>
    <v>       0.00925926 </v>
    <v>       0.00462963 </v>
    <v>       0.00462963 </v>
    <v>       0.00462963 </v>
    <v>       0.00925926 </v>
    <v>       0.00925926 </v>
    <v>       0.00925926 </v>
    <v>       0.00925926 </v>
    <v>       0.00925926 </v>
    <v>       0.00462963 </v>
    <v>       0.00925926 </v>
    <v>       0.00462963 </v>
    <v>       0.00462963 </v>
    <v>       0.00925926 </v>
    <v>       0.00925926 </v>
    <v>       0.00925926 </v>
    <v>       0.00462963 </v>
    <v>       0.00925926 </v>
    <v>       0.00925926 </v>
    <v>       0.00462963 </v>
    <v>       0.00462963 </v>
    <v>       0.00925926 </v>
    <v>       0.00462963 </v>
    <v>       0.00925926 </v>
    <v>       0.00925926 </v>
    <v>       0.00925926 </v>
    <v>       0.00462963 </v>
    <v>       0.00231481 </v>
    <v>       0.00925926 </v>
    <v>       0.00925926 </v>
    <v>       0.00925926 </v>
    <v>       0.00925926 </v>
    <v>       0.00231481 </v>
    <v>       0.00925926 </v>
    <v>       0.00925926 </v>
    <v>       0.00925926 </v>
    <v>       0.00462963 </v>
    <v>       0.00925926 </v>
    <v>       0.00925926 </v>
    <v>       0.00462963 </v>
    <v>       0.00925926 </v>
    <v>       0.00462963 </v>
    <v>       0.00462963 </v>
    <v>       0.00115741 </v>
    <v>       0.00462963 </v>
    <v>       0.00462963 </v>
    <v>       0.00462963 </v>
    <v>       0.00462963 </v>
    <v>       0.00462963 </v>
    <v>       0.00462963 </v>
    <v>       0.00462963 </v>
    <v>       0.00231481 </v>
    <v>       0.00462963 </v>
    <v>       0.00925926 </v>
    <v>       0.00462963 </v>
    <v>       0.00462963 </v>
    <v>       0.00462963 </v>
    <v>       0.00925926 </v>
    <v>       0.00462963 </v>
    <v>       0.00925926 </v>
    <v>       0.00462963 </v>
    <v>       0.00231481 </v>
    <v>       0.00925926 </v>
    <v>       0.00925926 </v>
    <v>       0.00462963 </v>
    <v>       0.00925926 </v>
    <v>       0.00925926 </v>
    <v>       0.00925926 </v>
    <v>       0.00231481 </v>
    <v>       0.00925926 </v>
    <v>       0.00925926 </v>
    <v>       0.00462963 </v>
    <v>       0.00925926 </v>
    <v>       0.00462963 </v>
    <v>       0.00462963 </v>
    <v>       0.00115741 </v>
    <v>       0.00462963 </v>
    <v>       0.00462963 </v>
    <v>       0.00462963 </v>
    <v>       0.00462963 </v>
    <v>       0.00462963 </v>
    <v>       0.00231481 </v>
    <v>       0.00115741 </v>
    <v>       0.00462963 </v>
    <v>       0.00925926 </v>
    <v>       0.00462963 </v>
    <v>       0.00925926 </v>
    <v>       0.00925926 </v>
    <v>       0.00231481 </v>
    <v>       0.00925926 </v>
    <v>       0.00462963 </v>
    <v>       0.00462963 </v>
    <v>       0.00115741 </v>
    <v>       0.00462963 </v>
    <v>       0.00462963 </v>
    <v>       0.00462963 </v>
    <v>       0.00231481 </v>
    <v>       0.00462963 </v>
    <v>       0.00925926 </v>
    <v>       0.00231481 </v>
    <v>       0.00462963 </v>
    <v>       0.00115741 </v>
    <v>       0.00462963 </v>
    <v>       0.00231481 </v>
    <v>       0.00231481 </v>
    <v>       0.00057870 </v>
   </varray>
  </kpoints>
  <scstep>
   <time name="total">    1.70    1.70</time>
   <energy>
    <i name="e_fr_energy">     -0.48466161 </i>
    <i name="e_wo_entrp">     -0.48466161 </i>
    <i name="e_0_energy">     -0.48466161 </i>
   </energy>
  </scstep>
  <scstep>
   <time name="total">    2.03    2.03</time>
   <energy>
    <i name="e_fr_energy">     -0.50722170 </i>
    <i name="e_wo_entrp">     -0.50722170 </i>
    <i name="e_0_energy">     -0.50722170 </i>
   </energy>
  </scstep>
  <scstep>
   <time name="total">    2.70    2.70</time>
   <energy>
    <i name="e_fr_energy">     -0.46148407 </i>
    <i name="e_wo_entrp">     -0.46148407 </i>
    <i name="e_0_energy">     -0.46148407 </i>
   </energy>
  </scstep>
  <scstep>
   <time name="total">    3.11    3.11</time>
   <energy>
    <i name="e_fr_energy">     -0.48592770 </i>
    <i name="e_wo_entrp">     -0.48592770 </i>
    <i name="e_0_energy">     -0.48592770 </i>
   </energy>
  </scstep>
  <scstep>
   <time name="total">    2.83    2.83</time>
   <energy>
    <i name="e_fr_energy">     -0.50896145 </i>
    <i name="e_wo_entrp">     -0.50896145 </i>
    <i name="e_0_energy">     -0.50896145 </i>
   </energy>
  </scstep>
  <scstep>
   <time name="total">    3.10    3.10</time>
   <energy>
    <i name="e_fr_energy">     -0.50973596 </i>
    <i name="e_wo_entrp">     -0.50973596 </i>
    <i name="e_0_energy">     -0.50973596 </i>
   </energy>
  </scstep>
  <scstep>
   <time name="total">    2.93    2.93</time>
   <energy>
    <i name="e_fr_energy">     -0.51129502 </i>
    <i name="e_wo_entrp">     -0.51129502 </i>
    <i name="e_0_energy">     -0.51129502 </i>
   </energy>
  </scstep>
  <scstep>
   <time name="total">    2.95    2.95</time>
   <energy>
    <i name="e_fr_energy">     -0.51130570 </i>
    <i name="e_wo_entrp">     -0.51130570 </i>
    <i name="e_0_energy">     -0.51130570 </i>
   </energy>
  </scstep>
  <scstep>
   <time name="total">    3.05    3.05</time>
   <energy>
    <i name="e_fr_energy">     -0.51129306 </i>
    <i name="e_wo_entrp">     -0.51129306 </i>
    <i name="e_0_energy">     -0.51129306 </i>
   </energy>
  </scstep>
  <scstep>
   <time name="total">    3.03    3.03</time>
   <energy>
    <i name="e_fr_energy">     -0.51130476 </i>
    <i name="e_wo_entrp">     -0.51130476 </i>
    <i name="e_0_energy">     -0.51130476 </i>
   </energy>
  </scstep>
  <scstep>
   <time name="total">    3.07    3.07</time>
   <energy>
    <i name="e_fr_energy">     -0.51130149 </i>
    <i name="e_wo_entrp">     -0.51130149 </i>
    <i name="e_0_energy">     -0.51130149 </i>
   </energy>
  </scstep>
  <scstep>
   <time name="total">    2.96    2.96</time>
   <energy>
    <i name="e_fr_energy">     -0.51130078 </i>
    <i name="e_wo_entrp">     -0.51130078 </i>
    <i name="e_0_energy">     -0.51130078 </i>
   </energy>
  </scstep>
  <scstep>
   <time name="total">    2.38    2.38</time>
   <energy>
    <i name="e_fr_energy">     -0.51130052 </i>
    <i name="e_wo_entrp">     -0.51130052 </i>
    <i name="e_0_energy">     -0.51130052 </i>
   </energy>
  </scstep>
  <scstep>
   <time name="total">    2.28    2.28</time>
   <energy>
    <i name="e_fr_energy">     -0.51130033 </i>
    <i name="e_wo_entrp">     -0.51130033 </i>
    <i name="e_0_energy">     -0.51130033 </i>
   </energy>
  </scstep>
  <kpoints>
   <generation param="Gamma">
    <v type="int" name="divisions">      12       12       12 </v>
    <v name="usershift">      0.00000000       0.00000000       0.00000000 </v>
    <v name="genvec1">      0.08333333       0.00000000       0.00000000 </v>
    <v name="genvec2">      0.00000000       0.08333333      -0.00000000 </v>
    <v name="genvec3">     -0.00000000      -0.00000000       0.08333333 </v>
    <v name="shift">      0.00000000       0.00000000       0.00000000 </v>
   </generation>
   <varray name="kpointlist" >
    <v>       0.00000000       0.00000000       0.00000000 </v>
    <v>       0.08333333       0.00000000       0.00000000 </v>
    <v>       0.16666667       0.00000000      -0.00000000 </v>
    <v>       0.25000000       0.00000000       0.00000000 </v>
    <v>       0.33333333       0.00000000       0.00000000 </v>
    <v>       0.41666667      -0.00000000       0.00000000 </v>
    <v>       0.50000000       0.00000000       0.00000000 </v>
    <v>       0.08333333       0.08333333       0.00000000 </v>
    <v>       0.16666667       0.08333333       0.00000000 </v>
    <v>       0.25000000       0.08333333       0.00000000 </v>
    <v>       0.33333333       0.08333333       0.00000000 </v>
    <v>       0.41666667       0.08333333      -0.00000000 </v>
    <v>       0.50000000       0.08333333       0.00000000 </v>
    <v>      -0.41666667       0.08333333      -0.00000000 </v>
    <v>      -0.33333333       0.08333333       0.00000000 </v>
    <v>      -0.25000000       0.08333333      -0.00000000 </v>
    <v>      -0.16666667       0.08333333      -0.00000000 </v>
    <v>      -0.08333333       0.08333333      -0.00000000 </v>
    <v>       0.16666667       0.16666667       0.00000000 </v>
    <v>       0.25000000       0.16666667       0.00000000 </v>
    <v>       0.33333333       0.16666667       0.00000000 </v>
    <v>       0.41666667       0.16666667       0.00000000 </v>
    <v>       0.50000000       0.16666667      -0.00000000 </v>
    <v>      -0.41666667       0.16666667      -0.00000000 </v>
    <v>      -0.33333333       0.16666667      -0.00000000 </v>
    <v>      -0.25000000       0.16666667       0.00000000 </v>
    <v>      -0.16666667       0.16666667       0.00000000 </v>
    <v>       0.25000000       0.25000000       0.00000000 </v>
    <v>       0.33333333       0.25000000       0.00000000 </v>
    <v>       0.41666667       0.25000000       0.00000000 </v>
    <v>       0.50000000       0.25000000       0.00000000 </v>
    <v>      -0.41666667       0.25000000       0.00000000 </v>
    <v>      -0.33333333       0.25000000      -0.00000000 </v>
    <v>      -0.25000000       0.25000000      -0.00000000 </v>
    <v>       0.33333333       0.33333333       0.00000000 </v>
    <v>       0.41666667       0.33333333       0.00000000 </v>
    <v>       0.50000000       0.33333333       0.00000000 </v>
    <v>      -0.41666667       0.33333333       0.00000000 </v>
    <v>      -0.33333333       0.33333333      -0.00000000 </v>
    <v>       0.41666667       0.41666667       0.00000000 </v>
    <v>       0.50000000       0.41666667       0.00000000 </v>
    <v>      -0.41666667       0.41666667       0.00000000 </v>
    <v>       0.50000000       0.50000000       0.00000000 </v>
    <v>      -0.00000000      -0.00000000       0.08333333 </v>
    <v>       0.08333333       0.00000000       0.08333333 </v>
    <v>       0.16666667       0.00000000       0.08333333 </v>
    <v>       0.25000000       0.00000000       0.08333333 </v>
    <v>       0.33333333       0.00000000       0.08333333 </v>
    <v>       0.41666667      -0.00000000       0.08333333 </v>
    <v>       0.50000000      -0.00000000       0.08333333 </v>
    <v>      -0.41666667      -0.00000000       0.08333333 </v>
    <v>      -0.33333333       0.00000000       0.08333333 </v>
    <v>      -0.25000000      -0.00000000       0.08333333 </v>
    <v>      -0.16666667      -0.00000000       0.08333333 </v>
    <v>      -0.08333333      -0.00000000       0.08333333 </v>
    <v>       0.00000000       0.08333333       0.08333333 </v>
    <v>       0.16666667       0.08333333       0.08333333 </v>
    <v>       0.25000000       0.08333333       0.08333333 </v>
    <v>       0.33333333       0.08333333       0.08333333 </v>
    <v>       0.41666667       0.08333333       0.08333333 </v>
    <v>       0.50000000       0.08333333       0.08333333 </v>
    <v>      -0.41666667       0.08333333       0.08333333 </v>
    <v>      -0.33333333       0.08333333       0.08333333 </v>
    <v>      -0.25000000       0.08333333       0.08333333 </v>
    <v>      -0.16666667       0.08333333       0.08333333 </v>
    <v>      -0.08333333       0.08333333       0.08333333 </v>
    <v>       0.16666667       0.16666667       0.08333333 </v>
    <v>       0.25000000       0.16666667       0.08333333 </v>
    <v>       0.33333333       0.16666667       0.08333333 </v>
    <v>       0.41666667       0.16666667       0.08333333 </v>
    <v>       0.50000000       0.16666667       0.08333333 </v>
    <v>      -0.41666667       0.16666667       0.08333333 </v>
    <v>      -0.33333333       0.16666667       0.08333333 </v>
    <v>      -0.25000000       0.16666667       0.08333333 </v>
    <v>      -0.16666667       0.16666667       0.08333333 </v>
    <v>      -0.08333333       0.16666667       0.08333333 </v>
    <v>       0.16666667       0.25000000       0.08333333 </v>
    <v>       0.25000000       0.25000000       0.08333333 </v>
    <v>       0.33333333       0.25000000       0.08333333 </v>
    <v>       0.41666667       0.25000000       0.08333333 </v>
    <v>       0.50000000       0.25000000       0.08333333 </v>
    <v>      -0.41666667       0.25000000       0.08333333 </v>
    <v>      -0.33333333       0.25000000       0.08333333 </v>
    <v>      -0.25000000       0.25000000       0.08333333 </v>
    <v>      -0.16666667       0.25000000       0.08333333 </v>
    <v>       0.16666667       0.33333333       0.08333333 </v>
    <v>       0.25000000       0.33333333       0.08333333 </v>
    <v>       0.33333333       0.33333333       0.08333333 </v>
    <v>       0.41666667       0.33333333       0.08333333 </v>
    <v>       0.50000000       0.33333333       0.08333333 </v>
    <v>      -0.41666667       0.33333333       0.08333333 </v>
    <v>      -0.33333333       0.33333333       0.08333333 </v>
    <v>      -0.25000000       0.33333333       0.08333333 </v>
    <v>       0.16666667       0.41666667       0.08333333 </v>
    <v>       0.25000000       0.41666667       0.08333333 </v>
    <v>       0.33333333       0.41666667       0.08333333 </v>
    <v>       0.41666667       0.41666667       0.08333333 </v>
    <v>       0.50000000       0.41666667       0.08333333 </v>
    <v>      -0.41666667       0.41666667       0.08333333 </v>
    <v>      -0.33333333       0.41666667       0.08333333 </v>
    <v>       0.16666667       0.50000000       0.08333333 </v>
    <v>       0.25000000       0.50000000       0.08333333 </v>
    <v>       0.33333333       0.50000000       0.08333333 </v>
    <v>       0.41666667       0.50000000       0.08333333 </v>
    <v>       0.50000000       0.50000000       0.08333333 </v>
    <v>      -0.41666667       0.50000000       0.08333333 </v>
    <v>       0.16666667      -0.41666667       0.08333333 </v>
    <v>       0.25000000      -0.41666667       0.08333333 </v>
    <v>       0.33333333      -0.41666667       0.08333333 </v>
    <v>       0.41666667      -0.41666667       0.08333333 </v>
    <v>       0.50000000      -0.41666667       0.08333333 </v>
    <v>       0.16666667      -0.33333333       0.08333333 </v>
    <v>       0.25000000      -0.33333333       0.08333333 </v>
    <v>       0.33333333      -0.33333333       0.08333333 </v>
    <v>       0.41666667      -0.33333333       0.08333333 </v>
    <v>       0.16666667      -0.25000000       0.08333333 </v>
    <v>       0.25000000      -0.25000000       0.08333333 </v>
    <v>       0.33333333      -0.25000000       0.08333333 </v>
    <v>       0.16666667      -0.16666667       0.08333333 </v>
    <v>       0.25000000      -0.16666667       0.08333333 </v>
    <v>       0.16666667      -0.08333333       0.08333333 </v>
    <v>      -0.00000000      -0.00000000       0.16666667 </v>
    <v>       0.08333333       0.00000000       0.16666667 </v>
    <v>       0.16666667       0.00000000       0.16666667 </v>
    <v>       0.25000000       0.00000000       0.16666667 </v>
    <v>       0.33333333       0.00000000       0.16666667 </v>
    <v>       0.41666667       0.00000000       0.16666667 </v>
    <v>       0.50000000       0.00000000       0.16666667 </v>
    <v>      -0.41666667      -0.00000000       0.16666667 </v>
    <v>      -0.33333333      -0.00000000       0.16666667 </v>
    <v>      -0.25000000       0.00000000       0.16666667 </v>
    <v>      -0.16666667      -0.00000000       0.16666667 </v>
    <v>      -0.08333333      -0.00000000       0.16666667 </v>
    <v>       0.00000000       0.08333333       0.16666667 </v>
    <v>       0.08333333       0.08333333       0.16666667 </v>
    <v>       0.25000000       0.08333333       0.16666667 </v>
    <v>       0.33333333       0.08333333       0.16666667 </v>
    <v>       0.41666667       0.08333333       0.16666667 </v>
    <v>       0.50000000       0.08333333       0.16666667 </v>
    <v>      -0.41666667       0.08333333       0.16666667 </v>
    <v>      -0.33333333       0.08333333       0.16666667 </v>
    <v>      -0.25000000       0.08333333       0.16666667 </v>
    <v>      -0.16666667       0.08333333       0.16666667 </v>
    <v>      -0.08333333       0.08333333       0.16666667 </v>
    <v>       0.00000000       0.16666667       0.16666667 </v>
    <v>       0.25000000       0.16666667       0.16666667 </v>
    <v>       0.33333333       0.16666667       0.16666667 </v>
    <v>       0.41666667       0.16666667       0.16666667 </v>
    <v>       0.50000000       0.16666667       0.16666667 </v>
    <v>      -0.41666667       0.16666667       0.16666667 </v>
    <v>      -0.33333333       0.16666667       0.16666667 </v>
    <v>      -0.25000000       0.16666667       0.16666667 </v>
    <v>      -0.16666667       0.16666667       0.16666667 </v>
    <v>      -0.08333333       0.16666667       0.16666667 </v>
    <v>       0.25000000       0.25000000       0.16666667 </v>
    <v>       0.33333333       0.25000000       0.16666667 </v>
    <v>       0.41666667       0.25000000       0.16666667 </v>
    <v>       0.50000000       0.25000000       0.16666667 </v>
    <v>      -0.41666667       0.25000000       0.16666667 </v>
    <v>      -0.33333333       0.25000000       0.16666667 </v>
    <v>      -0.25000000       0.25000000       0.16666667 </v>
    <v>      -0.16666667       0.25000000       0.16666667 </v>
    <v>      -0.08333333       0.25000000       0.16666667 </v>
    <v>       0.25000000       0.33333333       0.16666667 </v>
    <v>       0.33333333       0.33333333       0.16666667 </v>
    <v>       0.41666667       0.33333333       0.16666667 </v>
    <v>       0.50000000       0.33333333       0.16666667 </v>
    <v>      -0.41666667       0.33333333       0.16666667 </v>
    <v>      -0.33333333       0.33333333       0.16666667 </v>
    <v>      -0.25000000       0.33333333       0.16666667 </v>
    <v>      -0.16666667       0.33333333       0.16666667 </v>
    <v>       0.25000000       0.41666667       0.16666667 </v>
    <v>       0.33333333       0.41666667       0.16666667 </v>
    <v>       0.41666667       0.41666667       0.16666667 </v>
    <v>       0.50000000       0.41666667       0.16666667 </v>
    <v>      -0.41666667       0.41666667       0.16666667 </v>
    <v>      -0.33333333       0.41666667       0.16666667 </v>
    <v>      -0.25000000       0.41666667       0.16666667 </v>
    <v>       0.25000000       0.50000000       0.16666667 </v>
    <v>       0.33333333       0.50000000       0.16666667 </v>
    <v>       0.41666667       0.50000000       0.16666667 </v>
    <v>       0.50000000       0.50000000       0.16666667 </v>
    <v>      -0.41666667       0.50000000       0.16666667 </v>
    <v>      -0.33333333       0.50000000       0.16666667 </v>
    <v>       0.25000000      -0.41666667       0.16666667 </v>
    <v>       0.33333333      -0.41666667       0.16666667 </v>
    <v>       0.41666667      -0.41666667       0.16666667 </v>
    <v>       0.50000000      -0.41666667       0.16666667 </v>
    <v>      -0.41666667      -0.41666667       0.16666667 </v>
    <v>       0.25000000      -0.33333333       0.16666667 </v>
    <v>       0.33333333      -0.33333333       0.16666667 </v>
    <v>       0.41666667      -0.33333333       0.16666667 </v>
    <v>       0.50000000      -0.33333333       0.16666667 </v>
    <v>       0.25000000      -0.25000000       0.16666667 </v>
    <v>       0.33333333      -0.25000000       0.16666667 </v>
    <v>       0.41666667      -0.25000000       0.16666667 </v>
    <v>       0.25000000      -0.16666667       0.16666667 </v>
    <v>       0.33333333      -0.16666667       0.16666667 </v>
    <v>       0.25000000      -0.08333333       0.16666667 </v>
    <v>      -0.00000000      -0.00000000       0.25000000 </v>
    <v>       0.08333333       0.00000000       0.25000000 </v>
    <v>       0.16666667       0.00000000       0.25000000 </v>
    <v>       0.25000000       0.00000000       0.25000000 </v>
    <v>       0.33333333       0.00000000       0.25000000 </v>
    <v>       0.41666667       0.00000000       0.25000000 </v>
    <v>       0.50000000       0.00000000       0.25000000 </v>
    <v>      -0.41666667       0.00000000       0.25000000 </v>
    <v>      -0.33333333      -0.00000000       0.25000000 </v>
    <v>      -0.25000000      -0.00000000       0.25000000 </v>
    <v>      -0.16666667       0.00000000       0.25000000 </v>
    <v>      -0.08333333       0.00000000       0.25000000 </v>
    <v>       0.00000000       0.08333333       0.25000000 </v>
    <v>       0.08333333       0.08333333       0.25000000 </v>
    <v>       0.16666667       0.08333333       0.25000000 </v>
    <v>       0.33333333       0.08333333       0.25000000 </v>
    <v>       0.41666667       0.08333333       0.25000000 </v>
    <v>       0.50000000       0.08333333       0.25000000 </v>
    <v>      -0.41666667       0.08333333       0.25000000 </v>
    <v>      -0.33333333       0.08333333       0.25000000 </v>
    <v>      -0.25000000       0.08333333       0.25000000 </v>
    <v>      -0.16666667       0.08333333       0.25000000 </v>
    <v>      -0.08333333       0.08333333       0.25000000 </v>
    <v>       0.00000000       0.16666667       0.25000000 </v>
    <v>       0.08333333       0.16666667       0.25000000 </v>
    <v>       0.33333333       0.16666667       0.25000000 </v>
    <v>       0.41666667       0.16666667       0.25000000 </v>
    <v>       0.50000000       0.16666667       0.25000000 </v>
    <v>      -0.41666667       0.16666667       0.25000000 </v>
    <v>      -0.33333333       0.16666667       0.25000000 </v>
    <v>      -0.25000000       0.16666667       0.25000000 </v>
    <v>      -0.16666667       0.16666667       0.25000000 </v>
    <v>      -0.08333333       0.16666667       0.25000000 </v>
    <v>       0.00000000       0.25000000       0.25000000 </v>
    <v>       0.33333333       0.25000000       0.25000000 </v>
    <v>       0.41666667       0.25000000       0.25000000 </v>
    <v>       0.50000000       0.25000000       0.25000000 </v>
    <v>      -0.41666667       0.25000000       0.25000000 </v>
    <v>      -0.33333333       0.25000000       0.25000000 </v>
    <v>      -0.25000000       0.25000000       0.25000000 </v>
    <v>      -0.16666667       0.25000000       0.25000000 </v>
    <v>      -0.08333333       0.25000000       0.25000000 </v>
    <v>       0.33333333       0.33333333       0.25000000 </v>
    <v>       0.41666667       0.33333333       0.25000000 </v>
    <v>       0.50000000       0.33333333       0.25000000 </v>
    <v>      -0.41666667       0.33333333       0.25000000 </v>
    <v>      -0.33333333       0.33333333       0.25000000 </v>
    <v>      -0.25000000       0.33333333       0.25000000 </v>
    <v>      -0.16666667       0.33333333       0.25000000 </v>
    <v>      -0.08333333       0.33333333       0.25000000 </v>
    <v>       0.33333333       0.41666667       0.25000000 </v>
    <v>       0.41666667       0.41666667       0.25000000 </v>
    <v>       0.50000000       0.41666667       0.25000000 </v>
    <v>      -0.41666667       0.41666667       0.25000000 </v>
    <v>      -0.33333333       0.41666667       0.25000000 </v>
    <v>      -0.25000000       0.41666667       0.25000000 </v>
    <v>      -0.16666667       0.41666667       0.25000000 </v>
    <v>       0.33333333       0.50000000       0.25000000 </v>
    <v>       0.41666667       0.50000000       0.25000000 </v>
    <v>       0.50000000       0.50000000       0.25000000 </v>
    <v>      -0.41666667       0.50000000       0.25000000 </v>
    <v>      -0.33333333       0.50000000       0.25000000 </v>
    <v>      -0.25000000       0.50000000       0.25000000 </v>
    <v>       0.33333333      -0.41666667       0.25000000 </v>
    <v>       0.41666667      -0.41666667       0.25000000 </v>
    <v>       0.50000000      -0.41666667       0.25000000 </v>
    <v>      -0.41666667      -0.41666667       0.25000000 </v>
    <v>      -0.33333333      -0.41666667       0.25000000 </v>
    <v>       0.33333333      -0.33333333       0.25000000 </v>
    <v>       0.41666667      -0.33333333       0.25000000 </v>
    <v>       0.50000000      -0.33333333       0.25000000 </v>
    <v>      -0.41666667      -0.33333333       0.25000000 </v>
    <v>       0.33333333      -0.25000000       0.25000000 </v>
    <v>       0.41666667      -0.25000000       0.25000000 </v>
    <v>       0.50000000      -0.25000000       0.25000000 </v>
    <v>       0.33333333      -0.16666667       0.25000000 </v>
    <v>       0.41666667      -0.16666667       0.25000000 </v>
    <v>       0.33333333      -0.08333333       0.25000000 </v>
    <v>       0.00000000      -0.00000000       0.33333333 </v>
    <v>       0.08333333      -0.00000000       0.33333333 </v>
    <v>       0.16666667       0.00000000       0.33333333 </v>
[...]
       <r>   12.6300    0.0000 </r>
       <r>   13.4618    0.0000 </r>
       <r>   13.6452    0.0000 </r>
       <r>   14.2779    0.0000 </r>
       <r>   16.3540    0.0000 </r>
      </set>
      <set comment="kpoint 158">
       <r>  -21.5016    1.0000 </r>
       <r>  -21.4994    1.0000 </r>
       <r>  -21.4992    1.0000 </r>
       <r>   -9.7510    1.0000 </r>
       <r>   -0.9196    1.0000 </r>
       <r>    0.0952    1.0000 </r>
       <r>    0.1708    1.0000 </r>
       <r>    5.8371    0.0000 </r>
       <r>    6.7917    0.0000 </r>
       <r>    9.7805    0.0000 </r>
       <r>   11.0506    0.0000 </r>
       <r>   11.8801    0.0000 </r>
       <r>   13.2759    0.0000 </r>
       <r>   13.9514    0.0000 </r>
       <r>   14.8085    0.0000 </r>
       <r>   15.9062    0.0000 </r>
      </set>
      <set comment="kpoint 159">
       <r>  -21.5016    1.0000 </r>
       <r>  -21.4992    1.0000 </r>
       <r>  -21.4992    1.0000 </r>
       <r>   -9.7553    1.0000 </r>
       <r>   -0.9554    1.0000 </r>
       <r>    0.2002    1.0000 </r>
       <r>    0.2002    1.0000 </r>
       <r>    5.5913    0.0000 </r>
       <r>    6.5385    0.0000 </r>
       <r>   10.3056    0.0000 </r>
       <r>   11.8239    0.0000 </r>
       <r>   11.8239    0.0000 </r>
       <r>   12.3244    0.0000 </r>
       <r>   14.7911    0.0000 </r>
       <r>   14.7911    0.0000 </r>
       <r>   15.4124    0.0000 </r>
      </set>
      <set comment="kpoint 160">
       <r>  -21.5017    1.0000 </r>
       <r>  -21.4995    1.0000 </r>
       <r>  -21.4993    1.0000 </r>
       <r>   -9.7333    1.0000 </r>
       <r>   -0.9861    1.0000 </r>
       <r>    0.0737    1.0000 </r>
       <r>    0.1847    1.0000 </r>
       <r>    5.5894    0.0000 </r>
       <r>    6.6057    0.0000 </r>
       <r>   10.5055    0.0000 </r>
       <r>   11.4715    0.0000 </r>
       <r>   12.0409    0.0000 </r>
       <r>   13.2431    0.0000 </r>
       <r>   14.0783    0.0000 </r>
       <r>   14.3544    0.0000 </r>
       <r>   15.2812    0.0000 </r>
      </set>
      <set comment="kpoint 161">
       <r>  -21.5015    1.0000 </r>
       <r>  -21.5000    1.0000 </r>
       <r>  -21.4991    1.0000 </r>
       <r>   -9.7250    1.0000 </r>
       <r>   -0.9105    1.0000 </r>
       <r>   -0.1810    1.0000 </r>
       <r>    0.2246    1.0000 </r>
       <r>    5.8223    0.0000 </r>
       <r>    7.0047    0.0000 </r>
       <r>   10.2295    0.0000 </r>
       <r>   10.8173    0.0000 </r>
       <r>   11.4862    0.0000 </r>
       <r>   13.2008    0.0000 </r>
       <r>   14.4032    0.0000 </r>
       <r>   14.9059    0.0000 </r>
       <r>   15.4529    0.0000 </r>
      </set>
      <set comment="kpoint 162">
       <r>  -21.5017    1.0000 </r>
       <r>  -21.4995    1.0000 </r>
       <r>  -21.4994    1.0000 </r>
       <r>   -9.7253    1.0000 </r>
       <r>   -0.9714    1.0000 </r>
       <r>    0.0493    1.0000 </r>
       <r>    0.1052    1.0000 </r>
       <r>    5.6776    0.0000 </r>
       <r>    6.7070    0.0000 </r>
       <r>   10.4976    0.0000 </r>
       <r>   10.9798    0.0000 </r>
       <r>   12.4023    0.0000 </r>
       <r>   13.3597    0.0000 </r>
       <r>   13.9472    0.0000 </r>
       <r>   14.2331    0.0000 </r>
       <r>   15.2930    0.0000 </r>
      </set>
      <set comment="kpoint 163">
       <r>  -21.5019    1.0000 </r>
       <r>  -21.4994    1.0000 </r>
       <r>  -21.4994    1.0000 </r>
       <r>   -9.7276    1.0000 </r>
       <r>   -1.0328    1.0000 </r>
       <r>    0.1565    1.0000 </r>
       <r>    0.1565    1.0000 </r>
       <r>    5.4288    0.0000 </r>
       <r>    6.4474    0.0000 </r>
       <r>   10.9002    0.0000 </r>
       <r>   12.3253    0.0000 </r>
       <r>   12.3253    0.0000 </r>
       <r>   12.5436    0.0000 </r>
       <r>   14.2118    0.0000 </r>
       <r>   14.2118    0.0000 </r>
       <r>   14.6833    0.0000 </r>
      </set>
     </set>
    </set>
   </array>
  </eigenvalues>
  <separator name="orbital magnetization" >
   <v name="MAGDIPOLOUT">      0.00000000      0.00000000      0.00000000</v>
  </separator>
  <dos>
   <i name="efermi">      0.96093387 </i>
   <total>
    <array>
     <dimension dim="1">gridpoints</dimension>
     <dimension dim="2">spin</dimension>
     <field>energy</field>
     <field>total</field>
     <field>integrated</field>
     <set>
      <set comment="spin 1">
       <r>   -23.4106     0.0000     0.0000 </r>
       <r>   -23.2707     0.0000     0.0000 </r>
       <r>   -23.1308     0.0000     0.0000 </r>
       <r>   -22.9910     0.0000     0.0000 </r>
       <r>   -22.8511     0.0000     0.0000 </r>
       <r>   -22.7112     0.0000     0.0000 </r>
       <r>   -22.5714     0.0000     0.0000 </r>
       <r>   -22.4315     0.0000     0.0000 </r>
       <r>   -22.2917     0.0000     0.0000 </r>
       <r>   -22.1518     0.0000     0.0000 </r>
       <r>   -22.0119     0.0000     0.0000 </r>
       <r>   -21.8721     0.0000     0.0000 </r>
       <r>   -21.7322     0.0000     0.0000 </r>
       <r>   -21.5923     0.0000     0.0000 </r>
       <r>   -21.4525    42.8985     6.0000 </r>
       <r>   -21.3126     0.0000     6.0000 </r>
       <r>   -21.1727     0.0000     6.0000 </r>
       <r>   -21.0329     0.0000     6.0000 </r>
       <r>   -20.8930     0.0000     6.0000 </r>
       <r>   -20.7531     0.0000     6.0000 </r>
       <r>   -20.6133     0.0000     6.0000 </r>
       <r>   -20.4734     0.0000     6.0000 </r>
       <r>   -20.3335     0.0000     6.0000 </r>
       <r>   -20.1937     0.0000     6.0000 </r>
       <r>   -20.0538     0.0000     6.0000 </r>
       <r>   -19.9139     0.0000     6.0000 </r>
       <r>   -19.7741     0.0000     6.0000 </r>
       <r>   -19.6342     0.0000     6.0000 </r>
       <r>   -19.4943     0.0000     6.0000 </r>
       <r>   -19.3545     0.0000     6.0000 </r>
       <r>   -19.2146     0.0000     6.0000 </r>
       <r>   -19.0748     0.0000     6.0000 </r>
       <r>   -18.9349     0.0000     6.0000 </r>
       <r>   -18.7950     0.0000     6.0000 </r>
       <r>   -18.6552     0.0000     6.0000 </r>
       <r>   -18.5153     0.0000     6.0000 </r>
       <r>   -18.3754     0.0000     6.0000 </r>
       <r>   -18.2356     0.0000     6.0000 </r>
       <r>   -18.0957     0.0000     6.0000 </r>
       <r>   -17.9558     0.0000     6.0000 </r>
       <r>   -17.8160     0.0000     6.0000 </r>
       <r>   -17.6761     0.0000     6.0000 </r>
       <r>   -17.5362     0.0000     6.0000 </r>
       <r>   -17.3964     0.0000     6.0000 </r>
       <r>   -17.2565     0.0000     6.0000 </r>
       <r>   -17.1166     0.0000     6.0000 </r>
       <r>   -16.9768     0.0000     6.0000 </r>
       <r>   -16.8369     0.0000     6.0000 </r>
       <r>   -16.6970     0.0000     6.0000 </r>
       <r>   -16.5572     0.0000     6.0000 </r>
       <r>   -16.4173     0.0000     6.0000 </r>
       <r>   -16.2774     0.0000     6.0000 </r>
       <r>   -16.1376     0.0000     6.0000 </r>
       <r>   -15.9977     0.0000     6.0000 </r>
       <r>   -15.8579     0.0000     6.0000 </r>
       <r>   -15.7180     0.0000     6.0000 </r>
       <r>   -15.5781     0.0000     6.0000 </r>
       <r>   -15.4383     0.0000     6.0000 </r>
       <r>   -15.2984     0.0000     6.0000 </r>
       <r>   -15.1585     0.0000     6.0000 </r>
       <r>   -15.0187     0.0000     6.0000 </r>
       <r>   -14.8788     0.0000     6.0000 </r>
       <r>   -14.7389     0.0000     6.0000 </r>
       <r>   -14.5991     0.0000     6.0000 </r>
       <r>   -14.4592     0.0000     6.0000 </r>
       <r>   -14.3193     0.0000     6.0000 </r>
       <r>   -14.1795     0.0000     6.0000 </r>
       <r>   -14.0396     0.0000     6.0000 </r>
       <r>   -13.8997     0.0000     6.0000 </r>
       <r>   -13.7599     0.0000     6.0000 </r>
       <r>   -13.6200     0.0000     6.0000 </r>
       <r>   -13.4801     0.0000     6.0000 </r>
       <r>   -13.3403     0.0000     6.0000 </r>
       <r>   -13.2004     0.0000     6.0000 </r>
       <r>   -13.0606     0.0000     6.0000 </r>
       <r>   -12.9207     0.0000     6.0000 </r>
       <r>   -12.7808     0.0000     6.0000 </r>
       <r>   -12.6410     0.0000     6.0000 </r>
       <r>   -12.5011     0.0000     6.0000 </r>
       <r>   -12.3612     0.0000     6.0000 </r>
       <r>   -12.2214     0.0000     6.0000 </r>
       <r>   -12.0815     0.0000     6.0000 </r>
       <r>   -11.9416     0.0000     6.0000 </r>
       <r>   -11.8018     0.0000     6.0000 </r>
       <r>   -11.6619     0.0000     6.0000 </r>
       <r>   -11.5220     0.0000     6.0000 </r>
       <r>   -11.3822     0.0000     6.0000 </r>
       <r>   -11.2423     0.0000     6.0000 </r>
       <r>   -11.1024     0.0000     6.0000 </r>
       <r>   -10.9626     0.0000     6.0000 </r>
       <r>   -10.8227     0.0000     6.0000 </r>
       <r>   -10.6828     0.0000     6.0000 </r>
       <r>   -10.5430     0.0000     6.0000 </r>
       <r>   -10.4031     0.0000     6.0000 </r>
       <r>   -10.2632     0.0000     6.0000 </r>
       <r>   -10.1234     0.0236     6.0033 </r>
       <r>    -9.9835     0.7539     6.1645 </r>
       <r>    -9.8437     2.2682     6.6170 </r>
       <r>    -9.7038     6.2781     7.9996 </r>
       <r>    -9.5639     0.0000     8.0000 </r>
       <r>    -9.4241     0.0000     8.0000 </r>
       <r>    -9.2842     0.0000     8.0000 </r>
       <r>    -9.1443     0.0000     8.0000 </r>
       <r>    -9.0045     0.0000     8.0000 </r>
       <r>    -8.8646     0.0000     8.0000 </r>
       <r>    -8.7247     0.0000     8.0000 </r>
       <r>    -8.5849     0.0000     8.0000 </r>
       <r>    -8.4450     0.0000     8.0000 </r>
       <r>    -8.3051     0.0000     8.0000 </r>
       <r>    -8.1653     0.0000     8.0000 </r>
       <r>    -8.0254     0.0000     8.0000 </r>
       <r>    -7.8855     0.0000     8.0000 </r>
       <r>    -7.7457     0.0000     8.0000 </r>
       <r>    -7.6058     0.0000     8.0000 </r>
       <r>    -7.4659     0.0000     8.0000 </r>
       <r>    -7.3261     0.0000     8.0000 </r>
       <r>    -7.1862     0.0000     8.0000 </r>
       <r>    -7.0463     0.0000     8.0000 </r>
       <r>    -6.9065     0.0000     8.0000 </r>
       <r>    -6.7666     0.0000     8.0000 </r>
       <r>    -6.6268     0.0000     8.0000 </r>
       <r>    -6.4869     0.0000     8.0000 </r>
       <r>    -6.3470     0.0000     8.0000 </r>
       <r>    -6.2072     0.0000     8.0000 </r>
       <r>    -6.0673     0.0000     8.0000 </r>
       <r>    -5.9274     0.0000     8.0000 </r>
       <r>    -5.7876     0.0000     8.0000 </r>
       <r>    -5.6477     0.0000     8.0000 </r>
       <r>    -5.5078     0.0000     8.0000 </r>
       <r>    -5.3680     0.0000     8.0000 </r>
       <r>    -5.2281     0.0000     8.0000 </r>
       <r>    -5.0882     0.0000     8.0000 </r>
       <r>    -4.9484     0.0000     8.0000 </r>
       <r>    -4.8085     0.0000     8.0000 </r>
       <r>    -4.6686     0.0000     8.0000 </r>
       <r>    -4.5288     0.0000     8.0000 </r>
       <r>    -4.3889     0.0000     8.0000 </r>
       <r>    -4.2490     0.0000     8.0000 </r>
       <r>    -4.1092     0.0000     8.0000 </r>
       <r>    -3.9693     0.0000     8.0000 </r>
       <r>    -3.8294     0.0000     8.0000 </r>
       <r>    -3.6896     0.0000     8.0000 </r>
       <r>    -3.5497     0.0000     8.0000 </r>
       <r>    -3.4099     0.0000     8.0000 </r>
       <r>    -3.2700     0.0000     8.0000 </r>
       <r>    -3.1301     0.0000     8.0000 </r>
       <r>    -2.9903     0.0000     8.0000 </r>
       <r>    -2.8504     0.0000     8.0000 </r>
       <r>    -2.7105     0.0000     8.0000 </r>
       <r>    -2.5707     0.0000     8.0000 </r>
       <r>    -2.4308     0.0000     8.0000 </r>
       <r>    -2.2909     0.0000     8.0000 </r>
       <r>    -2.1511     0.0000     8.0000 </r>
       <r>    -2.0112     0.0000     8.0000 </r>
       <r>    -1.8713     0.0000     8.0000 </r>
       <r>    -1.7315     0.0000     8.0000 </r>
       <r>    -1.5916     0.0000     8.0000 </r>
       <r>    -1.4517     0.0000     8.0000 </r>
       <r>    -1.3119     0.0252     8.0035 </r>
       <r>    -1.1720     0.4615     8.0970 </r>
       <r>    -1.0321     0.6607     8.2452 </r>
       <r>    -0.8923     1.6636     8.6667 </r>
       <r>    -0.7524     2.0670     9.3227 </r>
       <r>    -0.6125     0.4966     9.6100 </r>
       <r>    -0.4727     0.1661     9.7304 </r>
       <r>    -0.3328     1.1793    10.0249 </r>
       <r>    -0.1930     1.4853    10.2922 </r>
       <r>    -0.0531     0.8559    10.5375 </r>
       <r>     0.0868     1.2207    10.9149 </r>
       <r>     0.2266     2.6076    11.4006 </r>
       <r>     0.3665     2.3687    12.0848 </r>
       <r>     0.5064     2.9451    12.7626 </r>
       <r>     0.6462     3.1336    13.4279 </r>
       <r>     0.7861     1.4824    13.8150 </r>
       <r>     0.9260     0.5467    13.9989 </r>
       <r>     1.0658     0.0000    14.0000 </r>
       <r>     1.2057     0.0000    14.0000 </r>
       <r>     1.3456     0.0000    14.0000 </r>
       <r>     1.4854     0.0000    14.0000 </r>
       <r>     1.6253     0.0000    14.0000 </r>
       <r>     1.7652     0.0000    14.0000 </r>
       <r>     1.9050     0.0000    14.0000 </r>
       <r>     2.0449     0.0000    14.0000 </r>
       <r>     2.1848     0.0000    14.0000 </r>
       <r>     2.3246     0.0000    14.0000 </r>
       <r>     2.4645     0.0000    14.0000 </r>
       <r>     2.6043     0.0000    14.0000 </r>
       <r>     2.7442     0.0000    14.0000 </r>
       <r>     2.8841     0.0000    14.0000 </r>
       <r>     3.0239     0.0000    14.0000 </r>
       <r>     3.1638     0.0000    14.0000 </r>
       <r>     3.3037     0.0000    14.0000 </r>
       <r>     3.4435     0.0000    14.0000 </r>
       <r>     3.5834     0.0000    14.0000 </r>
       <r>     3.7233     0.0000    14.0000 </r>
       <r>     3.8631     0.0000    14.0000 </r>
       <r>     4.0030     0.0000    14.0000 </r>
       <r>     4.1429     0.0000    14.0000 </r>
       <r>     4.2827     0.0000    14.0000 </r>
       <r>     4.4226     0.0000    14.0000 </r>
       <r>     4.5625     0.0000    14.0000 </r>
       <r>     4.7023     0.0000    14.0012 </r>
       <r>     4.8422     0.0000    14.0012 </r>
       <r>     4.9821     0.0496    14.0174 </r>
       <r>     5.1219     0.0000    14.0174 </r>
       <r>     5.2618     0.0993    14.0312 </r>
       <r>     5.4017     0.0005    14.0313 </r>
       <r>     5.5415     0.0000    14.0718 </r>
       <r>     5.6814     0.0698    14.1162 </r>
       <r>     5.8212     0.2448    14.1616 </r>
       <r>     5.9611     0.6681    14.2902 </r>
       <r>     6.1010     0.1324    14.4028 </r>
       <r>     6.2408     1.1646    14.5934 </r>
       <r>     6.3807     1.3369    14.8745 </r>
       <r>     6.5206     0.7200    15.0660 </r>
       <r>     6.6604     1.4276    15.3837 </r>
       <r>     6.8003     1.2218    15.7021 </r>
       <r>     6.9402     0.7995    15.8792 </r>
       <r>     7.0800     0.9587    16.0959 </r>
       <r>     7.2199     0.4965    16.2674 </r>
       <r>     7.3598     0.1986    16.3576 </r>
       <r>     7.4996     0.7918    16.5378 </r>
       <r>     7.6395     1.2357    16.8221 </r>
       <r>     7.7794     0.8048    17.1785 </r>
       <r>     7.9192     1.3985    17.4699 </r>
       <r>     8.0591     0.4848    17.7102 </r>
       <r>     8.1990     0.9950    17.9204 </r>
       <r>     8.3388     1.3111    18.1591 </r>
       <r>     8.4787     1.6880    18.5359 </r>
       <r>     8.6186     0.9070    18.7530 </r>
       <r>     8.7584     0.9874    18.9795 </r>
       <r>     8.8983     1.8763    19.4094 </r>
       <r>     9.0381     1.8450    19.7303 </r>
       <r>     9.1780     0.8678    20.0311 </r>
       <r>     9.3179     1.4010    20.3487 </r>
       <r>     9.4577     1.0722    20.6361 </r>
       <r>     9.5976     2.0902    21.0701 </r>
       <r>     9.7375     1.2878    21.3422 </r>
       <r>     9.8773     0.5958    21.5139 </r>
       <r>    10.0172     1.6481    21.7583 </r>
       <r>    10.1571     0.3373    21.8319 </r>
       <r>    10.2969     0.3034    22.0262 </r>
       <r>    10.4368     0.0122    22.0897 </r>
       <r>    10.5767     0.7944    22.3056 </r>
       <r>    10.7165     0.5795    22.3866 </r>
       <r>    10.8564     0.9426    22.6341 </r>
       <r>    10.9963     0.5250    22.7667 </r>
       <r>    11.1361     0.3310    22.9271 </r>
       <r>    11.2760     1.3429    23.1427 </r>
       <r>    11.4159     0.9178    23.2730 </r>
       <r>    11.5557     2.4194    23.7782 </r>
       <r>    11.6956     0.5948    24.0508 </r>
       <r>    11.8355     0.8228    24.2632 </r>
       <r>    11.9753     0.4568    24.4458 </r>
       <r>    12.1152     1.5213    24.7128 </r>
       <r>    12.2550     0.8372    24.9782 </r>
       <r>    12.3949     0.3148    25.1320 </r>
       <r>    12.5348     0.2249    25.2676 </r>
       <r>    12.6746     1.4436    25.6938 </r>
       <r>    12.8145     0.9326    25.9696 </r>
       <r>    12.9544     0.5261    26.0933 </r>
       <r>    13.0942     0.5979    26.3487 </r>
       <r>    13.2341     1.5476    26.6088 </r>
       <r>    13.3740     0.4620    26.8690 </r>
       <r>    13.5138     1.6690    27.1906 </r>
       <r>    13.6537     0.7163    27.3490 </r>
       <r>    13.7936     0.6519    27.6132 </r>
       <r>    13.9334     1.3573    27.9549 </r>
       <r>    14.0733     1.4337    28.4193 </r>
       <r>    14.2132     1.2134    28.6246 </r>
       <r>    14.3530     0.7116    28.8113 </r>
       <r>    14.4929     0.2027    28.9693 </r>
       <r>    14.6328     0.9972    29.1730 </r>
       <r>    14.7726     2.5006    29.6715 </r>
       <r>    14.9125     2.0806    30.0989 </r>
       <r>    15.0524     1.4527    30.4740 </r>
       <r>    15.1922     0.0919    30.5059 </r>
       <r>    15.3321     1.1231    30.9094 </r>
       <r>    15.4719     1.1269    31.1877 </r>
       <r>    15.6118     0.0000    31.4398 </r>
       <r>    15.7517     0.4061    31.4966 </r>
       <r>    15.8915     0.4158    31.6091 </r>
       <r>    16.0314     0.5958    31.8287 </r>
       <r>    16.1713     0.3925    31.9114 </r>
       <r>    16.3111     0.0662    31.9653 </r>
       <r>    16.4510     0.0000    31.9792 </r>
       <r>    16.5909     0.0993    31.9931 </r>
       <r>    16.7307     0.0000    32.0000 </r>
       <r>    16.8706     0.0000    32.0000 </r>
       <r>    17.0105     0.0000    32.0000 </r>
       <r>    17.1503     0.0000    32.0000 </r>
       <r>    17.2902     0.0000    32.0000 </r>
       <r>    17.4301     0.0000    32.0000 </r>
       <r>    17.5699     0.0000    32.0000 </r>
       <r>    17.7098     0.0000    32.0000 </r>
       <r>    17.8497     0.0000    32.0000 </r>
       <r>    17.9895     0.0000    32.0000 </r>
       <r>    18.1294     0.0000    32.0000 </r>
       <r>    18.2692     0.0000    32.0000 </r>
       <r>    18.4091     0.0000    32.0000 </r>
       <r>    18.5490     0.0000    32.0000 </r>
      </set>
     </set>
    </array>
   </total>
  </dos>
 </calculation>
 <structure name="finalpos" >
  <crystal>
   <varray name="basis" >
    <v>      -3.21865644       0.00000000       3.21865644 </v>
    <v>       0.00000000       3.21865644       3.21865644 </v>
    <v>      -3.21865644       3.21865644       0.00000000 </v>
   </varray>
   <i name="volume">     66.68894741 </i>
   <varray name="rec_basis" >
    <v>      -0.15534432      -0.15534432       0.15534432 </v>
    <v>       0.15534432       0.15534432       0.15534432 </v>
    <v>      -0.15534432       0.15534432      -0.15534432 </v>
   </varray>
  </crystal>
  <varray name="positions" >
   <v>       0.00000000       0.00000000       0.00000000 </v>
   <v>       0.49999996       0.50000004       0.49999996 </v>
  </varray>
 </structure>
</modeling>
