<?xml version="1.0" encoding="ISO-8859-1"?>
<modeling>
 <generator>
  <i name="program" type="string">vasp </i>
  <i name="version" type="string">5.4.4.18Apr17-6-g9f103f2a35  </i>
  <i name="subversion" type="string">(build Aug 24 2017 11:22:49) complex            parallel </i>
  <i name="platform" type="string">LinuxIFC </i>
  <i name="date" type="string">2023 12 25 </i>
  <i name="time" type="string">13:07:26 </i>
 </generator>
 <incar>
  <i type="string" name="PREC">accurate</i>
  <i type="string" name="ALGO"> Normal</i>
  <i type="int" name="NELM">   100</i>
  <i type="int" name="IBRION">     8</i>
  <i name="EDIFF">      0.00000001</i>
  <i name="SYMPREC">      0.00000001</i>
  <i name="ENCUT">    520.00000000</i>
  <i type="logical" name="LREAL"> F  </i>
  <i type="int" name="ISMEAR">     0</i>
  <i name="SIGMA">      0.01000000</i>
  <i type="logical" name="LWAVE"> F  </i>
  <v type="int" name="KPOINT_BSE">    -1     0     0     0</v>
  <i type="int" name="NELM">   100</i>
  <i type="logical" name="LPEAD"> T  </i>
  <i type="logical" name="LEPSILON"> T  </i>
 </incar>
 <structure name="primitive_cell" >
  <crystal>
   <varray name="basis" >
    <v>       4.00155656       0.00000000       0.00000000 </v>
    <v>       0.00000000      11.71362881       0.00000000 </v>
    <v>       0.00000000       0.00000000      12.36207225 </v>
   </varray>
   <i name="volume">    579.44430030 </i>
   <varray name="rec_basis" >
    <v>       0.24990275       0.00000000       0.00000000 </v>
    <v>       0.00000000       0.08537064       0.00000000 </v>
    <v>       0.00000000       0.00000000       0.08089259 </v>
   </varray>
  </crystal>
  <varray name="positions" >
   <v>      -0.24999994       0.03809460       0.14032238 </v>
   <v>      -0.24999994       0.12752537      -0.05165473 </v>
   <v>       0.25000002       0.19210068       0.20533134 </v>
   <v>       0.25000002      -0.12752529       0.05165480 </v>
   <v>       0.25000002      -0.05409862       0.37265088 </v>
   <v>       0.25000002      -0.03809453      -0.14032230 </v>
   <v>       0.25000002       0.32959141       0.03381284 </v>
   <v>      -0.24999994      -0.30789928       0.29466870 </v>
   <v>      -0.24999994      -0.17040856       0.46618720 </v>
   <v>      -0.24999994       0.44590134       0.12734916 </v>
   <v>      -0.24999994      -0.32959133      -0.03381277 </v>
   <v>      -0.24999994      -0.19210061      -0.20533126 </v>
   <v>      -0.24999994       0.37247467       0.44834523 </v>
   <v>       0.25000002       0.17040863      -0.46618712 </v>
   <v>      -0.24999994       0.05409869      -0.37265080 </v>
   <v>       0.25000002       0.30789935      -0.29466863 </v>
   <v>       0.25000002      -0.46190536       0.35967766 </v>
   <v>       0.25000002      -0.44590127      -0.12734908 </v>
   <v>       0.25000002      -0.37247459      -0.44834516 </v>
   <v>      -0.24999994       0.46190544      -0.35967758 </v>
  </varray>
 </structure>
 <varray name="primitive_index" >
  <v type="int" >        1 </v>
  <v type="int" >        9 </v>
  <v type="int" >       13 </v>
  <v type="int" >       10 </v>
  <v type="int" >       18 </v>
  <v type="int" >        2 </v>
  <v type="int" >        5 </v>
  <v type="int" >       15 </v>
  <v type="int" >        7 </v>
  <v type="int" >       20 </v>
  <v type="int" >        6 </v>
  <v type="int" >       14 </v>
  <v type="int" >       12 </v>
  <v type="int" >        8 </v>
  <v type="int" >       17 </v>
  <v type="int" >       16 </v>
  <v type="int" >        3 </v>
  <v type="int" >       19 </v>
  <v type="int" >       11 </v>
  <v type="int" >        4 </v>
 </varray>
 <kpoints>
  <generation param="Gamma">
   <v type="int" name="divisions">      12        4        4 </v>
   <v name="usershift">      0.00000000       0.00000000       0.00000000 </v>
   <v name="genvec1">      0.08333333       0.00000000       0.00000000 </v>
   <v name="genvec2">      0.00000000       0.25000000       0.00000000 </v>
   <v name="genvec3">      0.00000000       0.00000000       0.25000000 </v>
   <v name="shift">      0.00000000       0.00000000       0.00000000 </v>
  </generation>
  <varray name="kpointlist" >
   <v>       0.00000000       0.00000000       0.00000000 </v>
   <v>       0.08333333       0.00000000       0.00000000 </v>
   <v>       0.16666667       0.00000000       0.00000000 </v>
   <v>       0.25000000       0.00000000       0.00000000 </v>
   <v>       0.33333333       0.00000000       0.00000000 </v>
   <v>       0.41666667       0.00000000       0.00000000 </v>
   <v>       0.50000000       0.00000000       0.00000000 </v>
   <v>       0.00000000       0.25000000       0.00000000 </v>
   <v>       0.08333333       0.25000000       0.00000000 </v>
   <v>       0.16666667       0.25000000       0.00000000 </v>
   <v>       0.25000000       0.25000000       0.00000000 </v>
   <v>       0.33333333       0.25000000       0.00000000 </v>
   <v>       0.41666667       0.25000000       0.00000000 </v>
   <v>       0.50000000       0.25000000       0.00000000 </v>
   <v>      -0.41666667       0.25000000       0.00000000 </v>
   <v>      -0.33333333       0.25000000       0.00000000 </v>
   <v>      -0.25000000       0.25000000       0.00000000 </v>
   <v>      -0.16666667       0.25000000       0.00000000 </v>
   <v>      -0.08333333       0.25000000       0.00000000 </v>
   <v>       0.00000000       0.50000000       0.00000000 </v>
   <v>       0.08333333       0.50000000       0.00000000 </v>
   <v>       0.16666667       0.50000000       0.00000000 </v>
   <v>       0.25000000       0.50000000       0.00000000 </v>
   <v>       0.33333333       0.50000000       0.00000000 </v>
   <v>       0.41666667       0.50000000       0.00000000 </v>
   <v>       0.50000000       0.50000000       0.00000000 </v>
   <v>       0.00000000       0.00000000       0.25000000 </v>
   <v>       0.08333333       0.00000000       0.25000000 </v>
   <v>       0.16666667       0.00000000       0.25000000 </v>
   <v>       0.25000000       0.00000000       0.25000000 </v>
   <v>       0.33333333       0.00000000       0.25000000 </v>
   <v>       0.41666667       0.00000000       0.25000000 </v>
   <v>       0.50000000       0.00000000       0.25000000 </v>
   <v>      -0.41666667       0.00000000       0.25000000 </v>
   <v>      -0.33333333       0.00000000       0.25000000 </v>
   <v>      -0.25000000       0.00000000       0.25000000 </v>
   <v>      -0.16666667       0.00000000       0.25000000 </v>
   <v>      -0.08333333       0.00000000       0.25000000 </v>
   <v>       0.00000000       0.25000000       0.25000000 </v>
   <v>       0.08333333       0.25000000       0.25000000 </v>
   <v>       0.16666667       0.25000000       0.25000000 </v>
   <v>       0.25000000       0.25000000       0.25000000 </v>
   <v>       0.33333333       0.25000000       0.25000000 </v>
   <v>       0.41666667       0.25000000       0.25000000 </v>
   <v>       0.50000000       0.25000000       0.25000000 </v>
   <v>      -0.41666667       0.25000000       0.25000000 </v>
   <v>      -0.33333333       0.25000000       0.25000000 </v>
   <v>      -0.25000000       0.25000000       0.25000000 </v>
   <v>      -0.16666667       0.25000000       0.25000000 </v>
   <v>      -0.08333333       0.25000000       0.25000000 </v>
   <v>       0.00000000       0.50000000       0.25000000 </v>
   <v>       0.08333333       0.50000000       0.25000000 </v>
   <v>       0.16666667       0.50000000       0.25000000 </v>
   <v>       0.25000000       0.50000000       0.25000000 </v>
   <v>       0.33333333       0.50000000       0.25000000 </v>
   <v>       0.41666667       0.50000000       0.25000000 </v>
   <v>       0.50000000       0.50000000       0.25000000 </v>
   <v>      -0.41666667       0.50000000       0.25000000 </v>
   <v>      -0.33333333       0.50000000       0.25000000 </v>
   <v>      -0.25000000       0.50000000       0.25000000 </v>
   <v>      -0.16666667       0.50000000       0.25000000 </v>
   <v>      -0.08333333       0.50000000       0.25000000 </v>
   <v>       0.00000000      -0.25000000       0.25000000 </v>
   <v>       0.08333333      -0.25000000       0.25000000 </v>
   <v>       0.16666667      -0.25000000       0.25000000 </v>
   <v>       0.25000000      -0.25000000       0.25000000 </v>
   <v>       0.33333333      -0.25000000       0.25000000 </v>
   <v>       0.41666667      -0.25000000       0.25000000 </v>
   <v>       0.50000000      -0.25000000       0.25000000 </v>
   <v>      -0.41666667      -0.25000000       0.25000000 </v>
   <v>      -0.33333333      -0.25000000       0.25000000 </v>
   <v>      -0.25000000      -0.25000000       0.25000000 </v>
   <v>      -0.16666667      -0.25000000       0.25000000 </v>
   <v>      -0.08333333      -0.25000000       0.25000000 </v>
   <v>       0.00000000       0.00000000       0.50000000 </v>
   <v>       0.08333333       0.00000000       0.50000000 </v>
   <v>       0.16666667       0.00000000       0.50000000 </v>
   <v>       0.25000000       0.00000000       0.50000000 </v>
   <v>       0.33333333       0.00000000       0.50000000 </v>
   <v>       0.41666667       0.00000000       0.50000000 </v>
   <v>       0.50000000       0.00000000       0.50000000 </v>
   <v>       0.00000000       0.25000000       0.50000000 </v>
   <v>       0.08333333       0.25000000       0.50000000 </v>
   <v>       0.16666667       0.25000000       0.50000000 </v>
   <v>       0.25000000       0.25000000       0.50000000 </v>
   <v>       0.33333333       0.25000000       0.50000000 </v>
   <v>       0.41666667       0.25000000       0.50000000 </v>
   <v>       0.50000000       0.25000000       0.50000000 </v>
   <v>      -0.41666667       0.25000000       0.50000000 </v>
   <v>      -0.33333333       0.25000000       0.50000000 </v>
   <v>      -0.25000000       0.25000000       0.50000000 </v>
   <v>      -0.16666667       0.25000000       0.50000000 </v>
   <v>      -0.08333333       0.25000000       0.50000000 </v>
   <v>       0.00000000       0.50000000       0.50000000 </v>
   <v>       0.08333333       0.50000000       0.50000000 </v>
   <v>       0.16666667       0.50000000       0.50000000 </v>
   <v>       0.25000000       0.50000000       0.50000000 </v>
   <v>       0.33333333       0.50000000       0.50000000 </v>
   <v>       0.41666667       0.50000000       0.50000000 </v>
   <v>       0.50000000       0.50000000       0.50000000 </v>
  </varray>
  <varray name="weights" >
   <v>       0.00520833 </v>
   <v>       0.01041667 </v>
   <v>       0.01041667 </v>
   <v>       0.01041667 </v>
   <v>       0.01041667 </v>
   <v>       0.01041667 </v>
   <v>       0.00520833 </v>
   <v>       0.01041667 </v>
   <v>       0.01041667 </v>
   <v>       0.01041667 </v>
   <v>       0.01041667 </v>
   <v>       0.01041667 </v>
   <v>       0.01041667 </v>
   <v>       0.01041667 </v>
   <v>       0.01041667 </v>
   <v>       0.01041667 </v>
   <v>       0.01041667 </v>
   <v>       0.01041667 </v>
   <v>       0.01041667 </v>
   <v>       0.00520833 </v>
   <v>       0.01041667 </v>
   <v>       0.01041667 </v>
   <v>       0.01041667 </v>
   <v>       0.01041667 </v>
   <v>       0.01041667 </v>
   <v>       0.00520833 </v>
   <v>       0.01041667 </v>
   <v>       0.01041667 </v>
   <v>       0.01041667 </v>
   <v>       0.01041667 </v>
   <v>       0.01041667 </v>
   <v>       0.01041667 </v>
   <v>       0.01041667 </v>
   <v>       0.01041667 </v>
   <v>       0.01041667 </v>
   <v>       0.01041667 </v>
   <v>       0.01041667 </v>
   <v>       0.01041667 </v>
   <v>       0.01041667 </v>
   <v>       0.01041667 </v>
   <v>       0.01041667 </v>
   <v>       0.01041667 </v>
   <v>       0.01041667 </v>
   <v>       0.01041667 </v>
   <v>       0.01041667 </v>
   <v>       0.01041667 </v>
   <v>       0.01041667 </v>
   <v>       0.01041667 </v>
   <v>       0.01041667 </v>
   <v>       0.01041667 </v>
   <v>       0.01041667 </v>
   <v>       0.01041667 </v>
   <v>       0.01041667 </v>
   <v>       0.01041667 </v>
   <v>       0.01041667 </v>
   <v>       0.01041667 </v>
   <v>       0.01041667 </v>
   <v>       0.01041667 </v>
   <v>       0.01041667 </v>
   <v>       0.01041667 </v>
   <v>       0.01041667 </v>
   <v>       0.01041667 </v>
   <v>       0.01041667 </v>
   <v>       0.01041667 </v>
   <v>       0.01041667 </v>
   <v>       0.01041667 </v>
   <v>       0.01041667 </v>
   <v>       0.01041667 </v>
   <v>       0.01041667 </v>
   <v>       0.01041667 </v>
   <v>       0.01041667 </v>
   <v>       0.01041667 </v>
   <v>       0.01041667 </v>
   <v>       0.01041667 </v>
   <v>       0.00520833 </v>
   <v>       0.01041667 </v>
   <v>       0.01041667 </v>
   <v>       0.01041667 </v>
   <v>       0.01041667 </v>
   <v>       0.01041667 </v>
   <v>       0.00520833 </v>
   <v>       0.01041667 </v>
   <v>       0.01041667 </v>
   <v>       0.01041667 </v>
   <v>       0.01041667 </v>
   <v>       0.01041667 </v>
   <v>       0.01041667 </v>
   <v>       0.01041667 </v>
   <v>       0.01041667 </v>
   <v>       0.01041667 </v>
   <v>       0.01041667 </v>
   <v>       0.01041667 </v>
   <v>       0.01041667 </v>
   <v>       0.00520833 </v>
   <v>       0.01041667 </v>
   <v>       0.01041667 </v>
   <v>       0.01041667 </v>
   <v>       0.01041667 </v>
   <v>       0.01041667 </v>
   <v>       0.00520833 </v>
  </varray>
 </kpoints>
 <parameters>
  <separator name="general" >
   <i type="string" name="SYSTEM">unknown system</i>
   <i type="logical" name="LCOMPAT"> F  </i>
  </separator>
  <separator name="electronic" >
   <i type="string" name="PREC">accura</i>
   <i name="ENMAX">    520.00000000</i>
   <i name="ENAUG">    446.84200000</i>
   <i name="EDIFF">      0.00000001</i>
   <i type="int" name="IALGO">    38</i>
   <i type="int" name="IWAVPR">    11</i>
   <i type="int" name="NBANDS">    72</i>
   <i name="NELECT">    112.00000000</i>
   <i type="int" name="TURBO">     0</i>
   <i type="int" name="IRESTART">     0</i>
   <i type="int" name="NREBOOT">     0</i>
   <i type="int" name="NMIN">     0</i>
   <i name="EREF">      0.00000000</i>
   <separator name="electronic smearing" >
    <i type="int" name="ISMEAR">     0</i>
    <i name="SIGMA">      0.01000000</i>
    <i name="KSPACING">      0.50000000</i>
    <i type="logical" name="KGAMMA"> T  </i>
   </separator>
   <separator name="electronic projectors" >
    <i type="logical" name="LREAL"> F  </i>
    <v name="ROPT">      0.00000000      0.00000000</v>
    <i type="int" name="LMAXPAW">  -100</i>
    <i type="int" name="LMAXMIX">     2</i>
    <i type="logical" name="NLSPLINE"> F  </i>
   </separator>
   <separator name="electronic startup" >
    <i type="int" name="ISTART">     0</i>
    <i type="int" name="ICHARG">     2</i>
    <i type="int" name="INIWAV">     1</i>
   </separator>
   <separator name="electronic spin" >
    <i type="int" name="ISPIN">     1</i>
    <i type="logical" name="LNONCOLLINEAR"> F  </i>
    <v name="MAGMOM">      1.00000000      1.00000000      1.00000000      1.00000000      1.00000000      1.00000000      1.00000000      1.00000000      1.00000000      1.00000000      1.00000000      1.00000000      1.00000000      1.00000000      1.00000000      1.00000000      1.00000000      1.00000000      1.00000000      1.00000000
</v>
    <i name="NUPDOWN">     -1.00000000</i>
    <i type="logical" name="LSORBIT"> F  </i>
    <v name="SAXIS">      0.00000000      0.00000000      1.00000000</v>
    <i type="logical" name="LSPIRAL"> F  </i>
    <v name="QSPIRAL">      0.00000000      0.00000000      0.00000000</v>
    <i type="logical" name="LZEROZ"> F  </i>
   </separator>
   <separator name="electronic exchange-correlation" >
    <i type="logical" name="LASPH"> F  </i>
    <i type="logical" name="LMETAGGA"> F  </i>
   </separator>
   <separator name="electronic convergence" >
    <i type="int" name="NELM">   100</i>
    <i type="int" name="NELMDL">    -5</i>
    <i type="int" name="NELMIN">     2</i>
    <i name="ENINI">    520.00000000</i>
    <separator name="electronic convergence detail" >
     <i type="logical" name="LDIAG"> T  </i>
     <i type="logical" name="LSUBROT"> F  </i>
     <i name="WEIMIN">      0.00100000</i>
     <i name="EBREAK">      0.00000000</i>
     <i name="DEPER">      0.30000000</i>
     <i type="int" name="NRMM">     4</i>
     <i name="TIME">      0.40000000</i>
    </separator>
   </separator>
   <separator name="electronic mixer" >
    <i name="AMIX">      0.40000000</i>
    <i name="BMIX">      1.00000000</i>
    <i name="AMIN">      0.10000000</i>
    <i name="AMIX_MAG">      1.60000000</i>
    <i name="BMIX_MAG">      1.00000000</i>
    <separator name="electronic mixer details" >
     <i type="int" name="IMIX">     4</i>
     <i type="logical" name="MIXFIRST"> F  </i>
     <i type="int" name="MAXMIX">   -45</i>
     <i name="WC">    100.00000000</i>
     <i type="int" name="INIMIX">     1</i>
     <i type="int" name="MIXPRE">     1</i>
     <i type="int" name="MREMOVE">     5</i>
    </separator>
   </separator>
   <separator name="electronic dipolcorrection" >
    <i type="logical" name="LDIPOL"> F  </i>
    <i type="logical" name="LMONO"> F  </i>
    <i type="int" name="IDIPOL">     0</i>
    <i name="EPSILON">      1.00000000</i>
    <v name="DIPOL">   -100.00000000   -100.00000000   -100.00000000</v>
    <i name="EFIELD">      0.00000000</i>
   </separator>
  </separator>
  <separator name="grids" >
   <i type="int" name="NGX">    30</i>
   <i type="int" name="NGY">    90</i>
   <i type="int" name="NGZ">    96</i>
   <i type="int" name="NGXF">    60</i>
   <i type="int" name="NGYF">   180</i>
   <i type="int" name="NGZF">   192</i>
   <i type="logical" name="ADDGRID"> F  </i>
  </separator>
  <separator name="ionic" >
   <i type="int" name="NSW">     1</i>
   <i type="int" name="IBRION">     8</i>
   <i type="int" name="MDALGO">     0</i>
   <i type="int" name="ISIF">     2</i>
   <i name="PSTRESS">      0.00000000</i>
   <i name="EDIFFG">      0.00000010</i>
   <i type="int" name="NFREE">     0</i>
   <i name="POTIM">      0.50000000</i>
   <i name="SMASS">     -3.00000000</i>
   <i name="SCALEE">      1.00000000</i>
  </separator>
  <separator name="ionic md" >
   <i name="TEBEG">      0.00010000</i>
   <i name="TEEND">      0.00010000</i>
   <i type="int" name="NBLOCK">     1</i>
   <i type="int" name="KBLOCK">     1</i>
   <i type="int" name="NPACO">   256</i>
   <i name="APACO">     16.00000000</i>
  </separator>
  <separator name="symmetry" >
   <i type="int" name="ISYM">     2</i>
   <i name="SYMPREC">      0.00000001</i>
  </separator>
  <separator name="dos" >
   <i type="int" name="LORBIT">     0</i>
   <v name="RWIGS">     -1.00000000     -1.00000000</v>
   <i type="int" name="NEDOS">   301</i>
   <i name="EMIN">     10.00000000</i>
   <i name="EMAX">    -10.00000000</i>
   <i name="EFERMI">      0.00000000</i>
  </separator>
  <separator name="writing" >
   <i type="int" name="NWRITE">     2</i>
   <i type="logical" name="LWAVE"> F  </i>
   <i type="logical" name="LDOWNSAMPLE"> F  </i>
   <i type="logical" name="LCHARG"> T  </i>
   <i type="logical" name="LPARD"> F  </i>
   <i type="logical" name="LVTOT"> F  </i>
   <i type="logical" name="LVHAR"> F  </i>
   <i type="logical" name="LELF"> F  </i>
   <i type="logical" name="LOPTICS"> F  </i>
   <v name="STM">      0.00000000      0.00000000      0.00000000      0.00000000      0.00000000      0.00000000      0.00000000</v>
  </separator>
  <separator name="performance" >
   <i type="int" name="NPAR">     8</i>
   <i type="int" name="NSIM">     4</i>
   <i type="int" name="NBLK">    -1</i>
   <i type="logical" name="LPLANE"> T  </i>
   <i type="logical" name="LSCALAPACK"> T  </i>
   <i type="logical" name="LSCAAWARE"> F  </i>
   <i type="logical" name="LSCALU"> F  </i>
   <i type="logical" name="LASYNC"> F  </i>
   <i type="logical" name="LORBITALREAL"> F  </i>
  </separator>
  <separator name="miscellaneous" >
   <i type="int" name="IDIOT">     3</i>
   <i type="int" name="ISPECIAL">     0</i>
   <i type="logical" name="LMUSIC"> F  </i>
   <v name="POMASS">    121.75000000     78.96000000</v>
   <v name="DARWINR">      0.00000000      0.00000000</v>
   <v name="DARWINV">      1.00000000      1.00000000</v>
   <i type="logical" name="LCORR"> T  </i>
  </separator>
  <i type="logical" name="GGA_COMPAT"> T  </i>
  <i type="logical" name="LBERRY"> F  </i>
  <i type="int" name="ICORELEVEL">     0</i>
  <i type="logical" name="LDAU"> F  </i>
  <i type="int" name="I_CONSTRAINED_M">     0</i>
  <separator name="electronic exchange-correlation" >
   <i type="string" name="GGA">--</i>
   <i type="int" name="VOSKOWN">     0</i>
   <i type="logical" name="LHFCALC"> F  </i>
   <i type="string" name="PRECFOCK"></i>
   <i type="logical" name="LSYMGRAD"> F  </i>
   <i type="logical" name="LHFONE"> F  </i>
   <i type="logical" name="LRHFCALC"> F  </i>
   <i type="logical" name="LTHOMAS"> F  </i>
   <i type="logical" name="LMODELHF"> F  </i>
   <i name="ENCUT4O">     -1.00000000</i>
   <i type="int" name="EXXOEP">     0</i>
   <i type="int" name="FOURORBIT">     0</i>
   <i name="AEXX">      0.00000000</i>
   <i name="HFALPHA">      0.00000000</i>
   <i name="MCALPHA">      0.00000000</i>
   <i name="ALDAX">      1.00000000</i>
   <i name="AGGAX">      1.00000000</i>
   <i name="ALDAC">      1.00000000</i>
   <i name="AGGAC">      1.00000000</i>
   <i type="int" name="NKREDX">     1</i>
   <i type="int" name="NKREDY">     1</i>
   <i type="int" name="NKREDZ">     1</i>
   <i type="logical" name="SHIFTRED"> F  </i>
   <i type="logical" name="ODDONLY"> F  </i>
   <i type="logical" name="EVENONLY"> F  </i>
   <i type="int" name="LMAXFOCK">     0</i>
   <i type="int" name="NMAXFOCKAE">     0</i>
   <i type="logical" name="LFOCKAEDFT"> F  </i>
   <i name="HFSCREEN">      0.00000000</i>
   <i name="HFSCREENC">      0.00000000</i>
   <i type="int" name="NBANDSGWLOW">     0</i>
  </separator>
  <separator name="vdW DFT" >
   <i type="logical" name="LUSE_VDW"> F  </i>
   <i name="Zab_VDW">     -0.84910000</i>
   <i name="PARAM1">      0.12340000</i>
   <i name="PARAM2">      1.00000000</i>
   <i name="PARAM3">      0.00000000</i>
  </separator>
  <separator name="model GW" >
   <i type="int" name="MODEL_GW">     0</i>
   <i name="MODEL_EPS0">     17.38332901</i>
   <i name="MODEL_ALPHA">      1.00000000</i>
  </separator>
  <separator name="linear response parameters" >
   <i type="logical" name="LEPSILON"> T  </i>
   <i type="logical" name="LRPA"> F  </i>
   <i type="logical" name="LNABLA"> F  </i>
   <i type="logical" name="LVEL"> F  </i>
   <i type="int" name="KINTER">     0</i>
   <i name="CSHIFT">      0.10000000</i>
   <i name="OMEGAMAX">     -1.00000000</i>
   <i name="DEG_THRESHOLD">      0.00200000</i>
   <i name="RTIME">     -0.10000000</i>
   <i name="WPLASMAI">      0.00000000</i>
   <v name="DFIELD">      0.00000000      0.00000000      0.00000000</v>
   <v name="WPLASMA">      0.00000000      0.00000000      0.00000000      0.00000000      0.00000000      0.00000000      0.00000000      0.00000000      0.00000000</v>
  </separator>
  <separator name="orbital magnetization" >
   <i type="logical" name="NUCIND"> F  </i>
   <v name="MAGPOS">      0.00000000      0.00000000      0.00000000</v>
   <i type="logical" name="LNICSALL"> T  </i>
   <i type="logical" name="ORBITALMAG"> F  </i>
   <i type="logical" name="LMAGBLOCH"> F  </i>
   <i type="logical" name="LCHIMAG"> F  </i>
   <i type="logical" name="LGAUGE"> T  </i>
   <i type="int" name="MAGATOM">     0</i>
   <v name="MAGDIPOL">      0.00000000      0.00000000      0.00000000</v>
   <v name="AVECCONST">      0.00000000      0.00000000      0.00000000</v>
  </separator>
  <separator name="response functions" >
   <i type="logical" name="LADDER"> F  </i>
   <i type="logical" name="LRPAFORCE"> F  </i>
   <i type="logical" name="LFXC"> F  </i>
   <i type="logical" name="LHARTREE"> T  </i>
   <i type="int" name="IBSE">     0</i>
   <v type="int" name="KPOINT">    -1     0     0     0</v>
   <i type="logical" name="LTCTE"> F  </i>
   <i type="logical" name="LTETE"> F  </i>
   <i type="logical" name="LTRIPLET"> F  </i>
   <i type="logical" name="LFXCEPS"> F  </i>
   <i type="logical" name="LFXHEG"> F  </i>
   <i type="int" name="NATURALO">     2</i>
   <i type="logical" name="L2ORDER"> F  </i>
   <i type="logical" name="LMP2LT"> F  </i>
   <i type="logical" name="LUSEW"> F  </i>
   <i name="ENCUTGW">     -2.00000000</i>
   <i name="ENCUTGWSOFT">     -2.00000000</i>
   <i name="ENCUTLF">     -1.00000000</i>
   <i type="int" name="LMAXMP2">    -1</i>
   <i name="SCISSOR">      0.00000000</i>
   <i type="int" name="NOMEGA">     0</i>
   <i type="int" name="NOMEGAR">     0</i>
   <i type="int" name="NBANDSGW">    -1</i>
   <i type="int" name="NBANDSO">    -1</i>
   <i type="int" name="NBANDSV">    -1</i>
   <i type="int" name="NELM">   100</i>
   <i type="int" name="NELMHF">     1</i>
   <i type="int" name="DIM">     3</i>
   <i type="int" name="ANTIRES">     0</i>
   <i name="OMEGAMAX">    -30.00000000</i>
   <i name="OMEGAMIN">    -30.00000000</i>
   <i name="OMEGATL">   -200.00000000</i>
   <i type="int" name="OMEGAGRID">   140</i>
   <i name="CSHIFT">     -0.10000000</i>
   <i type="logical" name="SELFENERGY"> F  </i>
   <i type="logical" name="LSPECTRAL"> F  </i>
   <i type="logical" name="LSPECTRALGW"> F  </i>
   <i type="logical" name="LSINGLES"> F  </i>
   <i type="logical" name="LFERMIGW"> F  </i>
   <i type="logical" name="ODDONLYGW"> F  </i>
   <i type="logical" name="EVENONLYGW"> F  </i>
   <i type="int" name="NKREDLFX">     1</i>
   <i type="int" name="NKREDLFY">     1</i>
   <i type="int" name="NKREDLFZ">     1</i>
   <i type="int" name="MAXMEM">  2800</i>
   <i type="int" name="TELESCOPE">     0</i>
   <i type="int" name="TAUPAR">     1</i>
   <i type="int" name="OMEGAPAR">    -1</i>
   <i name="LAMBDA">      1.00000000</i>
  </separator>
  <separator name="External order field" >
   <i name="OFIELD_KAPPA">      0.00000000</i>
   <v name="OFIELD_K">      0.00000000      0.00000000      0.00000000</v>
   <i name="OFIELD_Q6_NEAR">      0.00000000</i>
   <i name="OFIELD_Q6_FAR">      0.00000000</i>
   <i name="OFIELD_A">      0.00000000</i>
  </separator>
 </parameters>
 <atominfo>
  <atoms>      20 </atoms>
  <types>       2 </types>
  <array name="atoms" >
   <dimension dim="1">ion</dimension>
   <field type="string">element</field>
   <field type="int">atomtype</field>
   <set>
    <rc><c>Sb</c><c>   1</c></rc>
    <rc><c>Sb</c><c>   1</c></rc>
    <rc><c>Sb</c><c>   1</c></rc>
    <rc><c>Sb</c><c>   1</c></rc>
    <rc><c>Sb</c><c>   1</c></rc>
    <rc><c>Sb</c><c>   1</c></rc>
    <rc><c>Sb</c><c>   1</c></rc>
    <rc><c>Sb</c><c>   1</c></rc>
    <rc><c>Se</c><c>   2</c></rc>
    <rc><c>Se</c><c>   2</c></rc>
    <rc><c>Se</c><c>   2</c></rc>
    <rc><c>Se</c><c>   2</c></rc>
    <rc><c>Se</c><c>   2</c></rc>
    <rc><c>Se</c><c>   2</c></rc>
    <rc><c>Se</c><c>   2</c></rc>
    <rc><c>Se</c><c>   2</c></rc>
    <rc><c>Se</c><c>   2</c></rc>
    <rc><c>Se</c><c>   2</c></rc>
    <rc><c>Se</c><c>   2</c></rc>
    <rc><c>Se</c><c>   2</c></rc>
   </set>
  </array>
  <array name="atomtypes" >
   <dimension dim="1">type</dimension>
   <field type="int">atomspertype</field>
   <field type="string">element</field>
   <field>mass</field>
   <field>valence</field>
   <field type="string">pseudopotential</field>
   <set>
    <rc><c>   8</c><c>Sb</c><c>    121.75000000</c><c>      5.00000000</c><c>  PAW_PBE Sb 06Sep2000                  </c></rc>
    <rc><c>  12</c><c>Se</c><c>     78.96000000</c><c>      6.00000000</c><c>  PAW_PBE Se 06Sep2000                  </c></rc>
   </set>
  </array>
 </atominfo>
 <structure name="initialpos" >
  <crystal>
   <varray name="basis" >
    <v>       4.00155656       0.00000000       0.00000000 </v>
    <v>       0.00000000      11.71362881       0.00000000 </v>
    <v>       0.00000000       0.00000000      12.36207225 </v>
   </varray>
   <i name="volume">    579.44430030 </i>
   <varray name="rec_basis" >
    <v>       0.24990275       0.00000000       0.00000000 </v>
    <v>       0.00000000       0.08537064       0.00000000 </v>
    <v>       0.00000000       0.00000000       0.08089259 </v>
   </varray>
  </crystal>
  <varray name="positions" >
   <v>       0.75000006       0.03809460       0.14032238 </v>
   <v>       0.25000002       0.96190547       0.85967770 </v>
   <v>       0.25000002       0.53809464       0.35967766 </v>
   <v>       0.75000006       0.46190544       0.64032242 </v>
   <v>       0.25000002       0.32959141       0.03381284 </v>
   <v>       0.75000006       0.67040867       0.96618723 </v>
   <v>       0.75000006       0.82959144       0.46618720 </v>
   <v>       0.25000002       0.17040863       0.53381288 </v>
   <v>       0.75000006       0.12752537       0.94834527 </v>
   <v>       0.25000002       0.87247471       0.05165480 </v>
   <v>       0.25000002       0.62752541       0.55165484 </v>
   <v>       0.75000006       0.37247467       0.44834523 </v>
   <v>       0.25000002       0.19210068       0.20533134 </v>
   <v>       0.75000006       0.80789939       0.79466874 </v>
   <v>       0.75000006       0.69210072       0.29466870 </v>
   <v>       0.25000002       0.30789935       0.70533137 </v>
   <v>       0.75000006       0.05409869       0.62734920 </v>
   <v>       0.25000002       0.94590138       0.37265088 </v>
   <v>       0.25000002       0.55409873       0.87265092 </v>
   <v>       0.75000006       0.44590134       0.12734916 </v>
  </varray>
 </structure>
 <calculation>
  <scstep>
   <time name="dav">   61.88   62.20</time>
   <time name="total">   62.09   62.41</time>
   <energy>
    <i name="alphaZ">    116.37459191 </i>
    <i name="ewald">  -4031.12494296 </i>
    <i name="hartreedc">   -480.58309411 </i>
    <i name="XCdc">   -376.84991778 </i>
    <i name="pawpsdc">   3833.04129494 </i>
    <i name="pawaedc">  -3236.10770576 </i>
    <i name="eentropy">     -0.00035223 </i>
    <i name="bandstr">    580.34832299 </i>
    <i name="atom">   4285.14256938 </i>
    <i name="e_fr_energy">    690.24076638 </i>
    <i name="e_wo_entrp">    690.24111861 </i>
    <i name="e_0_energy">    690.24094249 </i>
   </energy>
  </scstep>
  <scstep>
   <time name="dav">   71.98   72.39</time>
   <time name="total">   71.98   72.39</time>
   <energy>
    <i name="e_fr_energy">     -0.73225777 </i>
    <i name="e_wo_entrp">     -0.73209878 </i>
    <i name="e_0_energy">     -0.73217827 </i>
   </energy>
  </scstep>
  <scstep>
   <time name="dav">   71.94   72.34</time>
   <time name="total">   71.94   72.34</time>
   <energy>
    <i name="e_fr_energy">    -80.25440901 </i>
    <i name="e_wo_entrp">    -80.25440901 </i>
    <i name="e_0_energy">    -80.25440901 </i>
   </energy>
  </scstep>
  <scstep>
   <time name="dav">   73.19   73.57</time>
   <time name="total">   73.19   73.57</time>
   <energy>
    <i name="e_fr_energy">    -82.62020340 </i>
    <i name="e_wo_entrp">    -82.62020340 </i>
    <i name="e_0_energy">    -82.62020340 </i>
   </energy>
  </scstep>
  <scstep>
   <time name="dav">   74.07   74.47</time>
   <time name="total">   77.43   77.85</time>
   <energy>
    <i name="e_fr_energy">    -82.70248607 </i>
    <i name="e_wo_entrp">    -82.70248607 </i>
    <i name="e_0_energy">    -82.70248607 </i>
   </energy>
  </scstep>
  <scstep>
   <time name="dav">   68.01   68.33</time>
   <time name="total">   71.58   71.92</time>
   <energy>
    <i name="e_fr_energy">    -80.31246268 </i>
    <i name="e_wo_entrp">    -80.31246268 </i>
    <i name="e_0_energy">    -80.31246268 </i>
   </energy>
  </scstep>
  <scstep>
   <time name="dav">   73.33   73.75</time>
   <time name="total">   76.70   77.15</time>
   <energy>
    <i name="e_fr_energy">    -80.30150047 </i>
    <i name="e_wo_entrp">    -80.30150047 </i>
    <i name="e_0_energy">    -80.30150047 </i>
   </energy>
  </scstep>
  <scstep>
   <time name="dav">   71.97   72.34</time>
   <time name="total">   75.31   75.68</time>
   <energy>
    <i name="e_fr_energy">    -80.29293367 </i>
    <i name="e_wo_entrp">    -80.29293367 </i>
    <i name="e_0_energy">    -80.29293367 </i>
   </energy>
  </scstep>
  <scstep>
   <time name="dav">   72.01   72.38</time>
   <time name="total">   75.84   76.22</time>
   <energy>
    <i name="e_fr_energy">    -80.29651165 </i>
    <i name="e_wo_entrp">    -80.29651165 </i>
    <i name="e_0_energy">    -80.29651165 </i>
   </energy>
  </scstep>
  <scstep>
   <time name="dav">   71.92   72.26</time>
   <time name="total">   75.51   75.87</time>
   <energy>
    <i name="e_fr_energy">    -80.29698786 </i>
    <i name="e_wo_entrp">    -80.29698786 </i>
    <i name="e_0_energy">    -80.29698786 </i>
   </energy>
  </scstep>
  <scstep>
   <time name="dav">   72.98   73.38</time>
   <time name="total">   76.37   76.77</time>
   <energy>
    <i name="e_fr_energy">    -80.29739383 </i>
    <i name="e_wo_entrp">    -80.29739383 </i>
    <i name="e_0_energy">    -80.29739383 </i>
   </energy>
  </scstep>
  <scstep>
   <time name="dav">   68.39   68.77</time>
   <time name="total">   71.86   72.26</time>
   <energy>
    <i name="e_fr_energy">    -80.29754579 </i>
    <i name="e_wo_entrp">    -80.29754579 </i>
    <i name="e_0_energy">    -80.29754579 </i>
   </energy>
  </scstep>
  <scstep>
   <time name="dav">   69.32   69.73</time>
   <time name="total">   72.88   73.30</time>
   <energy>
    <i name="e_fr_energy">    -80.29759269 </i>
    <i name="e_wo_entrp">    -80.29759269 </i>
    <i name="e_0_energy">    -80.29759269 </i>
   </energy>
  </scstep>
  <scstep>
   <time name="dav">   76.37   76.78</time>
   <time name="total">   79.84   80.27</time>
   <energy>
    <i name="e_fr_energy">    -80.29759871 </i>
    <i name="e_wo_entrp">    -80.29759871 </i>
    <i name="e_0_energy">    -80.29759871 </i>
   </energy>
  </scstep>
  <scstep>
   <time name="dav">   66.05   66.39</time>
   <time name="total">   69.52   69.87</time>
   <energy>
    <i name="e_fr_energy">    -80.29760043 </i>
    <i name="e_wo_entrp">    -80.29760043 </i>
    <i name="e_0_energy">    -80.29760043 </i>
   </energy>
  </scstep>
  <scstep>
   <time name="dav">   75.07   75.48</time>
   <time name="total">   78.51   78.93</time>
   <energy>
    <i name="e_fr_energy">    -80.29760068 </i>
    <i name="e_wo_entrp">    -80.29760068 </i>
    <i name="e_0_energy">    -80.29760068 </i>
   </energy>
  </scstep>
  <scstep>
   <time name="dav">   66.32   66.72</time>
   <time name="total">   70.07   70.48</time>
   <energy>
    <i name="e_fr_energy">    -80.29760089 </i>
    <i name="e_wo_entrp">    -80.29760089 </i>
    <i name="e_0_energy">    -80.29760089 </i>
   </energy>
  </scstep>
  <scstep>
   <time name="dav">   55.64   55.96</time>
   <time name="total">   59.07   59.41</time>
   <energy>
    <i name="e_fr_energy">    -80.29760087 </i>
    <i name="e_wo_entrp">    -80.29760087 </i>
    <i name="e_0_energy">    -80.29760087 </i>
   </energy>
  </scstep>
  <scstep>
   <time name="dav">   48.16   48.43</time>
   <time name="total">   51.60   51.88</time>
   <energy>
    <i name="e_fr_energy">    -80.29760088 </i>
    <i name="e_wo_entrp">    -80.29760088 </i>
    <i name="e_0_energy">    -80.29760088 </i>
   </energy>
  </scstep>
  <scstep>
   <time name="dav">   48.45   48.72</time>
   <time name="total">   48.63   48.91</time>
   <energy>
    <i name="alphaZ">    116.37459191 </i>
    <i name="ewald">  -4031.12494296 </i>
    <i name="hartreedc">   -509.75113421 </i>
    <i name="XCdc">   -373.42288889 </i>
    <i name="pawpsdc">   6188.72105963 </i>
    <i name="pawaedc">  -5593.19900445 </i>
    <i name="eentropy">     -0.00000000 </i>
    <i name="bandstr">   -163.03785130 </i>
    <i name="atom">   4285.14256938 </i>
    <i name="e_fr_energy">    -80.29760088 </i>
    <i name="e_wo_entrp">    -80.29760088 </i>
    <i name="e_0_energy">    -80.29760088 </i>
   </energy>
  </scstep>
  <structure>
   <crystal>
    <varray name="basis" >
     <v>       4.00155656       0.00000000       0.00000000 </v>
     <v>       0.00000000      11.71362881       0.00000000 </v>
     <v>       0.00000000       0.00000000      12.36207225 </v>
    </varray>
    <i name="volume">    579.44430030 </i>
    <varray name="rec_basis" >
     <v>       0.24990275       0.00000000       0.00000000 </v>
     <v>       0.00000000       0.08537064       0.00000000 </v>
     <v>       0.00000000       0.00000000       0.08089259 </v>
    </varray>
   </crystal>
   <varray name="positions" >
    <v>       0.75000006       0.03809460       0.14032238 </v>
    <v>       0.25000002       0.96190547       0.85967770 </v>
    <v>       0.25000002       0.53809464       0.35967766 </v>
    <v>       0.75000006       0.46190544       0.64032242 </v>
    <v>       0.25000002       0.32959141       0.03381284 </v>
    <v>       0.75000006       0.67040867       0.96618723 </v>
    <v>       0.75000006       0.82959144       0.46618720 </v>
    <v>       0.25000002       0.17040863       0.53381288 </v>
    <v>       0.75000006       0.12752537       0.94834527 </v>
    <v>       0.25000002       0.87247471       0.05165480 </v>
    <v>       0.25000002       0.62752541       0.55165484 </v>
    <v>       0.75000006       0.37247467       0.44834523 </v>
    <v>       0.25000002       0.19210068       0.20533134 </v>
    <v>       0.75000006       0.80789939       0.79466874 </v>
    <v>       0.75000006       0.69210072       0.29466870 </v>
    <v>       0.25000002       0.30789935       0.70533137 </v>
    <v>       0.75000006       0.05409869       0.62734920 </v>
    <v>       0.25000002       0.94590138       0.37265088 </v>
    <v>       0.25000002       0.55409873       0.87265092 </v>
    <v>       0.75000006       0.44590134       0.12734916 </v>
   </varray>
  </structure>
  <varray name="forces" >
   <v>      -0.00000024      -0.15357477       0.15668174 </v>
   <v>       0.00000024       0.15357477      -0.15668174 </v>
   <v>       0.00000023      -0.15357432      -0.15667343 </v>
   <v>      -0.00000023       0.15357432       0.15667343 </v>
   <v>       0.00000051      -0.08581350      -0.27914197 </v>
   <v>      -0.00000051       0.08581350       0.27914197 </v>
   <v>      -0.00000052      -0.08581446       0.27914308 </v>
   <v>       0.00000052       0.08581446      -0.27914308 </v>
   <v>      -0.00000021       0.17665421      -0.16893162 </v>
   <v>       0.00000021      -0.17665421       0.16893162 </v>
   <v>       0.00000021       0.17664970       0.16892541 </v>
   <v>      -0.00000021      -0.17664970      -0.16892541 </v>
   <v>       0.00000042      -0.01848106       0.22475274 </v>
   <v>      -0.00000042       0.01848106      -0.22475274 </v>
   <v>      -0.00000040      -0.01848188      -0.22475259 </v>
   <v>       0.00000040       0.01848188       0.22475259 </v>
   <v>      -0.00000064      -0.20383494       0.16498187 </v>
   <v>       0.00000064       0.20383494      -0.16498187 </v>
   <v>       0.00000064      -0.20383502      -0.16498208 </v>
   <v>      -0.00000064       0.20383502       0.16498208 </v>
  </varray>
  <varray name="stress" >
   <v>      12.85756236      -0.00000007      -0.00000214 </v>
   <v>      -0.00000004      11.14475529      -0.00001769 </v>
   <v>      -0.00000201      -0.00001803      15.07128380 </v>
  </varray>
  <energy>
   <i name="e_fr_energy">    -80.29760088 </i>
   <i name="e_wo_entrp">    -80.29760088 </i>
   <i name="e_0_energy">     -0.00000000 </i>
  </energy>
  <scstep>
   <time name="total">   74.76   75.15</time>
   <energy>
    <i name="e_fr_energy">    -28.58217538 </i>
    <i name="e_wo_entrp">    -28.58217538 </i>
    <i name="e_0_energy">    -28.58217538 </i>
   </energy>
  </scstep>
  <scstep>
   <time name="total">   70.83   71.22</time>
   <energy>
    <i name="e_fr_energy">    -30.39161989 </i>
    <i name="e_wo_entrp">    -30.39161989 </i>
    <i name="e_0_energy">    -30.39161989 </i>
   </energy>
  </scstep>
  <scstep>
   <time name="total">   69.31   69.71</time>
   <energy>
    <i name="e_fr_energy">    -30.42162174 </i>
    <i name="e_wo_entrp">    -30.42162174 </i>
    <i name="e_0_energy">    -30.42162174 </i>
   </energy>
  </scstep>
  <scstep>
   <time name="total">   69.81   70.21</time>
   <energy>
    <i name="e_fr_energy">    -30.42298166 </i>
    <i name="e_wo_entrp">    -30.42298166 </i>
    <i name="e_0_energy">    -30.42298166 </i>
   </energy>
  </scstep>
  <scstep>
   <time name="total">   70.08   70.48</time>
   <energy>
    <i name="e_fr_energy">    -30.42305748 </i>
    <i name="e_wo_entrp">    -30.42305748 </i>
    <i name="e_0_energy">    -30.42305748 </i>
   </energy>
  </scstep>
  <scstep>
   <time name="total">   69.96   70.33</time>
   <energy>
    <i name="e_fr_energy">    -30.42306137 </i>
    <i name="e_wo_entrp">    -30.42306137 </i>
    <i name="e_0_energy">    -30.42306137 </i>
   </energy>
  </scstep>
  <scstep>
   <time name="total">   64.98   65.29</time>
   <energy>
    <i name="e_fr_energy">    -30.42306160 </i>
    <i name="e_wo_entrp">    -30.42306160 </i>
    <i name="e_0_energy">    -30.42306160 </i>
   </energy>
  </scstep>
  <scstep>
   <time name="total">   67.19   67.58</time>
   <energy>
    <i name="e_fr_energy">    -30.42306161 </i>
    <i name="e_wo_entrp">    -30.42306161 </i>
    <i name="e_0_energy">    -30.42306161 </i>
   </energy>
  </scstep>
  <scstep>
   <time name="total">   66.66   67.06</time>
   <energy>
    <i name="e_fr_energy">    -30.42306161 </i>
    <i name="e_wo_entrp">    -30.42306161 </i>
    <i name="e_0_energy">    -30.42306161 </i>
   </energy>
  </scstep>
  <scstep>
   <time name="total">   62.07   62.42</time>
   <energy>
    <i name="e_fr_energy">    -30.42306161 </i>
    <i name="e_wo_entrp">    -30.42306161 </i>
    <i name="e_0_energy">    -30.42306161 </i>
   </energy>
  </scstep>
  <scstep>
   <time name="total">   74.87   75.27</time>
   <energy>
    <i name="e_fr_energy">    -28.45970737 </i>
    <i name="e_wo_entrp">    -28.45970737 </i>
    <i name="e_0_energy">    -28.45970737 </i>
   </energy>
  </scstep>
  <scstep>
   <time name="total">   69.48   69.81</time>
   <energy>
    <i name="e_fr_energy">    -30.69316764 </i>
    <i name="e_wo_entrp">    -30.69316764 </i>
    <i name="e_0_energy">    -30.69316764 </i>
   </energy>
  </scstep>
  <scstep>
   <time name="total">   68.32   68.68</time>
   <energy>
    <i name="e_fr_energy">    -30.73280342 </i>
    <i name="e_wo_entrp">    -30.73280342 </i>
    <i name="e_0_energy">    -30.73280342 </i>
   </energy>
  </scstep>
  <scstep>
   <time name="total">   67.00   67.34</time>
   <energy>
    <i name="e_fr_energy">    -30.73425204 </i>
    <i name="e_wo_entrp">    -30.73425204 </i>
    <i name="e_0_energy">    -30.73425204 </i>
   </energy>
  </scstep>
  <scstep>
   <time name="total">   71.31   71.71</time>
   <energy>
    <i name="e_fr_energy">    -30.73433883 </i>
    <i name="e_wo_entrp">    -30.73433883 </i>
    <i name="e_0_energy">    -30.73433883 </i>
   </energy>
  </scstep>
  <scstep>
   <time name="total">   69.82   70.22</time>
   <energy>
    <i name="e_fr_energy">    -30.73434372 </i>
    <i name="e_wo_entrp">    -30.73434372 </i>
    <i name="e_0_energy">    -30.73434372 </i>
   </energy>
  </scstep>
  <scstep>
   <time name="total">   66.70   67.00</time>
   <energy>
    <i name="e_fr_energy">    -30.73434410 </i>
    <i name="e_wo_entrp">    -30.73434410 </i>
    <i name="e_0_energy">    -30.73434410 </i>
   </energy>
  </scstep>
  <scstep>
   <time name="total">   66.16   66.55</time>
   <energy>
    <i name="e_fr_energy">    -30.73434413 </i>
    <i name="e_wo_entrp">    -30.73434413 </i>
    <i name="e_0_energy">    -30.73434413 </i>
   </energy>
  </scstep>
  <scstep>
   <time name="total">   67.35   67.64</time>
   <energy>
    <i name="e_fr_energy">    -30.73434413 </i>
    <i name="e_wo_entrp">    -30.73434413 </i>
    <i name="e_0_energy">    -30.73434413 </i>
   </energy>
  </scstep>
  <scstep>
   <time name="total">   66.71   67.10</time>
   <energy>
    <i name="e_fr_energy">    -30.73434413 </i>
    <i name="e_wo_entrp">    -30.73434413 </i>
    <i name="e_0_energy">    -30.73434413 </i>
   </energy>
  </scstep>
  <scstep>
   <time name="total">   63.06   63.45</time>
   <energy>
    <i name="e_fr_energy">    -30.73434413 </i>
    <i name="e_wo_entrp">    -30.73434413 </i>
    <i name="e_0_energy">    -30.73434413 </i>
   </energy>
  </scstep>
  <scstep>
   <time name="total">   74.64   75.04</time>
   <energy>
    <i name="e_fr_energy">    -18.04027672 </i>
    <i name="e_wo_entrp">    -18.04027672 </i>
    <i name="e_0_energy">    -18.04027672 </i>
   </energy>
  </scstep>
  <scstep>
   <time name="total">   68.45   68.87</time>
   <energy>
    <i name="e_fr_energy">    -19.49437641 </i>
    <i name="e_wo_entrp">    -19.49437641 </i>
    <i name="e_0_energy">    -19.49437641 </i>
   </energy>
  </scstep>
  <scstep>
   <time name="total">   68.18   68.58</time>
   <energy>
    <i name="e_fr_energy">    -19.51908323 </i>
    <i name="e_wo_entrp">    -19.51908323 </i>
    <i name="e_0_energy">    -19.51908323 </i>
   </energy>
  </scstep>
  <scstep>
   <time name="total">   68.18   68.52</time>
   <energy>
    <i name="e_fr_energy">    -19.52014383 </i>
    <i name="e_wo_entrp">    -19.52014383 </i>
    <i name="e_0_energy">    -19.52014383 </i>
   </energy>
  </scstep>
  <scstep>
   <time name="total">   70.06   70.44</time>
   <energy>
    <i name="e_fr_energy">    -19.52020604 </i>
    <i name="e_wo_entrp">    -19.52020604 </i>
    <i name="e_0_energy">    -19.52020604 </i>
   </energy>
  </scstep>
  <scstep>
   <time name="total">   69.89   70.25</time>
   <energy>
    <i name="e_fr_energy">    -19.52021019 </i>
    <i name="e_wo_entrp">    -19.52021019 </i>
    <i name="e_0_energy">    -19.52021019 </i>
   </energy>
  </scstep>
  <scstep>
   <time name="total">   65.34   65.67</time>
   <energy>
    <i name="e_fr_energy">    -19.52021050 </i>
    <i name="e_wo_entrp">    -19.52021050 </i>
    <i name="e_0_energy">    -19.52021050 </i>
   </energy>
  </scstep>
  <scstep>
   <time name="total">   69.63   70.03</time>
   <energy>
    <i name="e_fr_energy">    -19.52021052 </i>
    <i name="e_wo_entrp">    -19.52021052 </i>
    <i name="e_0_energy">    -19.52021052 </i>
   </energy>
  </scstep>
  <scstep>
   <time name="total">   67.71   68.09</time>
   <energy>
    <i name="e_fr_energy">    -19.52021052 </i>
    <i name="e_wo_entrp">    -19.52021052 </i>
    <i name="e_0_energy">    -19.52021052 </i>
   </energy>
  </scstep>
  <scstep>
   <time name="total">   66.21   66.56</time>
   <energy>
    <i name="e_fr_energy">    -19.52021052 </i>
    <i name="e_wo_entrp">    -19.52021052 </i>
    <i name="e_0_energy">    -19.52021052 </i>
   </energy>
  </scstep>
  <varray name="epsilon_rpa" >
   <v>      20.00144650       0.00000055      -0.00000288 </v>
   <v>      -0.00000366      20.19589744       0.00000564 </v>
   <v>       0.00000351      -0.00000835      13.19183610 </v>
  </varray>
  <kpoints>
   <generation param="Gamma">
    <v type="int" name="divisions">      12        4        4 </v>
    <v name="usershift">      0.00000000       0.00000000       0.00000000 </v>
    <v name="genvec1">      0.08333333       0.00000000       0.00000000 </v>
    <v name="genvec2">      0.00000000       0.25000000       0.00000000 </v>
    <v name="genvec3">      0.00000000       0.00000000       0.25000000 </v>
    <v name="shift">      0.00000000       0.00000000       0.00000000 </v>
   </generation>
   <varray name="kpointlist" >
    <v>       0.00000000       0.00000000       0.00000000 </v>
    <v>       0.08333333       0.00000000       0.00000000 </v>
    <v>       0.16666667       0.00000000       0.00000000 </v>
    <v>       0.25000000       0.00000000       0.00000000 </v>
    <v>       0.33333333       0.00000000       0.00000000 </v>
    <v>       0.41666667       0.00000000       0.00000000 </v>
    <v>       0.50000000       0.00000000       0.00000000 </v>
    <v>       0.00000000       0.25000000       0.00000000 </v>
    <v>       0.08333333       0.25000000       0.00000000 </v>
    <v>       0.16666667       0.25000000       0.00000000 </v>
    <v>       0.25000000       0.25000000       0.00000000 </v>
    <v>       0.33333333       0.25000000       0.00000000 </v>
    <v>       0.41666667       0.25000000       0.00000000 </v>
    <v>       0.50000000       0.25000000       0.00000000 </v>
    <v>      -0.41666667       0.25000000       0.00000000 </v>
    <v>      -0.33333333       0.25000000       0.00000000 </v>
    <v>      -0.25000000       0.25000000       0.00000000 </v>
    <v>      -0.16666667       0.25000000       0.00000000 </v>
    <v>      -0.08333333       0.25000000       0.00000000 </v>
    <v>       0.00000000       0.50000000       0.00000000 </v>
    <v>       0.08333333       0.50000000       0.00000000 </v>
    <v>       0.16666667       0.50000000       0.00000000 </v>
    <v>       0.25000000       0.50000000       0.00000000 </v>
    <v>       0.33333333       0.50000000       0.00000000 </v>
    <v>       0.41666667       0.50000000       0.00000000 </v>
    <v>       0.50000000       0.50000000       0.00000000 </v>
    <v>       0.00000000       0.00000000       0.25000000 </v>
    <v>       0.08333333       0.00000000       0.25000000 </v>
    <v>       0.16666667       0.00000000       0.25000000 </v>
    <v>       0.25000000       0.00000000       0.25000000 </v>
    <v>       0.33333333       0.00000000       0.25000000 </v>
    <v>       0.41666667       0.00000000       0.25000000 </v>
    <v>       0.50000000       0.00000000       0.25000000 </v>
    <v>      -0.41666667       0.00000000       0.25000000 </v>
    <v>      -0.33333333       0.00000000       0.25000000 </v>
    <v>      -0.25000000       0.00000000       0.25000000 </v>
    <v>      -0.16666667       0.00000000       0.25000000 </v>
    <v>      -0.08333333       0.00000000       0.25000000 </v>
    <v>       0.00000000       0.25000000       0.25000000 </v>
    <v>       0.08333333       0.25000000       0.25000000 </v>
    <v>       0.16666667       0.25000000       0.25000000 </v>
    <v>       0.25000000       0.25000000       0.25000000 </v>
    <v>       0.33333333       0.25000000       0.25000000 </v>
    <v>       0.41666667       0.25000000       0.25000000 </v>
    <v>       0.50000000       0.25000000       0.25000000 </v>
    <v>      -0.41666667       0.25000000       0.25000000 </v>
    <v>      -0.33333333       0.25000000       0.25000000 </v>
    <v>      -0.25000000       0.25000000       0.25000000 </v>
    <v>      -0.16666667       0.25000000       0.25000000 </v>
    <v>      -0.08333333       0.25000000       0.25000000 </v>
    <v>       0.00000000       0.50000000       0.25000000 </v>
    <v>       0.08333333       0.50000000       0.25000000 </v>
    <v>       0.16666667       0.50000000       0.25000000 </v>
    <v>       0.25000000       0.50000000       0.25000000 </v>
    <v>       0.33333333       0.50000000       0.25000000 </v>
    <v>       0.41666667       0.50000000       0.25000000 </v>
    <v>       0.50000000       0.50000000       0.25000000 </v>
    <v>      -0.41666667       0.50000000       0.25000000 </v>
    <v>      -0.33333333       0.50000000       0.25000000 </v>
    <v>      -0.25000000       0.50000000       0.25000000 </v>
    <v>      -0.16666667       0.50000000       0.25000000 </v>
    <v>      -0.08333333       0.50000000       0.25000000 </v>
    <v>       0.00000000      -0.25000000       0.25000000 </v>
    <v>       0.08333333      -0.25000000       0.25000000 </v>
    <v>       0.16666667      -0.25000000       0.25000000 </v>
    <v>       0.25000000      -0.25000000       0.25000000 </v>
    <v>       0.33333333      -0.25000000       0.25000000 </v>
    <v>       0.41666667      -0.25000000       0.25000000 </v>
    <v>       0.50000000      -0.25000000       0.25000000 </v>
    <v>      -0.41666667      -0.25000000       0.25000000 </v>
    <v>      -0.33333333      -0.25000000       0.25000000 </v>
    <v>      -0.25000000      -0.25000000       0.25000000 </v>
    <v>      -0.16666667      -0.25000000       0.25000000 </v>
    <v>      -0.08333333      -0.25000000       0.25000000 </v>
    <v>       0.00000000       0.00000000       0.50000000 </v>
    <v>       0.08333333       0.00000000       0.50000000 </v>
    <v>       0.16666667       0.00000000       0.50000000 </v>
    <v>       0.25000000       0.00000000       0.50000000 </v>
    <v>       0.33333333       0.00000000       0.50000000 </v>
    <v>       0.41666667       0.00000000       0.50000000 </v>
    <v>       0.50000000       0.00000000       0.50000000 </v>
    <v>       0.00000000       0.25000000       0.50000000 </v>
    <v>       0.08333333       0.25000000       0.50000000 </v>
    <v>       0.16666667       0.25000000       0.50000000 </v>
    <v>       0.25000000       0.25000000       0.50000000 </v>
    <v>       0.33333333       0.25000000       0.50000000 </v>
    <v>       0.41666667       0.25000000       0.50000000 </v>
    <v>       0.50000000       0.25000000       0.50000000 </v>
    <v>      -0.41666667       0.25000000       0.50000000 </v>
    <v>      -0.33333333       0.25000000       0.50000000 </v>
    <v>      -0.25000000       0.25000000       0.50000000 </v>
    <v>      -0.16666667       0.25000000       0.50000000 </v>
    <v>      -0.08333333       0.25000000       0.50000000 </v>
    <v>       0.00000000       0.50000000       0.50000000 </v>
    <v>       0.08333333       0.50000000       0.50000000 </v>
    <v>       0.16666667       0.50000000       0.50000000 </v>
    <v>       0.25000000       0.50000000       0.50000000 </v>
    <v>       0.33333333       0.50000000       0.50000000 </v>
    <v>       0.41666667       0.50000000       0.50000000 </v>
    <v>       0.50000000       0.50000000       0.50000000 </v>
   </varray>
   <varray name="weights" >
    <v>       0.00520833 </v>
    <v>       0.01041667 </v>
    <v>       0.01041667 </v>
    <v>       0.01041667 </v>
    <v>       0.01041667 </v>
    <v>       0.01041667 </v>
    <v>       0.00520833 </v>
    <v>       0.01041667 </v>
    <v>       0.01041667 </v>
    <v>       0.01041667 </v>
    <v>       0.01041667 </v>
    <v>       0.01041667 </v>
    <v>       0.01041667 </v>
    <v>       0.01041667 </v>
    <v>       0.01041667 </v>
    <v>       0.01041667 </v>
    <v>       0.01041667 </v>
    <v>       0.01041667 </v>
    <v>       0.01041667 </v>
    <v>       0.00520833 </v>
    <v>       0.01041667 </v>
    <v>       0.01041667 </v>
    <v>       0.01041667 </v>
    <v>       0.01041667 </v>
    <v>       0.01041667 </v>
    <v>       0.00520833 </v>
    <v>       0.01041667 </v>
    <v>       0.01041667 </v>
    <v>       0.01041667 </v>
    <v>       0.01041667 </v>
    <v>       0.01041667 </v>
    <v>       0.01041667 </v>
    <v>       0.01041667 </v>
    <v>       0.01041667 </v>
    <v>       0.01041667 </v>
    <v>       0.01041667 </v>
    <v>       0.01041667 </v>
    <v>       0.01041667 </v>
    <v>       0.01041667 </v>
    <v>       0.01041667 </v>
    <v>       0.01041667 </v>
    <v>       0.01041667 </v>
    <v>       0.01041667 </v>
    <v>       0.01041667 </v>
    <v>       0.01041667 </v>
    <v>       0.01041667 </v>
    <v>       0.01041667 </v>
    <v>       0.01041667 </v>
    <v>       0.01041667 </v>
    <v>       0.01041667 </v>
    <v>       0.01041667 </v>
    <v>       0.01041667 </v>
    <v>       0.01041667 </v>
    <v>       0.01041667 </v>
    <v>       0.01041667 </v>
    <v>       0.01041667 </v>
    <v>       0.01041667 </v>
    <v>       0.01041667 </v>
    <v>       0.01041667 </v>
    <v>       0.01041667 </v>
    <v>       0.01041667 </v>
    <v>       0.01041667 </v>
    <v>       0.01041667 </v>
    <v>       0.01041667 </v>
    <v>       0.01041667 </v>
    <v>       0.01041667 </v>
    <v>       0.01041667 </v>
    <v>       0.01041667 </v>
    <v>       0.01041667 </v>
    <v>       0.01041667 </v>
    <v>       0.01041667 </v>
    <v>       0.01041667 </v>
    <v>       0.01041667 </v>
    <v>       0.01041667 </v>
    <v>       0.00520833 </v>
    <v>       0.01041667 </v>
    <v>       0.01041667 </v>
    <v>       0.01041667 </v>
    <v>       0.01041667 </v>
    <v>       0.01041667 </v>
    <v>       0.00520833 </v>
    <v>       0.01041667 </v>
    <v>       0.01041667 </v>
    <v>       0.01041667 </v>
    <v>       0.01041667 </v>
    <v>       0.01041667 </v>
    <v>       0.01041667 </v>
    <v>       0.01041667 </v>
    <v>       0.01041667 </v>
    <v>       0.01041667 </v>
    <v>       0.01041667 </v>
    <v>       0.01041667 </v>
    <v>       0.01041667 </v>
    <v>       0.00520833 </v>
    <v>       0.01041667 </v>
    <v>       0.01041667 </v>
    <v>       0.01041667 </v>
    <v>       0.01041667 </v>
    <v>       0.01041667 </v>
    <v>       0.00520833 </v>
   </varray>
  </kpoints>
  <scstep>
   <time name="total">   73.58   73.96</time>
   <energy>
    <i name="e_fr_energy">    -28.58217538 </i>
    <i name="e_wo_entrp">    -28.58217538 </i>
    <i name="e_0_energy">    -28.58217538 </i>
   </energy>
  </scstep>
  <scstep>
   <time name="total">   76.77   77.15</time>
   <energy>
    <i name="e_fr_energy">    -30.39161989 </i>
    <i name="e_wo_entrp">    -30.39161989 </i>
    <i name="e_0_energy">    -30.39161989 </i>
   </energy>
  </scstep>
  <scstep>
   <time name="total">   86.01   86.49</time>
   <energy>
    <i name="e_fr_energy">    -29.41368235 </i>
    <i name="e_wo_entrp">    -29.41368235 </i>
    <i name="e_0_energy">    -29.41368235 </i>
   </energy>
  </scstep>
  <scstep>
   <time name="total">   89.08   89.54</time>
   <energy>
    <i name="e_fr_energy">    -30.23062887 </i>
    <i name="e_wo_entrp">    -30.23062887 </i>
    <i name="e_0_energy">    -30.23062887 </i>
   </energy>
  </scstep>
  <scstep>
   <time name="total">   84.81   85.28</time>
   <energy>
    <i name="e_fr_energy">    -30.57967694 </i>
    <i name="e_wo_entrp">    -30.57967694 </i>
    <i name="e_0_energy">    -30.57967694 </i>
   </energy>
  </scstep>
  <scstep>
   <time name="total">   96.07   96.57</time>
   <energy>
    <i name="e_fr_energy">    -30.58799783 </i>
    <i name="e_wo_entrp">    -30.58799783 </i>
    <i name="e_0_energy">    -30.58799783 </i>
   </energy>
  </scstep>
  <scstep>
   <time name="total">   88.86   89.35</time>
   <energy>
    <i name="e_fr_energy">    -30.61256238 </i>
    <i name="e_wo_entrp">    -30.61256238 </i>
    <i name="e_0_energy">    -30.61256238 </i>
   </energy>
  </scstep>
  <scstep>
   <time name="total">   96.50   97.04</time>
   <energy>
    <i name="e_fr_energy">    -30.61614936 </i>
    <i name="e_wo_entrp">    -30.61614936 </i>
    <i name="e_0_energy">    -30.61614936 </i>
   </energy>
  </scstep>
  <scstep>
   <time name="total">   93.06   93.57</time>
   <energy>
    <i name="e_fr_energy">    -30.61716249 </i>
    <i name="e_wo_entrp">    -30.61716249 </i>
    <i name="e_0_energy">    -30.61716249 </i>
   </energy>
  </scstep>
  <scstep>
   <time name="total">   97.47   98.02</time>
   <energy>
    <i name="e_fr_energy">    -30.61728384 </i>
    <i name="e_wo_entrp">    -30.61728384 </i>
    <i name="e_0_energy">    -30.61728384 </i>
   </energy>
  </scstep>
  <scstep>
   <time name="total">   94.60   95.10</time>
   <energy>
    <i name="e_fr_energy">    -30.61738168 </i>
    <i name="e_wo_entrp">    -30.61738168 </i>
    <i name="e_0_energy">    -30.61738168 </i>
   </energy>
  </scstep>
  <scstep>
   <time name="total">   99.30   99.84</time>
   <energy>
    <i name="e_fr_energy">    -30.61736450 </i>
    <i name="e_wo_entrp">    -30.61736450 </i>
    <i name="e_0_energy">    -30.61736450 </i>
   </energy>
  </scstep>
  <scstep>
   <time name="total">  100.31  100.83</time>
   <energy>
    <i name="e_fr_energy">    -30.61734343 </i>
    <i name="e_wo_entrp">    -30.61734343 </i>
    <i name="e_0_energy">    -30.61734343 </i>
   </energy>
  </scstep>
  <scstep>
   <time name="total">   91.49   91.97</time>
   <energy>
    <i name="e_fr_energy">    -30.61734200 </i>
    <i name="e_wo_entrp">    -30.61734200 </i>
    <i name="e_0_energy">    -30.61734200 </i>
   </energy>
  </scstep>
  <kpoints>
   <generation param="Gamma">
    <v type="int" name="divisions">      12        4        4 </v>
    <v name="usershift">      0.00000000       0.00000000       0.00000000 </v>
    <v name="genvec1">      0.08333333       0.00000000       0.00000000 </v>
    <v name="genvec2">      0.00000000       0.25000000       0.00000000 </v>
    <v name="genvec3">      0.00000000       0.00000000       0.25000000 </v>
    <v name="shift">      0.00000000       0.00000000       0.00000000 </v>
   </generation>
   <varray name="kpointlist" >
    <v>       0.00000000       0.00000000       0.00000000 </v>
    <v>       0.08333333       0.00000000       0.00000000 </v>
    <v>       0.16666667       0.00000000       0.00000000 </v>
    <v>       0.25000000       0.00000000       0.00000000 </v>
    <v>       0.33333333       0.00000000       0.00000000 </v>
    <v>       0.41666667       0.00000000       0.00000000 </v>
    <v>       0.50000000       0.00000000       0.00000000 </v>
    <v>       0.00000000       0.25000000       0.00000000 </v>
    <v>       0.08333333       0.25000000       0.00000000 </v>
    <v>       0.16666667       0.25000000       0.00000000 </v>
    <v>       0.25000000       0.25000000       0.00000000 </v>
    <v>       0.33333333       0.25000000       0.00000000 </v>
    <v>       0.41666667       0.25000000       0.00000000 </v>
    <v>       0.50000000       0.25000000       0.00000000 </v>
    <v>      -0.41666667       0.25000000       0.00000000 </v>
    <v>      -0.33333333       0.25000000       0.00000000 </v>
    <v>      -0.25000000       0.25000000       0.00000000 </v>
    <v>      -0.16666667       0.25000000       0.00000000 </v>
    <v>      -0.08333333       0.25000000       0.00000000 </v>
    <v>       0.00000000       0.50000000       0.00000000 </v>
    <v>       0.08333333       0.50000000       0.00000000 </v>
    <v>       0.16666667       0.50000000       0.00000000 </v>
    <v>       0.25000000       0.50000000       0.00000000 </v>
    <v>       0.33333333       0.50000000       0.00000000 </v>
    <v>       0.41666667       0.50000000       0.00000000 </v>
    <v>       0.50000000       0.50000000       0.00000000 </v>
    <v>       0.00000000       0.00000000       0.25000000 </v>
    <v>       0.08333333       0.00000000       0.25000000 </v>
    <v>       0.16666667       0.00000000       0.25000000 </v>
    <v>       0.25000000       0.00000000       0.25000000 </v>
    <v>       0.33333333       0.00000000       0.25000000 </v>
    <v>       0.41666667       0.00000000       0.25000000 </v>
    <v>       0.50000000       0.00000000       0.25000000 </v>
    <v>      -0.41666667       0.00000000       0.25000000 </v>
    <v>      -0.33333333       0.00000000       0.25000000 </v>
    <v>      -0.25000000       0.00000000       0.25000000 </v>
    <v>      -0.16666667       0.00000000       0.25000000 </v>
    <v>      -0.08333333       0.00000000       0.25000000 </v>
    <v>       0.00000000       0.25000000       0.25000000 </v>
    <v>       0.08333333       0.25000000       0.25000000 </v>
    <v>       0.16666667       0.25000000       0.25000000 </v>
    <v>       0.25000000       0.25000000       0.25000000 </v>
    <v>       0.33333333       0.25000000       0.25000000 </v>
    <v>       0.41666667       0.25000000       0.25000000 </v>
    <v>       0.50000000       0.25000000       0.25000000 </v>
    <v>      -0.41666667       0.25000000       0.25000000 </v>
    <v>      -0.33333333       0.25000000       0.25000000 </v>
    <v>      -0.25000000       0.25000000       0.25000000 </v>
    <v>      -0.16666667       0.25000000       0.25000000 </v>
    <v>      -0.08333333       0.25000000       0.25000000 </v>
    <v>       0.00000000       0.50000000       0.25000000 </v>
    <v>       0.08333333       0.50000000       0.25000000 </v>
    <v>       0.16666667       0.50000000       0.25000000 </v>
    <v>       0.25000000       0.50000000       0.25000000 </v>
    <v>       0.33333333       0.50000000       0.25000000 </v>
    <v>       0.41666667       0.50000000       0.25000000 </v>
    <v>       0.50000000       0.50000000       0.25000000 </v>
    <v>      -0.41666667       0.50000000       0.25000000 </v>
    <v>      -0.33333333       0.50000000       0.25000000 </v>
    <v>      -0.25000000       0.50000000       0.25000000 </v>
    <v>      -0.16666667       0.50000000       0.25000000 </v>
    <v>      -0.08333333       0.50000000       0.25000000 </v>
    <v>       0.00000000      -0.25000000       0.25000000 </v>
    <v>       0.08333333      -0.25000000       0.25000000 </v>
    <v>       0.16666667      -0.25000000       0.25000000 </v>
    <v>       0.25000000      -0.25000000       0.25000000 </v>
    <v>       0.33333333      -0.25000000       0.25000000 </v>
    <v>       0.41666667      -0.25000000       0.25000000 </v>
    <v>       0.50000000      -0.25000000       0.25000000 </v>
    <v>      -0.41666667      -0.25000000       0.25000000 </v>
    <v>      -0.33333333      -0.25000000       0.25000000 </v>
    <v>      -0.25000000      -0.25000000       0.25000000 </v>
    <v>      -0.16666667      -0.25000000       0.25000000 </v>
    <v>      -0.08333333      -0.25000000       0.25000000 </v>
    <v>       0.00000000       0.00000000       0.50000000 </v>
    <v>       0.08333333       0.00000000       0.50000000 </v>
    <v>       0.16666667       0.00000000       0.50000000 </v>
    <v>       0.25000000       0.00000000       0.50000000 </v>
    <v>       0.33333333       0.00000000       0.50000000 </v>
    <v>       0.41666667       0.00000000       0.50000000 </v>
    <v>       0.50000000       0.00000000       0.50000000 </v>
    <v>       0.00000000       0.25000000       0.50000000 </v>
    <v>       0.08333333       0.25000000       0.50000000 </v>
    <v>       0.16666667       0.25000000       0.50000000 </v>
    <v>       0.25000000       0.25000000       0.50000000 </v>
    <v>       0.33333333       0.25000000       0.50000000 </v>
    <v>       0.41666667       0.25000000       0.50000000 </v>
    <v>       0.50000000       0.25000000       0.50000000 </v>
    <v>      -0.41666667       0.25000000       0.50000000 </v>
    <v>      -0.33333333       0.25000000       0.50000000 </v>
    <v>      -0.25000000       0.25000000       0.50000000 </v>
    <v>      -0.16666667       0.25000000       0.50000000 </v>
    <v>      -0.08333333       0.25000000       0.50000000 </v>
    <v>       0.00000000       0.50000000       0.50000000 </v>
    <v>       0.08333333       0.50000000       0.50000000 </v>
    <v>       0.16666667       0.50000000       0.50000000 </v>
    <v>       0.25000000       0.50000000       0.50000000 </v>
    <v>       0.33333333       0.50000000       0.50000000 </v>
    <v>       0.41666667       0.50000000       0.50000000 </v>
    <v>       0.50000000       0.50000000       0.50000000 </v>
   </varray>
   <varray name="weights" >
    <v>       0.00520833 </v>
    <v>       0.01041667 </v>
    <v>       0.01041667 </v>
    <v>       0.01041667 </v>
    <v>       0.01041667 </v>
    <v>       0.01041667 </v>
    <v>       0.00520833 </v>
    <v>       0.01041667 </v>
    <v>       0.01041667 </v>
    <v>       0.01041667 </v>
    <v>       0.01041667 </v>
    <v>       0.01041667 </v>
    <v>       0.01041667 </v>
    <v>       0.01041667 </v>
    <v>       0.01041667 </v>
    <v>       0.01041667 </v>
    <v>       0.01041667 </v>
    <v>       0.01041667 </v>
    <v>       0.01041667 </v>
    <v>       0.00520833 </v>
    <v>       0.01041667 </v>
    <v>       0.01041667 </v>
    <v>       0.01041667 </v>
    <v>       0.01041667 </v>
    <v>       0.01041667 </v>
    <v>       0.00520833 </v>
    <v>       0.01041667 </v>
    <v>       0.01041667 </v>
    <v>       0.01041667 </v>
    <v>       0.01041667 </v>
    <v>       0.01041667 </v>
    <v>       0.01041667 </v>
    <v>       0.01041667 </v>
    <v>       0.01041667 </v>
    <v>       0.01041667 </v>
    <v>       0.01041667 </v>
    <v>       0.01041667 </v>
    <v>       0.01041667 </v>
    <v>       0.01041667 </v>
    <v>       0.01041667 </v>
    <v>       0.01041667 </v>
    <v>       0.01041667 </v>
    <v>       0.01041667 </v>
    <v>       0.01041667 </v>
    <v>       0.01041667 </v>
    <v>       0.01041667 </v>
    <v>       0.01041667 </v>
    <v>       0.01041667 </v>
    <v>       0.01041667 </v>
    <v>       0.01041667 </v>
    <v>       0.01041667 </v>
    <v>       0.01041667 </v>
    <v>       0.01041667 </v>
    <v>       0.01041667 </v>
    <v>       0.01041667 </v>
    <v>       0.01041667 </v>
    <v>       0.01041667 </v>
    <v>       0.01041667 </v>
    <v>       0.01041667 </v>
    <v>       0.01041667 </v>
    <v>       0.01041667 </v>
    <v>       0.01041667 </v>
    <v>       0.01041667 </v>
    <v>       0.01041667 </v>
    <v>       0.01041667 </v>
    <v>       0.01041667 </v>
    <v>       0.01041667 </v>
    <v>       0.01041667 </v>
    <v>       0.01041667 </v>
    <v>       0.01041667 </v>
    <v>       0.01041667 </v>
    <v>       0.01041667 </v>
    <v>       0.01041667 </v>
    <v>       0.01041667 </v>
    <v>       0.00520833 </v>
    <v>       0.01041667 </v>
    <v>       0.01041667 </v>
    <v>       0.01041667 </v>
    <v>       0.01041667 </v>
    <v>       0.01041667 </v>
    <v>       0.00520833 </v>
    <v>       0.01041667 </v>
    <v>       0.01041667 </v>
    <v>       0.01041667 </v>
    <v>       0.01041667 </v>
    <v>       0.01041667 </v>
    <v>       0.01041667 </v>
    <v>       0.01041667 </v>
    <v>       0.01041667 </v>
    <v>       0.01041667 </v>
    <v>       0.01041667 </v>
    <v>       0.01041667 </v>
    <v>       0.01041667 </v>
    <v>       0.00520833 </v>
    <v>       0.01041667 </v>
    <v>       0.01041667 </v>
    <v>       0.01041667 </v>
    <v>       0.01041667 </v>
    <v>       0.01041667 </v>
    <v>       0.00520833 </v>
   </varray>
  </kpoints>
  <scstep>
   <time name="total">   74.04   74.43</time>
   <energy>
    <i name="e_fr_energy">    -28.45970737 </i>
    <i name="e_wo_entrp">    -28.45970737 </i>
    <i name="e_0_energy">    -28.45970737 </i>
   </energy>
  </scstep>
  <scstep>
   <time name="total">   75.60   76.01</time>
   <energy>
    <i name="e_fr_energy">    -30.69316764 </i>
    <i name="e_wo_entrp">    -30.69316764 </i>
    <i name="e_0_energy">    -30.69316764 </i>
   </energy>
  </scstep>
  <scstep>
   <time name="total">   92.62   93.09</time>
   <energy>
    <i name="e_fr_energy">    -27.14604936 </i>
    <i name="e_wo_entrp">    -27.14604936 </i>
    <i name="e_0_energy">    -27.14604936 </i>
   </energy>
  </scstep>
  <scstep>
   <time name="total">   95.74   96.28</time>
   <energy>
    <i name="e_fr_energy">    -27.35535185 </i>
    <i name="e_wo_entrp">    -27.35535185 </i>
    <i name="e_0_energy">    -27.35535185 </i>
   </energy>
  </scstep>
  <scstep>
   <time name="total">   95.81   96.29</time>
   <energy>
    <i name="e_fr_energy">    -27.87441472 </i>
    <i name="e_wo_entrp">    -27.87441472 </i>
    <i name="e_0_energy">    -27.87441472 </i>
   </energy>
  </scstep>
  <scstep>
   <time name="total">   94.79   95.35</time>
   <energy>
    <i name="e_fr_energy">    -28.10705483 </i>
    <i name="e_wo_entrp">    -28.10705483 </i>
    <i name="e_0_energy">    -28.10705483 </i>
   </energy>
  </scstep>
  <scstep>
   <time name="total">   92.31   92.81</time>
   <energy>
    <i name="e_fr_energy">    -28.20861568 </i>
    <i name="e_wo_entrp">    -28.20861568 </i>
    <i name="e_0_energy">    -28.20861568 </i>
   </energy>
  </scstep>
  <scstep>
   <time name="total">   97.98   98.48</time>
   <energy>
    <i name="e_fr_energy">    -28.22663827 </i>
    <i name="e_wo_entrp">    -28.22663827 </i>
    <i name="e_0_energy">    -28.22663827 </i>
   </energy>
  </scstep>
  <scstep>
   <time name="total">   92.49   92.98</time>
   <energy>
    <i name="e_fr_energy">    -28.23310233 </i>
    <i name="e_wo_entrp">    -28.23310233 </i>
    <i name="e_0_energy">    -28.23310233 </i>
   </energy>
  </scstep>
  <scstep>
   <time name="total">   98.95   99.51</time>
   <energy>
    <i name="e_fr_energy">    -28.23350556 </i>
    <i name="e_wo_entrp">    -28.23350556 </i>
    <i name="e_0_energy">    -28.23350556 </i>
   </energy>
  </scstep>
  <scstep>
   <time name="total">   93.45   93.95</time>
   <energy>
    <i name="e_fr_energy">    -28.23405610 </i>
    <i name="e_wo_entrp">    -28.23405610 </i>
    <i name="e_0_energy">    -28.23405610 </i>
   </energy>
  </scstep>
  <scstep>
   <time name="total">   95.21   95.69</time>
   <energy>
    <i name="e_fr_energy">    -28.23404254 </i>
    <i name="e_wo_entrp">    -28.23404254 </i>
    <i name="e_0_energy">    -28.23404254 </i>
   </energy>
  </scstep>
  <scstep>
   <time name="total">   99.78  100.36</time>
   <energy>
    <i name="e_fr_energy">    -28.23405154 </i>
    <i name="e_wo_entrp">    -28.23405154 </i>
    <i name="e_0_energy">    -28.23405154 </i>
   </energy>
  </scstep>
  <scstep>
   <time name="total">  101.86  102.42</time>
   <energy>
    <i name="e_fr_energy">    -28.23404741 </i>
    <i name="e_wo_entrp">    -28.23404741 </i>
    <i name="e_0_energy">    -28.23404741 </i>
   </energy>
  </scstep>
  <scstep>
   <time name="total">  107.02  107.62</time>
   <energy>
    <i name="e_fr_energy">    -28.23404316 </i>
    <i name="e_wo_entrp">    -28.23404316 </i>
    <i name="e_0_energy">    -28.23404316 </i>
   </energy>
  </scstep>
  <scstep>
   <time name="total">  102.97  103.53</time>
   <energy>
    <i name="e_fr_energy">    -28.23404224 </i>
    <i name="e_wo_entrp">    -28.23404224 </i>
    <i name="e_0_energy">    -28.23404224 </i>
   </energy>
  </scstep>
  <scstep>
   <time name="total">   98.77   99.33</time>
   <energy>
    <i name="e_fr_energy">    -28.23404078 </i>
    <i name="e_wo_entrp">    -28.23404078 </i>
    <i name="e_0_energy">    -28.23404078 </i>
   </energy>
  </scstep>
  <kpoints>
   <generation param="Gamma">
    <v type="int" name="divisions">      12        4        4 </v>
    <v name="usershift">      0.00000000       0.00000000       0.00000000 </v>
    <v name="genvec1">      0.08333333       0.00000000       0.00000000 </v>
    <v name="genvec2">      0.00000000       0.25000000       0.00000000 </v>
    <v name="genvec3">      0.00000000       0.00000000       0.25000000 </v>
    <v name="shift">      0.00000000       0.00000000       0.00000000 </v>
   </generation>
   <varray name="kpointlist" >
    <v>       0.00000000       0.00000000       0.00000000 </v>
    <v>       0.08333333       0.00000000       0.00000000 </v>
    <v>       0.16666667       0.00000000       0.00000000 </v>
    <v>       0.25000000       0.00000000       0.00000000 </v>
    <v>       0.33333333       0.00000000       0.00000000 </v>
    <v>       0.41666667       0.00000000       0.00000000 </v>
    <v>       0.50000000       0.00000000       0.00000000 </v>
    <v>       0.00000000       0.25000000       0.00000000 </v>
    <v>       0.08333333       0.25000000       0.00000000 </v>
    <v>       0.16666667       0.25000000       0.00000000 </v>
    <v>       0.25000000       0.25000000       0.00000000 </v>
    <v>       0.33333333       0.25000000       0.00000000 </v>
    <v>       0.41666667       0.25000000       0.00000000 </v>
    <v>       0.50000000       0.25000000       0.00000000 </v>
    <v>      -0.41666667       0.25000000       0.00000000 </v>
    <v>      -0.33333333       0.25000000       0.00000000 </v>
    <v>      -0.25000000       0.25000000       0.00000000 </v>
    <v>      -0.16666667       0.25000000       0.00000000 </v>
    <v>      -0.08333333       0.25000000       0.00000000 </v>
    <v>       0.00000000       0.50000000       0.00000000 </v>
    <v>       0.08333333       0.50000000       0.00000000 </v>
    <v>       0.16666667       0.50000000       0.00000000 </v>
    <v>       0.25000000       0.50000000       0.00000000 </v>
    <v>       0.33333333       0.50000000       0.00000000 </v>
    <v>       0.41666667       0.50000000       0.00000000 </v>
    <v>       0.50000000       0.50000000       0.00000000 </v>
    <v>       0.00000000       0.00000000       0.25000000 </v>
    <v>       0.08333333       0.00000000       0.25000000 </v>
    <v>       0.16666667       0.00000000       0.25000000 </v>
    <v>       0.25000000       0.00000000       0.25000000 </v>
    <v>       0.33333333       0.00000000       0.25000000 </v>
    <v>       0.41666667       0.00000000       0.25000000 </v>
    <v>       0.50000000       0.00000000       0.25000000 </v>
    <v>      -0.41666667       0.00000000       0.25000000 </v>
    <v>      -0.33333333       0.00000000       0.25000000 </v>
    <v>      -0.25000000       0.00000000       0.25000000 </v>
    <v>      -0.16666667       0.00000000       0.25000000 </v>
    <v>      -0.08333333       0.00000000       0.25000000 </v>
    <v>       0.00000000       0.25000000       0.25000000 </v>
    <v>       0.08333333       0.25000000       0.25000000 </v>
    <v>       0.16666667       0.25000000       0.25000000 </v>
    <v>       0.25000000       0.25000000       0.25000000 </v>
    <v>       0.33333333       0.25000000       0.25000000 </v>
    <v>       0.41666667       0.25000000       0.25000000 </v>
    <v>       0.50000000       0.25000000       0.25000000 </v>
    <v>      -0.41666667       0.25000000       0.25000000 </v>
    <v>      -0.33333333       0.25000000       0.25000000 </v>
    <v>      -0.25000000       0.25000000       0.25000000 </v>
    <v>      -0.16666667       0.25000000       0.25000000 </v>
    <v>      -0.08333333       0.25000000       0.25000000 </v>
    <v>       0.00000000       0.50000000       0.25000000 </v>
    <v>       0.08333333       0.50000000       0.25000000 </v>
    <v>       0.16666667       0.50000000       0.25000000 </v>
    <v>       0.25000000       0.50000000       0.25000000 </v>
    <v>       0.33333333       0.50000000       0.25000000 </v>
    <v>       0.41666667       0.50000000       0.25000000 </v>
    <v>       0.50000000       0.50000000       0.25000000 </v>
    <v>      -0.41666667       0.50000000       0.25000000 </v>
    <v>      -0.33333333       0.50000000       0.25000000 </v>
    <v>      -0.25000000       0.50000000       0.25000000 </v>
    <v>      -0.16666667       0.50000000       0.25000000 </v>
    <v>      -0.08333333       0.50000000       0.25000000 </v>
    <v>       0.00000000      -0.25000000       0.25000000 </v>
    <v>       0.08333333      -0.25000000       0.25000000 </v>
    <v>       0.16666667      -0.25000000       0.25000000 </v>
    <v>       0.25000000      -0.25000000       0.25000000 </v>
    <v>       0.33333333      -0.25000000       0.25000000 </v>
    <v>       0.41666667      -0.25000000       0.25000000 </v>
    <v>       0.50000000      -0.25000000       0.25000000 </v>
    <v>      -0.41666667      -0.25000000       0.25000000 </v>
    <v>      -0.33333333      -0.25000000       0.25000000 </v>
    <v>      -0.25000000      -0.25000000       0.25000000 </v>
    <v>      -0.16666667      -0.25000000       0.25000000 </v>
    <v>      -0.08333333      -0.25000000       0.25000000 </v>
    <v>       0.00000000       0.00000000       0.50000000 </v>
    <v>       0.08333333       0.00000000       0.50000000 </v>
[...]
       <r>    7.3044    0.0000 </r>
       <r>    7.3044    0.0000 </r>
       <r>    7.4144    0.0000 </r>
       <r>    7.4144    0.0000 </r>
      </set>
      <set comment="kpoint 100">
       <r>   -8.6786    1.0000 </r>
       <r>   -8.6786    1.0000 </r>
       <r>   -8.6786    1.0000 </r>
       <r>   -8.6786    1.0000 </r>
       <r>   -8.4907    1.0000 </r>
       <r>   -8.4907    1.0000 </r>
       <r>   -8.4907    1.0000 </r>
       <r>   -8.4907    1.0000 </r>
       <r>   -8.1990    1.0000 </r>
       <r>   -8.1990    1.0000 </r>
       <r>   -8.1990    1.0000 </r>
       <r>   -8.1990    1.0000 </r>
       <r>   -4.9786    1.0000 </r>
       <r>   -4.9786    1.0000 </r>
       <r>   -4.9786    1.0000 </r>
       <r>   -4.9786    1.0000 </r>
       <r>   -4.6792    1.0000 </r>
       <r>   -4.6792    1.0000 </r>
       <r>   -4.6792    1.0000 </r>
       <r>   -4.6792    1.0000 </r>
       <r>   -0.9555    1.0000 </r>
       <r>   -0.9555    1.0000 </r>
       <r>   -0.9555    1.0000 </r>
       <r>   -0.9555    1.0000 </r>
       <r>   -0.2037    1.0000 </r>
       <r>   -0.2037    1.0000 </r>
       <r>   -0.2037    1.0000 </r>
       <r>   -0.2037    1.0000 </r>
       <r>    0.4288    1.0000 </r>
       <r>    0.4288    1.0000 </r>
       <r>    0.4288    1.0000 </r>
       <r>    0.4288    1.0000 </r>
       <r>    0.8789    1.0000 </r>
       <r>    0.8789    1.0000 </r>
       <r>    0.8789    1.0000 </r>
       <r>    0.8789    1.0000 </r>
       <r>    1.3821    1.0000 </r>
       <r>    1.3821    1.0000 </r>
       <r>    1.3821    1.0000 </r>
       <r>    1.3821    1.0000 </r>
       <r>    1.7678    1.0000 </r>
       <r>    1.7678    1.0000 </r>
       <r>    1.7678    1.0000 </r>
       <r>    1.7678    1.0000 </r>
       <r>    2.4751    1.0000 </r>
       <r>    2.4751    1.0000 </r>
       <r>    2.4751    1.0000 </r>
       <r>    2.4751    1.0000 </r>
       <r>    2.8481    1.0000 </r>
       <r>    2.8481    1.0000 </r>
       <r>    2.8481    1.0000 </r>
       <r>    2.8481    1.0000 </r>
       <r>    3.1899    1.0000 </r>
       <r>    3.1899    1.0000 </r>
       <r>    3.1899    1.0000 </r>
       <r>    3.1899    1.0000 </r>
       <r>    5.7069    0.0000 </r>
       <r>    5.7069    0.0000 </r>
       <r>    5.7069    0.0000 </r>
       <r>    5.7069    0.0000 </r>
       <r>    6.2852    0.0000 </r>
       <r>    6.2852    0.0000 </r>
       <r>    6.2852    0.0000 </r>
       <r>    6.2852    0.0000 </r>
       <r>    6.9470    0.0000 </r>
       <r>    6.9470    0.0000 </r>
       <r>    6.9470    0.0000 </r>
       <r>    6.9470    0.0000 </r>
       <r>    7.4524    0.0000 </r>
       <r>    7.4524    0.0000 </r>
       <r>    7.4524    0.0000 </r>
       <r>    7.4524    0.0000 </r>
      </set>
     </set>
    </set>
   </array>
  </eigenvalues>
  <separator name="orbital magnetization" >
   <v name="MAGDIPOLOUT">      0.00000000      0.00000000      0.00000000</v>
  </separator>
  <dos>
   <i name="efermi">      4.02945561 </i>
   <total>
    <array>
     <dimension dim="1">gridpoints</dimension>
     <dimension dim="2">spin</dimension>
     <field>energy</field>
     <field>total</field>
     <field>integrated</field>
     <set>
      <set comment="spin 1">
       <r>   -10.9269     0.0000     0.0000 </r>
       <r>   -10.8619     0.0000     0.0000 </r>
       <r>   -10.7970     0.0000     0.0000 </r>
       <r>   -10.7320     0.0000     0.0000 </r>
       <r>   -10.6670     0.0000     0.0000 </r>
       <r>   -10.6021     0.0000     0.0000 </r>
       <r>   -10.5371     0.0000     0.0000 </r>
       <r>   -10.4722     0.0000     0.0000 </r>
       <r>   -10.4072     0.0000     0.0000 </r>
       <r>   -10.3423     0.0000     0.0000 </r>
       <r>   -10.2773     0.0000     0.0000 </r>
       <r>   -10.2123     0.0000     0.0000 </r>
       <r>   -10.1474     0.0000     0.0000 </r>
       <r>   -10.0824     0.0000     0.0000 </r>
       <r>   -10.0175     0.3438     0.0223 </r>
       <r>    -9.9525     2.8333     0.2064 </r>
       <r>    -9.8876     4.3151     0.4868 </r>
       <r>    -9.8226     7.7211     0.9884 </r>
       <r>    -9.7576     4.0701     1.2533 </r>
       <r>    -9.6927     4.9081     1.5722 </r>
       <r>    -9.6277     3.1011     1.7736 </r>
       <r>    -9.5628     6.9718     2.2266 </r>
       <r>    -9.4978    10.9208     2.9367 </r>
       <r>    -9.4329     6.4006     3.3533 </r>
       <r>    -9.3679     6.8812     3.8004 </r>
       <r>    -9.3029     4.4168     4.0882 </r>
       <r>    -9.2380     9.4112     4.7004 </r>
       <r>    -9.1730     9.6501     5.3283 </r>
       <r>    -9.1081     2.7266     5.5058 </r>
       <r>    -9.0431     5.8489     5.8858 </r>
       <r>    -8.9782    12.3975     6.6912 </r>
       <r>    -8.9132    17.5918     7.8339 </r>
       <r>    -8.8482     6.9733     8.2877 </r>
       <r>    -8.7833     2.9982     8.4831 </r>
       <r>    -8.7183    12.9588     9.3249 </r>
       <r>    -8.6534    21.2406    10.7047 </r>
       <r>    -8.5884    11.9146    11.4800 </r>
       <r>    -8.5235     6.7718    11.9202 </r>
       <r>    -8.4585    25.7472    13.5926 </r>
       <r>    -8.3935    20.7916    14.9441 </r>
       <r>    -8.3286    16.2778    16.0026 </r>
       <r>    -8.2636    16.2369    17.0583 </r>
       <r>    -8.1987    47.0523    20.1154 </r>
       <r>    -8.1337    46.7464    23.1543 </r>
       <r>    -8.0688    12.7503    23.9830 </r>
       <r>    -8.0038     0.2615    24.0000 </r>
       <r>    -7.9388     0.0000    24.0000 </r>
       <r>    -7.8739     0.0000    24.0000 </r>
       <r>    -7.8089     0.0000    24.0000 </r>
       <r>    -7.7440     0.0000    24.0000 </r>
       <r>    -7.6790     0.0000    24.0000 </r>
       <r>    -7.6141     0.0000    24.0000 </r>
       <r>    -7.5491     0.0000    24.0000 </r>
       <r>    -7.4842     0.0000    24.0000 </r>
       <r>    -7.4192     0.0000    24.0000 </r>
       <r>    -7.3542     0.0000    24.0000 </r>
       <r>    -7.2893     0.0000    24.0000 </r>
       <r>    -7.2243     0.0000    24.0000 </r>
       <r>    -7.1594     0.0000    24.0000 </r>
       <r>    -7.0944     0.0000    24.0000 </r>
       <r>    -7.0295     0.0000    24.0000 </r>
       <r>    -6.9645     0.0000    24.0000 </r>
       <r>    -6.8995     0.0000    24.0000 </r>
       <r>    -6.8346     0.0000    24.0000 </r>
       <r>    -6.7696     0.0000    24.0000 </r>
       <r>    -6.7047     0.0000    24.0000 </r>
       <r>    -6.6397     0.0000    24.0000 </r>
       <r>    -6.5748     0.0000    24.0000 </r>
       <r>    -6.5098     0.0000    24.0000 </r>
       <r>    -6.4448     0.0000    24.0000 </r>
       <r>    -6.3799     0.0000    24.0000 </r>
       <r>    -6.3149     0.0000    24.0000 </r>
       <r>    -6.2500     0.0000    24.0000 </r>
       <r>    -6.1850     0.0000    24.0000 </r>
       <r>    -6.1201     0.0000    24.0000 </r>
       <r>    -6.0551     0.0000    24.0000 </r>
       <r>    -5.9901     0.0000    24.0000 </r>
       <r>    -5.9252     0.0000    24.0000 </r>
       <r>    -5.8602     0.0000    24.0000 </r>
       <r>    -5.7953     0.0000    24.0000 </r>
       <r>    -5.7303     0.0000    24.0000 </r>
       <r>    -5.6654     0.0000    24.0000 </r>
       <r>    -5.6004     0.0000    24.0000 </r>
       <r>    -5.5354     0.0000    24.0000 </r>
       <r>    -5.4705     0.0000    24.0000 </r>
       <r>    -5.4055     0.0000    24.0000 </r>
       <r>    -5.3406     0.0000    24.0000 </r>
       <r>    -5.2756     0.0000    24.0000 </r>
       <r>    -5.2107     0.0001    24.0000 </r>
       <r>    -5.1457     3.5711    24.2320 </r>
       <r>    -5.0807    15.8085    25.2588 </r>
       <r>    -5.0158    12.5408    26.0743 </r>
       <r>    -4.9508    25.7026    27.7444 </r>
       <r>    -4.8859    15.4302    28.7473 </r>
       <r>    -4.8209    14.3800    29.6816 </r>
       <r>    -4.7560     8.4548    30.2316 </r>
       <r>    -4.6910    15.2873    31.2250 </r>
       <r>    -4.6260    16.0279    32.2665 </r>
       <r>    -4.5611    11.6074    33.0211 </r>
       <r>    -4.4961     2.6524    33.1940 </r>
       <r>    -4.4312    13.7511    34.0874 </r>
       <r>    -4.3662     6.2229    34.4925 </r>
       <r>    -4.3013     5.8599    34.8732 </r>
       <r>    -4.2363     5.6175    35.2382 </r>
       <r>    -4.1714     4.1361    35.5083 </r>
       <r>    -4.1064     5.5271    35.8674 </r>
       <r>    -4.0414    14.0441    36.7797 </r>
       <r>    -3.9765     4.0495    37.0433 </r>
       <r>    -3.9115     3.9444    37.2995 </r>
       <r>    -3.8466     2.6776    37.4736 </r>
       <r>    -3.7816     2.6742    37.6473 </r>
       <r>    -3.7167     4.2096    37.9209 </r>
       <r>    -3.6517     4.7119    38.2270 </r>
       <r>    -3.5867     1.6210    38.3333 </r>
       <r>    -3.5218     0.0000    38.3333 </r>
       <r>    -3.4568     2.7276    38.5105 </r>
       <r>    -3.3919     2.3604    38.6638 </r>
       <r>    -3.3269     2.7974    38.8456 </r>
       <r>    -3.2620     6.9678    39.2982 </r>
       <r>    -3.1970     3.9120    39.5526 </r>
       <r>    -3.1320     1.5290    39.6519 </r>
       <r>    -3.0671     2.6500    39.8241 </r>
       <r>    -3.0021     2.2254    39.9686 </r>
       <r>    -2.9372     0.4727    39.9995 </r>
       <r>    -2.8722     0.0083    40.0000 </r>
       <r>    -2.8073     0.0000    40.0000 </r>
       <r>    -2.7423     0.0000    40.0000 </r>
       <r>    -2.6773     0.0000    40.0000 </r>
       <r>    -2.6124     0.0000    40.0000 </r>
       <r>    -2.5474     0.0000    40.0000 </r>
       <r>    -2.4825     0.0000    40.0000 </r>
       <r>    -2.4175     0.0000    40.0000 </r>
       <r>    -2.3526     0.0000    40.0000 </r>
       <r>    -2.2876     0.0000    40.0000 </r>
       <r>    -2.2226     0.0000    40.0000 </r>
       <r>    -2.1577     0.0000    40.0000 </r>
       <r>    -2.0927     0.0000    40.0000 </r>
       <r>    -2.0278     0.0000    40.0000 </r>
       <r>    -1.9628     0.0000    40.0000 </r>
       <r>    -1.8979     0.0000    40.0000 </r>
       <r>    -1.8329     0.0000    40.0000 </r>
       <r>    -1.7679     0.0000    40.0000 </r>
       <r>    -1.7030     0.0000    40.0000 </r>
       <r>    -1.6380     0.0000    40.0000 </r>
       <r>    -1.5731     0.0000    40.0000 </r>
       <r>    -1.5081     0.0000    40.0000 </r>
       <r>    -1.4432     0.0000    40.0000 </r>
       <r>    -1.3782     0.0000    40.0000 </r>
       <r>    -1.3132     0.0000    40.0000 </r>
       <r>    -1.2483     0.0000    40.0000 </r>
       <r>    -1.1833     0.0000    40.0000 </r>
       <r>    -1.1184     0.0000    40.0000 </r>
       <r>    -1.0534     1.1126    40.0723 </r>
       <r>    -0.9885     7.4880    40.5592 </r>
       <r>    -0.9235    10.1403    41.2179 </r>
       <r>    -0.8585     9.2801    41.8207 </r>
       <r>    -0.7936    12.0458    42.6033 </r>
       <r>    -0.7286     5.3266    42.9494 </r>
       <r>    -0.6637     3.2545    43.1614 </r>
       <r>    -0.5987    10.5723    43.8481 </r>
       <r>    -0.5338     2.5085    44.0111 </r>
       <r>    -0.4688     5.0829    44.3412 </r>
       <r>    -0.4039     8.6948    44.9063 </r>
       <r>    -0.3389    14.0400    45.8185 </r>
       <r>    -0.2739    10.3594    46.4921 </r>
       <r>    -0.2090    14.6195    47.4421 </r>
       <r>    -0.1440    16.5129    48.5166 </r>
       <r>    -0.0791    20.6733    49.8596 </r>
       <r>    -0.0141    16.4432    50.9283 </r>
       <r>     0.0508    18.6201    52.1379 </r>
       <r>     0.1158     9.2945    52.7431 </r>
       <r>     0.1808     5.8825    53.1263 </r>
       <r>     0.2457    13.7405    54.0188 </r>
       <r>     0.3107    15.6337    55.0351 </r>
       <r>     0.3756    14.8723    56.0015 </r>
       <r>     0.4406    13.5625    56.8825 </r>
       <r>     0.5055    17.3585    58.0114 </r>
       <r>     0.5705     8.1365    58.5408 </r>
       <r>     0.6355    12.1649    59.3311 </r>
       <r>     0.7004    15.8507    60.3608 </r>
       <r>     0.7654    16.6404    61.4424 </r>
       <r>     0.8303    18.3813    62.6368 </r>
       <r>     0.8953    14.8123    63.5999 </r>
       <r>     0.9602    11.1439    64.3245 </r>
       <r>     1.0252    15.6811    65.3434 </r>
       <r>     1.0902    20.9594    66.7050 </r>
       <r>     1.1551    18.6320    67.9155 </r>
       <r>     1.2201    17.7004    69.0661 </r>
       <r>     1.2850    21.8612    70.4861 </r>
       <r>     1.3500    13.7934    71.3828 </r>
       <r>     1.4149    16.9089    72.4816 </r>
       <r>     1.4799    24.4623    74.0706 </r>
       <r>     1.5449    11.7838    74.8383 </r>
       <r>     1.6098     9.0258    75.4247 </r>
       <r>     1.6748    15.4113    76.4258 </r>
       <r>     1.7397    15.9432    77.4616 </r>
       <r>     1.8047    15.7169    78.4833 </r>
       <r>     1.8696    17.4337    79.6159 </r>
       <r>     1.9346    15.4202    80.6179 </r>
       <r>     1.9996    18.3041    81.8070 </r>
       <r>     2.0645    14.4807    82.7498 </r>
       <r>     2.1295    13.7877    83.6459 </r>
       <r>     2.1944    13.7873    84.5417 </r>
       <r>     2.2594    10.0307    85.1933 </r>
       <r>     2.3243     7.6112    85.6878 </r>
       <r>     2.3893     6.8774    86.1345 </r>
       <r>     2.4543    11.7640    86.8987 </r>
       <r>     2.5192    11.4693    87.6441 </r>
       <r>     2.5842    19.4512    88.9086 </r>
       <r>     2.6491    22.9610    90.4002 </r>
       <r>     2.7141    24.3140    91.9813 </r>
       <r>     2.7790    18.4256    93.1790 </r>
       <r>     2.8440    14.0795    94.0940 </r>
       <r>     2.9089    18.8616    95.3197 </r>
       <r>     2.9739    15.7513    96.3429 </r>
       <r>     3.0389    13.4847    97.2188 </r>
       <r>     3.1038    16.4045    98.2845 </r>
       <r>     3.1688    18.7046    99.5002 </r>
       <r>     3.2337    17.9597   100.6669 </r>
       <r>     3.2987    13.7414   101.5599 </r>
       <r>     3.3636    20.3034   102.8792 </r>
       <r>     3.4286    29.8265   104.8179 </r>
       <r>     3.4936    24.1911   106.3903 </r>
       <r>     3.5585    14.3623   107.3233 </r>
       <r>     3.6235    18.9955   108.5575 </r>
       <r>     3.6884    17.7299   109.7097 </r>
       <r>     3.7534    14.1947   110.6329 </r>
       <r>     3.8183    10.7835   111.3339 </r>
       <r>     3.8833     5.4294   111.6866 </r>
       <r>     3.9483     3.8945   111.9400 </r>
       <r>     4.0132     0.9233   112.0000 </r>
       <r>     4.0782     0.0000   112.0000 </r>
       <r>     4.1431     0.0000   112.0000 </r>
       <r>     4.2081     0.0000   112.0000 </r>
       <r>     4.2730     0.0000   112.0000 </r>
       <r>     4.3380     0.0000   112.0000 </r>
       <r>     4.4030     0.0000   112.0000 </r>
       <r>     4.4679     0.0000   112.0000 </r>
       <r>     4.5329     0.0000   112.0000 </r>
       <r>     4.5978     0.0000   112.0000 </r>
       <r>     4.6628     0.0000   112.0000 </r>
       <r>     4.7277     0.0000   112.0000 </r>
       <r>     4.7927     0.0000   112.0000 </r>
       <r>     4.8577     0.1629   112.0106 </r>
       <r>     4.9226     2.3244   112.1616 </r>
       <r>     4.9876     1.3296   112.2480 </r>
       <r>     5.0525     0.6643   112.2912 </r>
       <r>     5.1175     0.1674   112.3021 </r>
       <r>     5.1824     1.1346   112.3758 </r>
       <r>     5.2474     5.8227   112.7540 </r>
       <r>     5.3124     7.4263   113.2366 </r>
       <r>     5.3773     8.2100   113.7702 </r>
       <r>     5.4423     8.1102   114.2974 </r>
       <r>     5.5072    13.5540   115.1786 </r>
       <r>     5.5722    15.4622   116.1831 </r>
       <r>     5.6371     5.6527   116.5519 </r>
       <r>     5.7021     6.1591   116.9520 </r>
       <r>     5.7671    11.3559   117.6897 </r>
       <r>     5.8320    13.7660   118.5842 </r>
       <r>     5.8970    13.7638   119.4793 </r>
       <r>     5.9619    10.4056   120.1561 </r>
       <r>     6.0269    14.8877   121.1234 </r>
       <r>     6.0918     9.2121   121.7228 </r>
       <r>     6.1568    13.1801   122.5794 </r>
       <r>     6.2218    16.8681   123.6755 </r>
       <r>     6.2867    28.4904   125.5263 </r>
       <r>     6.3517    18.4935   126.7291 </r>
       <r>     6.4166    14.6060   127.6793 </r>
       <r>     6.4816    17.1986   128.7969 </r>
       <r>     6.5465    12.4575   129.6064 </r>
       <r>     6.6115    15.0986   130.5874 </r>
       <r>     6.6764    20.4132   131.9134 </r>
       <r>     6.7414    15.9732   132.9529 </r>
       <r>     6.8064    19.6371   134.2294 </r>
       <r>     6.8713    17.1172   135.3414 </r>
       <r>     6.9363    18.7953   136.5624 </r>
       <r>     7.0012    18.4024   137.7582 </r>
       <r>     7.0662     9.8304   138.3973 </r>
       <r>     7.1311     9.6897   139.0268 </r>
       <r>     7.1961    15.6184   140.0417 </r>
       <r>     7.2611    14.9954   141.0169 </r>
       <r>     7.3260    15.4091   142.0183 </r>
       <r>     7.3910     6.9641   142.4711 </r>
       <r>     7.4559    11.5437   143.2210 </r>
       <r>     7.5209     7.9658   143.7386 </r>
       <r>     7.5858     3.4071   143.9607 </r>
       <r>     7.6508     0.2845   143.9792 </r>
       <r>     7.7158     0.3206   144.0000 </r>
       <r>     7.7807     0.0000   144.0000 </r>
       <r>     7.8457     0.0000   144.0000 </r>
       <r>     7.9106     0.0000   144.0000 </r>
       <r>     7.9756     0.0000   144.0000 </r>
       <r>     8.0405     0.0000   144.0000 </r>
       <r>     8.1055     0.0000   144.0000 </r>
       <r>     8.1705     0.0000   144.0000 </r>
       <r>     8.2354     0.0000   144.0000 </r>
       <r>     8.3004     0.0000   144.0000 </r>
       <r>     8.3653     0.0000   144.0000 </r>
       <r>     8.4303     0.0000   144.0000 </r>
       <r>     8.4952     0.0000   144.0000 </r>
       <r>     8.5602     0.0000   144.0000 </r>
      </set>
     </set>
    </array>
   </total>
  </dos>
 </calculation>
 <structure name="finalpos" >
  <crystal>
   <varray name="basis" >
    <v>       4.00155656       0.00000000       0.00000000 </v>
    <v>       0.00000000      11.71362881       0.00000000 </v>
    <v>       0.00000000       0.00000000      12.36207225 </v>
   </varray>
   <i name="volume">    579.44430030 </i>
   <varray name="rec_basis" >
    <v>       0.24990275       0.00000000       0.00000000 </v>
    <v>       0.00000000       0.08537064       0.00000000 </v>
    <v>       0.00000000       0.00000000       0.08089259 </v>
   </varray>
  </crystal>
  <varray name="positions" >
   <v>       0.75000006       0.03809460       0.14032238 </v>
   <v>       0.25000002       0.96190547       0.85967770 </v>
   <v>       0.25000002       0.53809464       0.35967766 </v>
   <v>       0.75000006       0.46190544       0.64032242 </v>
   <v>       0.25000002       0.32959141       0.03381284 </v>
   <v>       0.75000006       0.67040867       0.96618723 </v>
   <v>       0.75000006       0.82959144       0.46618720 </v>
   <v>       0.25000002       0.17040863       0.53381288 </v>
   <v>       0.75000006       0.12752537       0.94834527 </v>
   <v>       0.25000002       0.87247471       0.05165480 </v>
   <v>       0.25000002       0.62752541       0.55165484 </v>
   <v>       0.75000006       0.37247467       0.44834523 </v>
   <v>       0.25000002       0.19210068       0.20533134 </v>
   <v>       0.75000006       0.80789939       0.79466874 </v>
   <v>       0.75000006       0.69210072       0.29466870 </v>
   <v>       0.25000002       0.30789935       0.70533137 </v>
   <v>       0.75000006       0.05409869       0.62734920 </v>
   <v>       0.25000002       0.94590138       0.37265088 </v>
   <v>       0.25000002       0.55409873       0.87265092 </v>
   <v>       0.75000006       0.44590134       0.12734916 </v>
  </varray>
 </structure>
</modeling>
