
     Program PWSCF v.7.1 starts on  3Jan2024 at 14:29: 6 

     This program is part of the open-source Quantum ESPRESSO suite
     for quantum simulation of materials; please cite
         "P. Giannozzi et al., J. Phys.:Condens. Matter 21 395502 (2009);
         "P. Giannozzi et al., J. Phys.:Condens. Matter 29 465901 (2017);
         "P. Giannozzi et al., J. Chem. Phys. 152 154105 (2020);
          URL http://www.quantum-espresso.org", 
     in publications or presentations arising from this work. More details at
     http://www.quantum-espresso.org/quote

     Parallel version (MPI), running on     8 processors

     MPI processes distributed on     1 nodes
     121485 MiB available memory on the printing compute node when the environment starts
 
     Reading input from pw_mp-804_nscf_k3000_E130.in
Warning: card &IONS ignored
Warning: card / ignored
Warning: card &CELL ignored
Warning: card / ignored

     Current dimensions of program PWSCF are:
     Max number of different atomic species (ntypx) = 10
     Max number of k-points (npk) =  40000
     Max angular momentum in pseudopotentials (lmaxx) =  4

     Atomic positions and unit cell read from directory:
     out/mp-804.save/
     Atomic positions from file used, from input discarded
 
 
     R & G space division:  proc/nbgrp/npool/nimage =       8
     Subspace diagonalization in iterative solution of the eigenvalue problem:
     a serial algorithm will be used

 
     Parallelization info
     --------------------
     sticks:   dense  smooth     PW     G-vecs:    dense   smooth      PW
     Min         160     160     45                 7702     7702    1159
     Max         161     161     46                 7711     7711    1164
     Sum        1285    1285    367                61655    61655    9295
 
     Using Slab Decomposition
 


     bravais-lattice index     =            4
     lattice parameter (alat)  =       6.0262  a.u.
     unit-cell volume          =     308.5900 (a.u.)^3
     number of atoms/cell      =            4
     number of atomic types    =            2
     number of electrons       =        36.00
     number of Kohn-Sham states=           36
     kinetic-energy cutoff     =     130.0000  Ry
     charge density cutoff     =     520.0000  Ry
     Exchange-correlation= PBE
                           (   1   4   3   4   0   0   0)

     celldm(1)=   6.026205  celldm(2)=   0.000000  celldm(3)=   1.628244
     celldm(4)=   0.000000  celldm(5)=   0.000000  celldm(6)=   0.000000

     crystal axes: (cart. coord. in units of alat)
               a(1) = (   1.000000   0.000000   0.000000 )  
               a(2) = (  -0.500000   0.866025   0.000000 )  
               a(3) = (   0.000000   0.000000   1.628244 )  

     reciprocal axes: (cart. coord. in units 2 pi/alat)
               b(1) = (  1.000000  0.577350  0.000000 )  
               b(2) = (  0.000000  1.154701  0.000000 )  
               b(3) = (  0.000000  0.000000  0.614159 )  


     PseudoPot. # 1 for Ga read from file:
     /usr/scratch4/magr4985/MG/devEb/pseudo/SG15/Ga.upf
     MD5 check sum: e59e05528b6bde9b2cf5d4427c1b4355
     Pseudo is Norm-conserving, Zval = 13.0
     Generated using ONCVPSP code by D. R. Hamann
     Using radial grid of  602 points,  6 beta functions with: 
                l(1) =   0
                l(2) =   0
                l(3) =   1
                l(4) =   1
                l(5) =   2
                l(6) =   2

     PseudoPot. # 2 for N  read from file:
     /usr/scratch4/magr4985/MG/devEb/pseudo/SG15/N.upf
     MD5 check sum: 505747f69e3b1670e9a20de136ca1593
     Pseudo is Norm-conserving, Zval =  5.0
     Generated using ONCVPSP code by D. R. Hamann
     Using radial grid of  602 points,  4 beta functions with: 
                l(1) =   0
                l(2) =   0
                l(3) =   1
                l(4) =   1

     atomic species   valence    mass     pseudopotential
        Ga            13.00    69.72300     Ga( 1.00)
        N              5.00    14.00670     N ( 1.00)

     12 Sym. Ops. (no inversion) found ( 6 have fractional translation)



   Cartesian axes

     site n.     atom                  positions (alat units)
         1           Ga  tau(   1) = (   0.0000000   0.5773502   0.8126302  )
         2           Ga  tau(   2) = (   0.5000000   0.2886752   1.6267523  )
         3           N   tau(   3) = (   0.0000000   0.5773502   1.4262057  )
         4           N   tau(   4) = (   0.5000000   0.2886752   0.6120835  )

     number of k points=    56  Gaussian smearing, width (Ry)=  0.0005
                       cart. coord. in units 2pi/alat
        k(    1) = (   0.0000000   0.0000000   0.0000000), wk =   0.0033333
        k(    2) = (   0.0000000   0.0000000   0.1023598), wk =   0.0066667
        k(    3) = (   0.0000000   0.0000000   0.2047195), wk =   0.0066667
        k(    4) = (   0.0000000   0.0000000  -0.3070793), wk =   0.0033333
        k(    5) = (   0.0000000   0.1154701   0.0000000), wk =   0.0200000
        k(    6) = (   0.0000000   0.1154701   0.1023598), wk =   0.0400000
        k(    7) = (   0.0000000   0.1154701   0.2047195), wk =   0.0400000
        k(    8) = (   0.0000000   0.1154701  -0.3070793), wk =   0.0200000
        k(    9) = (   0.0000000   0.2309401   0.0000000), wk =   0.0200000
        k(   10) = (   0.0000000   0.2309401   0.1023598), wk =   0.0400000
        k(   11) = (   0.0000000   0.2309401   0.2047195), wk =   0.0400000
        k(   12) = (   0.0000000   0.2309401  -0.3070793), wk =   0.0200000
        k(   13) = (   0.0000000   0.3464102   0.0000000), wk =   0.0200000
        k(   14) = (   0.0000000   0.3464102   0.1023598), wk =   0.0400000
        k(   15) = (   0.0000000   0.3464102   0.2047195), wk =   0.0400000
        k(   16) = (   0.0000000   0.3464102  -0.3070793), wk =   0.0200000
        k(   17) = (   0.0000000   0.4618802   0.0000000), wk =   0.0200000
        k(   18) = (   0.0000000   0.4618802   0.1023598), wk =   0.0400000
        k(   19) = (   0.0000000   0.4618802   0.2047195), wk =   0.0400000
        k(   20) = (   0.0000000   0.4618802  -0.3070793), wk =   0.0200000
        k(   21) = (   0.0000000  -0.5773503   0.0000000), wk =   0.0100000
        k(   22) = (   0.0000000  -0.5773503   0.1023598), wk =   0.0200000
        k(   23) = (   0.0000000  -0.5773503   0.2047195), wk =   0.0200000
        k(   24) = (   0.0000000  -0.5773503  -0.3070793), wk =   0.0100000
        k(   25) = (   0.1000000   0.1732051   0.0000000), wk =   0.0200000
        k(   26) = (   0.1000000   0.1732051   0.1023598), wk =   0.0400000
        k(   27) = (   0.1000000   0.1732051   0.2047195), wk =   0.0400000
        k(   28) = (   0.1000000   0.1732051  -0.3070793), wk =   0.0200000
        k(   29) = (   0.1000000   0.2886751   0.0000000), wk =   0.0400000
        k(   30) = (   0.1000000   0.2886751   0.1023598), wk =   0.0800000
        k(   31) = (   0.1000000   0.2886751   0.2047195), wk =   0.0800000
        k(   32) = (   0.1000000   0.2886751  -0.3070793), wk =   0.0400000
        k(   33) = (   0.1000000   0.4041452   0.0000000), wk =   0.0400000
        k(   34) = (   0.1000000   0.4041452   0.1023598), wk =   0.0800000
        k(   35) = (   0.1000000   0.4041452   0.2047195), wk =   0.0800000
        k(   36) = (   0.1000000   0.4041452  -0.3070793), wk =   0.0400000
        k(   37) = (   0.1000000   0.5196152   0.0000000), wk =   0.0400000
        k(   38) = (   0.1000000   0.5196152   0.1023598), wk =   0.0800000
        k(   39) = (   0.1000000   0.5196152   0.2047195), wk =   0.0800000
        k(   40) = (   0.1000000   0.5196152  -0.3070793), wk =   0.0400000
        k(   41) = (   0.2000000   0.3464102   0.0000000), wk =   0.0200000
        k(   42) = (   0.2000000   0.3464102   0.1023598), wk =   0.0400000
        k(   43) = (   0.2000000   0.3464102   0.2047195), wk =   0.0400000
        k(   44) = (   0.2000000   0.3464102  -0.3070793), wk =   0.0200000
        k(   45) = (   0.2000000   0.4618802   0.0000000), wk =   0.0400000
        k(   46) = (   0.2000000   0.4618802   0.1023598), wk =   0.0800000
        k(   47) = (   0.2000000   0.4618802   0.2047195), wk =   0.0800000
        k(   48) = (   0.2000000   0.4618802  -0.3070793), wk =   0.0400000
        k(   49) = (   0.2000000   0.5773503   0.0000000), wk =   0.0200000
        k(   50) = (   0.2000000   0.5773503   0.1023598), wk =   0.0400000
        k(   51) = (   0.2000000   0.5773503   0.2047195), wk =   0.0400000
        k(   52) = (   0.2000000   0.5773503  -0.3070793), wk =   0.0200000
        k(   53) = (   0.3000000   0.5196152   0.0000000), wk =   0.0200000
        k(   54) = (   0.3000000   0.5196152   0.1023598), wk =   0.0400000
        k(   55) = (   0.3000000   0.5196152   0.2047195), wk =   0.0400000
        k(   56) = (   0.3000000   0.5196152  -0.3070793), wk =   0.0200000

     Dense  grid:    61655 G-vectors     FFT dimensions: (  45,  45,  72)

     Estimated max dynamical RAM per process >      39.58 MB

     Estimated total dynamical RAM >     316.63 MB

     The potential is recalculated from file :
     out/mp-804.save/charge-density

     Starting wfcs are random

     Band Structure Calculation
     Davidson diagonalization with overlap

     ethr =  5.00E-06,  avg # of iterations = 19.9

     total cpu time spent up to now is       20.7 secs

     End of band structure calculation

          k = 0.0000 0.0000 0.0000 (  7631 PWs)   bands (ev):

    -5.2250  -4.3660  -2.8428  -2.8327  -2.8327  -2.7739  -2.7739  -2.5850
    -2.5850  -2.4880  -2.4880  -1.1954   3.6850   9.6740   9.6740  10.6649
    10.6991  10.6991  12.6627  14.9936  19.9046  20.6390  20.6390  21.4800
    22.4442  22.4442  25.3429  26.3923  26.3923  28.6436  28.6437  28.8992
    28.9602  32.4098  34.8685  34.8685

          k = 0.0000 0.0000 0.1024 (  7643 PWs)   bands (ev):

    -5.1457  -4.3926  -2.8313  -2.8313  -2.8187  -2.7802  -2.7802  -2.5761
    -2.5761  -2.4924  -2.4924  -1.4749   4.1836   9.7395   9.7395   9.8631
    10.6273  10.6273  13.3371  15.0488  19.7136  20.6714  20.6714  20.8355
    22.1942  22.1942  25.6203  26.7641  26.7641  28.6907  29.0992  29.0992
    30.0009  32.4643  33.9379  33.9379

          k = 0.0000 0.0000 0.2047 (  7710 PWs)   bands (ev):

    -4.9366  -4.4895  -2.8254  -2.8254  -2.7956  -2.7956  -2.7200  -2.5539
    -2.5539  -2.5059  -2.5059  -2.0227   5.3829   8.4331   9.9207   9.9207
    10.4333  10.4333  14.3297  15.1375  19.3203  19.7768  20.8193  20.8193
    21.6609  21.6609  26.2209  27.7771  27.7771  27.9814  29.8627  29.8627
    32.3779  32.6907  32.6907  33.0830

          k = 0.0000 0.0000-0.3071 (  7716 PWs)   bands (ev):

    -4.6830  -4.6830  -2.8129  -2.8129  -2.8129  -2.8129  -2.5278  -2.5278
    -2.5278  -2.5278  -2.4738  -2.4738   6.8794   6.8794  10.1737  10.1737
    10.1738  10.1738  14.9862  14.9863  19.2030  19.2030  21.1534  21.1534
    21.1534  21.1534  27.0460  27.0460  29.1393  29.1393  29.1393  29.1393
    33.4884  33.4884  33.4884  33.4884

          k = 0.0000 0.1155 0.0000 (  7667 PWs)   bands (ev):

    -5.1295  -4.3430  -2.8334  -2.8185  -2.7986  -2.7622  -2.7548  -2.5931
    -2.5861  -2.5039  -2.4859  -1.1255   3.8269   8.9614   9.4701   9.8747
    10.5674  10.6105  13.4144  15.5898  19.6091  20.0112  20.8942  21.5615
    22.0187  22.6577  24.4470  25.9035  27.2379  28.5455  29.7648  29.8556
    30.1711  33.1442  34.3485  34.8227

          k = 0.0000 0.1155 0.1024 (  7679 PWs)   bands (ev):

    -5.0542  -4.3658  -2.8270  -2.8166  -2.7830  -2.7662  -2.7612  -2.5802
    -2.5773  -2.5101  -2.4908  -1.3969   4.3042   9.0350   9.4100   9.5414
    10.3946  10.5286  13.8609  15.6363  19.3896  19.9612  20.9295  20.9601
    21.8664  22.4186  25.0886  26.3271  27.4464  28.7307  29.7764  30.1152
    30.7831  32.9973  33.8263  34.2757

          k = 0.0000 0.1155 0.2047 (  7701 PWs)   bands (ev):

    -4.8575  -4.4505  -2.8163  -2.8094  -2.7854  -2.7772  -2.6968  -2.5550
    -2.5430  -2.5253  -2.5053  -1.9344   5.4493   8.2429   9.3058   9.7397
    10.0552  10.3090  14.7226  15.6858  18.9304  19.4336  20.6260  21.0830
    21.5070  21.9093  26.1234  27.4426  27.8688  28.5747  30.0238  30.3248
    31.8884  32.7739  32.8946  34.7631

          k = 0.0000 0.1155-0.3071 (  7720 PWs)   bands (ev):

    -4.6240  -4.6239  -2.8025  -2.8025  -2.7954  -2.7954  -2.5793  -2.5793
    -2.5283  -2.5283  -2.3694  -2.3694   6.8530   6.8530   9.6600   9.6600
    10.0190  10.0190  15.4360  15.4360  18.8450  18.8450  21.0089  21.0089
    21.4167  21.4167  27.1207  27.1207  28.9756  28.9756  29.5004  29.5004
    32.3550  32.3550  34.0963  34.0964

          k = 0.0000 0.2309 0.0000 (  7705 PWs)   bands (ev):

    -4.8848  -4.2919  -2.8031  -2.7874  -2.7342  -2.7046  -2.6688  -2.6131
    -2.5810  -2.5286  -2.4809  -0.9354   4.2271   7.4822   8.5270   8.9957
    10.2515  10.3627  14.5304  16.5209  18.5464  19.4680  20.9762  21.3657
    22.1829  23.1184  23.4685  25.8770  27.2043  30.2033  31.5424  31.7853
    31.9409  33.0668  34.8427  36.3355

          k = 0.0000 0.2309 0.1024 (  7713 PWs)   bands (ev):

    -4.8219  -4.3060  -2.8017  -2.7832  -2.7429  -2.7114  -2.6632  -2.5878
    -2.5733  -2.5214  -2.4868  -1.1818   4.6207   7.6016   8.2547   9.0783
    10.1214  10.2601  14.7111  16.5723  18.4517  19.2485  20.8241  21.4332
    21.7354  22.9358  24.0846  26.2588  27.5091  30.2067  30.7440  32.0333
    32.6751  33.2095  33.8221  35.7717

          k = 0.0000 0.2309 0.2047 (  7717 PWs)   bands (ev):

    -4.6626  -4.3617  -2.7929  -2.7707  -2.7587  -2.7291  -2.6444  -2.5830
    -2.5532  -2.5034  -2.4182  -1.6924   5.5350   7.4255   8.1684   9.3094
     9.6123   9.9894  15.2553  16.5374  18.1851  18.8767  20.4965  21.3482
    21.6525  22.5047  25.1010  27.3243  27.4003  30.3541  30.7917  31.0068
    32.3514  33.2967  34.0443  35.9939

          k = 0.0000 0.2309-0.3071 (  7730 PWs)   bands (ev):

    -4.4846  -4.4845  -2.7765  -2.7765  -2.7512  -2.7512  -2.6123  -2.6123
    -2.5274  -2.5274  -2.1469  -2.1469   6.5531   6.5531   8.8391   8.8391
     9.6395   9.6396  16.0026  16.0026  18.3631  18.3631  20.8085  20.8085
    22.0294  22.0294  26.3363  26.3363  28.9102  28.9102  31.0280  31.0280
    32.4404  32.4404  35.4890  35.4890

          k = 0.0000 0.3464 0.0000 (  7731 PWs)   bands (ev):

    -4.6105  -4.2465  -2.7812  -2.7643  -2.6882  -2.6437  -2.6247  -2.5875
    -2.5550  -2.4746  -2.3069  -0.6993   4.7253   6.1041   7.1984   8.4858
     9.6903  10.0508  15.4124  16.5721  17.7084  19.1571  20.9446  21.4371
    22.1826  23.7449  23.7785  26.9750  27.0436  29.5091  32.5667  33.9322
    34.4658  34.6102  35.2487  36.7819

          k = 0.0000 0.3464 0.1024 (  7732 PWs)   bands (ev):

    -4.5665  -4.2520  -2.7841  -2.7561  -2.7046  -2.6511  -2.6197  -2.5851
    -2.5506  -2.4811  -2.2544  -0.8950   4.8413   6.3650   7.0249   8.5781
     9.7222   9.9295  15.2420  16.6421  17.8166  19.0254  20.7557  21.5969
    21.9539  23.6163  23.7993  27.3111  27.3564  29.5677  32.1800  33.4620
    34.0352  34.9916  35.2733  36.3801

          k = 0.0000 0.3464 0.2047 (  7727 PWs)   bands (ev):

    -4.4596  -4.2789  -2.7837  -2.7362  -2.7334  -2.6723  -2.6111  -2.5876
    -2.5379  -2.4979  -2.0837  -1.3329   5.1576   6.1871   7.5419   8.8374
     9.4472   9.6134  15.2449  16.4606  17.9923  18.8416  20.5323  21.2980
    22.0239  23.1787  24.4493  27.0137  28.1362  30.3206  31.3516  31.8892
    34.3076  34.9897  35.7904  37.5326

          k = 0.0000 0.3464-0.3071 (  7726 PWs)   bands (ev):

    -4.3484  -4.3483  -2.7668  -2.7668  -2.7025  -2.7025  -2.5988  -2.5988
    -2.5189  -2.5189  -1.7715  -1.7715   5.6311   5.6311   8.6067   8.6067
     9.2115   9.2115  15.7780  15.7780  18.4627  18.4627  20.6981  20.6981
    22.5975  22.5975  25.7036  25.7036  29.5114  29.5114  31.3764  31.3764
    34.6291  34.6291  36.7774  36.7774

          k = 0.0000 0.4619 0.0000 (  7749 PWs)   bands (ev):

    -4.4310  -4.2228  -2.7788  -2.7582  -2.6681  -2.6207  -2.5975  -2.5811
    -2.5175  -2.4674  -1.7501  -0.6079   4.5409   5.7274   6.3516   8.1140
     8.9622   9.8030  15.7852  16.3388  17.0219  19.2113  21.0452  21.2396
    22.7905  23.9938  24.4499  27.2611  28.5866  28.8707  32.3384  34.2425
    35.0186  35.9360  36.0448  36.2877

          k = 0.0000 0.4619 0.1024 (  7731 PWs)   bands (ev):

    -4.4026  -4.2229  -2.7850  -2.7466  -2.6811  -2.6363  -2.6059  -2.5556
    -2.5160  -2.4738  -1.7038  -0.7185   4.3923   5.5874   6.7232   8.2124
     9.1662   9.6699  15.3712  16.1356  17.7367  18.9087  20.9515  21.4682
    22.2097  23.9839  24.2420  27.8149  29.0035  29.0797  31.7122  34.3416
    34.4172  35.4681  36.0368  36.7435

          k = 0.0000 0.4619 0.2047 (  7723 PWs)   bands (ev):

    -4.3353  -4.2323  -2.7911  -2.7355  -2.7148  -2.6319  -2.6046  -2.5458
    -2.5110  -2.4880  -1.5581  -0.9942   4.3424   5.0727   7.7198   8.4894
     9.2822   9.3251  14.9791  15.9475  18.1793  18.7428  20.7829  21.1056
    22.0778  23.6716  24.5899  27.1874  29.7289  30.4605  31.6090  32.4240
    34.6252  35.5305  36.1542  36.7363

          k = 0.0000 0.4619-0.3071 (  7738 PWs)   bands (ev):

    -4.2689  -4.2689  -2.7771  -2.7771  -2.6721  -2.6721  -2.5664  -2.5664
    -2.5016  -2.5016  -1.3089  -1.3089   4.5918   4.5918   8.7382   8.7382
     8.8908   8.8908  15.3299  15.3299  18.5265  18.5266  20.6827  20.6827
    22.8841  22.8841  25.7687  25.7687  30.8479  30.8479  31.5372  31.5372
    35.1152  35.1152  36.4400  36.4400

          k = 0.0000-0.5774 0.0000 (  7720 PWs)   bands (ev):

    -4.3750  -4.2164  -2.7821  -2.7581  -2.6616  -2.6241  -2.5814  -2.5692
    -2.4997  -2.4636  -1.3063  -0.7527   4.2777   5.4374   6.5289   7.9793
     8.5198   9.7099  15.7985  16.2939  16.7799  19.3017  21.0569  21.1418
    23.1550  24.0322  24.7193  27.5540  28.2654  30.0705  32.1228  34.1547
    34.6511  34.7560  36.0894  37.0721

          k = 0.0000-0.5774 0.1024 (  7732 PWs)   bands (ev):

    -4.3520  -4.2148  -2.7889  -2.7454  -2.6727  -2.6429  -2.5903  -2.5409
    -2.4990  -2.4699  -1.2807  -0.7967   4.1168   5.1355   6.9860   8.0797
     8.8139   9.5728  15.4194  15.8400  17.7668  18.8876  21.0364  21.3912
    22.2160  24.2336  24.4829  28.2841  28.7268  30.2703  31.4077  34.1458
    34.6559  35.0757  35.1746  36.7313

          k = 0.0000-0.5774 0.2047 (  7742 PWs)   bands (ev):

    -4.2977  -4.2187  -2.7963  -2.7386  -2.7105  -2.6188  -2.5986  -2.5290
    -2.4968  -2.4823  -1.2015  -0.9171   3.9776   4.5737   7.9372   8.3628
     9.1498   9.2185  14.8674  15.7222  18.3140  18.6092  20.9091  20.9469
    22.0604  23.8381  24.8459  27.4087  30.6684  30.8737  31.3546  33.2831
    34.2336  35.0654  35.1199  36.0593

          k = 0.0000-0.5774-0.3071 (  7716 PWs)   bands (ev):

    -4.2454  -4.2454  -2.7831  -2.7831  -2.6633  -2.6633  -2.5525  -2.5525
    -2.4918  -2.4918  -1.0708  -1.0708   4.1333   4.1333   8.7733   8.7733
     8.8258   8.8258  15.1458  15.1458  18.4875  18.4875  20.6844  20.6844
    22.9549  22.9549  25.9668  25.9668  31.6321  31.6321  31.8865  31.8865
    34.7088  34.7088  35.4517  35.4517

          k = 0.1000 0.1732 0.0000 (  7707 PWs)   bands (ev):

    -4.9591  -4.3063  -2.8091  -2.7979  -2.7433  -2.7431  -2.6935  -2.6051
    -2.5858  -2.5272  -2.4811  -0.9947   4.0990   8.0369   8.6100   9.3197
    10.3473  10.3661  14.2746  16.4216  19.1182  19.1560  21.3835  21.4309
    21.5052  23.0789  24.2155  24.8483  28.8743  29.0715  30.0186  31.1815
    32.3594  32.8552  34.7280  35.6756

          k = 0.1000 0.1732 0.1024 (  7703 PWs)   bands (ev):

    -4.8921  -4.3228  -2.8068  -2.7944  -2.7490  -2.7425  -2.6889  -2.5795
    -2.5783  -2.5342  -2.4849  -1.2499   4.5253   8.1581   8.4323   9.2329
    10.2308  10.2480  14.5383  16.4599  18.8481  19.1607  20.9184  21.3105
    21.5849  22.8035  24.9121  25.1759  28.8709  29.2701  30.4751  31.0330
    32.0538  32.9216  34.0608  36.0396

          k = 0.1000 0.1732 0.2047 (  7715 PWs)   bands (ev):

    -4.7205  -4.3870  -2.7975  -2.7838  -2.7636  -2.7491  -2.6585  -2.5747
    -2.5444  -2.5155  -2.4606  -1.7700   5.5327   7.7383   8.5162   9.3161
     9.7805   9.9882  15.2119  16.4411  18.3672  18.9549  20.4362  21.2114
    21.6342  22.3184  25.9980  26.1348  28.3132  29.7674  30.4571  31.2639
    31.9500  32.4270  34.2382  36.0563

          k = 0.1000 0.1732-0.3071 (  7720 PWs)   bands (ev):

    -4.5250  -4.5250  -2.7827  -2.7827  -2.7657  -2.7657  -2.6088  -2.6088
    -2.5279  -2.5279  -2.2188  -2.2188   6.6992   6.6992   9.0691   9.0691
     9.6701   9.6701  15.9890  15.9890  18.4233  18.4233  20.7768  20.7768
    21.8785  21.8785  26.8031  26.8031  28.3712  28.3712  31.1025  31.1025
    32.2988  32.2988  34.6646  34.6646

          k = 0.1000 0.2887 0.0000 (  7725 PWs)   bands (ev):

    -4.6994  -4.2601  -2.7801  -2.7759  -2.7039  -2.6811  -2.6220  -2.5721
    -2.5634  -2.5082  -2.4209  -0.7737   4.5722   6.7490   7.5046   8.5614
     9.9393   9.9469  15.3037  17.1480  18.0708  18.8473  20.7073  21.4080
    21.7556  23.7571  24.0663  25.3430  28.5249  30.3986  31.0589  32.5456
    34.1567  34.1785  35.0309  36.0925

          k = 0.1000 0.2887 0.1024 (  7722 PWs)   bands (ev):

    -4.6486  -4.2681  -2.7781  -2.7722  -2.7152  -2.6893  -2.6135  -2.5854
    -2.5521  -2.5061  -2.3795  -0.9916   4.8384   6.9301   7.3643   8.5589
     9.7971   9.9501  15.3212  17.1985  17.9713  18.8144  20.5551  21.2596
    21.8129  23.3825  24.4140  25.7232  28.5451  30.3671  31.4931  32.1286
    33.1004  34.2537  35.5814  36.4962

          k = 0.1000 0.2887 0.2047 (  7729 PWs)   bands (ev):

    -4.5233  -4.3038  -2.7745  -2.7528  -2.7347  -2.7050  -2.6151  -2.6033
    -2.5369  -2.5100  -2.2233  -1.4641   5.4272   6.7086   7.7483   8.7224
     9.4391   9.6332  15.5878  16.9613  17.9467  18.7245  20.2793  20.9893
    22.0015  22.8948  25.1066  26.3986  28.2026  29.9077  31.4065  32.0654
    33.6373  34.3779  35.1223  36.7357

          k = 0.1000 0.2887-0.3071 (  7720 PWs)   bands (ev):

    -4.3900  -4.3900  -2.7579  -2.7578  -2.7263  -2.7263  -2.6160  -2.6160
    -2.5218  -2.5218  -1.9171  -1.9171   6.0811   6.0811   8.6553   8.6553
     9.1421   9.1421  16.2312  16.2312  18.3487  18.3487  20.5052  20.5053
    22.4093  22.4093  26.1152  26.1152  28.5445  28.5445  32.0880  32.0880
    34.0310  34.0310  35.7576  35.7577

          k = 0.1000 0.4041 0.0000 (  7731 PWs)   bands (ev):

    -4.4789  -4.2295  -2.7809  -2.7558  -2.6625  -2.6308  -2.6196  -2.5826
    -2.5346  -2.4821  -1.9801  -0.5849   4.8226   5.8724   6.5877   7.8828
     9.2995   9.5730  16.0981  16.9367  17.2191  19.0556  20.5708  21.4215
    22.0322  24.1114  24.4772  26.5803  28.5636  29.6149  32.0806  34.1881
    34.5009  35.0390  35.8499  36.5378

          k = 0.1000 0.4041 0.1024 (  7732 PWs)   bands (ev):

    -4.4459  -4.2308  -2.7739  -2.7573  -2.6840  -2.6334  -2.6178  -2.5773
    -2.5275  -2.4899  -1.9280  -0.7346   4.7282   5.9803   6.7325   7.9571
     9.3559   9.5137  15.7328  16.9235  17.6004  18.9498  20.5070  21.1751
    22.0919  23.7846  24.5861  26.8048  28.6802  29.9754  31.8231  33.1673
    34.5624  35.1941  36.3153  37.0797

          k = 0.1000 0.4041 0.2047 (  7729 PWs)   bands (ev):

    -4.3672  -4.2442  -2.7734  -2.7379  -2.7170  -2.6549  -2.6080  -2.5757
    -2.5185  -2.5011  -1.7623  -1.0895   4.7751   5.5710   7.6052   8.2591
     8.9924   9.4851  15.4940  16.6018  18.0431  18.9243  20.3797  20.6524
    22.2611  23.3822  24.9515  26.6900  28.8691  30.3397  31.6686  32.4964
    34.8918  35.5555  36.2255  36.9684

          k = 0.1000 0.4041-0.3071 (  7724 PWs)   bands (ev):

    -4.2889  -4.2889  -2.7601  -2.7601  -2.6886  -2.6886  -2.5921  -2.5921
    -2.5090  -2.5090  -1.4718  -1.4718   5.0861   5.0861   8.4150   8.4150
     8.9322   8.9322  15.8946  15.8946  18.6108  18.6108  20.3389  20.3389
    22.7967  22.7967  25.8022  25.8022  29.5679  29.5679  32.2040  32.2040
    35.4110  35.4110  36.5254  36.5254

          k = 0.1000 0.5196 0.0000 (  7731 PWs)   bands (ev):

    -4.3695  -4.2182  -2.7887  -2.7500  -2.6476  -2.6233  -2.5884  -2.5766
    -2.5121  -2.4746  -1.3944  -0.6451   4.4443   5.5672   6.5093   7.5814
     8.6124   9.3584  16.4019  16.6551  16.7939  19.2182  20.7171  21.0791
    23.0381  24.1654  24.4703  27.8247  28.5197  29.6120  31.8513  33.9515
    34.6962  35.4146  36.0687  36.6112

          k = 0.1000 0.5196 0.1024 (  7739 PWs)   bands (ev):

    -4.3467  -4.2160  -2.7819  -2.7509  -2.6692  -2.6289  -2.5997  -2.5496
    -2.5101  -2.4828  -1.3594  -0.7071   4.2852   5.2936   6.9066   7.7358
     8.8672   9.2224  15.7491  16.5228  17.7276  18.8687  20.6807  20.9328
    22.7057  24.0722  24.5575  27.9114  28.9171  30.0291  31.4712  33.4515
    34.6551  35.3275  36.2507  36.7558

          k = 0.1000 0.5196 0.2047 (  7728 PWs)   bands (ev):

    -4.2933  -4.2183  -2.7813  -2.7312  -2.7193  -2.6272  -2.5956  -2.5410
    -2.5065  -2.4950  -1.2522  -0.8722   4.1588   4.7567   7.6031   8.2817
     8.7175   9.2924  15.2941  16.2869  18.2938  18.7713  20.2519  20.6341
    22.5680  23.7313  25.0289  27.1327  29.7151  31.0164  31.6766  32.3541
    34.6915  35.1640  36.3480  36.5951

          k = 0.1000 0.5196-0.3071 (  7730 PWs)   bands (ev):

    -4.2428  -4.2428  -2.7691  -2.7691  -2.6724  -2.6724  -2.5618  -2.5618
    -2.5014  -2.5014  -1.0777  -1.0777   4.3232   4.3232   8.1810   8.1810
     9.0260   9.0260  15.5965  15.5965  18.6611  18.6611  20.2516  20.2516
    23.0645  23.0645  25.9785  25.9785  30.6268  30.6268  32.0663  32.0663
    35.0542  35.0543  36.4074  36.4074

          k = 0.2000 0.3464 0.0000 (  7721 PWs)   bands (ev):

    -4.4973  -4.2325  -2.7927  -2.7326  -2.6739  -2.6455  -2.6282  -2.5716
    -2.5409  -2.4993  -2.0499  -0.5790   4.9303   6.3686   6.3736   7.7057
     9.2632   9.4460  16.3565  17.2918  18.1728  18.3163  20.4629  21.0727
    21.5557  24.5079  24.6534  25.5503  30.2779  30.4622  30.6093  33.1275
    33.7860  35.1812  35.3529  36.8902

          k = 0.2000 0.3464 0.1024 (  7725 PWs)   bands (ev):

    -4.4624  -4.2341  -2.7808  -2.7413  -2.6816  -2.6669  -2.5997  -2.5909
    -2.5266  -2.5097  -1.9968  -0.7428   4.9180   6.2368   6.8116   7.6545
     9.0971   9.5812  16.2033  17.2286  18.2933  18.4034  20.3350  20.6846
    21.7857  24.1339  24.8291  25.8406  29.4583  30.7787  31.7585  31.7619
    34.0479  35.4175  36.1407  36.8629

          k = 0.2000 0.3464 0.2047 (  7726 PWs)   bands (ev):

    -4.3792  -4.2488  -2.7504  -2.7500  -2.7030  -2.6836  -2.6128  -2.5944
    -2.5167  -2.5128  -1.8270  -1.1243   5.0462   5.8439   7.7822   7.7827
     8.6942   9.5353  16.0970  16.9491  18.4844  18.5584  20.0941  20.2443
    22.1168  23.4404  25.3023  26.2026  29.0229  29.4826  32.5911  32.6616
    34.3609  35.7076  36.2310  36.5357

          k = 0.2000 0.3464-0.3071 (  7736 PWs)   bands (ev):

    -4.2963  -4.2963  -2.7402  -2.7402  -2.7042  -2.7042  -2.6141  -2.6141
    -2.5103  -2.5103  -1.5265  -1.5265   5.3832   5.3832   8.1491   8.1491
     8.8921   8.8921  16.4336  16.4336  18.5965  18.5965  20.0312  20.0312
    22.7042  22.7042  25.9321  25.9321  28.9192  28.9192  32.8698  32.8698
    35.4010  35.4010  36.4146  36.4146

          k = 0.2000 0.4619 0.0000 (  7724 PWs)   bands (ev):

    -4.3599  -4.2218  -2.8089  -2.7070  -2.6346  -2.6270  -2.6127  -2.5833
    -2.5275  -2.4962  -1.4924  -0.5157   4.8718   5.6524   6.5959   6.9087
     8.7213   8.8000  16.5265  17.2554  17.9686  18.9173  20.3082  21.0905
    22.0357  24.3197  24.5850  26.8870  30.0490  30.3918  31.4364  32.6335
    33.9819  35.4058  35.7341  36.8409

          k = 0.2000 0.4619 0.1024 (  7736 PWs)   bands (ev):

    -4.3375  -4.2186  -2.7939  -2.7205  -2.6612  -2.6295  -2.6021  -2.5774
    -2.5188  -2.5079  -1.4474  -0.6017   4.6957   5.4937   6.7427   7.2438
     8.5365   9.0563  16.4333  17.2362  18.0545  18.8582  20.2264  20.4979
    22.3506  24.2740  24.7742  26.7332  29.5600  30.4989  31.6263  32.6595
    34.2713  35.3283  36.5505  36.8480

          k = 0.2000 0.4619 0.2047 (  7732 PWs)   bands (ev):

    -4.2858  -4.2180  -2.7569  -2.7359  -2.6990  -2.6475  -2.5978  -2.5755
    -2.5209  -2.5064  -1.3106  -0.8228   4.5610   5.0825   6.9977   7.9826
     8.2592   9.3596  16.2144  16.9873  18.3268  18.9599  19.6672  20.0964
    22.6771  23.8787  25.2539  26.3825  29.2058  29.9830  32.5349  32.7745
    34.8647  35.1783  36.6867  37.1295

          k = 0.2000 0.4619-0.3071 (  7736 PWs)   bands (ev):

    -4.2385  -4.2385  -2.7393  -2.7393  -2.6868  -2.6868  -2.5919  -2.5919
    -2.5093  -2.5093  -1.0883  -1.0883   4.7064   4.7064   7.4662   7.4662
     9.0734   9.0734  16.4146  16.4146  18.7694  18.7694  19.7245  19.7245
    23.1908  23.1908  25.8270  25.8270  29.5211  29.5211  32.7428  32.7428
    35.2577  35.2577  37.0819  37.0819

          k = 0.2000 0.5774 0.0000 (  7729 PWs)   bands (ev):

    -4.3115  -4.2230  -2.8156  -2.7028  -2.6213  -2.6205  -2.5937  -2.5836
    -2.5320  -2.4942  -1.0837  -0.6471   4.6848   5.5531   6.3049   7.1909
     8.2776   8.5735  16.2266  17.6264  17.8381  19.0828  20.4165  20.8494
    23.3219  23.4984  24.3072  28.6237  28.6911  30.4342  31.1448  32.2553
    35.2137  36.0059  36.1260  36.9903

          k = 0.2000 0.5774 0.1024 (  7738 PWs)   bands (ev):

    -4.2940  -4.2175  -2.7996  -2.7161  -2.6562  -2.6093  -2.6068  -2.5528
    -2.5305  -2.5069  -1.0592  -0.6771   4.5257   5.2634   6.3863   7.6370
     8.3012   8.6831  16.2090  17.7674  17.8242  18.7360  20.2164  20.5699
    23.2194  23.7741  24.6354  27.9755  28.5101  30.7401  31.1848  32.5878
    35.0991  35.4898  36.9686  37.0017

          k = 0.2000 0.5774 0.2047 (  7744 PWs)   bands (ev):

    -4.2542  -4.2103  -2.7607  -2.7281  -2.7072  -2.6339  -2.5846  -2.5495
    -2.5255  -2.5186  -0.9872  -0.7619   4.3373   4.7564   6.7031   7.8090
     8.5013   9.1797  16.0990  17.2355  18.3388  18.5322  19.7697  20.1213
    23.2244  23.9077  25.2473  26.7210  28.7666  30.2784  32.2443  32.5799
    35.2542  35.2828  37.0833  37.6444

          k = 0.2000 0.5774-0.3071 (  7718 PWs)   bands (ev):

    -4.2203  -4.2203  -2.7403  -2.7403  -2.6851  -2.6851  -2.5672  -2.5672
    -2.5191  -2.5190  -0.8782  -0.8782   4.4035   4.4036   7.2148   7.2148
     9.1651   9.1651  16.3768  16.3768  18.7541  18.7541  19.6375  19.6375
    23.5446  23.5446  25.8693  25.8693  29.5097  29.5097  32.5623  32.5623
    35.4381  35.4381  37.4608  37.4608

          k = 0.3000 0.5196 0.0000 (  7739 PWs)   bands (ev):

    -4.2812  -4.2329  -2.8277  -2.6530  -2.6213  -2.6194  -2.6043  -2.5915
    -2.5466  -2.5058  -0.9894  -0.6089   5.1792   5.3047   5.9028   7.3273
     8.1236   8.1514  16.0098  18.1715  18.6787  18.9450  20.3981  20.7431
    22.6917  23.8580  23.8979  28.1379  29.7611  30.1657  31.4300  32.5500
    33.9401  35.8644  36.2721  36.8640

          k = 0.3000 0.5196 0.1024 (  7718 PWs)   bands (ev):

    -4.2666  -4.2251  -2.8104  -2.6794  -2.6526  -2.6216  -2.5813  -2.5778
    -2.5402  -2.5222  -0.9659  -0.6334   4.9331   5.1791   5.8804   7.7622
     7.9190   8.5167  16.3194  17.8450  18.5337  18.8730  20.1510  20.2301
    23.1229  24.1512  24.1929  27.5808  29.0495  29.5895  32.4303  32.7529
    34.5292  35.5864  37.1430  37.2324

          k = 0.3000 0.5196 0.2047 (  7729 PWs)   bands (ev):

    -4.2349  -4.2112  -2.7629  -2.7102  -2.6931  -2.6404  -2.5747  -2.5673
    -2.5407  -2.5290  -0.8987  -0.7033   4.6191   4.8144   6.1614   7.3330
     8.6453   9.1021  16.9277  17.1940  18.0689  18.6859  19.6843  19.9482
    23.5547  24.5089  24.7936  26.2412  28.6358  29.2852  32.9453  32.9473
    35.4642  35.5393  37.5054  37.5732

          k = 0.3000 0.5196-0.3071 (  7740 PWs)   bands (ev):

    -4.2114  -4.2114  -2.7194  -2.7194  -2.6935  -2.6935  -2.5754  -2.5754
    -2.5292  -2.5292  -0.8019  -0.8018   4.5703   4.5703   6.6973   6.6973
     9.2151   9.2151  16.9507  16.9507  18.2793  18.2794  19.7154  19.7154
    24.0920  24.0920  25.3874  25.3874  28.9222  28.9222  32.9852  32.9853
    35.6763  35.6763  37.5312  37.5312

     the Fermi energy is    10.8354 ev
     (compare with:    10.8390 eV, computed in scf)

     Writing all to output data dir out/mp-804.save/
 
     init_run     :      0.15s CPU      0.16s WALL (       1 calls)
     electrons    :     19.95s CPU     20.34s WALL (       1 calls)

     Called by init_run:
     wfcinit      :      0.00s CPU      0.00s WALL (       1 calls)
     potinit      :      0.04s CPU      0.04s WALL (       1 calls)
     hinit0       :      0.04s CPU      0.05s WALL (       1 calls)

     Called by electrons:
     c_bands      :     19.95s CPU     20.33s WALL (       1 calls)
     v_of_rho     :      0.02s CPU      0.02s WALL (       1 calls)

     Called by c_bands:
     init_us_2    :      0.02s CPU      0.02s WALL (      56 calls)
     init_us_2:cp :      0.02s CPU      0.02s WALL (      56 calls)
     cegterg      :     18.62s CPU     18.96s WALL (      70 calls)

     Called by *egterg:
     cdiaghg      :      2.13s CPU      2.15s WALL (    1171 calls)
     h_psi        :     14.20s CPU     14.52s WALL (    1241 calls)
     g_psi        :      0.16s CPU      0.16s WALL (    1115 calls)

     Called by h_psi:
     h_psi:calbec :      0.53s CPU      0.54s WALL (    1241 calls)
     vloc_psi     :     13.14s CPU     13.44s WALL (    1241 calls)
     add_vuspsi   :      0.46s CPU      0.46s WALL (    1241 calls)

     General routines
     calbec       :      0.53s CPU      0.54s WALL (    1241 calls)
     fft          :      0.01s CPU      0.01s WALL (      10 calls)
     fftw         :     11.78s CPU     12.05s WALL (   62114 calls)
 
     Parallel routines
 
     PWSCF        :     20.49s CPU     21.18s WALL

 
   This run was terminated on:  14:29:27   3Jan2024            

=------------------------------------------------------------------------------=
   JOB DONE.
=------------------------------------------------------------------------------=
