
     Program PWSCF v.7.1 starts on  3Jan2024 at 14:29:56 

     This program is part of the open-source Quantum ESPRESSO suite
     for quantum simulation of materials; please cite
         "P. Giannozzi et al., J. Phys.:Condens. Matter 21 395502 (2009);
         "P. Giannozzi et al., J. Phys.:Condens. Matter 29 465901 (2017);
         "P. Giannozzi et al., J. Chem. Phys. 152 154105 (2020);
          URL http://www.quantum-espresso.org", 
     in publications or presentations arising from this work. More details at
     http://www.quantum-espresso.org/quote

     Parallel version (MPI), running on     8 processors

     MPI processes distributed on     1 nodes
     247168 MiB available memory on the printing compute node when the environment starts
 
     Reading input from pw_mp-149_emass_k3000_E130.in
Warning: card &IONS ignored
Warning: card / ignored
Warning: card &CELL ignored
Warning: card / ignored

     Current dimensions of program PWSCF are:
     Max number of different atomic species (ntypx) = 10
     Max number of k-points (npk) =  40000
     Max angular momentum in pseudopotentials (lmaxx) =  4

     Atomic positions and unit cell read from directory:
     out/mp-149.save/
     Atomic positions from file used, from input discarded
 
 
     R & G space division:  proc/nbgrp/npool/nimage =       8
     Subspace diagonalization in iterative solution of the eigenvalue problem:
     a serial algorithm will be used

 
     Parallelization info
     --------------------
     sticks:   dense  smooth     PW     G-vecs:    dense   smooth      PW
     Min         236     236     63                 6787     6787     972
     Max         237     237     64                 6792     6792     976
     Sum        1891    1891    511                54313    54313    7799
 
     Using Slab Decomposition
 


     bravais-lattice index     =            2
     lattice parameter (alat)  =      10.2871  a.u.
     unit-cell volume          =     272.1571 (a.u.)^3
     number of atoms/cell      =            2
     number of atomic types    =            1
     number of electrons       =         8.00
     number of Kohn-Sham states=            8
     kinetic-energy cutoff     =     130.0000  Ry
     charge density cutoff     =     520.0000  Ry
     Exchange-correlation= PBE
                           (   1   4   3   4   0   0   0)

     celldm(1)=  10.287106  celldm(2)=   0.000000  celldm(3)=   0.000000
     celldm(4)=   0.000000  celldm(5)=   0.000000  celldm(6)=   0.000000

     crystal axes: (cart. coord. in units of alat)
               a(1) = (  -0.500000   0.000000   0.500000 )  
               a(2) = (   0.000000   0.500000   0.500000 )  
               a(3) = (  -0.500000   0.500000   0.000000 )  

     reciprocal axes: (cart. coord. in units 2 pi/alat)
               b(1) = ( -1.000000 -1.000000  1.000000 )  
               b(2) = (  1.000000  1.000000  1.000000 )  
               b(3) = ( -1.000000  1.000000 -1.000000 )  


     PseudoPot. # 1 for Si read from file:
     /usr/scratch4/magr4985/MG/devEb/pseudo/SG15/Si.upf
     MD5 check sum: 748503c2319b9684642f75d0fea367ab
     Pseudo is Norm-conserving, Zval =  4.0
     Generated using ONCVPSP code by D. R. Hamann
     Using radial grid of  602 points,  4 beta functions with: 
                l(1) =   0
                l(2) =   0
                l(3) =   1
                l(4) =   1

     atomic species   valence    mass     pseudopotential
        Si             4.00    28.08550     Si( 1.00)

     48 Sym. Ops., with inversion, found (24 have fractional translation)



   Cartesian axes

     site n.     atom                  positions (alat units)
         1           Si  tau(   1) = (  -0.2500000   0.2500001   0.2500000  )
         2           Si  tau(   2) = (  -0.5000000   0.5000000   0.5000000  )

     number of k points=     7  Gaussian smearing, width (Ry)=  0.0005
                       cart. coord. in units 2pi/alat
        k(    1) = (   0.0000000   0.8333333   0.0000000), wk =   0.2857143
        k(    2) = (   0.0100000   0.8333333   0.0000000), wk =   0.2857143
        k(    3) = (  -0.0100000   0.8333333   0.0000000), wk =   0.2857143
        k(    4) = (   0.0000000   0.8433333   0.0000000), wk =   0.2857143
        k(    5) = (   0.0000000   0.8233333   0.0000000), wk =   0.2857143
        k(    6) = (   0.0000000   0.8333333   0.0100000), wk =   0.2857143
        k(    7) = (   0.0000000   0.8333333  -0.0100000), wk =   0.2857143

     Dense  grid:    54313 G-vectors     FFT dimensions: (  60,  60,  60)

     Estimated max dynamical RAM per process >       4.59 MB

     Estimated total dynamical RAM >      36.72 MB

     The potential is recalculated from file :
     out/mp-149.save/charge-density

     Starting wfcs are random

     Band Structure Calculation
     ParO style diagonalization

     ethr =  5.00E-06,  avg # of iterations = 18.8

     total cpu time spent up to now is        0.9 secs

     End of band structure calculation

          k = 0.0000 0.8333 0.0000 (  6834 PWs)   bands (ev):

    -2.8478  -0.3000   3.4337   3.4337   6.7162   7.3177  14.9025  14.9025

          k = 0.0100 0.8333 0.0000 (  6834 PWs)   bands (ev):

    -2.8476  -0.3001   3.4320   3.4329   6.7189   7.3199  14.8947  14.9025

          k =-0.0100 0.8333 0.0000 (  6834 PWs)   bands (ev):

    -2.8476  -0.3001   3.4320   3.4329   6.7189   7.3199  14.8947  14.9025

          k = 0.0000 0.8433 0.0000 (  6834 PWs)   bands (ev):

    -2.7805  -0.3839   3.4211   3.4211   6.7158   7.2802  14.9961  14.9961

          k = 0.0000 0.8233 0.0000 (  6838 PWs)   bands (ev):

    -2.9146  -0.2157   3.4471   3.4471   6.7176   7.3565  14.8088  14.8088

          k = 0.0000 0.8333 0.0100 (  6834 PWs)   bands (ev):

    -2.8476  -0.3001   3.4320   3.4329   6.7189   7.3199  14.8947  14.9025

          k = 0.0000 0.8333-0.0100 (  6834 PWs)   bands (ev):

    -2.8476  -0.3001   3.4320   3.4329   6.7189   7.3199  14.8947  14.9025

     the Fermi energy is     6.0408 ev
     (compare with:     7.5544 eV, computed in scf)

     Writing all to output data dir out/mp-149.save/
 
     init_run     :      0.09s CPU      0.10s WALL (       1 calls)
     electrons    :      0.68s CPU      0.71s WALL (       1 calls)

     Called by init_run:
     wfcinit      :      0.00s CPU      0.00s WALL (       1 calls)
     potinit      :      0.03s CPU      0.03s WALL (       1 calls)
     hinit0       :      0.01s CPU      0.01s WALL (       1 calls)

     Called by electrons:
     c_bands      :      0.68s CPU      0.71s WALL (       1 calls)
     v_of_rho     :      0.02s CPU      0.03s WALL (       1 calls)

     Called by c_bands:
     init_us_2    :      0.00s CPU      0.00s WALL (       7 calls)
     init_us_2:cp :      0.00s CPU      0.00s WALL (       7 calls)
     paro_k       :      0.64s CPU      0.67s WALL (       7 calls)

     Called by paro_*:
     h_psi        :      0.58s CPU      0.61s WALL (     358 calls)
     g_psi        :      0.01s CPU      0.01s WALL (    1256 calls)

     Called by h_psi:
     h_psi:calbec :      0.02s CPU      0.02s WALL (     358 calls)
     vloc_psi     :      0.55s CPU      0.57s WALL (     358 calls)
     add_vuspsi   :      0.01s CPU      0.01s WALL (     358 calls)

     General routines
     calbec       :      0.02s CPU      0.02s WALL (     358 calls)
     fft          :      0.01s CPU      0.02s WALL (      10 calls)
     fftw         :      0.48s CPU      0.50s WALL (    2162 calls)
 
     Parallel routines
 
     PWSCF        :      0.87s CPU      0.93s WALL

 
   This run was terminated on:  14:29:57   3Jan2024            

=------------------------------------------------------------------------------=
   JOB DONE.
=------------------------------------------------------------------------------=
