
     Program PWSCF v.7.1 starts on  3Jan2024 at 14:29:11 

     This program is part of the open-source Quantum ESPRESSO suite
     for quantum simulation of materials; please cite
         "P. Giannozzi et al., J. Phys.:Condens. Matter 21 395502 (2009);
         "P. Giannozzi et al., J. Phys.:Condens. Matter 29 465901 (2017);
         "P. Giannozzi et al., J. Chem. Phys. 152 154105 (2020);
          URL http://www.quantum-espresso.org", 
     in publications or presentations arising from this work. More details at
     http://www.quantum-espresso.org/quote

     Parallel version (MPI), running on     8 processors

     MPI processes distributed on     1 nodes
     247327 MiB available memory on the printing compute node when the environment starts
 
     Reading input from pw_mp-149_nscf_k3000_E130.in
Warning: card &IONS ignored
Warning: card / ignored
Warning: card &CELL ignored
Warning: card / ignored

     Current dimensions of program PWSCF are:
     Max number of different atomic species (ntypx) = 10
     Max number of k-points (npk) =  40000
     Max angular momentum in pseudopotentials (lmaxx) =  4

     Atomic positions and unit cell read from directory:
     out/mp-149.save/
     Atomic positions from file used, from input discarded
 
 
     R & G space division:  proc/nbgrp/npool/nimage =       8
     Subspace diagonalization in iterative solution of the eigenvalue problem:
     a serial algorithm will be used

 
     Parallelization info
     --------------------
     sticks:   dense  smooth     PW     G-vecs:    dense   smooth      PW
     Min         236     236     68                 6787     6787    1048
     Max         237     237     69                 6792     6792    1051
     Sum        1891    1891    547                54313    54313    8393
 
     Using Slab Decomposition
 


     bravais-lattice index     =            2
     lattice parameter (alat)  =      10.2871  a.u.
     unit-cell volume          =     272.1571 (a.u.)^3
     number of atoms/cell      =            2
     number of atomic types    =            1
     number of electrons       =         8.00
     number of Kohn-Sham states=            8
     kinetic-energy cutoff     =     130.0000  Ry
     charge density cutoff     =     520.0000  Ry
     Exchange-correlation= PBE
                           (   1   4   3   4   0   0   0)

     celldm(1)=  10.287106  celldm(2)=   0.000000  celldm(3)=   0.000000
     celldm(4)=   0.000000  celldm(5)=   0.000000  celldm(6)=   0.000000

     crystal axes: (cart. coord. in units of alat)
               a(1) = (  -0.500000   0.000000   0.500000 )  
               a(2) = (   0.000000   0.500000   0.500000 )  
               a(3) = (  -0.500000   0.500000   0.000000 )  

     reciprocal axes: (cart. coord. in units 2 pi/alat)
               b(1) = ( -1.000000 -1.000000  1.000000 )  
               b(2) = (  1.000000  1.000000  1.000000 )  
               b(3) = ( -1.000000  1.000000 -1.000000 )  


     PseudoPot. # 1 for Si read from file:
     /usr/scratch4/magr4985/MG/devEb/pseudo/SG15/Si.upf
     MD5 check sum: 748503c2319b9684642f75d0fea367ab
     Pseudo is Norm-conserving, Zval =  4.0
     Generated using ONCVPSP code by D. R. Hamann
     Using radial grid of  602 points,  4 beta functions with: 
                l(1) =   0
                l(2) =   0
                l(3) =   1
                l(4) =   1

     atomic species   valence    mass     pseudopotential
        Si             4.00    28.08550     Si( 1.00)

     48 Sym. Ops., with inversion, found (24 have fractional translation)



   Cartesian axes

     site n.     atom                  positions (alat units)
         1           Si  tau(   1) = (  -0.2500000   0.2500001   0.2500000  )
         2           Si  tau(   2) = (  -0.5000000   0.5000000   0.5000000  )

     number of k points=   413  Gaussian smearing, width (Ry)=  0.0005

     Number of k-points >= 100: set verbosity='high' to print them.

     Dense  grid:    54313 G-vectors     FFT dimensions: (  60,  60,  60)

     Estimated max dynamical RAM per process >       4.08 MB

     Estimated total dynamical RAM >      32.66 MB

     The potential is recalculated from file :
     out/mp-149.save/charge-density

     Starting wfcs are random

     Band Structure Calculation
     Davidson diagonalization with overlap

     ethr =  5.00E-06,  avg # of iterations = 20.8

     total cpu time spent up to now is       34.8 secs

     End of band structure calculation

     Number of k-points >= 100: set verbosity='high' to print the bands.

     the Fermi energy is     6.5894 ev
     (compare with:     6.5894 eV, computed in scf)

     Writing all to output data dir out/mp-149.save/
 
     init_run     :      0.12s CPU      0.39s WALL (       1 calls)
     electrons    :     33.18s CPU     34.28s WALL (       1 calls)

     Called by init_run:
     wfcinit      :      0.00s CPU      0.00s WALL (       1 calls)
     potinit      :      0.02s CPU      0.29s WALL (       1 calls)
     hinit0       :      0.01s CPU      0.01s WALL (       1 calls)

     Called by electrons:
     c_bands      :     33.18s CPU     34.28s WALL (       1 calls)
     v_of_rho     :      0.02s CPU      0.02s WALL (       1 calls)

     Called by c_bands:
     init_us_2    :      0.05s CPU      0.06s WALL (     413 calls)
     init_us_2:cp :      0.05s CPU      0.06s WALL (     413 calls)
     cegterg      :     30.94s CPU     31.70s WALL (     597 calls)

     Called by *egterg:
     cdiaghg      :      1.04s CPU      1.09s WALL (    9022 calls)
     h_psi        :     29.28s CPU     30.01s WALL (    9619 calls)
     g_psi        :      0.25s CPU      0.25s WALL (    8609 calls)

     Called by h_psi:
     h_psi:calbec :      0.58s CPU      0.59s WALL (    9619 calls)
     vloc_psi     :     28.20s CPU     28.91s WALL (    9619 calls)
     add_vuspsi   :      0.36s CPU      0.38s WALL (    9619 calls)

     General routines
     calbec       :      0.55s CPU      0.57s WALL (    9619 calls)
     fft          :      0.01s CPU      0.01s WALL (      10 calls)
     fftw         :     24.73s CPU     25.35s WALL (  108540 calls)
     davcio       :      0.05s CPU      6.61s WALL (     826 calls)
 
     Parallel routines
 
     PWSCF        :     33.93s CPU     43.65s WALL

 
   This run was terminated on:  14:29:55   3Jan2024            

=------------------------------------------------------------------------------=
   JOB DONE.
=------------------------------------------------------------------------------=
