
     Program PWSCF v.7.1 starts on  3Jan2024 at 14:28:16 

     This program is part of the open-source Quantum ESPRESSO suite
     for quantum simulation of materials; please cite
         "P. Giannozzi et al., J. Phys.:Condens. Matter 21 395502 (2009);
         "P. Giannozzi et al., J. Phys.:Condens. Matter 29 465901 (2017);
         "P. Giannozzi et al., J. Chem. Phys. 152 154105 (2020);
          URL http://www.quantum-espresso.org", 
     in publications or presentations arising from this work. More details at
     http://www.quantum-espresso.org/quote

     Parallel version (MPI), running on     8 processors

     MPI processes distributed on     1 nodes
     122444 MiB available memory on the printing compute node when the environment starts
 
     Reading input from pw_mp-1138_nscf_k3000_E130.in
Warning: card &IONS ignored
Warning: card / ignored
Warning: card &CELL ignored
Warning: card / ignored

     Current dimensions of program PWSCF are:
     Max number of different atomic species (ntypx) = 10
     Max number of k-points (npk) =  40000
     Max angular momentum in pseudopotentials (lmaxx) =  4

     Atomic positions and unit cell read from directory:
     out/mp-1138.save/
     Atomic positions from file used, from input discarded
 
 
     R & G space division:  proc/nbgrp/npool/nimage =       8
     Subspace diagonalization in iterative solution of the eigenvalue problem:
     a serial algorithm will be used

 
     Parallelization info
     --------------------
     sticks:   dense  smooth     PW     G-vecs:    dense   smooth      PW
     Min         133     133     39                 2880     2880     464
     Max         134     134     40                 2882     2882     466
     Sum        1069    1069    313                23049    23049    3719
 
     Using Slab Decomposition
 


     bravais-lattice index     =            2
     lattice parameter (alat)  =       7.7166  a.u.
     unit-cell volume          =     114.8711 (a.u.)^3
     number of atoms/cell      =            2
     number of atomic types    =            2
     number of electrons       =        10.00
     number of Kohn-Sham states=           10
     kinetic-energy cutoff     =     130.0000  Ry
     charge density cutoff     =     520.0000  Ry
     Exchange-correlation= PBE
                           (   1   4   3   4   0   0   0)

     celldm(1)=   7.716558  celldm(2)=   0.000000  celldm(3)=   0.000000
     celldm(4)=   0.000000  celldm(5)=   0.000000  celldm(6)=   0.000000

     crystal axes: (cart. coord. in units of alat)
               a(1) = (  -0.500000   0.000000   0.500000 )  
               a(2) = (   0.000000   0.500000   0.500000 )  
               a(3) = (  -0.500000   0.500000   0.000000 )  

     reciprocal axes: (cart. coord. in units 2 pi/alat)
               b(1) = ( -1.000000 -1.000000  1.000000 )  
               b(2) = (  1.000000  1.000000  1.000000 )  
               b(3) = ( -1.000000  1.000000 -1.000000 )  


     PseudoPot. # 1 for F  read from file:
     /usr/scratch4/magr4985/MG/devEb/pseudo/SG15/F.upf
     MD5 check sum: 24dce47753c7134a0159dc9c6586d93a
     Pseudo is Norm-conserving, Zval =  7.0
     Generated using ONCVPSP code by D. R. Hamann
     Using radial grid of  602 points,  4 beta functions with: 
                l(1) =   0
                l(2) =   0
                l(3) =   1
                l(4) =   1

     PseudoPot. # 2 for Li read from file:
     /usr/scratch4/magr4985/MG/devEb/pseudo/SG15/Li.upf
     MD5 check sum: 3f44d372514b3afe6bea25451e727200
     Pseudo is Norm-conserving, Zval =  3.0
     Generated using ONCVPSP code by D. R. Hamann
     Using radial grid of  602 points,  4 beta functions with: 
                l(1) =   0
                l(2) =   0
                l(3) =   1
                l(4) =   1

     atomic species   valence    mass     pseudopotential
        F              7.00    18.99840     F ( 1.00)
        Li             3.00     6.94100     Li( 1.00)

     48 Sym. Ops., with inversion, found



   Cartesian axes

     site n.     atom                  positions (alat units)
         1           Li  tau(   1) = (   0.0000000   0.0000000   0.0000000  )
         2           F   tau(   2) = (  -0.5000000   0.5000000   0.5000000  )

     number of k points=    72  Gaussian smearing, width (Ry)=  0.0005
                       cart. coord. in units 2pi/alat
        k(    1) = (   0.0000000   0.0000000   0.0000000), wk =   0.0011574
        k(    2) = (  -0.0833333   0.0833333  -0.0833333), wk =   0.0092593
        k(    3) = (  -0.1666667   0.1666667  -0.1666667), wk =   0.0092593
        k(    4) = (  -0.2500000   0.2500000  -0.2500000), wk =   0.0092593
        k(    5) = (  -0.3333333   0.3333333  -0.3333333), wk =   0.0092593
        k(    6) = (  -0.4166667   0.4166667  -0.4166667), wk =   0.0092593
        k(    7) = (   0.5000000  -0.5000000   0.5000000), wk =   0.0046296
        k(    8) = (   0.0000000   0.1666667   0.0000000), wk =   0.0069444
        k(    9) = (  -0.0833333   0.2500000  -0.0833333), wk =   0.0277778
        k(   10) = (  -0.1666667   0.3333333  -0.1666667), wk =   0.0277778
        k(   11) = (  -0.2500000   0.4166667  -0.2500000), wk =   0.0277778
        k(   12) = (  -0.3333333   0.5000000  -0.3333333), wk =   0.0277778
        k(   13) = (   0.5833333  -0.4166667   0.5833333), wk =   0.0277778
        k(   14) = (   0.5000000  -0.3333333   0.5000000), wk =   0.0277778
        k(   15) = (   0.4166667  -0.2500000   0.4166667), wk =   0.0277778
        k(   16) = (   0.3333333  -0.1666667   0.3333333), wk =   0.0277778
        k(   17) = (   0.2500000  -0.0833333   0.2500000), wk =   0.0277778
        k(   18) = (   0.1666667  -0.0000000   0.1666667), wk =   0.0138889
        k(   19) = (   0.0000000   0.3333333   0.0000000), wk =   0.0069444
        k(   20) = (  -0.0833333   0.4166667  -0.0833333), wk =   0.0277778
        k(   21) = (  -0.1666667   0.5000000  -0.1666667), wk =   0.0277778
        k(   22) = (  -0.2500000   0.5833333  -0.2500000), wk =   0.0277778
        k(   23) = (   0.6666667  -0.3333333   0.6666667), wk =   0.0277778
        k(   24) = (   0.5833333  -0.2500000   0.5833333), wk =   0.0277778
        k(   25) = (   0.5000000  -0.1666667   0.5000000), wk =   0.0277778
        k(   26) = (   0.4166667  -0.0833333   0.4166667), wk =   0.0277778
        k(   27) = (   0.3333333   0.0000000   0.3333333), wk =   0.0138889
        k(   28) = (   0.0000000   0.5000000   0.0000000), wk =   0.0069444
        k(   29) = (  -0.0833333   0.5833333  -0.0833333), wk =   0.0277778
        k(   30) = (  -0.1666667   0.6666667  -0.1666667), wk =   0.0277778
        k(   31) = (   0.7500000  -0.2500000   0.7500000), wk =   0.0277778
        k(   32) = (   0.6666667  -0.1666667   0.6666667), wk =   0.0277778
        k(   33) = (   0.5833333  -0.0833333   0.5833333), wk =   0.0277778
        k(   34) = (   0.5000000   0.0000000   0.5000000), wk =   0.0138889
        k(   35) = (   0.0000000   0.6666667   0.0000000), wk =   0.0069444
        k(   36) = (  -0.0833333   0.7500000  -0.0833333), wk =   0.0277778
        k(   37) = (   0.8333333  -0.1666667   0.8333333), wk =   0.0277778
        k(   38) = (   0.7500000  -0.0833333   0.7500000), wk =   0.0277778
        k(   39) = (   0.6666667  -0.0000000   0.6666667), wk =   0.0138889
        k(   40) = (   0.0000000   0.8333333   0.0000000), wk =   0.0069444
        k(   41) = (   0.9166667  -0.0833333   0.9166667), wk =   0.0277778
        k(   42) = (   0.8333333   0.0000000   0.8333333), wk =   0.0138889
        k(   43) = (   0.0000000  -1.0000000   0.0000000), wk =   0.0034722
        k(   44) = (  -0.1666667   0.3333333   0.0000000), wk =   0.0277778
        k(   45) = (  -0.2500000   0.4166667  -0.0833333), wk =   0.0555556
        k(   46) = (  -0.3333333   0.5000000  -0.1666667), wk =   0.0555556
        k(   47) = (   0.5833333  -0.4166667   0.7500000), wk =   0.0555556
        k(   48) = (   0.5000000  -0.3333333   0.6666667), wk =   0.0277778
        k(   49) = (  -0.1666667   0.5000000   0.0000000), wk =   0.0277778
        k(   50) = (  -0.2500000   0.5833333  -0.0833333), wk =   0.0555556
        k(   51) = (   0.6666667  -0.3333333   0.8333333), wk =   0.0555556
        k(   52) = (   0.5833333  -0.2500000   0.7500000), wk =   0.0555556
        k(   53) = (   0.5000000  -0.1666667   0.6666667), wk =   0.0555556
        k(   54) = (   0.4166667  -0.0833333   0.5833333), wk =   0.0555556
        k(   55) = (   0.3333333   0.0000000   0.5000000), wk =   0.0277778
        k(   56) = (  -0.1666667   0.6666667  -0.0000000), wk =   0.0277778
        k(   57) = (   0.7500000  -0.2500000   0.9166667), wk =   0.0555556
        k(   58) = (   0.6666667  -0.1666667   0.8333333), wk =   0.0555556
        k(   59) = (   0.5833333  -0.0833333   0.7500000), wk =   0.0555556
        k(   60) = (   0.5000000   0.0000000   0.6666667), wk =   0.0277778
        k(   61) = (   0.8333333  -0.1666667   1.0000000), wk =   0.0277778
        k(   62) = (   0.7500000  -0.0833333   0.9166667), wk =   0.0555556
        k(   63) = (   0.6666667   0.0000000   0.8333333), wk =   0.0277778
        k(   64) = (  -0.1666667  -1.0000000  -0.0000000), wk =   0.0138889
        k(   65) = (   0.6666667  -0.3333333   1.0000000), wk =   0.0277778
        k(   66) = (   0.5833333  -0.2500000   0.9166667), wk =   0.0555556
        k(   67) = (   0.5000000  -0.1666667   0.8333333), wk =   0.0277778
        k(   68) = (   0.6666667  -0.1666667   1.0000000), wk =   0.0277778
        k(   69) = (   0.5833333  -0.0833333   0.9166667), wk =   0.0555556
        k(   70) = (   0.5000000   0.0000000   0.8333333), wk =   0.0277778
        k(   71) = (  -0.3333333  -1.0000000   0.0000000), wk =   0.0138889
        k(   72) = (  -0.5000000  -1.0000000   0.0000000), wk =   0.0069444

     Dense  grid:    23049 G-vectors     FFT dimensions: (  40,  40,  40)

     Estimated max dynamical RAM per process >       6.40 MB

     Estimated total dynamical RAM >      51.19 MB

     The potential is recalculated from file :
     out/mp-1138.save/charge-density

     Starting wfcs are random

     Band Structure Calculation
     Davidson diagonalization with overlap

     ethr =  5.00E-06,  avg # of iterations = 12.9

     total cpu time spent up to now is        2.1 secs

     End of band structure calculation

          k = 0.0000 0.0000 0.0000 (  2891 PWs)   bands (ev):

   -40.3266 -19.1628   0.6073   0.6073   0.6073   9.3838  24.0786  24.0786
    24.0786  24.6607

          k =-0.0833 0.0833-0.0833 (  2828 PWs)   bands (ev):

   -40.3234 -19.1376   0.4145   0.5923   0.5923   9.5906  22.0509  23.1705
    23.1705  25.4383

          k =-0.1667 0.1667-0.1667 (  2836 PWs)   bands (ev):

   -40.3144 -19.0675  -0.0774   0.5519   0.5519  10.1025  19.8602  21.9617
    21.9617  26.1523

          k =-0.2500 0.2500-0.2500 (  2872 PWs)   bands (ev):

   -40.3022 -18.9690  -0.6871   0.4981   0.4981  10.6745  18.2469  20.8545
    20.8545  27.1226

          k =-0.3333 0.3333-0.3333 (  2899 PWs)   bands (ev):

   -40.2900 -18.8672  -1.2459   0.4459   0.4459  11.0714  17.3136  19.9914
    19.9914  28.3345

          k =-0.4167 0.4167-0.4167 (  2869 PWs)   bands (ev):

   -40.2811 -18.7904  -1.6312   0.4086   0.4086  11.2229  16.9490  19.4489
    19.4489  29.6433

          k = 0.5000-0.5000 0.5000 (  2884 PWs)   bands (ev):

   -40.2779 -18.7617  -1.7680   0.3951   0.3951  11.2455  16.8774  19.2643
    19.2643  30.4360

          k = 0.0000 0.1667 0.0000 (  2830 PWs)   bands (ev):

   -40.3223 -19.1288   0.4327   0.5430   0.5430   9.6692  22.6366  22.6366
    23.0087  23.1403

          k =-0.0833 0.2500-0.0833 (  2847 PWs)   bands (ev):

   -40.3153 -19.0725   0.0562   0.4730   0.5187  10.1063  20.4689  21.8582
    22.0985  23.6890

          k =-0.1667 0.3333-0.1667 (  2865 PWs)   bands (ev):

   -40.3042 -18.9818  -0.5106   0.4019   0.4703  10.7010  18.6350  21.0033
    21.0076  24.8104

          k =-0.2500 0.4167-0.2500 (  2870 PWs)   bands (ev):

   -40.2921 -18.8790  -1.0775   0.3491   0.3917  11.2060  17.4479  20.1158
    20.2277  26.1766

          k =-0.3333 0.5000-0.3333 (  2877 PWs)   bands (ev):

   -40.2821 -18.7920  -1.5111   0.3049   0.3282  11.4660  16.8820  19.5376
    19.6459  27.6895

          k = 0.5833-0.4167 0.5833 (  2877 PWs)   bands (ev):

   -40.2770 -18.7464  -1.7239   0.2338   0.3437  11.5302  16.7114  19.2966
    19.3486  29.1800

          k = 0.5000-0.3333 0.5000 (  2878 PWs)   bands (ev):

   -40.2781 -18.7564  -1.6757   0.1976   0.3913  11.5144  16.7203  19.3763
    19.3867  29.7609

          k = 0.4167-0.2500 0.4167 (  2882 PWs)   bands (ev):

   -40.2851 -18.8189  -1.3765   0.2067   0.4587  11.3898  16.9631  19.7407
    19.7833  28.4605

          k = 0.3333-0.1667 0.3333 (  2873 PWs)   bands (ev):

   -40.2961 -18.9146  -0.8864   0.2611   0.5288  11.0350  17.6903  20.3323
    20.5344  27.2246

          k = 0.2500-0.0833 0.2500 (  2860 PWs)   bands (ev):

   -40.3082 -19.0162  -0.3149   0.3522   0.5833  10.4726  19.0370  21.0604
    21.5930  26.0526

          k = 0.1667-0.0000 0.1667 (  2840 PWs)   bands (ev):

   -40.3182 -19.0970   0.1746   0.4729   0.6069   9.9091  20.8170  21.8928
    22.7610  25.1584

          k = 0.0000 0.3333 0.0000 (  2862 PWs)   bands (ev):

   -40.3106 -19.0301  -0.0535   0.3688   0.3688  10.4776  20.9070  21.4622
    21.4998  21.4998

          k =-0.0833 0.4167-0.0833 (  2864 PWs)   bands (ev):

   -40.3016 -18.9500  -0.4850   0.2683   0.2822  11.0770  19.0894  20.6187
    20.9971  22.3159

          k =-0.1667 0.5000-0.1667 (  2874 PWs)   bands (ev):

   -40.2907 -18.8516  -0.9874   0.1629   0.1979  11.6974  17.6290  19.9002
    20.4331  23.5973

          k =-0.2500 0.5833-0.2500 (  2884 PWs)   bands (ev):

   -40.2809 -18.7610  -1.3980   0.0054   0.1754  12.1296  16.7656  19.4282
    19.9214  25.0692

          k = 0.6667-0.3333 0.6667 (  2879 PWs)   bands (ev):

   -40.2747 -18.7041  -1.6258  -0.1480   0.2060  12.2941  16.3817  19.2452
    19.5720  26.6173

          k = 0.5833-0.2500 0.5833 (  2882 PWs)   bands (ev):

   -40.2738 -18.6984  -1.6279  -0.2511   0.2818  12.2767  16.2547  19.3137
    19.4658  28.1106

          k = 0.5000-0.1667 0.5000 (  2877 PWs)   bands (ev):

   -40.2785 -18.7457  -1.4119  -0.2676   0.3836  12.1020  16.3602  19.5575
    19.6496  28.9830

          k = 0.4167-0.0833 0.4167 (  2880 PWs)   bands (ev):

   -40.2875 -18.8314  -1.0429  -0.1717   0.4850  11.6873  16.8831  19.9185
    20.1311  27.9249

          k = 0.3333 0.0000 0.3333 (  2848 PWs)   bands (ev):

   -40.2984 -18.9304  -0.6412   0.0524   0.5585  11.0756  17.8774  20.3788
    20.8501  26.6507

          k = 0.0000 0.5000 0.0000 (  2858 PWs)   bands (ev):

   -40.2950 -18.8809  -0.7407   0.1344   0.1344  11.6806  19.2059  20.0072
    20.8358  20.8358

          k =-0.0833 0.5833-0.0833 (  2873 PWs)   bands (ev):

   -40.2862 -18.7914  -1.1333  -0.0069   0.0353  12.3687  17.9656  19.4302
    20.5453  21.5006

          k =-0.1667 0.6667-0.1667 (  2880 PWs)   bands (ev):

   -40.2776 -18.7048  -1.4588  -0.2191  -0.0047  12.9732  16.8457  19.0477
    20.1894  22.7780

          k = 0.7500-0.2500 0.7500 (  2880 PWs)   bands (ev):

   -40.2715 -18.6455  -1.6130  -0.4762   0.0239  13.3165  16.1531  18.9413
    19.8620  24.2292

          k = 0.6667-0.1667 0.6667 (  2877 PWs)   bands (ev):

   -40.2695 -18.6312  -1.5584  -0.7085   0.1141  13.3377  15.7930  19.0854
    19.6521  25.7951

          k = 0.5833-0.0833 0.5833 (  2879 PWs)   bands (ev):

   -40.2721 -18.6664  -1.3354  -0.8215   0.2438  13.0423  15.7520  19.3482
    19.6214  27.4718

          k = 0.5000 0.0000 0.5000 (  2878 PWs)   bands (ev):

   -40.2787 -18.7403  -1.1490  -0.6271   0.3798  12.4359  16.1396  19.6265
    19.7919  29.1148

          k = 0.0000 0.6667 0.0000 (  2854 PWs)   bands (ev):

   -40.2798 -18.7134  -1.4557  -0.0958  -0.0958  13.0846  17.9774  18.9145
    20.5227  20.5227

          k =-0.0833 0.7500-0.0833 (  2881 PWs)   bands (ev):

   -40.2732 -18.6378  -1.7325  -0.2481  -0.1634  13.7621  17.1562  18.5173
    20.3697  21.1007

          k = 0.8333-0.1667 0.8333 (  2868 PWs)   bands (ev):

   -40.2683 -18.5858  -1.8333  -0.5019  -0.1519  14.2853  16.2390  18.4007
    20.1365  22.2990

          k = 0.7500-0.0833 0.7500 (  2878 PWs)   bands (ev):

   -40.2662 -18.5727  -1.7107  -0.8071  -0.0639  14.4939  15.4873  18.6324
    19.8944  23.7547

          k = 0.6667-0.0000 0.6667 (  2894 PWs)   bands (ev):

   -40.2677 -18.6026  -1.3902  -1.0700   0.0799  13.9923  15.3532  19.0214
    19.7083  25.4889

          k = 0.0000 0.8333 0.0000 (  2870 PWs)   bands (ev):

   -40.2690 -18.5776  -1.9969  -0.2616  -0.2616  14.4030  17.2372  18.0716
    20.4170  20.4170

          k = 0.9167-0.0833 0.9167 (  2879 PWs)   bands (ev):

   -40.2659 -18.5413  -2.0944  -0.3821  -0.2768  14.8726  16.7047  17.8401
    20.3289  20.9483

          k = 0.8333 0.0000 0.8333 (  2878 PWs)   bands (ev):

   -40.2649 -18.5395  -1.9795  -0.6020  -0.2055  15.1012  15.8021  18.0958
    20.1381  22.1389

          k = 0.0000-1.0000 0.0000 (  2874 PWs)   bands (ev):

   -40.2651 -18.5249  -2.1987  -0.3217  -0.3217  15.0562  16.9901  17.6365
    20.3977  20.3977

          k =-0.1667 0.3333 0.0000 (  2853 PWs)   bands (ev):

   -40.3073 -19.0047  -0.2769   0.2831   0.5002  10.6158  19.2667  20.9595
    21.4846  23.7129

          k =-0.2500 0.4167-0.0833 (  2871 PWs)   bands (ev):

   -40.2963 -18.9095  -0.7559   0.1105   0.4544  11.2384  17.8617  20.3050
    20.6494  24.7078

          k =-0.3333 0.5000-0.1667 (  2880 PWs)   bands (ev):

   -40.2854 -18.8112  -1.2262  -0.0059   0.3799  11.7439  16.9181  19.7564
    19.9861  26.0718

          k = 0.5833-0.4167 0.7500 (  2875 PWs)   bands (ev):

   -40.2774 -18.7371  -1.5592  -0.0702   0.3107  11.9977  16.4997  19.4121
    19.5499  27.5688

          k = 0.5000-0.3333 0.6667 (  2872 PWs)   bands (ev):

   -40.2745 -18.7095  -1.6788  -0.0900   0.2823  12.0575  16.4059  19.3336
    19.3614  28.6812

          k =-0.1667 0.5000 0.0000 (  2869 PWs)   bands (ev):

   -40.2927 -18.8649  -0.8426   0.0284   0.2490  11.7222  18.0777  19.9591
    20.6124  22.5761

          k =-0.2500 0.5833-0.0833 (  2882 PWs)   bands (ev):

   -40.2830 -18.7708  -1.2124  -0.1900   0.1861  12.3680  16.9971  19.4641
    20.1590  23.7028

          k = 0.6667-0.3333 0.8333 (  2879 PWs)   bands (ev):

   -40.2751 -18.6933  -1.4825  -0.3777   0.1347  12.8132  16.3224  19.1858
    19.7643  25.1254

          k = 0.5833-0.2500 0.7500 (  2880 PWs)   bands (ev):

   -40.2711 -18.6550  -1.5847  -0.5227   0.1394  12.9674  16.0278  19.1644
    19.4959  26.6284

          k = 0.5000-0.1667 0.6667 (  2881 PWs)   bands (ev):

   -40.2721 -18.6679  -1.5026  -0.5837   0.2046  12.8793  15.9704  19.3558
    19.4153  27.8882

          k = 0.4167-0.0833 0.5833 (  2877 PWs)   bands (ev):

   -40.2778 -18.7278  -1.2814  -0.5069   0.3045  12.5277  16.2264  19.5433
    19.6917  26.8495

          k = 0.3333 0.0000 0.5000 (  2874 PWs)   bands (ev):

   -40.2866 -18.8167  -1.0142  -0.2548   0.4005  11.9207  16.9111  19.8492
    20.1375  25.5307

          k =-0.1667 0.6667-0.0000 (  2872 PWs)   bands (ev):

   -40.2786 -18.7076  -1.4402  -0.2211  -0.0196  13.0732  17.2105  18.9662
    20.2869  21.9286

          k = 0.7500-0.2500 0.9167 (  2880 PWs)   bands (ev):

   -40.2719 -18.6359  -1.6291  -0.4726  -0.0585  13.6935  16.3944  18.6722
    19.9748  23.0987

          k = 0.6667-0.1667 0.8333 (  2879 PWs)   bands (ev):

   -40.2679 -18.5970  -1.6309  -0.7521  -0.0372  14.0385  15.8022  18.6742
    19.6986  24.5253

          k = 0.5833-0.0833 0.7500 (  2881 PWs)   bands (ev):

   -40.2677 -18.6026  -1.4322  -1.0021   0.0512  13.9467  15.5103  18.9548
    19.5150  26.1239

          k = 0.5000 0.0000 0.6667 (  2884 PWs)   bands (ev):

   -40.2713 -18.6510  -1.2404  -0.9835   0.1794  13.3570  15.6813  19.3354
    19.4637  27.8954

          k = 0.8333-0.1667 1.0000 (  2883 PWs)   bands (ev):

   -40.2685 -18.5801  -1.9094  -0.4004  -0.2100  14.3947  16.6737  18.1215
    20.1641  21.6354

          k = 0.7500-0.0833 0.9167 (  2887 PWs)   bands (ev):

   -40.2656 -18.5512  -1.8915  -0.6402  -0.1914  14.8670  15.9749  18.0203
    19.9134  22.8241

          k = 0.6667 0.0000 0.8333 (  2879 PWs)   bands (ev):

   -40.2653 -18.5595  -1.6745  -0.9135  -0.0958  15.0093  15.2017  18.4107
    19.6895  24.3222

          k =-0.1667-1.0000-0.0000 (  2876 PWs)   bands (ev):

   -40.2649 -18.5306  -2.0879  -0.4653  -0.2775  15.0759  16.4912  17.6538
    20.1343  21.5567

          k = 0.6667-0.3333 1.0000 (  2862 PWs)   bands (ev):

   -40.2753 -18.6878  -1.3731  -0.5530   0.1239  13.1060  16.2814  19.1352
    19.7984  24.7168

          k = 0.5833-0.2500 0.9167 (  2876 PWs)   bands (ev):

   -40.2697 -18.6257  -1.4495  -0.8317   0.0514  13.6913  15.8138  18.9136
    19.4987  26.1442

          k = 0.5000-0.1667 0.8333 (  2882 PWs)   bands (ev):

   -40.2677 -18.6026  -1.4645  -0.9420   0.0204  13.9073  15.6742  18.8341
    19.3777  27.3679

          k = 0.6667-0.1667 1.0000 (  2875 PWs)   bands (ev):

   -40.2673 -18.5829  -1.6613  -0.7657  -0.1045  14.4094  15.9238  18.2751
    19.6615  24.2851

          k = 0.5833-0.0833 0.9167 (  2874 PWs)   bands (ev):

   -40.2652 -18.5611  -1.5290  -1.0538  -0.1086  14.8682  15.5119  18.1329
    19.4535  25.8166

          k = 0.5000 0.0000 0.8333 (  2882 PWs)   bands (ev):

   -40.2661 -18.5769  -1.3011  -1.2350  -0.0479  14.5646  15.4452  18.4628
    19.3849  27.5139

          k =-0.3333-1.0000 0.0000 (  2874 PWs)   bands (ev):

   -40.2645 -18.5421  -1.7758  -0.8424  -0.1881  15.1590  15.8073  17.6971
    19.6273  24.1538

          k =-0.5000-1.0000 0.0000 (  2872 PWs)   bands (ev):

   -40.2642 -18.5478  -1.3252  -1.3252  -0.1428  15.3730  15.3730  17.7255
    19.3793  27.5853

     the Fermi energy is     3.9157 ev
     (compare with:     3.9193 eV, computed in scf)

     Writing all to output data dir out/mp-1138.save/
 
     init_run     :      0.05s CPU      0.05s WALL (       1 calls)
     electrons    :      1.71s CPU      1.89s WALL (       1 calls)

     Called by init_run:
     wfcinit      :      0.00s CPU      0.00s WALL (       1 calls)
     potinit      :      0.01s CPU      0.01s WALL (       1 calls)
     hinit0       :      0.02s CPU      0.02s WALL (       1 calls)

     Called by electrons:
     c_bands      :      1.71s CPU      1.86s WALL (       1 calls)
     v_of_rho     :      0.01s CPU      0.01s WALL (       1 calls)

     Called by c_bands:
     init_us_2    :      0.01s CPU      0.01s WALL (      72 calls)
     init_us_2:cp :      0.01s CPU      0.01s WALL (      72 calls)
     cegterg      :      1.54s CPU      1.67s WALL (      73 calls)

     Called by *egterg:
     cdiaghg      :      0.15s CPU      0.21s WALL (    1000 calls)
     h_psi        :      1.34s CPU      1.41s WALL (    1073 calls)
     g_psi        :      0.02s CPU      0.02s WALL (     928 calls)

     Called by h_psi:
     h_psi:calbec :      0.03s CPU      0.04s WALL (    1073 calls)
     vloc_psi     :      1.27s CPU      1.34s WALL (    1073 calls)
     add_vuspsi   :      0.02s CPU      0.03s WALL (    1073 calls)

     General routines
     calbec       :      0.03s CPU      0.03s WALL (    1073 calls)
     fft          :      0.00s CPU      0.01s WALL (      10 calls)
     fftw         :      1.13s CPU      1.20s WALL (   16208 calls)
 
     Parallel routines
 
     PWSCF        :      1.98s CPU      2.28s WALL

 
   This run was terminated on:  14:28:19   3Jan2024            

=------------------------------------------------------------------------------=
   JOB DONE.
=------------------------------------------------------------------------------=
