
     Program PWSCF v.7.1 starts on 11Apr2024 at  9:51:56 

     This program is part of the open-source Quantum ESPRESSO suite
     for quantum simulation of materials; please cite
         "P. Giannozzi et al., J. Phys.:Condens. Matter 21 395502 (2009);
         "P. Giannozzi et al., J. Phys.:Condens. Matter 29 465901 (2017);
         "P. Giannozzi et al., J. Chem. Phys. 152 154105 (2020);
          URL http://www.quantum-espresso.org", 
     in publications or presentations arising from this work. More details at
     http://www.quantum-espresso.org/quote

     Parallel version (MPI), running on    16 processors

     MPI processes distributed on     1 nodes
     247966 MiB available memory on the printing compute node when the environment starts
 
     Reading input from pw_mp-1985_nscf_k3000_E130.in
Warning: card &IONS ignored
Warning: card / ignored
Warning: card &CELL ignored
Warning: card / ignored

     Current dimensions of program PWSCF are:
     Max number of different atomic species (ntypx) = 10
     Max number of k-points (npk) =  40000
     Max angular momentum in pseudopotentials (lmaxx) =  4

     Atomic positions and unit cell read from directory:
     out/mp-1985.save/
     Atomic positions from file used, from input discarded
 
 
     R & G space division:  proc/nbgrp/npool/nimage =      16
     Subspace diagonalization in iterative solution of the eigenvalue problem:
     a serial algorithm will be used

 
     Parallelization info
     --------------------
     sticks:   dense  smooth     PW     G-vecs:    dense   smooth      PW
     Min         333     333     94                 7377     7377    1115
     Max         334     334     96                 7379     7379    1116
     Sum        5329    5329   1507               118041   118041   17855
 
     Using Slab Decomposition
 


     bravais-lattice index     =            4
     lattice parameter (alat)  =      12.1897  a.u.
     unit-cell volume          =     589.2450 (a.u.)^3
     number of atoms/cell      =           14
     number of atomic types    =            2
     number of electrons       =        64.00
     number of Kohn-Sham states=           64
     kinetic-energy cutoff     =     130.0000  Ry
     charge density cutoff     =     520.0000  Ry
     Exchange-correlation= PBE
                           (   1   4   3   4   0   0   0)

     celldm(1)=  12.189727  celldm(2)=   0.000000  celldm(3)=   0.375650
     celldm(4)=   0.000000  celldm(5)=   0.000000  celldm(6)=   0.000000

     crystal axes: (cart. coord. in units of alat)
               a(1) = (   1.000000   0.000000   0.000000 )  
               a(2) = (  -0.500000   0.866025   0.000000 )  
               a(3) = (   0.000000   0.000000   0.375650 )  

     reciprocal axes: (cart. coord. in units 2 pi/alat)
               b(1) = (  1.000000  0.577350  0.000000 )  
               b(2) = (  0.000000  1.154701  0.000000 )  
               b(3) = (  0.000000  0.000000  2.662053 )  


     PseudoPot. # 1 for C  read from file:
     /usr/scratch4/magr4826/Promotion/Python/Code/devEb/pseudo/SG15/C.upf
     MD5 check sum: 1a5f83a7b1f58d24996abe00ed223ac6
     Pseudo is Norm-conserving, Zval =  4.0
     Generated using ONCVPSP code by D. R. Hamann
     Using radial grid of  602 points,  4 beta functions with: 
                l(1) =   0
                l(2) =   0
                l(3) =   1
                l(4) =   1

     PseudoPot. # 2 for N  read from file:
     /usr/scratch4/magr4826/Promotion/Python/Code/devEb/pseudo/SG15/N.upf
     MD5 check sum: c233fa8df51455e992258b7c3dee8a9f
     Pseudo is Norm-conserving, Zval =  5.0
     Generated using ONCVPSP code by D. R. Hamann
     Using radial grid of  602 points,  4 beta functions with: 
                l(1) =   0
                l(2) =   0
                l(3) =   1
                l(4) =   1

     atomic species   valence    mass     pseudopotential
        C              4.00    12.01070     C ( 1.00)
        N              5.00    14.00670     N ( 1.00)

     12 Sym. Ops., with inversion, found ( 6 have fractional translation)



   Cartesian axes

     site n.     atom                  positions (alat units)
         1           C   tau(   1) = (   0.1840751   0.7115784   0.2817375  )
         2           C   tau(   2) = (  -0.2082825   0.6696498   0.2817375  )
         3           C   tau(   3) = (   0.0242075   0.3508225   0.2817375  )
         4           C   tau(   4) = (   0.3159250   0.1544470   0.0939125  )
         5           C   tau(   5) = (   0.7082825   0.1963756   0.0939125  )
         6           C   tau(   6) = (   0.4757925   0.5152029   0.0939125  )
         7           N   tau(   7) = (   0.3683635   0.5803349   0.2817375  )
         8           N   tau(   8) = (   0.3132335   0.0288447   0.2817375  )
         9           N   tau(   9) = (   0.8184031   0.2568458   0.2817375  )
        10           N   tau(  10) = (   0.1316365   0.2856905   0.0939125  )
        11           N   tau(  11) = (   0.1867665   0.8371807   0.0939125  )
        12           N   tau(  12) = (  -0.3184030   0.6091796   0.0939125  )
        13           N   tau(  13) = (   0.0000000   0.5773502   0.2817375  )
        14           N   tau(  14) = (   0.5000000   0.2886752   0.0939125  )

     number of k points=    28  Gaussian smearing, width (Ry)=  0.0005
                       cart. coord. in units 2pi/alat
        k(    1) = (   0.0000000   0.0000000   0.0000000), wk =   0.0104167
        k(    2) = (   0.0000000   0.0000000   0.2218377), wk =   0.0208333
        k(    3) = (   0.0000000   0.0000000   0.4436754), wk =   0.0208333
        k(    4) = (   0.0000000   0.0000000   0.6655132), wk =   0.0208333
        k(    5) = (   0.0000000   0.0000000   0.8873509), wk =   0.0208333
        k(    6) = (   0.0000000   0.0000000   1.1091886), wk =   0.0208333
        k(    7) = (   0.0000000   0.0000000  -1.3310263), wk =   0.0104167
        k(    8) = (   0.0000000   0.2886751   0.0000000), wk =   0.0625000
        k(    9) = (   0.0000000   0.2886751   0.2218377), wk =   0.1250000
        k(   10) = (   0.0000000   0.2886751   0.4436754), wk =   0.1250000
        k(   11) = (   0.0000000   0.2886751   0.6655132), wk =   0.1250000
        k(   12) = (   0.0000000   0.2886751   0.8873509), wk =   0.1250000
        k(   13) = (   0.0000000   0.2886751   1.1091886), wk =   0.1250000
        k(   14) = (   0.0000000   0.2886751  -1.3310263), wk =   0.0625000
        k(   15) = (   0.0000000  -0.5773503   0.0000000), wk =   0.0312500
        k(   16) = (   0.0000000  -0.5773503   0.2218377), wk =   0.0625000
        k(   17) = (   0.0000000  -0.5773503   0.4436754), wk =   0.0625000
        k(   18) = (   0.0000000  -0.5773503   0.6655132), wk =   0.0625000
        k(   19) = (   0.0000000  -0.5773503   0.8873509), wk =   0.0625000
        k(   20) = (   0.0000000  -0.5773503   1.1091886), wk =   0.0625000
        k(   21) = (   0.0000000  -0.5773503  -1.3310263), wk =   0.0312500
        k(   22) = (   0.2500000   0.4330127   0.0000000), wk =   0.0625000
        k(   23) = (   0.2500000   0.4330127   0.2218377), wk =   0.1250000
        k(   24) = (   0.2500000   0.4330127   0.4436754), wk =   0.1250000
        k(   25) = (   0.2500000   0.4330127   0.6655132), wk =   0.1250000
        k(   26) = (   0.2500000   0.4330127   0.8873509), wk =   0.1250000
        k(   27) = (   0.2500000   0.4330127   1.1091886), wk =   0.1250000
        k(   28) = (   0.2500000   0.4330127  -1.3310263), wk =   0.0625000

     Dense  grid:   118041 G-vectors     FFT dimensions: (  90,  90,  36)

     Estimated max dynamical RAM per process >      36.02 MB

     Estimated total dynamical RAM >     576.35 MB

     The potential is recalculated from file :
     out/mp-1985.save/charge-density

     Starting wfcs are random

     Band Structure Calculation
     Davidson diagonalization with overlap

     ethr =  5.00E-06,  avg # of iterations = 23.8

     total cpu time spent up to now is       16.5 secs

     End of band structure calculation

          k = 0.0000 0.0000 0.0000 ( 14765 PWs)   bands (ev):

   -12.3343 -10.1068 -10.1068  -9.0982  -8.8599  -8.8599  -5.9015  -4.9067
    -0.8264  -0.8263  -0.3068   0.0146   0.0146   2.3620   2.3620   3.5557
     4.6115   4.6115   4.6261   4.7263   4.7263   6.0289   6.0289   6.5978
     6.8813  10.6136  10.6136  10.7046  10.7046  11.5997  12.2484  12.5777
    16.0371  16.4433  16.7479  16.7479  16.9319  16.9319  19.2905  19.2978
    19.3028  19.3028  19.3877  20.4460  20.4460  20.9340  21.4467  21.4467
    22.4392  22.4392  23.9219  24.5025  24.5025  25.2786  25.8588  25.8745
    25.8745  27.2195  27.6006  27.8445  27.8445  28.5144  28.5144  30.3481

          k = 0.0000 0.0000 0.2218 ( 14765 PWs)   bands (ev):

   -12.2062  -9.9826  -9.9826  -8.9901  -8.7387  -8.7387  -5.8164  -4.8499
    -0.7788  -0.7788  -0.2447   0.0686   0.0686   2.4139   2.4139   2.9812
     4.1922   4.1922   4.4502   4.4502   4.5110   5.6418   5.6418   6.1805
     6.8094  10.6005  10.6005  10.6291  10.6291  11.3249  11.8824  12.4262
    16.6708  16.7713  17.1697  17.1697  17.5487  17.5487  19.0839  19.0839
    19.2434  19.3740  19.8106  20.8209  20.8209  21.0762  21.4431  21.4431
    22.0252  22.0252  23.9919  24.8117  24.8117  24.8299  25.5887  25.5887
    26.1522  27.3612  27.8648  27.8648  27.8745  28.3591  28.3591  30.4067

          k = 0.0000 0.0000 0.4437 ( 14729 PWs)   bands (ev):

   -11.8244  -9.6126  -9.6125  -8.6745  -8.3792  -8.3792  -5.5779  -4.7223
    -0.7119  -0.7119  -0.0740   0.1720   0.1720   1.6733   2.3928   2.3928
     3.1834   3.1834   3.5901   3.5901   3.8345   5.2356   5.2356   5.4509
     6.7044  10.3574  10.3905  10.3905  10.4986  10.4986  11.0064  12.3052
    17.1196  17.6346  17.6346  18.3781  18.8494  18.8494  19.0274  19.0274
    19.2053  19.4250  20.9321  20.9321  21.0391  21.6498  21.8353  21.8353
    21.9038  21.9038  23.8521  24.1673  24.8774  24.8774  25.3200  25.3200
    26.3411  27.9281  27.9916  27.9916  28.0171  28.0171  28.3805  30.5317

          k = 0.0000 0.0000 0.6655 ( 14717 PWs)   bands (ev):

   -11.1976  -9.0056  -9.0056  -8.1858  -7.7980  -7.7980  -5.2462  -4.6876
    -0.9944  -0.9944   0.0138   0.0139   0.1241   0.3954   1.7270   1.7270
     2.4850   2.4850   2.5442   3.1203   3.1203   4.6010   5.0733   5.0733
     6.9469   9.0800   9.9944  10.0667  10.0667  10.2716  10.2717  12.1633
    17.2377  17.2377  17.6249  18.7048  19.1257  19.1257  19.3879  19.5754
    19.5754  20.5486  20.5486  20.7317  21.7696  22.7629  22.7629  22.8257
    23.2225  23.2225  23.7283  23.7813  24.3638  24.3638  25.7942  25.7942
    26.3461  27.7285  27.7285  28.0014  28.1953  28.1953  28.8015  30.3088

          k = 0.0000 0.0000 0.8874 ( 14746 PWs)   bands (ev):

   -10.3447  -8.1842  -8.1842  -7.6339  -7.0456  -7.0456  -5.0160  -4.9528
    -2.0267  -2.0267  -0.9516  -0.9516  -0.3668   0.4263   1.2484   1.6640
     1.6640   2.1779   2.1779   3.3798   3.3798   3.4844   4.7873   4.7873
     7.4657   7.9703   9.1586   9.8099   9.8099   9.9828   9.9828  11.7493
    16.6553  16.6553  18.1468  18.1468  18.2291  18.6029  19.8469  20.0987
    20.0987  20.6365  20.6365  21.3296  21.8781  22.7860  23.4945  23.4945
    23.7743  23.8551  23.8551  25.3045  25.3045  25.4062  26.2166  26.2166
    26.2489  27.2757  27.7360  27.7361  28.4927  28.4927  29.6054  29.8963

          k = 0.0000 0.0000 1.1092 ( 14758 PWs)   bands (ev):

    -9.3085  -7.4505  -7.2119  -7.2119  -6.3213  -6.3212  -5.4453  -4.9113
    -3.1638  -3.1638  -2.2956  -2.2956  -0.3237   0.3480   0.6857   2.0776
     2.0776   2.2947   2.3645   2.3646   3.6012   3.6012   4.3137   4.3137
     7.3361   7.5815   9.1500   9.6869   9.6869   9.7534   9.7534  10.9799
    16.3171  16.3171  17.1424  17.1424  18.8340  18.9389  20.2657  20.4645
    20.4645  20.6757  20.6757  20.8515  21.3452  23.1049  23.5992  23.5992
    23.6975  24.1913  24.1913  25.8536  26.1177  26.1177  26.3493  26.3493
    26.6404  27.1549  28.2507  28.2508  28.9090  28.9091  30.0099  30.1703

          k = 0.0000 0.0000-1.3310 ( 14788 PWs)   bands (ev):

    -8.2055  -8.2055  -6.3383  -6.3383  -6.3383  -6.3383  -5.2207  -5.2207
    -3.3178  -3.3178  -3.3178  -3.3178  -0.0672  -0.0671   1.2756   1.2756
     2.4179   2.4179   2.4179   2.4179   3.8529   3.8529   3.8529   3.8529
     7.2795   7.2795   9.6632   9.6632   9.6632   9.6632  10.0064  10.0064
    16.4712  16.4712  16.4712  16.4712  19.2807  19.2807  20.2178  20.2178
    20.6457  20.6457  20.6457  20.6457  22.0061  22.0061  23.9302  23.9302
    23.9302  23.9302  24.8401  24.8401  26.3436  26.3436  26.3436  26.3436
    27.1078  27.1078  28.8160  28.8160  28.8160  28.8160  30.3560  30.3560

          k = 0.0000 0.2887 0.0000 ( 14770 PWs)   bands (ev):

   -12.1377 -10.6572 -10.2738  -9.6331  -8.4733  -7.6631  -5.7582  -5.2510
    -2.3763  -1.3275  -0.5976   0.8264   1.1671   2.3783   2.7440   3.6911
     4.3040   4.5311   4.6460   4.6845   5.3676   5.8215   6.1068   6.8694
     6.9833   9.7358  10.2330  10.3375  10.6026  11.5172  12.3118  12.5589
    16.1736  16.5858  16.7471  16.8290  17.1474  17.2112  18.1288  19.2680
    19.3090  19.7914  20.2626  20.3997  20.6147  21.0996  21.8068  21.9184
    22.5433  22.9340  23.5484  23.6025  23.8413  25.1060  25.4002  25.9236
    26.1576  26.7608  27.5756  27.9406  28.0428  28.4704  28.5406  30.2649

          k = 0.0000 0.2887 0.2218 ( 14775 PWs)   bands (ev):

   -12.0101 -10.5323 -10.1487  -9.5167  -8.3543  -7.5512  -5.6765  -5.1846
    -2.3053  -1.2796  -0.5230   0.8771   1.2025   2.3850   2.7425   3.1598
     3.9265   4.1501   4.2123   4.5167   5.1950   5.4732   5.6865   6.3935
     7.0016   9.7207  10.2241  10.3104  10.5768  11.3549  11.9438  12.2971
    16.7229  16.9027  17.3301  17.3982  17.6186  17.7303  18.1279  18.9819
    19.7545  19.7758  19.9713  20.6959  20.9748  21.2645  21.9012  21.9187
    22.0353  22.4169  23.6274  23.8585  24.1418  24.7494  25.4106  25.9590
    26.1652  26.9117  27.7211  27.9842  28.0724  28.4625  28.5420  30.2621

          k = 0.0000 0.2887 0.4437 ( 14759 PWs)   bands (ev):

   -11.6299 -10.1607  -9.7757  -9.1733  -8.0021  -7.2228  -5.4497  -5.0212
    -2.1278  -1.2057  -0.3329   0.9235   1.2205   1.6681   2.3812   2.5360
     2.9247   3.2551   3.5144   3.7425   4.3490   5.0889   5.1936   5.5981
     7.0878   9.5829  10.0369  10.1323  10.4663  10.7197  11.1323  12.0123
    16.7265  17.6442  18.0043  18.3739  18.5761  18.7982  19.0468  19.2587
    19.7253  19.9359  20.7891  21.0999  21.1898  21.4294  21.6620  21.9359
    22.2305  22.3787  23.5368  23.7837  24.4254  24.4783  25.4511  25.7289
    26.2216  27.3522  27.7137  27.8676  28.4802  28.4876  28.6930  30.3173

          k = 0.0000 0.2887 0.6655 ( 14732 PWs)   bands (ev):

   -11.0063  -9.5531  -9.1635  -8.6248  -7.4360  -6.7078  -5.1450  -4.9015
    -2.0232  -1.4306  -0.2218   0.3658   0.4764   0.7534   1.4404   1.6838
     2.4592   2.7966   2.9090   3.0974   3.3905   4.4593   5.0396   5.1935
     7.3600   8.9677   9.4372   9.8215  10.0585  10.3838  10.5128  11.8463
    16.5996  17.0912  17.9233  18.8241  18.9735  19.2683  19.3470  19.9319
    20.0009  20.5764  20.7668  21.3049  21.5615  22.2998  22.3712  22.6778
    23.2794  23.5207  23.5888  23.6746  24.3729  24.6081  25.7578  25.9524
    26.1721  27.3484  27.5287  27.9741  28.4233  28.6329  28.9257  30.0878

          k = 0.0000 0.2887 0.8874 ( 14737 PWs)   bands (ev):

   -10.1597  -8.7392  -8.3330  -7.9346  -6.7213  -6.1253  -5.0821  -4.9144
    -2.4607  -2.3241  -0.7513  -0.6687  -0.4544   0.0990   0.9692   1.3713
     1.5918   2.5803   2.6989   3.1367   3.4593   3.6214   4.7691   4.9121
     7.6985   8.0003   9.0067   9.5859   9.7179  10.1032  10.2493  11.5517
    16.5078  16.6422  17.8697  18.0172  18.4492  18.6356  19.7122  20.0069
    20.2613  20.5986  20.7416  21.6516  21.6877  22.5195  23.0806  23.3000
    23.9719  24.2940  24.5018  24.9849  25.1787  25.2839  25.7813  26.3495
    26.6058  27.2807  27.6609  28.0919  28.5891  28.8751  29.2533  29.7018

          k = 0.0000 0.2887 1.1092 ( 14732 PWs)   bands (ev):

    -9.1386  -7.8697  -7.3428  -7.3079  -6.1810  -6.0533  -5.2404  -4.9695
    -3.3445  -3.0811  -2.0859  -1.7871  -0.6832   0.1731   0.3361   1.4910
     1.6898   2.2682   2.5726   3.0812   3.4714   3.6457   4.3765   4.5140
     7.4314   7.6510   9.0963   9.4980   9.6518   9.8732  10.0741  11.0137
    16.3475  16.5923  17.0800  17.5286  18.2073  18.5795  19.6475  19.8649
    20.3172  20.5105  21.0292  21.2573  21.4137  22.6143  23.2957  23.6829
    24.3965  24.4428  24.9477  25.3815  25.6982  26.1291  26.2217  26.5313
    26.8558  27.4441  28.3772  28.5666  29.0317  29.2330  29.5757  29.7882

          k = 0.0000 0.2887-1.3310 ( 14726 PWs)   bands (ev):

    -8.1002  -8.1002  -6.5930  -6.5930  -6.4160  -6.4160  -5.2062  -5.2062
    -3.2329  -3.2329  -2.7821  -2.7821  -0.3830  -0.3830   0.9204   0.9205
     2.1460   2.1460   2.5900   2.5900   3.9422   3.9422   4.0420   4.0421
     7.3903   7.3903   9.3785   9.3785   9.7485   9.7485  10.3524  10.3524
    16.4968  16.4968  16.8759  16.8759  18.6325  18.6325  19.4436  19.4436
    20.4549  20.4549  21.1874  21.1874  21.7625  21.7625  23.9068  23.9068
    24.3432  24.3432  25.2592  25.2592  25.9001  25.9001  26.4139  26.4139
    27.2952  27.2952  28.9436  28.9437  29.1757  29.1757  30.0078  30.0078

          k = 0.0000-0.5774 0.0000 ( 14732 PWs)   bands (ev):

   -11.6573 -11.4345 -10.3963  -9.7135  -8.0575  -6.9151  -5.6854  -5.4529
    -3.4741  -1.5436  -0.9551   1.0840   2.2143   2.3248   3.4283   3.6292
     3.9768   4.1781   4.6464   4.7830   5.7152   5.8842   6.1826   7.0449
     7.9169   8.2038   9.7415  10.1130  10.3981  11.4359  12.4209  12.5022
    16.3905  16.5628  16.6788  16.9752  17.4153  17.4932  17.6062  19.2352
    19.3323  20.1404  20.4772  20.5291  20.9669  21.2178  22.2821  22.5156
    22.6460  22.8590  23.1007  23.2659  23.9419  24.4170  24.4686  26.0126
    26.3257  26.3401  27.5058  27.7020  27.9764  28.6640  29.3113  29.8598

          k = 0.0000-0.5774 0.2218 ( 14750 PWs)   bands (ev):

   -11.5317 -11.3073 -10.2706  -9.5960  -7.9409  -6.8046  -5.6080  -5.3822
    -3.3891  -1.4981  -0.8722   1.1539   2.2181   2.3420   3.1796   3.3732
     3.5578   3.8283   4.1711   4.6614   5.3064   5.7083   5.7339   6.5063
     7.9306   8.3016   9.7943  10.0940  10.4048  11.3309  12.0279  12.1808
    16.6627  17.0491  17.3025  17.3949  17.8828  17.9283  18.0284  18.9246
    19.7239  19.9258  20.4527  20.5458  21.1412  21.4037  22.1666  22.4199
    22.5449  22.9403  22.9906  23.3407  23.8137  24.1100  24.7295  26.2310
    26.3160  26.5676  27.5808  27.6423  28.1844  28.7849  29.1903  29.8768

          k = 0.0000-0.5774 0.4437 ( 14754 PWs)   bands (ev):

   -11.1581 -10.9282  -9.8958  -9.2488  -7.5961  -6.4803  -5.4017  -5.1964
    -3.1578  -1.4349  -0.6542   1.2437   1.8134   2.0933   2.1958   2.3549
     2.9483   3.1722   3.8420   3.8723   4.6832   4.7710   5.1918   5.7483
     7.9354   8.4994   9.7493   9.8915  10.4185  10.8171  11.1847  11.7269
    16.2717  17.6386  18.2611  18.3010  18.8005  18.9512  19.0747  19.8937
    19.9340  20.0554  20.5635  20.9150  21.1524  21.5400  21.7012  22.5572
    22.5990  22.9850  23.0687  23.1604  23.7892  23.9290  25.2225  26.3052
    26.3264  27.0772  27.5500  27.6972  28.6345  28.9556  28.9735  30.0517

          k = 0.0000-0.5774 0.6655 ( 14756 PWs)   bands (ev):

   -10.5476 -10.3061  -9.2801  -8.6913  -7.0455  -5.9732  -5.1711  -4.9949
    -2.8841  -1.6820  -0.4896   0.3599   0.8901   0.9053   1.2892   1.6296
     2.4730   3.0915   3.1218   3.1715   3.7167   4.2803   5.0113   5.2749
     7.8959   8.6261   9.2496   9.4558  10.1521  10.3875  10.6956  11.4465
    16.0432  16.9670  18.0910  18.6383  19.1725  19.3946  19.6860  20.1711
    20.2123  21.0074  21.1665  21.4905  21.6400  21.8617  22.0993  22.5220
    22.7686  23.2451  23.5550  23.8426  24.3587  24.4765  25.7747  26.1609
    26.4696  27.0991  27.5803  27.6816  28.6501  28.9604  29.1023  29.7838

          k = 0.0000-0.5774 0.8874 ( 14730 PWs)   bands (ev):

    -9.7264  -9.4627  -8.4436  -7.9784  -6.3803  -5.3985  -5.1868  -4.9810
    -2.8039  -2.5798  -0.9863  -0.4766  -0.3894   0.3581   0.3984   1.1422
     1.7389   2.7161   2.9568   2.9693   3.5498   3.9288   4.7600   4.9300
     7.7939   8.0298   9.0818   9.2673   9.7682  10.1924  10.6277  11.1419
    16.1928  16.5542  17.7997  17.8228  18.4676  19.1413  19.6121  20.1769
    20.1854  20.3406  21.2846  21.5490  21.6720  22.4880  22.7209  22.9952
    23.8632  24.3865  24.6319  24.8870  25.1721  25.3788  26.1658  26.2674
    26.6127  27.2996  27.9845  28.0258  28.5050  28.9643  29.4699  29.7917

          k = 0.0000-0.5774 1.1092 ( 14736 PWs)   bands (ev):

    -8.7639  -8.4698  -7.4414  -7.3015  -6.0782  -5.8812  -5.1020  -5.0230
    -3.4916  -2.7256  -1.8763  -1.5165  -0.7466  -0.3588  -0.0034   1.1375
     1.5915   2.4293   2.4707   3.1417   3.7150   3.7409   4.4032   4.6043
     7.5420   7.6310   9.0541   9.3990   9.6763  10.0134  10.5775  10.7892
    16.4374  16.6927  17.0129  17.7563  18.0216  18.2291  19.2801  19.5439
    20.2859  20.3789  20.8680  21.0488  21.7077  22.4879  23.4652  23.4970
    24.5562  24.6006  25.0206  25.3260  25.8483  26.1813  26.4390  26.4488
    27.0940  27.4788  28.5850  28.6451  29.0330  29.1500  29.7197  29.9569

          k = 0.0000-0.5774-1.3310 ( 14764 PWs)   bands (ev):

    -7.9593  -7.9593  -6.8734  -6.8734  -6.4805  -6.4805  -5.1717  -5.1717
    -3.1346  -3.1346  -2.0761  -2.0761  -0.9409  -0.9409   0.6207   0.6207
     1.9770   1.9770   2.6919   2.6919   4.0198   4.0198   4.1674   4.1674
     7.4780   7.4780   9.2481   9.2481   9.8575   9.8575  10.5674  10.5674
    16.5718  16.5718  17.4091  17.4091  17.8544  17.8544  19.0878  19.0878
    20.3767  20.3767  20.8233  20.8233  21.9843  21.9843  23.8307  23.8307
    24.7391  24.7391  25.1153  25.1153  26.1442  26.1442  26.5431  26.5431
    27.3099  27.3099  28.9030  28.9030  29.5716  29.5716  29.8844  29.8844

          k = 0.2500 0.4330 0.0000 ( 14768 PWs)   bands (ev):

   -11.7570 -11.0510 -10.9194  -9.1948  -8.4867  -6.7804  -5.5952  -5.4640
    -3.5858  -1.4434  -0.9794   0.8664   2.2711   2.7588   3.2046   3.8004
     3.9283   4.3491   4.3615   4.4860   5.8472   6.0141   6.0808   7.0519
     7.6392   8.9442   9.2996   9.9845  10.7068  11.2379  12.4104  12.5164
    16.3886  16.7084  16.7374  16.9351  17.3178  17.4633  17.5510  19.3152
    19.5066  20.1925  20.1982  20.3688  21.1381  21.3821  22.1401  22.2078
    22.7703  23.0517  23.1059  23.4321  23.5550  24.6309  24.8070  25.2150
    26.5140  26.8675  27.1609  27.7506  28.2059  28.3496  29.2889  30.2305

          k = 0.2500 0.4330 0.2218 ( 14756 PWs)   bands (ev):

   -11.6305 -10.9267 -10.7925  -9.0776  -8.3697  -6.6685  -5.5199  -5.3919
    -3.5044  -1.3840  -0.9068   0.9410   2.2596   2.7029   3.1029   3.4061
     3.6930   3.8023   4.0667   4.3305   5.4051   5.5986   5.8267   6.5389
     7.6975   8.9453   9.3306  10.0515  10.6930  11.1747  12.0231  12.1551
    16.6588  17.1459  17.3612  17.4133  17.7913  17.8428  18.0069  19.1483
    19.7027  19.7514  20.3805  20.6245  21.1567  21.5203  22.0175  22.2581
    22.7122  22.8283  23.2013  23.3228  23.6834  24.2154  25.0836  25.3139
    26.6340  26.9687  27.2971  27.7496  28.3560  28.5002  29.2319  30.2233

          k = 0.2500 0.4330 0.4437 ( 14764 PWs)   bands (ev):

   -11.2539 -10.5572 -10.4138  -8.7310  -8.0240  -6.3404  -5.3190  -5.2018
    -3.2880  -1.2673  -0.7333   1.0573   1.7770   2.1803   2.2275   2.5735
     2.8117   3.4236   3.6823   3.8644   4.6498   4.8492   4.9092   5.8828
     7.7913   8.8621   9.3563  10.1336  10.5019  10.7460  11.1981  11.6310
    16.2344  17.8502  18.1802  18.5273  18.7131  18.8097  19.0587  19.6893
    19.8019  20.1833  20.5472  20.9421  21.3754  21.5580  21.7631  22.3157
    22.5418  22.9278  23.1623  23.3062  23.7803  23.9875  25.4363  25.5581
    26.6575  27.1145  27.4360  27.9194  28.6785  28.8233  29.0190  30.2307

          k = 0.2500 0.4330 0.6655 ( 14764 PWs)   bands (ev):

   -10.6373  -9.9549  -9.7907  -8.1742  -7.4702  -5.8301  -5.1030  -4.9827
    -3.0617  -1.4002  -0.7230   0.3437   0.8264   1.1057   1.3474   1.6184
     2.1460   3.0088   3.2945   3.4116   3.8014   4.2360   4.7168   5.4246
     7.8563   8.5382   9.3048   9.7371  10.0055  10.2946  10.7561  11.4002
    15.9982  17.2335  17.8951  18.8858  18.9714  19.1001  19.8057  20.0873
    20.4098  20.7687  21.3120  21.4669  21.6995  22.0245  22.0743  22.4195
    23.0040  23.1151  23.3460  24.0647  24.3276  24.5535  25.7960  25.9613
    26.3994  27.2621  27.3288  27.7756  28.7378  28.9014  29.1143  30.0850

          k = 0.2500 0.4330 0.8874 ( 14750 PWs)   bands (ev):

    -9.8049  -9.1526  -8.9393  -7.4649  -6.7805  -5.2799  -5.1794  -4.8944
    -3.1162  -2.1683  -1.3704  -0.4167  -0.0689   0.0638   0.8093   1.0459
     1.4469   2.6164   2.7984   3.3242   3.7652   3.8734   4.5476   5.0166
     7.7641   7.9776   9.0919   9.4285   9.7034  10.1889  10.5521  11.1684
    16.1331  16.7942  17.5991  18.0189  18.3934  18.8929  19.6618  19.9771
    20.2164  20.8217  21.2075  21.2855  21.4584  22.6792  22.9191  23.1782
    23.7980  24.2147  24.6494  24.9637  25.3529  25.4668  25.9326  26.2329
    26.5472  27.3633  27.5445  28.0509  28.7908  28.9719  29.5033  29.9777

          k = 0.2500 0.4330 1.1092 ( 14748 PWs)   bands (ev):

    -8.8206  -8.2619  -7.8966  -6.8386  -6.3081  -5.7727  -5.1516  -5.0805
    -3.1124  -2.9679  -2.2251  -1.1240  -0.9119  -0.3403   0.1812   1.2173
     1.3975   1.8712   3.0410   3.3340   3.3972   3.9336   4.3123   4.5861
     7.5091   7.6488   9.1121   9.2819   9.8167  10.0517  10.3944  10.8467
    16.5185  16.6706  17.0438  17.8155  17.9631  18.2623  19.2356  19.4898
    20.1582  20.4258  20.8741  20.9121  21.6081  22.6340  23.6745  23.8414
    24.0266  24.9637  25.2664  25.3508  25.6391  26.0528  26.3021  26.5859
    26.9003  27.3114  28.5010  28.6912  29.1069  29.3663  29.7495  30.0017

          k = 0.2500 0.4330-1.3310 ( 14750 PWs)   bands (ev):

    -7.9625  -7.9625  -6.7941  -6.7941  -6.5857  -6.5857  -5.1207  -5.1207
    -3.1619  -3.1619  -2.1198  -2.1198  -0.8805  -0.8805   0.7553   0.7553
     1.6121   1.6121   2.9882   2.9882   4.0036   4.0036   4.1030   4.1030
     7.4833   7.4833   9.2274   9.2274   9.9303   9.9303  10.5038  10.5038
    16.6235  16.6235  17.3091  17.3091  18.0022  18.0022  19.0764  19.0764
    20.2058  20.2058  20.7585  20.7585  22.0609  22.0609  24.0233  24.0233
    24.7461  24.7461  25.2615  25.2615  25.9008  25.9008  26.6343  26.6343
    27.0720  27.0720  29.1730  29.1730  29.3800  29.3800  29.9780  29.9780

     the Fermi energy is    14.4726 ev
     (compare with:    14.4814 eV, computed in scf)

     Writing all to output data dir out/mp-1985.save/
 
     init_run     :      0.16s CPU      0.33s WALL (       1 calls)
     electrons    :     13.87s CPU     15.51s WALL (       1 calls)

     Called by init_run:
     wfcinit      :      0.00s CPU      0.01s WALL (       1 calls)
     potinit      :      0.02s CPU      0.14s WALL (       1 calls)
     hinit0       :      0.03s CPU      0.05s WALL (       1 calls)

     Called by electrons:
     c_bands      :     13.87s CPU     15.51s WALL (       1 calls)
     v_of_rho     :      0.02s CPU      0.02s WALL (       1 calls)

     Called by c_bands:
     init_us_2    :      0.01s CPU      0.01s WALL (      28 calls)
     init_us_2:cp :      0.01s CPU      0.01s WALL (      28 calls)
     cegterg      :     13.14s CPU     13.42s WALL (      52 calls)

     Called by *egterg:
     cdiaghg      :      2.51s CPU      2.54s WALL (     695 calls)
     h_psi        :      9.02s CPU      9.23s WALL (     747 calls)
     g_psi        :      0.05s CPU      0.05s WALL (     667 calls)

     Called by h_psi:
     h_psi:calbec :      0.49s CPU      0.50s WALL (     747 calls)
     vloc_psi     :      8.10s CPU      8.28s WALL (     747 calls)
     add_vuspsi   :      0.39s CPU      0.39s WALL (     747 calls)

     General routines
     calbec       :      0.49s CPU      0.50s WALL (     747 calls)
     fft          :      0.01s CPU      0.04s WALL (      10 calls)
     fftw         :      7.39s CPU      7.55s WALL (   60632 calls)
 
     Parallel routines
 
     PWSCF        :     14.66s CPU     20.65s WALL

 
   This run was terminated on:   9:52:16  11Apr2024            

=------------------------------------------------------------------------------=
   JOB DONE.
=------------------------------------------------------------------------------=
