<?xml version="1.0" encoding="ISO-8859-1"?>
<modeling>
 <generator>
  <i name="program" type="string">vasp </i>
  <i name="version" type="string">5.4.4.18Apr17-6-g9f103f2a35  </i>
  <i name="subversion" type="string">(build Aug 24 2017 11:22:49) complex            parallel </i>
  <i name="platform" type="string">LinuxIFC </i>
  <i name="date" type="string">2023 12 25 </i>
  <i name="time" type="string">13:07:11 </i>
 </generator>
 <incar>
  <i type="string" name="PREC">accurate</i>
  <i type="string" name="ALGO"> Normal</i>
  <i type="int" name="NELM">   100</i>
  <i type="int" name="IBRION">     8</i>
  <i name="EDIFF">      0.00000001</i>
  <i name="SYMPREC">      0.00000001</i>
  <i name="ENCUT">    520.00000000</i>
  <i type="logical" name="LREAL"> F  </i>
  <i type="int" name="ISMEAR">     0</i>
  <i name="SIGMA">      0.01000000</i>
  <i type="logical" name="LWAVE"> F  </i>
  <v type="int" name="KPOINT_BSE">    -1     0     0     0</v>
  <i type="int" name="NELM">   100</i>
  <i type="logical" name="LPEAD"> T  </i>
  <i type="logical" name="LEPSILON"> T  </i>
 </incar>
 <structure name="primitive_cell" >
  <crystal>
   <varray name="basis" >
    <v>       3.12858790       0.00000000       0.00000000 </v>
    <v>      -1.56429395       2.70943660       0.00000000 </v>
    <v>       0.00000000       0.00000000       5.01695461 </v>
   </varray>
   <i name="volume">     42.52727205 </i>
   <varray name="rec_basis" >
    <v>       0.31963302       0.18454021       0.00000000 </v>
    <v>       0.00000000       0.36908042       0.00000000 </v>
    <v>       0.00000000       0.00000000       0.19932411 </v>
   </varray>
  </crystal>
  <varray name="positions" >
   <v>       0.33333336      -0.33333336       0.49928704 </v>
   <v>      -0.33333328       0.33333336       0.38071303 </v>
   <v>       0.33333336      -0.33333336      -0.11928693 </v>
   <v>      -0.33333328       0.33333336      -0.00071292 </v>
  </varray>
 </structure>
 <varray name="primitive_index" >
  <v type="int" >        1 </v>
  <v type="int" >        4 </v>
  <v type="int" >        3 </v>
  <v type="int" >        2 </v>
 </varray>
 <kpoints>
  <generation param="Gamma">
   <v type="int" name="divisions">      10       10        6 </v>
   <v name="usershift">      0.00000000       0.00000000       0.00000000 </v>
   <v name="genvec1">      0.10000000       0.00000000       0.00000000 </v>
   <v name="genvec2">      0.00000000       0.10000000       0.00000000 </v>
   <v name="genvec3">      0.00000000       0.00000000       0.16666667 </v>
   <v name="shift">      0.00000000       0.00000000       0.00000000 </v>
  </generation>
  <varray name="kpointlist" >
   <v>       0.00000000       0.00000000       0.00000000 </v>
   <v>       0.10000000       0.00000000       0.00000000 </v>
   <v>       0.20000000       0.00000000       0.00000000 </v>
   <v>       0.30000000       0.00000000       0.00000000 </v>
   <v>       0.40000000       0.00000000       0.00000000 </v>
   <v>       0.50000000       0.00000000       0.00000000 </v>
   <v>       0.00000000       0.10000000       0.00000000 </v>
   <v>       0.10000000       0.10000000       0.00000000 </v>
   <v>       0.20000000       0.10000000       0.00000000 </v>
   <v>       0.30000000       0.10000000       0.00000000 </v>
   <v>       0.40000000       0.10000000       0.00000000 </v>
   <v>       0.50000000       0.10000000       0.00000000 </v>
   <v>      -0.40000000       0.10000000       0.00000000 </v>
   <v>      -0.30000000       0.10000000       0.00000000 </v>
   <v>      -0.20000000       0.10000000       0.00000000 </v>
   <v>       0.00000000       0.20000000       0.00000000 </v>
   <v>       0.10000000       0.20000000       0.00000000 </v>
   <v>       0.20000000       0.20000000       0.00000000 </v>
   <v>       0.30000000       0.20000000       0.00000000 </v>
   <v>       0.40000000       0.20000000       0.00000000 </v>
   <v>       0.50000000       0.20000000       0.00000000 </v>
   <v>      -0.40000000       0.20000000       0.00000000 </v>
   <v>       0.00000000       0.30000000       0.00000000 </v>
   <v>       0.10000000       0.30000000       0.00000000 </v>
   <v>       0.20000000       0.30000000       0.00000000 </v>
   <v>       0.30000000       0.30000000       0.00000000 </v>
   <v>       0.40000000       0.30000000       0.00000000 </v>
   <v>       0.00000000       0.40000000       0.00000000 </v>
   <v>       0.10000000       0.40000000       0.00000000 </v>
   <v>       0.20000000       0.40000000       0.00000000 </v>
   <v>       0.00000000       0.50000000       0.00000000 </v>
   <v>       0.00000000       0.00000000       0.16666667 </v>
   <v>       0.10000000       0.00000000       0.16666667 </v>
   <v>       0.20000000       0.00000000       0.16666667 </v>
   <v>       0.30000000       0.00000000       0.16666667 </v>
   <v>       0.40000000       0.00000000       0.16666667 </v>
   <v>       0.50000000       0.00000000       0.16666667 </v>
   <v>      -0.40000000      -0.00000000       0.16666667 </v>
   <v>      -0.30000000      -0.00000000       0.16666667 </v>
   <v>      -0.20000000      -0.00000000       0.16666667 </v>
   <v>      -0.10000000      -0.00000000       0.16666667 </v>
   <v>       0.00000000       0.10000000       0.16666667 </v>
   <v>       0.10000000       0.10000000       0.16666667 </v>
   <v>       0.20000000       0.10000000       0.16666667 </v>
   <v>       0.30000000       0.10000000       0.16666667 </v>
   <v>       0.40000000       0.10000000       0.16666667 </v>
   <v>       0.50000000       0.10000000       0.16666667 </v>
   <v>      -0.40000000       0.10000000       0.16666667 </v>
   <v>      -0.30000000       0.10000000       0.16666667 </v>
   <v>      -0.20000000       0.10000000       0.16666667 </v>
   <v>       0.00000000       0.20000000       0.16666667 </v>
   <v>       0.10000000       0.20000000       0.16666667 </v>
   <v>       0.20000000       0.20000000       0.16666667 </v>
   <v>       0.30000000       0.20000000       0.16666667 </v>
   <v>       0.40000000       0.20000000       0.16666667 </v>
   <v>       0.50000000       0.20000000       0.16666667 </v>
   <v>      -0.40000000       0.20000000       0.16666667 </v>
   <v>      -0.30000000       0.20000000       0.16666667 </v>
   <v>       0.00000000       0.30000000       0.16666667 </v>
   <v>       0.10000000       0.30000000       0.16666667 </v>
   <v>       0.20000000       0.30000000       0.16666667 </v>
   <v>       0.30000000       0.30000000       0.16666667 </v>
   <v>       0.40000000       0.30000000       0.16666667 </v>
   <v>       0.50000000       0.30000000       0.16666667 </v>
   <v>      -0.40000000       0.30000000       0.16666667 </v>
   <v>       0.00000000       0.40000000       0.16666667 </v>
   <v>       0.10000000       0.40000000       0.16666667 </v>
   <v>       0.20000000       0.40000000       0.16666667 </v>
   <v>       0.30000000       0.40000000       0.16666667 </v>
   <v>       0.40000000       0.40000000       0.16666667 </v>
   <v>       0.50000000       0.40000000       0.16666667 </v>
   <v>       0.00000000       0.50000000       0.16666667 </v>
   <v>       0.10000000       0.50000000       0.16666667 </v>
   <v>       0.20000000       0.50000000       0.16666667 </v>
   <v>       0.30000000       0.50000000       0.16666667 </v>
   <v>       0.40000000       0.50000000       0.16666667 </v>
   <v>       0.00000000      -0.40000000       0.16666667 </v>
   <v>       0.10000000      -0.40000000       0.16666667 </v>
   <v>       0.20000000      -0.40000000       0.16666667 </v>
   <v>       0.30000000      -0.40000000       0.16666667 </v>
   <v>       0.00000000      -0.30000000       0.16666667 </v>
   <v>       0.10000000      -0.30000000       0.16666667 </v>
   <v>       0.20000000      -0.30000000       0.16666667 </v>
   <v>       0.00000000      -0.20000000       0.16666667 </v>
   <v>       0.10000000      -0.20000000       0.16666667 </v>
   <v>       0.00000000      -0.10000000       0.16666667 </v>
   <v>       0.00000000       0.00000000       0.33333333 </v>
   <v>       0.10000000       0.00000000       0.33333333 </v>
   <v>       0.20000000       0.00000000       0.33333333 </v>
   <v>       0.30000000       0.00000000       0.33333333 </v>
   <v>       0.40000000       0.00000000       0.33333333 </v>
   <v>       0.50000000       0.00000000       0.33333333 </v>
   <v>      -0.40000000      -0.00000000       0.33333333 </v>
   <v>      -0.30000000      -0.00000000       0.33333333 </v>
   <v>      -0.20000000      -0.00000000       0.33333333 </v>
   <v>      -0.10000000      -0.00000000       0.33333333 </v>
   <v>       0.00000000       0.10000000       0.33333333 </v>
   <v>       0.10000000       0.10000000       0.33333333 </v>
   <v>       0.20000000       0.10000000       0.33333333 </v>
   <v>       0.30000000       0.10000000       0.33333333 </v>
   <v>       0.40000000       0.10000000       0.33333333 </v>
   <v>       0.50000000       0.10000000       0.33333333 </v>
   <v>      -0.40000000       0.10000000       0.33333333 </v>
   <v>      -0.30000000       0.10000000       0.33333333 </v>
   <v>      -0.20000000       0.10000000       0.33333333 </v>
   <v>       0.00000000       0.20000000       0.33333333 </v>
   <v>       0.10000000       0.20000000       0.33333333 </v>
   <v>       0.20000000       0.20000000       0.33333333 </v>
   <v>       0.30000000       0.20000000       0.33333333 </v>
   <v>       0.40000000       0.20000000       0.33333333 </v>
   <v>       0.50000000       0.20000000       0.33333333 </v>
   <v>      -0.40000000       0.20000000       0.33333333 </v>
   <v>      -0.30000000       0.20000000       0.33333333 </v>
   <v>       0.00000000       0.30000000       0.33333333 </v>
   <v>       0.10000000       0.30000000       0.33333333 </v>
   <v>       0.20000000       0.30000000       0.33333333 </v>
   <v>       0.30000000       0.30000000       0.33333333 </v>
   <v>       0.40000000       0.30000000       0.33333333 </v>
   <v>       0.50000000       0.30000000       0.33333333 </v>
   <v>      -0.40000000       0.30000000       0.33333333 </v>
   <v>       0.00000000       0.40000000       0.33333333 </v>
   <v>       0.10000000       0.40000000       0.33333333 </v>
   <v>       0.20000000       0.40000000       0.33333333 </v>
   <v>       0.30000000       0.40000000       0.33333333 </v>
   <v>       0.40000000       0.40000000       0.33333333 </v>
   <v>       0.50000000       0.40000000       0.33333333 </v>
   <v>       0.00000000       0.50000000       0.33333333 </v>
   <v>       0.10000000       0.50000000       0.33333333 </v>
   <v>       0.20000000       0.50000000       0.33333333 </v>
   <v>       0.30000000       0.50000000       0.33333333 </v>
   <v>       0.40000000       0.50000000       0.33333333 </v>
   <v>       0.00000000      -0.40000000       0.33333333 </v>
   <v>       0.10000000      -0.40000000       0.33333333 </v>
   <v>       0.20000000      -0.40000000       0.33333333 </v>
   <v>       0.30000000      -0.40000000       0.33333333 </v>
   <v>       0.00000000      -0.30000000       0.33333333 </v>
   <v>       0.10000000      -0.30000000       0.33333333 </v>
   <v>       0.20000000      -0.30000000       0.33333333 </v>
   <v>       0.00000000      -0.20000000       0.33333333 </v>
   <v>       0.10000000      -0.20000000       0.33333333 </v>
   <v>       0.00000000      -0.10000000       0.33333333 </v>
   <v>       0.00000000       0.00000000       0.50000000 </v>
   <v>       0.10000000       0.00000000       0.50000000 </v>
   <v>       0.20000000       0.00000000       0.50000000 </v>
   <v>       0.30000000       0.00000000       0.50000000 </v>
   <v>       0.40000000       0.00000000       0.50000000 </v>
   <v>       0.50000000       0.00000000       0.50000000 </v>
   <v>       0.00000000       0.10000000       0.50000000 </v>
   <v>       0.10000000       0.10000000       0.50000000 </v>
   <v>       0.20000000       0.10000000       0.50000000 </v>
   <v>       0.30000000       0.10000000       0.50000000 </v>
   <v>       0.40000000       0.10000000       0.50000000 </v>
   <v>       0.50000000       0.10000000       0.50000000 </v>
   <v>      -0.40000000       0.10000000       0.50000000 </v>
   <v>      -0.30000000       0.10000000       0.50000000 </v>
   <v>      -0.20000000       0.10000000       0.50000000 </v>
   <v>       0.00000000       0.20000000       0.50000000 </v>
   <v>       0.10000000       0.20000000       0.50000000 </v>
   <v>       0.20000000       0.20000000       0.50000000 </v>
   <v>       0.30000000       0.20000000       0.50000000 </v>
   <v>       0.40000000       0.20000000       0.50000000 </v>
   <v>       0.50000000       0.20000000       0.50000000 </v>
   <v>      -0.40000000       0.20000000       0.50000000 </v>
   <v>       0.00000000       0.30000000       0.50000000 </v>
   <v>       0.10000000       0.30000000       0.50000000 </v>
   <v>       0.20000000       0.30000000       0.50000000 </v>
   <v>       0.30000000       0.30000000       0.50000000 </v>
   <v>       0.40000000       0.30000000       0.50000000 </v>
   <v>       0.00000000       0.40000000       0.50000000 </v>
   <v>       0.10000000       0.40000000       0.50000000 </v>
   <v>       0.20000000       0.40000000       0.50000000 </v>
   <v>       0.00000000       0.50000000       0.50000000 </v>
  </varray>
  <varray name="weights" >
   <v>       0.00166667 </v>
   <v>       0.00666667 </v>
   <v>       0.00666667 </v>
   <v>       0.00666667 </v>
   <v>       0.00666667 </v>
   <v>       0.00333333 </v>
   <v>       0.00333333 </v>
   <v>       0.00666667 </v>
   <v>       0.00666667 </v>
   <v>       0.00666667 </v>
   <v>       0.00666667 </v>
   <v>       0.00666667 </v>
   <v>       0.00666667 </v>
   <v>       0.00666667 </v>
   <v>       0.00333333 </v>
   <v>       0.00333333 </v>
   <v>       0.00666667 </v>
   <v>       0.00666667 </v>
   <v>       0.00666667 </v>
   <v>       0.00666667 </v>
   <v>       0.00666667 </v>
   <v>       0.00333333 </v>
   <v>       0.00333333 </v>
   <v>       0.00666667 </v>
   <v>       0.00666667 </v>
   <v>       0.00666667 </v>
   <v>       0.00333333 </v>
   <v>       0.00333333 </v>
   <v>       0.00666667 </v>
   <v>       0.00333333 </v>
   <v>       0.00166667 </v>
   <v>       0.00333333 </v>
   <v>       0.00666667 </v>
   <v>       0.00666667 </v>
   <v>       0.00666667 </v>
   <v>       0.00666667 </v>
   <v>       0.00666667 </v>
   <v>       0.00666667 </v>
   <v>       0.00666667 </v>
   <v>       0.00666667 </v>
   <v>       0.00666667 </v>
   <v>       0.00333333 </v>
   <v>       0.00666667 </v>
   <v>       0.00666667 </v>
   <v>       0.00666667 </v>
   <v>       0.00666667 </v>
   <v>       0.00666667 </v>
   <v>       0.00666667 </v>
   <v>       0.00666667 </v>
   <v>       0.00666667 </v>
   <v>       0.00333333 </v>
   <v>       0.00666667 </v>
   <v>       0.00666667 </v>
   <v>       0.00666667 </v>
   <v>       0.00666667 </v>
   <v>       0.00666667 </v>
   <v>       0.00666667 </v>
   <v>       0.00666667 </v>
   <v>       0.00333333 </v>
   <v>       0.00666667 </v>
   <v>       0.00666667 </v>
   <v>       0.00666667 </v>
   <v>       0.00666667 </v>
   <v>       0.00666667 </v>
   <v>       0.00666667 </v>
   <v>       0.00333333 </v>
   <v>       0.00666667 </v>
   <v>       0.00666667 </v>
   <v>       0.00666667 </v>
   <v>       0.00666667 </v>
   <v>       0.00666667 </v>
   <v>       0.00333333 </v>
   <v>       0.00666667 </v>
   <v>       0.00666667 </v>
   <v>       0.00666667 </v>
   <v>       0.00666667 </v>
   <v>       0.00333333 </v>
   <v>       0.00666667 </v>
   <v>       0.00666667 </v>
   <v>       0.00666667 </v>
   <v>       0.00333333 </v>
   <v>       0.00666667 </v>
   <v>       0.00666667 </v>
   <v>       0.00333333 </v>
   <v>       0.00666667 </v>
   <v>       0.00333333 </v>
   <v>       0.00333333 </v>
   <v>       0.00666667 </v>
   <v>       0.00666667 </v>
   <v>       0.00666667 </v>
   <v>       0.00666667 </v>
   <v>       0.00666667 </v>
   <v>       0.00666667 </v>
   <v>       0.00666667 </v>
   <v>       0.00666667 </v>
   <v>       0.00666667 </v>
   <v>       0.00333333 </v>
   <v>       0.00666667 </v>
   <v>       0.00666667 </v>
   <v>       0.00666667 </v>
   <v>       0.00666667 </v>
   <v>       0.00666667 </v>
   <v>       0.00666667 </v>
   <v>       0.00666667 </v>
   <v>       0.00666667 </v>
   <v>       0.00333333 </v>
   <v>       0.00666667 </v>
   <v>       0.00666667 </v>
   <v>       0.00666667 </v>
   <v>       0.00666667 </v>
   <v>       0.00666667 </v>
   <v>       0.00666667 </v>
   <v>       0.00666667 </v>
   <v>       0.00333333 </v>
   <v>       0.00666667 </v>
   <v>       0.00666667 </v>
   <v>       0.00666667 </v>
   <v>       0.00666667 </v>
   <v>       0.00666667 </v>
   <v>       0.00666667 </v>
   <v>       0.00333333 </v>
   <v>       0.00666667 </v>
   <v>       0.00666667 </v>
   <v>       0.00666667 </v>
   <v>       0.00666667 </v>
   <v>       0.00666667 </v>
   <v>       0.00333333 </v>
   <v>       0.00666667 </v>
   <v>       0.00666667 </v>
   <v>       0.00666667 </v>
   <v>       0.00666667 </v>
   <v>       0.00333333 </v>
   <v>       0.00666667 </v>
   <v>       0.00666667 </v>
   <v>       0.00666667 </v>
   <v>       0.00333333 </v>
   <v>       0.00666667 </v>
   <v>       0.00666667 </v>
   <v>       0.00333333 </v>
   <v>       0.00666667 </v>
   <v>       0.00333333 </v>
   <v>       0.00166667 </v>
   <v>       0.00666667 </v>
   <v>       0.00666667 </v>
   <v>       0.00666667 </v>
   <v>       0.00666667 </v>
   <v>       0.00333333 </v>
   <v>       0.00333333 </v>
   <v>       0.00666667 </v>
   <v>       0.00666667 </v>
   <v>       0.00666667 </v>
   <v>       0.00666667 </v>
   <v>       0.00666667 </v>
   <v>       0.00666667 </v>
   <v>       0.00666667 </v>
   <v>       0.00333333 </v>
   <v>       0.00333333 </v>
   <v>       0.00666667 </v>
   <v>       0.00666667 </v>
   <v>       0.00666667 </v>
   <v>       0.00666667 </v>
   <v>       0.00666667 </v>
   <v>       0.00333333 </v>
   <v>       0.00333333 </v>
   <v>       0.00666667 </v>
   <v>       0.00666667 </v>
   <v>       0.00666667 </v>
   <v>       0.00333333 </v>
   <v>       0.00333333 </v>
   <v>       0.00666667 </v>
   <v>       0.00333333 </v>
   <v>       0.00166667 </v>
  </varray>
 </kpoints>
 <parameters>
  <separator name="general" >
   <i type="string" name="SYSTEM">unknown system</i>
   <i type="logical" name="LCOMPAT"> F  </i>
  </separator>
  <separator name="electronic" >
   <i type="string" name="PREC">accura</i>
   <i name="ENMAX">    520.00000000</i>
   <i name="ENAUG">    627.11200000</i>
   <i name="EDIFF">      0.00000001</i>
   <i type="int" name="IALGO">    38</i>
   <i type="int" name="IWAVPR">    11</i>
   <i type="int" name="NBANDS">    16</i>
   <i name="NELECT">     16.00000000</i>
   <i type="int" name="TURBO">     0</i>
   <i type="int" name="IRESTART">     0</i>
   <i type="int" name="NREBOOT">     0</i>
   <i type="int" name="NMIN">     0</i>
   <i name="EREF">      0.00000000</i>
   <separator name="electronic smearing" >
    <i type="int" name="ISMEAR">     0</i>
    <i name="SIGMA">      0.01000000</i>
    <i name="KSPACING">      0.50000000</i>
    <i type="logical" name="KGAMMA"> T  </i>
   </separator>
   <separator name="electronic projectors" >
    <i type="logical" name="LREAL"> F  </i>
    <v name="ROPT">      0.00000000      0.00000000</v>
    <i type="int" name="LMAXPAW">  -100</i>
    <i type="int" name="LMAXMIX">     2</i>
    <i type="logical" name="NLSPLINE"> F  </i>
   </separator>
   <separator name="electronic startup" >
    <i type="int" name="ISTART">     0</i>
    <i type="int" name="ICHARG">     2</i>
    <i type="int" name="INIWAV">     1</i>
   </separator>
   <separator name="electronic spin" >
    <i type="int" name="ISPIN">     1</i>
    <i type="logical" name="LNONCOLLINEAR"> F  </i>
    <v name="MAGMOM">      1.00000000      1.00000000      1.00000000      1.00000000</v>
    <i name="NUPDOWN">     -1.00000000</i>
    <i type="logical" name="LSORBIT"> F  </i>
    <v name="SAXIS">      0.00000000      0.00000000      1.00000000</v>
    <i type="logical" name="LSPIRAL"> F  </i>
    <v name="QSPIRAL">      0.00000000      0.00000000      0.00000000</v>
    <i type="logical" name="LZEROZ"> F  </i>
   </separator>
   <separator name="electronic exchange-correlation" >
    <i type="logical" name="LASPH"> F  </i>
    <i type="logical" name="LMETAGGA"> F  </i>
   </separator>
   <separator name="electronic convergence" >
    <i type="int" name="NELM">   100</i>
    <i type="int" name="NELMDL">    -5</i>
    <i type="int" name="NELMIN">     2</i>
    <i name="ENINI">    520.00000000</i>
    <separator name="electronic convergence detail" >
     <i type="logical" name="LDIAG"> T  </i>
     <i type="logical" name="LSUBROT"> F  </i>
     <i name="WEIMIN">      0.00100000</i>
     <i name="EBREAK">      0.00000000</i>
     <i name="DEPER">      0.30000000</i>
     <i type="int" name="NRMM">     4</i>
     <i name="TIME">      0.40000000</i>
    </separator>
   </separator>
   <separator name="electronic mixer" >
    <i name="AMIX">      0.40000000</i>
    <i name="BMIX">      1.00000000</i>
    <i name="AMIN">      0.10000000</i>
    <i name="AMIX_MAG">      1.60000000</i>
    <i name="BMIX_MAG">      1.00000000</i>
    <separator name="electronic mixer details" >
     <i type="int" name="IMIX">     4</i>
     <i type="logical" name="MIXFIRST"> F  </i>
     <i type="int" name="MAXMIX">   -45</i>
     <i name="WC">    100.00000000</i>
     <i type="int" name="INIMIX">     1</i>
     <i type="int" name="MIXPRE">     1</i>
     <i type="int" name="MREMOVE">     5</i>
    </separator>
   </separator>
   <separator name="electronic dipolcorrection" >
    <i type="logical" name="LDIPOL"> F  </i>
    <i type="logical" name="LMONO"> F  </i>
    <i type="int" name="IDIPOL">     0</i>
    <i name="EPSILON">      1.00000000</i>
    <v name="DIPOL">   -100.00000000   -100.00000000   -100.00000000</v>
    <i name="EFIELD">      0.00000000</i>
   </separator>
  </separator>
  <separator name="grids" >
   <i type="int" name="NGX">    24</i>
   <i type="int" name="NGY">    24</i>
   <i type="int" name="NGZ">    40</i>
   <i type="int" name="NGXF">    48</i>
   <i type="int" name="NGYF">    48</i>
   <i type="int" name="NGZF">    80</i>
   <i type="logical" name="ADDGRID"> F  </i>
  </separator>
  <separator name="ionic" >
   <i type="int" name="NSW">     1</i>
   <i type="int" name="IBRION">     8</i>
   <i type="int" name="MDALGO">     0</i>
   <i type="int" name="ISIF">     2</i>
   <i name="PSTRESS">      0.00000000</i>
   <i name="EDIFFG">      0.00000010</i>
   <i type="int" name="NFREE">     0</i>
   <i name="POTIM">      0.50000000</i>
   <i name="SMASS">     -3.00000000</i>
   <i name="SCALEE">      1.00000000</i>
  </separator>
  <separator name="ionic md" >
   <i name="TEBEG">      0.00010000</i>
   <i name="TEEND">      0.00010000</i>
   <i type="int" name="NBLOCK">     1</i>
   <i type="int" name="KBLOCK">     1</i>
   <i type="int" name="NPACO">   256</i>
   <i name="APACO">     16.00000000</i>
  </separator>
  <separator name="symmetry" >
   <i type="int" name="ISYM">     2</i>
   <i name="SYMPREC">      0.00000001</i>
  </separator>
  <separator name="dos" >
   <i type="int" name="LORBIT">     0</i>
   <v name="RWIGS">     -1.00000000     -1.00000000</v>
   <i type="int" name="NEDOS">   301</i>
   <i name="EMIN">     10.00000000</i>
   <i name="EMAX">    -10.00000000</i>
   <i name="EFERMI">      0.00000000</i>
  </separator>
  <separator name="writing" >
   <i type="int" name="NWRITE">     2</i>
   <i type="logical" name="LWAVE"> F  </i>
   <i type="logical" name="LDOWNSAMPLE"> F  </i>
   <i type="logical" name="LCHARG"> T  </i>
   <i type="logical" name="LPARD"> F  </i>
   <i type="logical" name="LVTOT"> F  </i>
   <i type="logical" name="LVHAR"> F  </i>
   <i type="logical" name="LELF"> F  </i>
   <i type="logical" name="LOPTICS"> F  </i>
   <v name="STM">      0.00000000      0.00000000      0.00000000      0.00000000      0.00000000      0.00000000      0.00000000</v>
  </separator>
  <separator name="performance" >
   <i type="int" name="NPAR">     8</i>
   <i type="int" name="NSIM">     4</i>
   <i type="int" name="NBLK">    -1</i>
   <i type="logical" name="LPLANE"> T  </i>
   <i type="logical" name="LSCALAPACK"> T  </i>
   <i type="logical" name="LSCAAWARE"> F  </i>
   <i type="logical" name="LSCALU"> F  </i>
   <i type="logical" name="LASYNC"> F  </i>
   <i type="logical" name="LORBITALREAL"> F  </i>
  </separator>
  <separator name="miscellaneous" >
   <i type="int" name="IDIOT">     3</i>
   <i type="int" name="ISPECIAL">     0</i>
   <i type="logical" name="LMUSIC"> F  </i>
   <v name="POMASS">     26.98100000     14.00100000</v>
   <v name="DARWINR">      0.00000000      0.00000000</v>
   <v name="DARWINV">      1.00000000      1.00000000</v>
   <i type="logical" name="LCORR"> T  </i>
  </separator>
  <i type="logical" name="GGA_COMPAT"> T  </i>
  <i type="logical" name="LBERRY"> F  </i>
  <i type="int" name="ICORELEVEL">     0</i>
  <i type="logical" name="LDAU"> F  </i>
  <i type="int" name="I_CONSTRAINED_M">     0</i>
  <separator name="electronic exchange-correlation" >
   <i type="string" name="GGA">--</i>
   <i type="int" name="VOSKOWN">     0</i>
   <i type="logical" name="LHFCALC"> F  </i>
   <i type="string" name="PRECFOCK"></i>
   <i type="logical" name="LSYMGRAD"> F  </i>
   <i type="logical" name="LHFONE"> F  </i>
   <i type="logical" name="LRHFCALC"> F  </i>
   <i type="logical" name="LTHOMAS"> F  </i>
   <i type="logical" name="LMODELHF"> F  </i>
   <i name="ENCUT4O">     -1.00000000</i>
   <i type="int" name="EXXOEP">     0</i>
   <i type="int" name="FOURORBIT">     0</i>
   <i name="AEXX">      0.00000000</i>
   <i name="HFALPHA">      0.00000000</i>
   <i name="MCALPHA">      0.00000000</i>
   <i name="ALDAX">      1.00000000</i>
   <i name="AGGAX">      1.00000000</i>
   <i name="ALDAC">      1.00000000</i>
   <i name="AGGAC">      1.00000000</i>
   <i type="int" name="NKREDX">     1</i>
   <i type="int" name="NKREDY">     1</i>
   <i type="int" name="NKREDZ">     1</i>
   <i type="logical" name="SHIFTRED"> F  </i>
   <i type="logical" name="ODDONLY"> F  </i>
   <i type="logical" name="EVENONLY"> F  </i>
   <i type="int" name="LMAXFOCK">     0</i>
   <i type="int" name="NMAXFOCKAE">     0</i>
   <i type="logical" name="LFOCKAEDFT"> F  </i>
   <i name="HFSCREEN">      0.00000000</i>
   <i name="HFSCREENC">      0.00000000</i>
   <i type="int" name="NBANDSGWLOW">     0</i>
  </separator>
  <separator name="vdW DFT" >
   <i type="logical" name="LUSE_VDW"> F  </i>
   <i name="Zab_VDW">     -0.84910000</i>
   <i name="PARAM1">      0.12340000</i>
   <i name="PARAM2">      1.00000000</i>
   <i name="PARAM3">      0.00000000</i>
  </separator>
  <separator name="model GW" >
   <i type="int" name="MODEL_GW">     0</i>
   <i name="MODEL_EPS0">      6.37909081</i>
   <i name="MODEL_ALPHA">      1.00000000</i>
  </separator>
  <separator name="linear response parameters" >
   <i type="logical" name="LEPSILON"> T  </i>
   <i type="logical" name="LRPA"> F  </i>
   <i type="logical" name="LNABLA"> F  </i>
   <i type="logical" name="LVEL"> F  </i>
   <i type="int" name="KINTER">     0</i>
   <i name="CSHIFT">      0.10000000</i>
   <i name="OMEGAMAX">     -1.00000000</i>
   <i name="DEG_THRESHOLD">      0.00200000</i>
   <i name="RTIME">     -0.10000000</i>
   <i name="WPLASMAI">      0.00000000</i>
   <v name="DFIELD">      0.00000000      0.00000000      0.00000000</v>
   <v name="WPLASMA">      0.00000000      0.00000000      0.00000000      0.00000000      0.00000000      0.00000000      0.00000000      0.00000000      0.00000000</v>
  </separator>
  <separator name="orbital magnetization" >
   <i type="logical" name="NUCIND"> F  </i>
   <v name="MAGPOS">      0.00000000      0.00000000      0.00000000</v>
   <i type="logical" name="LNICSALL"> T  </i>
   <i type="logical" name="ORBITALMAG"> F  </i>
   <i type="logical" name="LMAGBLOCH"> F  </i>
   <i type="logical" name="LCHIMAG"> F  </i>
   <i type="logical" name="LGAUGE"> T  </i>
   <i type="int" name="MAGATOM">     0</i>
   <v name="MAGDIPOL">      0.00000000      0.00000000      0.00000000</v>
   <v name="AVECCONST">      0.00000000      0.00000000      0.00000000</v>
  </separator>
  <separator name="response functions" >
   <i type="logical" name="LADDER"> F  </i>
   <i type="logical" name="LRPAFORCE"> F  </i>
   <i type="logical" name="LFXC"> F  </i>
   <i type="logical" name="LHARTREE"> T  </i>
   <i type="int" name="IBSE">     0</i>
   <v type="int" name="KPOINT">    -1     0     0     0</v>
   <i type="logical" name="LTCTE"> F  </i>
   <i type="logical" name="LTETE"> F  </i>
   <i type="logical" name="LTRIPLET"> F  </i>
   <i type="logical" name="LFXCEPS"> F  </i>
   <i type="logical" name="LFXHEG"> F  </i>
   <i type="int" name="NATURALO">     2</i>
   <i type="logical" name="L2ORDER"> F  </i>
   <i type="logical" name="LMP2LT"> F  </i>
   <i type="logical" name="LUSEW"> F  </i>
   <i name="ENCUTGW">     -2.00000000</i>
   <i name="ENCUTGWSOFT">     -2.00000000</i>
   <i name="ENCUTLF">     -1.00000000</i>
   <i type="int" name="LMAXMP2">    -1</i>
   <i name="SCISSOR">      0.00000000</i>
   <i type="int" name="NOMEGA">     0</i>
   <i type="int" name="NOMEGAR">     0</i>
   <i type="int" name="NBANDSGW">    -1</i>
   <i type="int" name="NBANDSO">    -1</i>
   <i type="int" name="NBANDSV">    -1</i>
   <i type="int" name="NELM">   100</i>
   <i type="int" name="NELMHF">     1</i>
   <i type="int" name="DIM">     3</i>
   <i type="int" name="ANTIRES">     0</i>
   <i name="OMEGAMAX">    -30.00000000</i>
   <i name="OMEGAMIN">    -30.00000000</i>
   <i name="OMEGATL">   -200.00000000</i>
   <i type="int" name="OMEGAGRID">   140</i>
   <i name="CSHIFT">     -0.10000000</i>
   <i type="logical" name="SELFENERGY"> F  </i>
   <i type="logical" name="LSPECTRAL"> F  </i>
   <i type="logical" name="LSPECTRALGW"> F  </i>
   <i type="logical" name="LSINGLES"> F  </i>
   <i type="logical" name="LFERMIGW"> F  </i>
   <i type="logical" name="ODDONLYGW"> F  </i>
   <i type="logical" name="EVENONLYGW"> F  </i>
   <i type="int" name="NKREDLFX">     1</i>
   <i type="int" name="NKREDLFY">     1</i>
   <i type="int" name="NKREDLFZ">     1</i>
   <i type="int" name="MAXMEM">  2800</i>
   <i type="int" name="TELESCOPE">     0</i>
   <i type="int" name="TAUPAR">     1</i>
   <i type="int" name="OMEGAPAR">    -1</i>
   <i name="LAMBDA">      1.00000000</i>
  </separator>
  <separator name="External order field" >
   <i name="OFIELD_KAPPA">      0.00000000</i>
   <v name="OFIELD_K">      0.00000000      0.00000000      0.00000000</v>
   <i name="OFIELD_Q6_NEAR">      0.00000000</i>
   <i name="OFIELD_Q6_FAR">      0.00000000</i>
   <i name="OFIELD_A">      0.00000000</i>
  </separator>
 </parameters>
 <atominfo>
  <atoms>       4 </atoms>
  <types>       2 </types>
  <array name="atoms" >
   <dimension dim="1">ion</dimension>
   <field type="string">element</field>
   <field type="int">atomtype</field>
   <set>
    <rc><c>Al</c><c>   1</c></rc>
    <rc><c>Al</c><c>   1</c></rc>
    <rc><c>N </c><c>   2</c></rc>
    <rc><c>N </c><c>   2</c></rc>
   </set>
  </array>
  <array name="atomtypes" >
   <dimension dim="1">type</dimension>
   <field type="int">atomspertype</field>
   <field type="string">element</field>
   <field>mass</field>
   <field>valence</field>
   <field type="string">pseudopotential</field>
   <set>
    <rc><c>   2</c><c>Al</c><c>     26.98100000</c><c>      3.00000000</c><c>  PAW_PBE Al 04Jan2001                  </c></rc>
    <rc><c>   2</c><c>N </c><c>     14.00100000</c><c>      5.00000000</c><c>  PAW_PBE N 08Apr2002                   </c></rc>
   </set>
  </array>
 </atominfo>
 <structure name="initialpos" >
  <crystal>
   <varray name="basis" >
    <v>       3.12858790       0.00000000       0.00000000 </v>
    <v>      -1.56429395       2.70943660       0.00000000 </v>
    <v>       0.00000000       0.00000000       5.01695461 </v>
   </varray>
   <i name="volume">     42.52727205 </i>
   <varray name="rec_basis" >
    <v>       0.31963302       0.18454021       0.00000000 </v>
    <v>       0.00000000       0.36908042       0.00000000 </v>
    <v>       0.00000000       0.00000000       0.19932411 </v>
   </varray>
  </crystal>
  <varray name="positions" >
   <v>       0.33333336       0.66666664       0.49928704 </v>
   <v>       0.66666672       0.33333336       0.99928708 </v>
   <v>       0.33333336       0.66666664       0.88071307 </v>
   <v>       0.66666672       0.33333336       0.38071303 </v>
  </varray>
 </structure>
 <calculation>
  <scstep>
   <time name="dav">    4.03    7.38</time>
   <time name="total">    4.07    7.47</time>
   <energy>
    <i name="alphaZ">     15.37241716 </i>
    <i name="ewald">   -588.30358702 </i>
    <i name="hartreedc">   -120.16342982 </i>
    <i name="XCdc">    -12.23336194 </i>
    <i name="pawpsdc">    542.26577748 </i>
    <i name="pawaedc">   -480.73867292 </i>
    <i name="eentropy">     -0.00005634 </i>
    <i name="bandstr">     49.29048481 </i>
    <i name="atom">    636.14905488 </i>
    <i name="e_fr_energy">     41.63862628 </i>
    <i name="e_wo_entrp">     41.63868263 </i>
    <i name="e_0_energy">     41.63865446 </i>
   </energy>
  </scstep>
  <scstep>
   <time name="dav">    4.68    8.62</time>
   <time name="total">    4.69    8.62</time>
   <energy>
    <i name="e_fr_energy">    -30.91667264 </i>
    <i name="e_wo_entrp">    -30.91667264 </i>
    <i name="e_0_energy">    -30.91667264 </i>
   </energy>
  </scstep>
  <scstep>
   <time name="dav">    4.39    8.02</time>
   <time name="total">    4.39    8.02</time>
   <energy>
    <i name="e_fr_energy">    -34.43894980 </i>
    <i name="e_wo_entrp">    -34.43894980 </i>
    <i name="e_0_energy">    -34.43894980 </i>
   </energy>
  </scstep>
  <scstep>
   <time name="dav">    4.47    8.13</time>
   <time name="total">    4.47    8.13</time>
   <energy>
    <i name="e_fr_energy">    -34.46123172 </i>
    <i name="e_wo_entrp">    -34.46123172 </i>
    <i name="e_0_energy">    -34.46123172 </i>
   </energy>
  </scstep>
  <scstep>
   <time name="dav">    4.58    8.27</time>
   <time name="total">    4.67    8.42</time>
   <energy>
    <i name="e_fr_energy">    -34.46152509 </i>
    <i name="e_wo_entrp">    -34.46152509 </i>
    <i name="e_0_energy">    -34.46152509 </i>
   </energy>
  </scstep>
  <scstep>
   <time name="dav">    4.25    7.72</time>
   <time name="total">    4.39    8.01</time>
   <energy>
    <i name="e_fr_energy">    -29.76563802 </i>
    <i name="e_wo_entrp">    -29.76563802 </i>
    <i name="e_0_energy">    -29.76563802 </i>
   </energy>
  </scstep>
  <scstep>
   <time name="dav">    4.08    7.37</time>
   <time name="total">    4.16    7.53</time>
   <energy>
    <i name="e_fr_energy">    -29.79230209 </i>
    <i name="e_wo_entrp">    -29.79230209 </i>
    <i name="e_0_energy">    -29.79230209 </i>
   </energy>
  </scstep>
  <scstep>
   <time name="dav">    4.41    7.90</time>
   <time name="total">    4.50    8.07</time>
   <energy>
    <i name="e_fr_energy">    -29.78520782 </i>
    <i name="e_wo_entrp">    -29.78520782 </i>
    <i name="e_0_energy">    -29.78520782 </i>
   </energy>
  </scstep>
  <scstep>
   <time name="dav">    4.78    8.59</time>
   <time name="total">    4.88    8.77</time>
   <energy>
    <i name="e_fr_energy">    -29.77997321 </i>
    <i name="e_wo_entrp">    -29.77997321 </i>
    <i name="e_0_energy">    -29.77997321 </i>
   </energy>
  </scstep>
  <scstep>
   <time name="dav">    4.13    7.52</time>
   <time name="total">    4.21    7.65</time>
   <energy>
    <i name="e_fr_energy">    -29.78061046 </i>
    <i name="e_wo_entrp">    -29.78061046 </i>
    <i name="e_0_energy">    -29.78061046 </i>
   </energy>
  </scstep>
  <scstep>
   <time name="dav">    4.40    8.03</time>
   <time name="total">    4.48    8.18</time>
   <energy>
    <i name="e_fr_energy">    -29.78052409 </i>
    <i name="e_wo_entrp">    -29.78052409 </i>
    <i name="e_0_energy">    -29.78052409 </i>
   </energy>
  </scstep>
  <scstep>
   <time name="dav">    4.13    7.52</time>
   <time name="total">    4.22    7.70</time>
   <energy>
    <i name="e_fr_energy">    -29.78052742 </i>
    <i name="e_wo_entrp">    -29.78052742 </i>
    <i name="e_0_energy">    -29.78052742 </i>
   </energy>
  </scstep>
  <scstep>
   <time name="dav">    4.30    7.81</time>
   <time name="total">    4.38    7.97</time>
   <energy>
    <i name="e_fr_energy">    -29.78052730 </i>
    <i name="e_wo_entrp">    -29.78052730 </i>
    <i name="e_0_energy">    -29.78052730 </i>
   </energy>
  </scstep>
  <scstep>
   <time name="dav">    4.33    7.87</time>
   <time name="total">    4.41    8.01</time>
   <energy>
    <i name="e_fr_energy">    -29.78052731 </i>
    <i name="e_wo_entrp">    -29.78052731 </i>
    <i name="e_0_energy">    -29.78052731 </i>
   </energy>
  </scstep>
  <scstep>
   <time name="dav">    4.62    8.39</time>
   <time name="total">    4.69    8.53</time>
   <energy>
    <i name="e_fr_energy">    -29.78052735 </i>
    <i name="e_wo_entrp">    -29.78052735 </i>
    <i name="e_0_energy">    -29.78052735 </i>
   </energy>
  </scstep>
  <scstep>
   <time name="dav">    3.38    6.07</time>
   <time name="total">    3.40    6.12</time>
   <energy>
    <i name="alphaZ">     15.37241716 </i>
    <i name="ewald">   -588.30358702 </i>
    <i name="hartreedc">   -156.95425588 </i>
    <i name="XCdc">     -9.27872235 </i>
    <i name="pawpsdc">   1454.89003636 </i>
    <i name="pawaedc">  -1393.90052221 </i>
    <i name="eentropy">     -0.00000000 </i>
    <i name="bandstr">     12.24505172 </i>
    <i name="atom">    636.14905488 </i>
    <i name="e_fr_energy">    -29.78052734 </i>
    <i name="e_wo_entrp">    -29.78052734 </i>
    <i name="e_0_energy">    -29.78052734 </i>
   </energy>
  </scstep>
  <structure>
   <crystal>
    <varray name="basis" >
     <v>       3.12858790       0.00000000       0.00000000 </v>
     <v>      -1.56429395       2.70943660       0.00000000 </v>
     <v>       0.00000000       0.00000000       5.01695461 </v>
    </varray>
    <i name="volume">     42.52727205 </i>
    <varray name="rec_basis" >
     <v>       0.31963302       0.18454021       0.00000000 </v>
     <v>       0.00000000       0.36908042       0.00000000 </v>
     <v>       0.00000000       0.00000000       0.19932411 </v>
    </varray>
   </crystal>
   <varray name="positions" >
    <v>       0.33333336       0.66666664       0.49928704 </v>
    <v>       0.66666672       0.33333336       0.99928708 </v>
    <v>       0.33333336       0.66666664       0.88071307 </v>
    <v>       0.66666672       0.33333336       0.38071303 </v>
   </varray>
  </structure>
  <varray name="forces" >
   <v>      -0.00000000       0.00000187      -0.00337420 </v>
   <v>      -0.00000000      -0.00000189      -0.00337959 </v>
   <v>       0.00000000       0.00000186       0.00337453 </v>
   <v>       0.00000000      -0.00000184       0.00337926 </v>
  </varray>
  <varray name="stress" >
   <v>      -0.19024319       0.00000000       0.00000000 </v>
   <v>       0.00000000      -0.19036953       0.00000052 </v>
   <v>       0.00000000       0.00000055      -0.24214095 </v>
  </varray>
  <energy>
   <i name="e_fr_energy">    -29.78052734 </i>
   <i name="e_wo_entrp">    -29.78052734 </i>
   <i name="e_0_energy">     -0.00000000 </i>
  </energy>
  <scstep>
   <time name="total">    0.95    1.61</time>
   <energy>
    <i name="e_fr_energy">     -0.41390912 </i>
    <i name="e_wo_entrp">     -0.41390912 </i>
    <i name="e_0_energy">     -0.41390912 </i>
   </energy>
  </scstep>
  <scstep>
   <time name="total">    0.94    1.61</time>
   <energy>
    <i name="e_fr_energy">     -0.42404722 </i>
    <i name="e_wo_entrp">     -0.42404722 </i>
    <i name="e_0_energy">     -0.42404722 </i>
   </energy>
  </scstep>
  <scstep>
   <time name="total">    0.93    1.58</time>
   <energy>
    <i name="e_fr_energy">     -0.42408018 </i>
    <i name="e_wo_entrp">     -0.42408018 </i>
    <i name="e_0_energy">     -0.42408018 </i>
   </energy>
  </scstep>
  <scstep>
   <time name="total">    0.95    1.60</time>
   <energy>
    <i name="e_fr_energy">     -0.42408059 </i>
    <i name="e_wo_entrp">     -0.42408059 </i>
    <i name="e_0_energy">     -0.42408059 </i>
   </energy>
  </scstep>
  <scstep>
   <time name="total">    0.90    1.49</time>
   <energy>
    <i name="e_fr_energy">     -0.42408059 </i>
    <i name="e_wo_entrp">     -0.42408059 </i>
    <i name="e_0_energy">     -0.42408059 </i>
   </energy>
  </scstep>
  <scstep>
   <time name="total">    0.99    1.67</time>
   <energy>
    <i name="e_fr_energy">     -0.41410976 </i>
    <i name="e_wo_entrp">     -0.41410976 </i>
    <i name="e_0_energy">     -0.41410976 </i>
   </energy>
  </scstep>
  <scstep>
   <time name="total">    0.97    1.62</time>
   <energy>
    <i name="e_fr_energy">     -0.42389698 </i>
    <i name="e_wo_entrp">     -0.42389698 </i>
    <i name="e_0_energy">     -0.42389698 </i>
   </energy>
  </scstep>
  <scstep>
   <time name="total">    0.89    1.51</time>
   <energy>
    <i name="e_fr_energy">     -0.42392877 </i>
    <i name="e_wo_entrp">     -0.42392877 </i>
    <i name="e_0_energy">     -0.42392877 </i>
   </energy>
  </scstep>
  <scstep>
   <time name="total">    0.94    1.55</time>
   <energy>
    <i name="e_fr_energy">     -0.42392917 </i>
    <i name="e_wo_entrp">     -0.42392917 </i>
    <i name="e_0_energy">     -0.42392917 </i>
   </energy>
  </scstep>
  <scstep>
   <time name="total">    0.88    1.40</time>
   <energy>
    <i name="e_fr_energy">     -0.42392918 </i>
    <i name="e_wo_entrp">     -0.42392918 </i>
    <i name="e_0_energy">     -0.42392918 </i>
   </energy>
  </scstep>
  <scstep>
   <time name="total">    0.95    1.60</time>
   <energy>
    <i name="e_fr_energy">     -0.43678871 </i>
    <i name="e_wo_entrp">     -0.43678871 </i>
    <i name="e_0_energy">     -0.43678871 </i>
   </energy>
  </scstep>
  <scstep>
   <time name="total">    0.93    1.60</time>
   <energy>
    <i name="e_fr_energy">     -0.44799111 </i>
    <i name="e_wo_entrp">     -0.44799111 </i>
    <i name="e_0_energy">     -0.44799111 </i>
   </energy>
  </scstep>
  <scstep>
   <time name="total">    0.95    1.57</time>
   <energy>
    <i name="e_fr_energy">     -0.44802749 </i>
    <i name="e_wo_entrp">     -0.44802749 </i>
    <i name="e_0_energy">     -0.44802749 </i>
   </energy>
  </scstep>
  <scstep>
   <time name="total">    0.90    1.51</time>
   <energy>
    <i name="e_fr_energy">     -0.44802791 </i>
    <i name="e_wo_entrp">     -0.44802791 </i>
    <i name="e_0_energy">     -0.44802791 </i>
   </energy>
  </scstep>
  <scstep>
   <time name="total">    0.88    1.50</time>
   <energy>
    <i name="e_fr_energy">     -0.44802791 </i>
    <i name="e_wo_entrp">     -0.44802791 </i>
    <i name="e_0_energy">     -0.44802791 </i>
   </energy>
  </scstep>
  <varray name="epsilon_rpa" >
   <v>       4.60891642      -0.00000000       0.00000000 </v>
   <v>      -0.00000000       4.60762798      -0.00000145 </v>
   <v>       0.00000000      -0.00000416       4.81270755 </v>
  </varray>
  <kpoints>
   <generation param="Gamma">
    <v type="int" name="divisions">      10       10        6 </v>
    <v name="usershift">      0.00000000       0.00000000       0.00000000 </v>
    <v name="genvec1">      0.10000000       0.00000000       0.00000000 </v>
    <v name="genvec2">      0.00000000       0.10000000       0.00000000 </v>
    <v name="genvec3">      0.00000000       0.00000000       0.16666667 </v>
    <v name="shift">      0.00000000       0.00000000       0.00000000 </v>
   </generation>
   <varray name="kpointlist" >
    <v>       0.00000000       0.00000000       0.00000000 </v>
    <v>       0.10000000       0.00000000       0.00000000 </v>
    <v>       0.20000000       0.00000000       0.00000000 </v>
    <v>       0.30000000       0.00000000       0.00000000 </v>
    <v>       0.40000000       0.00000000       0.00000000 </v>
    <v>       0.50000000       0.00000000       0.00000000 </v>
    <v>       0.00000000       0.10000000       0.00000000 </v>
    <v>       0.10000000       0.10000000       0.00000000 </v>
    <v>       0.20000000       0.10000000       0.00000000 </v>
    <v>       0.30000000       0.10000000       0.00000000 </v>
    <v>       0.40000000       0.10000000       0.00000000 </v>
    <v>       0.50000000       0.10000000       0.00000000 </v>
    <v>      -0.40000000       0.10000000       0.00000000 </v>
    <v>      -0.30000000       0.10000000       0.00000000 </v>
    <v>      -0.20000000       0.10000000       0.00000000 </v>
    <v>      -0.10000000       0.10000000       0.00000000 </v>
    <v>       0.00000000       0.20000000       0.00000000 </v>
    <v>       0.10000000       0.20000000       0.00000000 </v>
    <v>       0.20000000       0.20000000       0.00000000 </v>
    <v>       0.30000000       0.20000000       0.00000000 </v>
    <v>       0.40000000       0.20000000       0.00000000 </v>
    <v>       0.50000000       0.20000000       0.00000000 </v>
    <v>      -0.40000000       0.20000000       0.00000000 </v>
    <v>      -0.30000000       0.20000000       0.00000000 </v>
    <v>      -0.20000000       0.20000000       0.00000000 </v>
    <v>      -0.10000000       0.20000000       0.00000000 </v>
    <v>       0.00000000       0.30000000       0.00000000 </v>
    <v>       0.10000000       0.30000000       0.00000000 </v>
    <v>       0.20000000       0.30000000       0.00000000 </v>
    <v>       0.30000000       0.30000000       0.00000000 </v>
    <v>       0.40000000       0.30000000       0.00000000 </v>
    <v>       0.50000000       0.30000000       0.00000000 </v>
    <v>      -0.40000000       0.30000000       0.00000000 </v>
    <v>      -0.30000000       0.30000000       0.00000000 </v>
    <v>      -0.20000000       0.30000000       0.00000000 </v>
    <v>      -0.10000000       0.30000000       0.00000000 </v>
    <v>       0.00000000       0.40000000       0.00000000 </v>
    <v>       0.10000000       0.40000000       0.00000000 </v>
    <v>       0.20000000       0.40000000       0.00000000 </v>
    <v>       0.30000000       0.40000000       0.00000000 </v>
    <v>       0.40000000       0.40000000       0.00000000 </v>
    <v>       0.50000000       0.40000000       0.00000000 </v>
    <v>      -0.40000000       0.40000000       0.00000000 </v>
    <v>      -0.30000000       0.40000000       0.00000000 </v>
    <v>      -0.20000000       0.40000000       0.00000000 </v>
    <v>      -0.10000000       0.40000000       0.00000000 </v>
    <v>       0.00000000       0.50000000       0.00000000 </v>
    <v>       0.10000000       0.50000000       0.00000000 </v>
    <v>       0.20000000       0.50000000       0.00000000 </v>
    <v>       0.30000000       0.50000000       0.00000000 </v>
    <v>       0.40000000       0.50000000       0.00000000 </v>
    <v>       0.50000000       0.50000000       0.00000000 </v>
    <v>       0.00000000       0.00000000       0.16666667 </v>
    <v>       0.10000000       0.00000000       0.16666667 </v>
    <v>       0.20000000       0.00000000       0.16666667 </v>
    <v>       0.30000000       0.00000000       0.16666667 </v>
    <v>       0.40000000       0.00000000       0.16666667 </v>
    <v>       0.50000000       0.00000000       0.16666667 </v>
    <v>      -0.40000000      -0.00000000       0.16666667 </v>
    <v>      -0.30000000      -0.00000000       0.16666667 </v>
    <v>      -0.20000000      -0.00000000       0.16666667 </v>
    <v>      -0.10000000      -0.00000000       0.16666667 </v>
    <v>       0.00000000       0.10000000       0.16666667 </v>
    <v>       0.10000000       0.10000000       0.16666667 </v>
    <v>       0.20000000       0.10000000       0.16666667 </v>
    <v>       0.30000000       0.10000000       0.16666667 </v>
    <v>       0.40000000       0.10000000       0.16666667 </v>
    <v>       0.50000000       0.10000000       0.16666667 </v>
    <v>      -0.40000000       0.10000000       0.16666667 </v>
    <v>      -0.30000000       0.10000000       0.16666667 </v>
    <v>      -0.20000000       0.10000000       0.16666667 </v>
    <v>      -0.10000000       0.10000000       0.16666667 </v>
    <v>       0.00000000       0.20000000       0.16666667 </v>
    <v>       0.10000000       0.20000000       0.16666667 </v>
    <v>       0.20000000       0.20000000       0.16666667 </v>
    <v>       0.30000000       0.20000000       0.16666667 </v>
    <v>       0.40000000       0.20000000       0.16666667 </v>
    <v>       0.50000000       0.20000000       0.16666667 </v>
    <v>      -0.40000000       0.20000000       0.16666667 </v>
    <v>      -0.30000000       0.20000000       0.16666667 </v>
    <v>      -0.20000000       0.20000000       0.16666667 </v>
    <v>      -0.10000000       0.20000000       0.16666667 </v>
    <v>       0.00000000       0.30000000       0.16666667 </v>
    <v>       0.10000000       0.30000000       0.16666667 </v>
    <v>       0.20000000       0.30000000       0.16666667 </v>
    <v>       0.30000000       0.30000000       0.16666667 </v>
    <v>       0.40000000       0.30000000       0.16666667 </v>
    <v>       0.50000000       0.30000000       0.16666667 </v>
    <v>      -0.40000000       0.30000000       0.16666667 </v>
    <v>      -0.30000000       0.30000000       0.16666667 </v>
    <v>      -0.20000000       0.30000000       0.16666667 </v>
    <v>      -0.10000000       0.30000000       0.16666667 </v>
    <v>       0.00000000       0.40000000       0.16666667 </v>
    <v>       0.10000000       0.40000000       0.16666667 </v>
    <v>       0.20000000       0.40000000       0.16666667 </v>
    <v>       0.30000000       0.40000000       0.16666667 </v>
    <v>       0.40000000       0.40000000       0.16666667 </v>
    <v>       0.50000000       0.40000000       0.16666667 </v>
    <v>      -0.40000000       0.40000000       0.16666667 </v>
    <v>      -0.30000000       0.40000000       0.16666667 </v>
    <v>      -0.20000000       0.40000000       0.16666667 </v>
    <v>      -0.10000000       0.40000000       0.16666667 </v>
    <v>       0.00000000       0.50000000       0.16666667 </v>
    <v>       0.10000000       0.50000000       0.16666667 </v>
    <v>       0.20000000       0.50000000       0.16666667 </v>
    <v>       0.30000000       0.50000000       0.16666667 </v>
    <v>       0.40000000       0.50000000       0.16666667 </v>
    <v>       0.50000000       0.50000000       0.16666667 </v>
    <v>      -0.40000000       0.50000000       0.16666667 </v>
    <v>      -0.30000000       0.50000000       0.16666667 </v>
    <v>      -0.20000000       0.50000000       0.16666667 </v>
    <v>      -0.10000000       0.50000000       0.16666667 </v>
    <v>       0.00000000      -0.40000000       0.16666667 </v>
    <v>       0.10000000      -0.40000000       0.16666667 </v>
    <v>       0.20000000      -0.40000000       0.16666667 </v>
    <v>       0.30000000      -0.40000000       0.16666667 </v>
    <v>       0.40000000      -0.40000000       0.16666667 </v>
    <v>       0.50000000      -0.40000000       0.16666667 </v>
    <v>      -0.40000000      -0.40000000       0.16666667 </v>
    <v>      -0.30000000      -0.40000000       0.16666667 </v>
    <v>      -0.20000000      -0.40000000       0.16666667 </v>
    <v>      -0.10000000      -0.40000000       0.16666667 </v>
    <v>       0.00000000      -0.30000000       0.16666667 </v>
    <v>       0.10000000      -0.30000000       0.16666667 </v>
    <v>       0.20000000      -0.30000000       0.16666667 </v>
    <v>       0.30000000      -0.30000000       0.16666667 </v>
    <v>       0.40000000      -0.30000000       0.16666667 </v>
    <v>       0.50000000      -0.30000000       0.16666667 </v>
    <v>      -0.40000000      -0.30000000       0.16666667 </v>
    <v>      -0.30000000      -0.30000000       0.16666667 </v>
    <v>      -0.20000000      -0.30000000       0.16666667 </v>
    <v>      -0.10000000      -0.30000000       0.16666667 </v>
    <v>       0.00000000      -0.20000000       0.16666667 </v>
    <v>       0.10000000      -0.20000000       0.16666667 </v>
    <v>       0.20000000      -0.20000000       0.16666667 </v>
    <v>       0.30000000      -0.20000000       0.16666667 </v>
    <v>       0.40000000      -0.20000000       0.16666667 </v>
    <v>       0.50000000      -0.20000000       0.16666667 </v>
    <v>      -0.40000000      -0.20000000       0.16666667 </v>
    <v>      -0.30000000      -0.20000000       0.16666667 </v>
    <v>      -0.20000000      -0.20000000       0.16666667 </v>
    <v>      -0.10000000      -0.20000000       0.16666667 </v>
    <v>       0.00000000      -0.10000000       0.16666667 </v>
    <v>       0.10000000      -0.10000000       0.16666667 </v>
    <v>       0.20000000      -0.10000000       0.16666667 </v>
    <v>       0.30000000      -0.10000000       0.16666667 </v>
    <v>       0.40000000      -0.10000000       0.16666667 </v>
    <v>       0.50000000      -0.10000000       0.16666667 </v>
    <v>      -0.40000000      -0.10000000       0.16666667 </v>
    <v>      -0.30000000      -0.10000000       0.16666667 </v>
    <v>      -0.20000000      -0.10000000       0.16666667 </v>
    <v>      -0.10000000      -0.10000000       0.16666667 </v>
    <v>       0.00000000       0.00000000       0.33333333 </v>
    <v>       0.10000000       0.00000000       0.33333333 </v>
    <v>       0.20000000       0.00000000       0.33333333 </v>
    <v>       0.30000000       0.00000000       0.33333333 </v>
    <v>       0.40000000       0.00000000       0.33333333 </v>
    <v>       0.50000000       0.00000000       0.33333333 </v>
    <v>      -0.40000000      -0.00000000       0.33333333 </v>
    <v>      -0.30000000      -0.00000000       0.33333333 </v>
    <v>      -0.20000000      -0.00000000       0.33333333 </v>
    <v>      -0.10000000      -0.00000000       0.33333333 </v>
    <v>       0.00000000       0.10000000       0.33333333 </v>
    <v>       0.10000000       0.10000000       0.33333333 </v>
    <v>       0.20000000       0.10000000       0.33333333 </v>
    <v>       0.30000000       0.10000000       0.33333333 </v>
    <v>       0.40000000       0.10000000       0.33333333 </v>
    <v>       0.50000000       0.10000000       0.33333333 </v>
    <v>      -0.40000000       0.10000000       0.33333333 </v>
    <v>      -0.30000000       0.10000000       0.33333333 </v>
    <v>      -0.20000000       0.10000000       0.33333333 </v>
    <v>      -0.10000000       0.10000000       0.33333333 </v>
    <v>       0.00000000       0.20000000       0.33333333 </v>
    <v>       0.10000000       0.20000000       0.33333333 </v>
    <v>       0.20000000       0.20000000       0.33333333 </v>
    <v>       0.30000000       0.20000000       0.33333333 </v>
    <v>       0.40000000       0.20000000       0.33333333 </v>
    <v>       0.50000000       0.20000000       0.33333333 </v>
    <v>      -0.40000000       0.20000000       0.33333333 </v>
    <v>      -0.30000000       0.20000000       0.33333333 </v>
    <v>      -0.20000000       0.20000000       0.33333333 </v>
    <v>      -0.10000000       0.20000000       0.33333333 </v>
    <v>       0.00000000       0.30000000       0.33333333 </v>
    <v>       0.10000000       0.30000000       0.33333333 </v>
    <v>       0.20000000       0.30000000       0.33333333 </v>
    <v>       0.30000000       0.30000000       0.33333333 </v>
    <v>       0.40000000       0.30000000       0.33333333 </v>
    <v>       0.50000000       0.30000000       0.33333333 </v>
    <v>      -0.40000000       0.30000000       0.33333333 </v>
    <v>      -0.30000000       0.30000000       0.33333333 </v>
    <v>      -0.20000000       0.30000000       0.33333333 </v>
    <v>      -0.10000000       0.30000000       0.33333333 </v>
    <v>       0.00000000       0.40000000       0.33333333 </v>
    <v>       0.10000000       0.40000000       0.33333333 </v>
    <v>       0.20000000       0.40000000       0.33333333 </v>
    <v>       0.30000000       0.40000000       0.33333333 </v>
    <v>       0.40000000       0.40000000       0.33333333 </v>
    <v>       0.50000000       0.40000000       0.33333333 </v>
    <v>      -0.40000000       0.40000000       0.33333333 </v>
    <v>      -0.30000000       0.40000000       0.33333333 </v>
    <v>      -0.20000000       0.40000000       0.33333333 </v>
    <v>      -0.10000000       0.40000000       0.33333333 </v>
    <v>       0.00000000       0.50000000       0.33333333 </v>
    <v>       0.10000000       0.50000000       0.33333333 </v>
    <v>       0.20000000       0.50000000       0.33333333 </v>
    <v>       0.30000000       0.50000000       0.33333333 </v>
    <v>       0.40000000       0.50000000       0.33333333 </v>
    <v>       0.50000000       0.50000000       0.33333333 </v>
    <v>      -0.40000000       0.50000000       0.33333333 </v>
    <v>      -0.30000000       0.50000000       0.33333333 </v>
    <v>      -0.20000000       0.50000000       0.33333333 </v>
    <v>      -0.10000000       0.50000000       0.33333333 </v>
    <v>       0.00000000      -0.40000000       0.33333333 </v>
    <v>       0.10000000      -0.40000000       0.33333333 </v>
    <v>       0.20000000      -0.40000000       0.33333333 </v>
    <v>       0.30000000      -0.40000000       0.33333333 </v>
    <v>       0.40000000      -0.40000000       0.33333333 </v>
    <v>       0.50000000      -0.40000000       0.33333333 </v>
    <v>      -0.40000000      -0.40000000       0.33333333 </v>
    <v>      -0.30000000      -0.40000000       0.33333333 </v>
    <v>      -0.20000000      -0.40000000       0.33333333 </v>
    <v>      -0.10000000      -0.40000000       0.33333333 </v>
    <v>       0.00000000      -0.30000000       0.33333333 </v>
    <v>       0.10000000      -0.30000000       0.33333333 </v>
    <v>       0.20000000      -0.30000000       0.33333333 </v>
    <v>       0.30000000      -0.30000000       0.33333333 </v>
    <v>       0.40000000      -0.30000000       0.33333333 </v>
    <v>       0.50000000      -0.30000000       0.33333333 </v>
    <v>      -0.40000000      -0.30000000       0.33333333 </v>
    <v>      -0.30000000      -0.30000000       0.33333333 </v>
    <v>      -0.20000000      -0.30000000       0.33333333 </v>
    <v>      -0.10000000      -0.30000000       0.33333333 </v>
    <v>       0.00000000      -0.20000000       0.33333333 </v>
    <v>       0.10000000      -0.20000000       0.33333333 </v>
    <v>       0.20000000      -0.20000000       0.33333333 </v>
    <v>       0.30000000      -0.20000000       0.33333333 </v>
    <v>       0.40000000      -0.20000000       0.33333333 </v>
    <v>       0.50000000      -0.20000000       0.33333333 </v>
    <v>      -0.40000000      -0.20000000       0.33333333 </v>
    <v>      -0.30000000      -0.20000000       0.33333333 </v>
    <v>      -0.20000000      -0.20000000       0.33333333 </v>
    <v>      -0.10000000      -0.20000000       0.33333333 </v>
    <v>       0.00000000      -0.10000000       0.33333333 </v>
    <v>       0.10000000      -0.10000000       0.33333333 </v>
    <v>       0.20000000      -0.10000000       0.33333333 </v>
    <v>       0.30000000      -0.10000000       0.33333333 </v>
    <v>       0.40000000      -0.10000000       0.33333333 </v>
    <v>       0.50000000      -0.10000000       0.33333333 </v>
    <v>      -0.40000000      -0.10000000       0.33333333 </v>
    <v>      -0.30000000      -0.10000000       0.33333333 </v>
    <v>      -0.20000000      -0.10000000       0.33333333 </v>
    <v>      -0.10000000      -0.10000000       0.33333333 </v>
    <v>       0.00000000       0.00000000       0.50000000 </v>
    <v>       0.10000000       0.00000000       0.50000000 </v>
    <v>       0.20000000       0.00000000       0.50000000 </v>
    <v>       0.30000000       0.00000000       0.50000000 </v>
    <v>       0.40000000       0.00000000       0.50000000 </v>
    <v>       0.50000000       0.00000000       0.50000000 </v>
    <v>       0.00000000       0.10000000       0.50000000 </v>
    <v>       0.10000000       0.10000000       0.50000000 </v>
    <v>       0.20000000       0.10000000       0.50000000 </v>
    <v>       0.30000000       0.10000000       0.50000000 </v>
    <v>       0.40000000       0.10000000       0.50000000 </v>
    <v>       0.50000000       0.10000000       0.50000000 </v>
    <v>      -0.40000000       0.10000000       0.50000000 </v>
    <v>      -0.30000000       0.10000000       0.50000000 </v>
    <v>      -0.20000000       0.10000000       0.50000000 </v>
    <v>      -0.10000000       0.10000000       0.50000000 </v>
    <v>       0.00000000       0.20000000       0.50000000 </v>
    <v>       0.10000000       0.20000000       0.50000000 </v>
    <v>       0.20000000       0.20000000       0.50000000 </v>
    <v>       0.30000000       0.20000000       0.50000000 </v>
    <v>       0.40000000       0.20000000       0.50000000 </v>
    <v>       0.50000000       0.20000000       0.50000000 </v>
    <v>      -0.40000000       0.20000000       0.50000000 </v>
    <v>      -0.30000000       0.20000000       0.50000000 </v>
    <v>      -0.20000000       0.20000000       0.50000000 </v>
    <v>      -0.10000000       0.20000000       0.50000000 </v>
    <v>       0.00000000       0.30000000       0.50000000 </v>
    <v>       0.10000000       0.30000000       0.50000000 </v>
    <v>       0.20000000       0.30000000       0.50000000 </v>
    <v>       0.30000000       0.30000000       0.50000000 </v>
    <v>       0.40000000       0.30000000       0.50000000 </v>
    <v>       0.50000000       0.30000000       0.50000000 </v>
    <v>      -0.40000000       0.30000000       0.50000000 </v>
    <v>      -0.30000000       0.30000000       0.50000000 </v>
    <v>      -0.20000000       0.30000000       0.50000000 </v>
    <v>      -0.10000000       0.30000000       0.50000000 </v>
    <v>       0.00000000       0.40000000       0.50000000 </v>
    <v>       0.10000000       0.40000000       0.50000000 </v>
    <v>       0.20000000       0.40000000       0.50000000 </v>
    <v>       0.30000000       0.40000000       0.50000000 </v>
    <v>       0.40000000       0.40000000       0.50000000 </v>
    <v>       0.50000000       0.40000000       0.50000000 </v>
    <v>      -0.40000000       0.40000000       0.50000000 </v>
    <v>      -0.30000000       0.40000000       0.50000000 </v>
    <v>      -0.20000000       0.40000000       0.50000000 </v>
    <v>      -0.10000000       0.40000000       0.50000000 </v>
    <v>       0.00000000       0.50000000       0.50000000 </v>
    <v>       0.10000000       0.50000000       0.50000000 </v>
    <v>       0.20000000       0.50000000       0.50000000 </v>
    <v>       0.30000000       0.50000000       0.50000000 </v>
    <v>       0.40000000       0.50000000       0.50000000 </v>
    <v>       0.50000000       0.50000000       0.50000000 </v>
   </varray>
   <varray name="weights" >
    <v>       0.00166667 </v>
    <v>       0.00333333 </v>
    <v>       0.00333333 </v>
    <v>       0.00333333 </v>
    <v>       0.00333333 </v>
    <v>       0.00166667 </v>
    <v>       0.00333333 </v>
    <v>       0.00333333 </v>
    <v>       0.00333333 </v>
    <v>       0.00333333 </v>
    <v>       0.00333333 </v>
    <v>       0.00333333 </v>
    <v>       0.00333333 </v>
    <v>       0.00333333 </v>
    <v>       0.00333333 </v>
    <v>       0.00333333 </v>
    <v>       0.00333333 </v>
    <v>       0.00333333 </v>
    <v>       0.00333333 </v>
    <v>       0.00333333 </v>
    <v>       0.00333333 </v>
    <v>       0.00333333 </v>
    <v>       0.00333333 </v>
    <v>       0.00333333 </v>
    <v>       0.00333333 </v>
    <v>       0.00333333 </v>
    <v>       0.00333333 </v>
    <v>       0.00333333 </v>
    <v>       0.00333333 </v>
    <v>       0.00333333 </v>
    <v>       0.00333333 </v>
    <v>       0.00333333 </v>
    <v>       0.00333333 </v>
    <v>       0.00333333 </v>
    <v>       0.00333333 </v>
    <v>       0.00333333 </v>
    <v>       0.00333333 </v>
    <v>       0.00333333 </v>
    <v>       0.00333333 </v>
    <v>       0.00333333 </v>
    <v>       0.00333333 </v>
    <v>       0.00333333 </v>
    <v>       0.00333333 </v>
    <v>       0.00333333 </v>
    <v>       0.00333333 </v>
    <v>       0.00333333 </v>
    <v>       0.00166667 </v>
    <v>       0.00333333 </v>
    <v>       0.00333333 </v>
    <v>       0.00333333 </v>
    <v>       0.00333333 </v>
    <v>       0.00166667 </v>
    <v>       0.00333333 </v>
    <v>       0.00333333 </v>
    <v>       0.00333333 </v>
    <v>       0.00333333 </v>
    <v>       0.00333333 </v>
    <v>       0.00333333 </v>
    <v>       0.00333333 </v>
    <v>       0.00333333 </v>
    <v>       0.00333333 </v>
    <v>       0.00333333 </v>
    <v>       0.00333333 </v>
    <v>       0.00333333 </v>
    <v>       0.00333333 </v>
    <v>       0.00333333 </v>
    <v>       0.00333333 </v>
    <v>       0.00333333 </v>
    <v>       0.00333333 </v>
    <v>       0.00333333 </v>
    <v>       0.00333333 </v>
    <v>       0.00333333 </v>
    <v>       0.00333333 </v>
    <v>       0.00333333 </v>
    <v>       0.00333333 </v>
    <v>       0.00333333 </v>
    <v>       0.00333333 </v>
    <v>       0.00333333 </v>
    <v>       0.00333333 </v>
    <v>       0.00333333 </v>
    <v>       0.00333333 </v>
    <v>       0.00333333 </v>
    <v>       0.00333333 </v>
    <v>       0.00333333 </v>
    <v>       0.00333333 </v>
    <v>       0.00333333 </v>
    <v>       0.00333333 </v>
    <v>       0.00333333 </v>
    <v>       0.00333333 </v>
    <v>       0.00333333 </v>
    <v>       0.00333333 </v>
    <v>       0.00333333 </v>
    <v>       0.00333333 </v>
    <v>       0.00333333 </v>
    <v>       0.00333333 </v>
    <v>       0.00333333 </v>
    <v>       0.00333333 </v>
    <v>       0.00333333 </v>
    <v>       0.00333333 </v>
    <v>       0.00333333 </v>
    <v>       0.00333333 </v>
    <v>       0.00333333 </v>
    <v>       0.00333333 </v>
    <v>       0.00333333 </v>
    <v>       0.00333333 </v>
    <v>       0.00333333 </v>
    <v>       0.00333333 </v>
    <v>       0.00333333 </v>
    <v>       0.00333333 </v>
    <v>       0.00333333 </v>
    <v>       0.00333333 </v>
    <v>       0.00333333 </v>
    <v>       0.00333333 </v>
    <v>       0.00333333 </v>
    <v>       0.00333333 </v>
    <v>       0.00333333 </v>
    <v>       0.00333333 </v>
    <v>       0.00333333 </v>
    <v>       0.00333333 </v>
    <v>       0.00333333 </v>
    <v>       0.00333333 </v>
    <v>       0.00333333 </v>
    <v>       0.00333333 </v>
    <v>       0.00333333 </v>
    <v>       0.00333333 </v>
    <v>       0.00333333 </v>
    <v>       0.00333333 </v>
    <v>       0.00333333 </v>
    <v>       0.00333333 </v>
    <v>       0.00333333 </v>
    <v>       0.00333333 </v>
    <v>       0.00333333 </v>
    <v>       0.00333333 </v>
    <v>       0.00333333 </v>
    <v>       0.00333333 </v>
    <v>       0.00333333 </v>
    <v>       0.00333333 </v>
    <v>       0.00333333 </v>
    <v>       0.00333333 </v>
    <v>       0.00333333 </v>
    <v>       0.00333333 </v>
    <v>       0.00333333 </v>
    <v>       0.00333333 </v>
    <v>       0.00333333 </v>
    <v>       0.00333333 </v>
    <v>       0.00333333 </v>
    <v>       0.00333333 </v>
    <v>       0.00333333 </v>
    <v>       0.00333333 </v>
    <v>       0.00333333 </v>
    <v>       0.00333333 </v>
    <v>       0.00333333 </v>
    <v>       0.00333333 </v>
    <v>       0.00333333 </v>
    <v>       0.00333333 </v>
    <v>       0.00333333 </v>
    <v>       0.00333333 </v>
    <v>       0.00333333 </v>
    <v>       0.00333333 </v>
    <v>       0.00333333 </v>
    <v>       0.00333333 </v>
    <v>       0.00333333 </v>
    <v>       0.00333333 </v>
    <v>       0.00333333 </v>
    <v>       0.00333333 </v>
    <v>       0.00333333 </v>
    <v>       0.00333333 </v>
    <v>       0.00333333 </v>
    <v>       0.00333333 </v>
    <v>       0.00333333 </v>
    <v>       0.00333333 </v>
    <v>       0.00333333 </v>
    <v>       0.00333333 </v>
    <v>       0.00333333 </v>
    <v>       0.00333333 </v>
    <v>       0.00333333 </v>
    <v>       0.00333333 </v>
    <v>       0.00333333 </v>
    <v>       0.00333333 </v>
    <v>       0.00333333 </v>
    <v>       0.00333333 </v>
    <v>       0.00333333 </v>
    <v>       0.00333333 </v>
    <v>       0.00333333 </v>
    <v>       0.00333333 </v>
    <v>       0.00333333 </v>
    <v>       0.00333333 </v>
    <v>       0.00333333 </v>
    <v>       0.00333333 </v>
    <v>       0.00333333 </v>
    <v>       0.00333333 </v>
    <v>       0.00333333 </v>
    <v>       0.00333333 </v>
    <v>       0.00333333 </v>
    <v>       0.00333333 </v>
    <v>       0.00333333 </v>
    <v>       0.00333333 </v>
    <v>       0.00333333 </v>
    <v>       0.00333333 </v>
    <v>       0.00333333 </v>
    <v>       0.00333333 </v>
    <v>       0.00333333 </v>
    <v>       0.00333333 </v>
    <v>       0.00333333 </v>
    <v>       0.00333333 </v>
    <v>       0.00333333 </v>
    <v>       0.00333333 </v>
    <v>       0.00333333 </v>
    <v>       0.00333333 </v>
    <v>       0.00333333 </v>
    <v>       0.00333333 </v>
    <v>       0.00333333 </v>
    <v>       0.00333333 </v>
    <v>       0.00333333 </v>
    <v>       0.00333333 </v>
    <v>       0.00333333 </v>
    <v>       0.00333333 </v>
    <v>       0.00333333 </v>
    <v>       0.00333333 </v>
    <v>       0.00333333 </v>
    <v>       0.00333333 </v>
    <v>       0.00333333 </v>
    <v>       0.00333333 </v>
    <v>       0.00333333 </v>
    <v>       0.00333333 </v>
    <v>       0.00333333 </v>
    <v>       0.00333333 </v>
    <v>       0.00333333 </v>
    <v>       0.00333333 </v>
    <v>       0.00333333 </v>
    <v>       0.00333333 </v>
    <v>       0.00333333 </v>
    <v>       0.00333333 </v>
    <v>       0.00333333 </v>
    <v>       0.00333333 </v>
    <v>       0.00333333 </v>
    <v>       0.00333333 </v>
    <v>       0.00333333 </v>
    <v>       0.00333333 </v>
    <v>       0.00333333 </v>
    <v>       0.00333333 </v>
    <v>       0.00333333 </v>
    <v>       0.00333333 </v>
    <v>       0.00333333 </v>
    <v>       0.00333333 </v>
    <v>       0.00333333 </v>
    <v>       0.00333333 </v>
    <v>       0.00333333 </v>
    <v>       0.00333333 </v>
    <v>       0.00333333 </v>
    <v>       0.00333333 </v>
    <v>       0.00333333 </v>
    <v>       0.00166667 </v>
    <v>       0.00333333 </v>
    <v>       0.00333333 </v>
    <v>       0.00333333 </v>
    <v>       0.00333333 </v>
    <v>       0.00166667 </v>
    <v>       0.00333333 </v>
    <v>       0.00333333 </v>
    <v>       0.00333333 </v>
    <v>       0.00333333 </v>
    <v>       0.00333333 </v>
    <v>       0.00333333 </v>
    <v>       0.00333333 </v>
    <v>       0.00333333 </v>
    <v>       0.00333333 </v>
    <v>       0.00333333 </v>
    <v>       0.00333333 </v>
    <v>       0.00333333 </v>
    <v>       0.00333333 </v>
    <v>       0.00333333 </v>
    <v>       0.00333333 </v>
    <v>       0.00333333 </v>
    <v>       0.00333333 </v>
    <v>       0.00333333 </v>
    <v>       0.00333333 </v>
    <v>       0.00333333 </v>
    <v>       0.00333333 </v>
    <v>       0.00333333 </v>
    <v>       0.00333333 </v>
    <v>       0.00333333 </v>
    <v>       0.00333333 </v>
    <v>       0.00333333 </v>
    <v>       0.00333333 </v>
    <v>       0.00333333 </v>
    <v>       0.00333333 </v>
    <v>       0.00333333 </v>
    <v>       0.00333333 </v>
    <v>       0.00333333 </v>
    <v>       0.00333333 </v>
    <v>       0.00333333 </v>
    <v>       0.00333333 </v>
    <v>       0.00333333 </v>
    <v>       0.00333333 </v>
    <v>       0.00333333 </v>
    <v>       0.00333333 </v>
    <v>       0.00333333 </v>
    <v>       0.00166667 </v>
    <v>       0.00333333 </v>
    <v>       0.00333333 </v>
    <v>       0.00333333 </v>
    <v>       0.00333333 </v>
    <v>       0.00166667 </v>
   </varray>
  </kpoints>
  <scstep>
   <time name="total">    1.62    2.80</time>
   <energy>
    <i name="e_fr_energy">     -0.41390912 </i>
    <i name="e_wo_entrp">     -0.41390912 </i>
    <i name="e_0_energy">     -0.41390912 </i>
   </energy>
  </scstep>
  <scstep>
   <time name="total">    1.79    3.00</time>
   <energy>
    <i name="e_fr_energy">     -0.42404723 </i>
    <i name="e_wo_entrp">     -0.42404723 </i>
    <i name="e_0_energy">     -0.42404723 </i>
   </energy>
  </scstep>
  <scstep>
   <time name="total">    2.27    3.76</time>
   <energy>
    <i name="e_fr_energy">     -0.41768459 </i>
    <i name="e_wo_entrp">     -0.41768459 </i>
    <i name="e_0_energy">     -0.41768459 </i>
   </energy>
  </scstep>
  <scstep>
   <time name="total">    2.75    4.63</time>
   <energy>
    <i name="e_fr_energy">     -0.44403435 </i>
    <i name="e_wo_entrp">     -0.44403435 </i>
    <i name="e_0_energy">     -0.44403435 </i>
   </energy>
  </scstep>
  <scstep>
   <time name="total">    2.31    3.84</time>
   <energy>
    <i name="e_fr_energy">     -0.44841374 </i>
    <i name="e_wo_entrp">     -0.44841374 </i>
    <i name="e_0_energy">     -0.44841374 </i>
   </energy>
  </scstep>
  <scstep>
   <time name="total">    2.69    4.54</time>
   <energy>
    <i name="e_fr_energy">     -0.44890204 </i>
    <i name="e_wo_entrp">     -0.44890204 </i>
    <i name="e_0_energy">     -0.44890204 </i>
   </energy>
  </scstep>
  <scstep>
   <time name="total">    2.68    4.53</time>
   <energy>
    <i name="e_fr_energy">     -0.44919676 </i>
    <i name="e_wo_entrp">     -0.44919676 </i>
    <i name="e_0_energy">     -0.44919676 </i>
   </energy>
  </scstep>
  <scstep>
   <time name="total">    2.75    4.62</time>
   <energy>
    <i name="e_fr_energy">     -0.44919748 </i>
    <i name="e_wo_entrp">     -0.44919748 </i>
    <i name="e_0_energy">     -0.44919748 </i>
   </energy>
  </scstep>
  <scstep>
   <time name="total">    2.78    4.71</time>
   <energy>
    <i name="e_fr_energy">     -0.44919889 </i>
    <i name="e_wo_entrp">     -0.44919889 </i>
    <i name="e_0_energy">     -0.44919889 </i>
   </energy>
  </scstep>
  <scstep>
   <time name="total">    2.35    4.02</time>
   <energy>
    <i name="e_fr_energy">     -0.44919887 </i>
    <i name="e_wo_entrp">     -0.44919887 </i>
    <i name="e_0_energy">     -0.44919887 </i>
   </energy>
  </scstep>
  <scstep>
   <time name="total">    2.34    3.95</time>
   <energy>
    <i name="e_fr_energy">     -0.44919866 </i>
    <i name="e_wo_entrp">     -0.44919866 </i>
    <i name="e_0_energy">     -0.44919866 </i>
   </energy>
  </scstep>
  <kpoints>
   <generation param="Gamma">
    <v type="int" name="divisions">      10       10        6 </v>
    <v name="usershift">      0.00000000       0.00000000       0.00000000 </v>
    <v name="genvec1">      0.10000000       0.00000000       0.00000000 </v>
    <v name="genvec2">      0.00000000       0.10000000       0.00000000 </v>
    <v name="genvec3">      0.00000000       0.00000000       0.16666667 </v>
    <v name="shift">      0.00000000       0.00000000       0.00000000 </v>
   </generation>
   <varray name="kpointlist" >
    <v>       0.00000000       0.00000000       0.00000000 </v>
    <v>       0.10000000       0.00000000       0.00000000 </v>
    <v>       0.20000000       0.00000000       0.00000000 </v>
    <v>       0.30000000       0.00000000       0.00000000 </v>
    <v>       0.40000000       0.00000000       0.00000000 </v>
    <v>       0.50000000       0.00000000       0.00000000 </v>
    <v>       0.00000000       0.10000000       0.00000000 </v>
    <v>       0.10000000       0.10000000       0.00000000 </v>
    <v>       0.20000000       0.10000000       0.00000000 </v>
    <v>       0.30000000       0.10000000       0.00000000 </v>
    <v>       0.40000000       0.10000000       0.00000000 </v>
    <v>       0.50000000       0.10000000       0.00000000 </v>
    <v>      -0.40000000       0.10000000       0.00000000 </v>
    <v>      -0.30000000       0.10000000       0.00000000 </v>
    <v>      -0.20000000       0.10000000       0.00000000 </v>
    <v>       0.00000000       0.20000000       0.00000000 </v>
    <v>       0.10000000       0.20000000       0.00000000 </v>
    <v>       0.20000000       0.20000000       0.00000000 </v>
    <v>       0.30000000       0.20000000       0.00000000 </v>
    <v>       0.40000000       0.20000000       0.00000000 </v>
    <v>       0.50000000       0.20000000       0.00000000 </v>
    <v>      -0.40000000       0.20000000       0.00000000 </v>
    <v>       0.00000000       0.30000000       0.00000000 </v>
    <v>       0.10000000       0.30000000       0.00000000 </v>
    <v>       0.20000000       0.30000000       0.00000000 </v>
    <v>       0.30000000       0.30000000       0.00000000 </v>
    <v>       0.40000000       0.30000000       0.00000000 </v>
    <v>       0.00000000       0.40000000       0.00000000 </v>
    <v>       0.10000000       0.40000000       0.00000000 </v>
    <v>       0.20000000       0.40000000       0.00000000 </v>
    <v>       0.00000000       0.50000000       0.00000000 </v>
    <v>       0.00000000       0.00000000       0.16666667 </v>
    <v>       0.10000000       0.00000000       0.16666667 </v>
    <v>       0.20000000       0.00000000       0.16666667 </v>
    <v>       0.30000000       0.00000000       0.16666667 </v>
    <v>       0.40000000       0.00000000       0.16666667 </v>
    <v>       0.50000000       0.00000000       0.16666667 </v>
    <v>      -0.40000000      -0.00000000       0.16666667 </v>
    <v>      -0.30000000      -0.00000000       0.16666667 </v>
    <v>      -0.20000000      -0.00000000       0.16666667 </v>
    <v>      -0.10000000      -0.00000000       0.16666667 </v>
    <v>       0.00000000       0.10000000       0.16666667 </v>
    <v>       0.10000000       0.10000000       0.16666667 </v>
    <v>       0.20000000       0.10000000       0.16666667 </v>
    <v>       0.30000000       0.10000000       0.16666667 </v>
    <v>       0.40000000       0.10000000       0.16666667 </v>
    <v>       0.50000000       0.10000000       0.16666667 </v>
    <v>      -0.40000000       0.10000000       0.16666667 </v>
    <v>      -0.30000000       0.10000000       0.16666667 </v>
    <v>      -0.20000000       0.10000000       0.16666667 </v>
    <v>       0.00000000       0.20000000       0.16666667 </v>
    <v>       0.10000000       0.20000000       0.16666667 </v>
    <v>       0.20000000       0.20000000       0.16666667 </v>
    <v>       0.30000000       0.20000000       0.16666667 </v>
    <v>       0.40000000       0.20000000       0.16666667 </v>
    <v>       0.50000000       0.20000000       0.16666667 </v>
    <v>      -0.40000000       0.20000000       0.16666667 </v>
    <v>      -0.30000000       0.20000000       0.16666667 </v>
    <v>       0.00000000       0.30000000       0.16666667 </v>
    <v>       0.10000000       0.30000000       0.16666667 </v>
    <v>       0.20000000       0.30000000       0.16666667 </v>
    <v>       0.30000000       0.30000000       0.16666667 </v>
    <v>       0.40000000       0.30000000       0.16666667 </v>
[...]
       <r>   19.1334    0.0000 </r>
       <r>   19.1334    0.0000 </r>
      </set>
      <set comment="kpoint 167">
       <r>   -6.6529    1.0000 </r>
       <r>   -6.6529    1.0000 </r>
       <r>    1.1126    1.0000 </r>
       <r>    1.1126    1.0000 </r>
       <r>    2.3918    1.0000 </r>
       <r>    2.3918    1.0000 </r>
       <r>    5.1568    1.0000 </r>
       <r>    5.1568    1.0000 </r>
       <r>   12.9791    0.0000 </r>
       <r>   12.9791    0.0000 </r>
       <r>   14.1151    0.0000 </r>
       <r>   14.1151    0.0000 </r>
       <r>   17.5757    0.0000 </r>
       <r>   17.5757    0.0000 </r>
       <r>   19.5125    0.0000 </r>
       <r>   19.5125    0.0000 </r>
      </set>
      <set comment="kpoint 168">
       <r>   -6.6529    1.0000 </r>
       <r>   -6.6529    1.0000 </r>
       <r>    1.1126    1.0000 </r>
       <r>    1.1126    1.0000 </r>
       <r>    2.3918    1.0000 </r>
       <r>    2.3918    1.0000 </r>
       <r>    5.1568    1.0000 </r>
       <r>    5.1568    1.0000 </r>
       <r>   12.9791    0.0000 </r>
       <r>   12.9791    0.0000 </r>
       <r>   14.1151    0.0000 </r>
       <r>   14.1151    0.0000 </r>
       <r>   17.5757    0.0000 </r>
       <r>   17.5757    0.0000 </r>
       <r>   19.5125    0.0000 </r>
       <r>   19.5125    0.0000 </r>
      </set>
      <set comment="kpoint 169">
       <r>   -6.9929    1.0000 </r>
       <r>   -6.9929    1.0000 </r>
       <r>    0.7778    1.0000 </r>
       <r>    0.7778    1.0000 </r>
       <r>    4.5411    1.0000 </r>
       <r>    4.5411    1.0000 </r>
       <r>    4.6107    1.0000 </r>
       <r>    4.6107    1.0000 </r>
       <r>   11.4508    0.0000 </r>
       <r>   11.4508    0.0000 </r>
       <r>   15.2780    0.0000 </r>
       <r>   15.2780    0.0000 </r>
       <r>   17.5183    0.0000 </r>
       <r>   17.5183    0.0000 </r>
       <r>   19.0757    0.0000 </r>
       <r>   19.0757    0.0000 </r>
      </set>
      <set comment="kpoint 170">
       <r>   -6.8280    1.0000 </r>
       <r>   -6.8280    1.0000 </r>
       <r>    0.6288    1.0000 </r>
       <r>    0.6288    1.0000 </r>
       <r>    3.9090    1.0000 </r>
       <r>    3.9090    1.0000 </r>
       <r>    4.9091    1.0000 </r>
       <r>    4.9091    1.0000 </r>
       <r>   11.6241    0.0000 </r>
       <r>   11.6241    0.0000 </r>
       <r>   15.2758    0.0000 </r>
       <r>   15.2758    0.0000 </r>
       <r>   17.0636    0.0000 </r>
       <r>   17.0636    0.0000 </r>
       <r>   19.3449    0.0000 </r>
       <r>   19.3449    0.0000 </r>
      </set>
      <set comment="kpoint 171">
       <r>   -6.7000    1.0000 </r>
       <r>   -6.7000    1.0000 </r>
       <r>    0.8337    1.0000 </r>
       <r>    0.8337    1.0000 </r>
       <r>    2.9624    1.0000 </r>
       <r>    2.9624    1.0000 </r>
       <r>    5.0961    1.0000 </r>
       <r>    5.0961    1.0000 </r>
       <r>   12.3438    0.0000 </r>
       <r>   12.3438    0.0000 </r>
       <r>   14.8186    0.0000 </r>
       <r>   14.8186    0.0000 </r>
       <r>   17.0846    0.0000 </r>
       <r>   17.0846    0.0000 </r>
       <r>   19.5283    0.0000 </r>
       <r>   19.5283    0.0000 </r>
      </set>
      <set comment="kpoint 172">
       <r>   -6.8191    1.0000 </r>
       <r>   -6.8191    1.0000 </r>
       <r>    0.4504    1.0000 </r>
       <r>    0.4504    1.0000 </r>
       <r>    4.5348    1.0000 </r>
       <r>    4.5348    1.0000 </r>
       <r>    4.6283    1.0000 </r>
       <r>    4.6283    1.0000 </r>
       <r>   11.2241    0.0000 </r>
       <r>   11.2241    0.0000 </r>
       <r>   15.1265    0.0000 </r>
       <r>   15.1265    0.0000 </r>
       <r>   17.5856    0.0000 </r>
       <r>   17.5856    0.0000 </r>
       <r>   19.0884    0.0000 </r>
       <r>   19.0884    0.0000 </r>
      </set>
     </set>
    </set>
   </array>
  </eigenvalues>
  <separator name="orbital magnetization" >
   <v name="MAGDIPOLOUT">      0.00000000      0.00000000      0.00000000</v>
  </separator>
  <dos>
   <i name="efermi">      6.06984618 </i>
   <total>
    <array>
     <dimension dim="1">gridpoints</dimension>
     <dimension dim="2">spin</dimension>
     <field>energy</field>
     <field>total</field>
     <field>integrated</field>
     <set>
      <set comment="spin 1">
       <r>   -10.6031     0.0000     0.0000 </r>
       <r>   -10.4927     0.0000     0.0000 </r>
       <r>   -10.3824     0.0000     0.0000 </r>
       <r>   -10.2721     0.0000     0.0000 </r>
       <r>   -10.1618     0.0000     0.0000 </r>
       <r>   -10.0514     0.0000     0.0000 </r>
       <r>    -9.9411     0.0000     0.0000 </r>
       <r>    -9.8308     0.0000     0.0000 </r>
       <r>    -9.7205     0.0000     0.0000 </r>
       <r>    -9.6101     0.0000     0.0000 </r>
       <r>    -9.4998     0.0000     0.0000 </r>
       <r>    -9.3895     0.0000     0.0000 </r>
       <r>    -9.2792     0.0000     0.0000 </r>
       <r>    -9.1688     0.0000     0.0000 </r>
       <r>    -9.0585     0.0302     0.0033 </r>
       <r>    -8.9482     0.2417     0.0300 </r>
       <r>    -8.8379     0.3626     0.0700 </r>
       <r>    -8.7275     0.1390     0.0853 </r>
       <r>    -8.6172     0.5032     0.1455 </r>
       <r>    -8.5069     0.7133     0.2354 </r>
       <r>    -8.3966     0.0000     0.2367 </r>
       <r>    -8.2862     0.5145     0.2934 </r>
       <r>    -8.1759     1.1453     0.4430 </r>
       <r>    -8.0656     0.5424     0.5032 </r>
       <r>    -7.9553     0.3663     0.5437 </r>
       <r>    -7.8449     0.3628     0.6634 </r>
       <r>    -7.7346     0.5476     0.7637 </r>
       <r>    -7.6243     0.7800     0.9294 </r>
       <r>    -7.5140     0.7375     1.0514 </r>
       <r>    -7.4036     1.5042     1.2760 </r>
       <r>    -7.2933     0.3626     1.3500 </r>
       <r>    -7.1830     1.7104     1.5787 </r>
       <r>    -7.0726     1.9963     1.9069 </r>
       <r>    -6.9623     2.0883     2.2171 </r>
       <r>    -6.8520     0.8751     2.3465 </r>
       <r>    -6.7417     2.5815     2.8748 </r>
       <r>    -6.6313     2.4785     3.2034 </r>
       <r>    -6.5210     3.7104     3.6793 </r>
       <r>    -6.4107     2.1753     4.0000 </r>
       <r>    -6.3004     0.0000     4.0000 </r>
       <r>    -6.1900     0.0000     4.0000 </r>
       <r>    -6.0797     0.0000     4.0000 </r>
       <r>    -5.9694     0.0000     4.0000 </r>
       <r>    -5.8591     0.0000     4.0000 </r>
       <r>    -5.7487     0.0000     4.0000 </r>
       <r>    -5.6384     0.0000     4.0000 </r>
       <r>    -5.5281     0.0000     4.0000 </r>
       <r>    -5.4178     0.0000     4.0000 </r>
       <r>    -5.3074     0.0000     4.0000 </r>
       <r>    -5.1971     0.0000     4.0000 </r>
       <r>    -5.0868     0.0000     4.0000 </r>
       <r>    -4.9765     0.0000     4.0000 </r>
       <r>    -4.8661     0.0000     4.0000 </r>
       <r>    -4.7558     0.0000     4.0000 </r>
       <r>    -4.6455     0.0000     4.0000 </r>
       <r>    -4.5352     0.0000     4.0000 </r>
       <r>    -4.4248     0.0000     4.0000 </r>
       <r>    -4.3145     0.0000     4.0000 </r>
       <r>    -4.2042     0.0000     4.0000 </r>
       <r>    -4.0939     0.0000     4.0000 </r>
       <r>    -3.9835     0.0000     4.0000 </r>
       <r>    -3.8732     0.0000     4.0000 </r>
       <r>    -3.7629     0.0000     4.0000 </r>
       <r>    -3.6526     0.0000     4.0000 </r>
       <r>    -3.5422     0.0000     4.0000 </r>
       <r>    -3.4319     0.0000     4.0000 </r>
       <r>    -3.3216     0.0000     4.0000 </r>
       <r>    -3.2113     0.0000     4.0000 </r>
       <r>    -3.1009     0.0000     4.0000 </r>
       <r>    -2.9906     0.0000     4.0000 </r>
       <r>    -2.8803     0.0000     4.0000 </r>
       <r>    -2.7700     0.0000     4.0000 </r>
       <r>    -2.6596     0.0000     4.0000 </r>
       <r>    -2.5493     0.0000     4.0000 </r>
       <r>    -2.4390     0.0000     4.0000 </r>
       <r>    -2.3287     0.0000     4.0000 </r>
       <r>    -2.2183     0.0000     4.0000 </r>
       <r>    -2.1080     0.0000     4.0000 </r>
       <r>    -1.9977     0.0000     4.0000 </r>
       <r>    -1.8874     0.0000     4.0000 </r>
       <r>    -1.7770     0.0000     4.0000 </r>
       <r>    -1.6667     0.0000     4.0000 </r>
       <r>    -1.5564     0.0000     4.0000 </r>
       <r>    -1.4461     0.0000     4.0000 </r>
       <r>    -1.3357     0.0000     4.0000 </r>
       <r>    -1.2254     0.0000     4.0000 </r>
       <r>    -1.1151     0.0000     4.0000 </r>
       <r>    -1.0048     0.0000     4.0000 </r>
       <r>    -0.8944     0.0000     4.0000 </r>
       <r>    -0.7841     0.0000     4.0000 </r>
       <r>    -0.6738     0.0000     4.0000 </r>
       <r>    -0.5635     0.0000     4.0000 </r>
       <r>    -0.4531     0.0000     4.0000 </r>
       <r>    -0.3428     0.0000     4.0000 </r>
       <r>    -0.2325     0.0000     4.0000 </r>
       <r>    -0.1222     0.0000     4.0000 </r>
       <r>    -0.0118     0.0000     4.0000 </r>
       <r>     0.0985     0.0302     4.0033 </r>
       <r>     0.2088     0.0498     4.0088 </r>
       <r>     0.3191     0.1167     4.0362 </r>
       <r>     0.4295     0.0449     4.0483 </r>
       <r>     0.5398     0.9191     4.1914 </r>
       <r>     0.6501     1.9506     4.4452 </r>
       <r>     0.7604     0.5909     4.5252 </r>
       <r>     0.8708     0.8473     4.7135 </r>
       <r>     0.9811     1.0929     4.9206 </r>
       <r>     1.0914     1.0881     5.2000 </r>
       <r>     1.2017     3.1591     5.5885 </r>
       <r>     1.3121     3.0820     6.0200 </r>
       <r>     1.4224     0.3749     6.0814 </r>
       <r>     1.5327     1.1643     6.3351 </r>
       <r>     1.6430     1.8086     6.5862 </r>
       <r>     1.7534     0.5545     6.7678 </r>
       <r>     1.8637     0.4495     6.8963 </r>
       <r>     1.9740     1.6945     7.0836 </r>
       <r>     2.0843     1.4531     7.3170 </r>
       <r>     2.1947     0.5416     7.3964 </r>
       <r>     2.3050     0.7251     7.4767 </r>
       <r>     2.4153     0.7250     7.5566 </r>
       <r>     2.5256     2.3381     7.8146 </r>
       <r>     2.6360     1.2764     7.9575 </r>
       <r>     2.7463     2.0228     8.1998 </r>
       <r>     2.8566     0.5166     8.2703 </r>
       <r>     2.9669     1.6932     8.6001 </r>
       <r>     3.0773     0.5599     8.6751 </r>
       <r>     3.1876     1.6595     8.8964 </r>
       <r>     3.2979     1.0606     9.0703 </r>
       <r>     3.4082     0.7251     9.1533 </r>
       <r>     3.5186     2.5371     9.4332 </r>
       <r>     3.6289     1.0858     9.5531 </r>
       <r>     3.7392     2.3554     9.9332 </r>
       <r>     3.8496     0.9153    10.0343 </r>
       <r>     3.9599     3.3496    10.5229 </r>
       <r>     4.0702     0.5594    10.6051 </r>
       <r>     4.1805     1.6314    10.9300 </r>
       <r>     4.2909     2.2860    11.1822 </r>
       <r>     4.4012     4.3961    11.7250 </r>
       <r>     4.5115     0.2209    11.8644 </r>
       <r>     4.6218     2.7807    12.4068 </r>
       <r>     4.7322     0.9064    12.6000 </r>
       <r>     4.8425     3.0681    12.9585 </r>
       <r>     4.9528     4.2041    13.5638 </r>
       <r>     5.0631     1.8342    13.9024 </r>
       <r>     5.1735     3.9551    14.4563 </r>
       <r>     5.2838     3.7121    14.9695 </r>
       <r>     5.3941     2.3359    15.4010 </r>
       <r>     5.5044     1.1172    15.5333 </r>
       <r>     5.6148     1.3734    15.7549 </r>
       <r>     5.7251     1.4598    15.9177 </r>
       <r>     5.8354     0.2417    15.9767 </r>
       <r>     5.9457     0.1813    15.9967 </r>
       <r>     6.0561     0.0000    16.0000 </r>
       <r>     6.1664     0.0000    16.0000 </r>
       <r>     6.2767     0.0000    16.0000 </r>
       <r>     6.3870     0.0000    16.0000 </r>
       <r>     6.4974     0.0000    16.0000 </r>
       <r>     6.6077     0.0000    16.0000 </r>
       <r>     6.7180     0.0000    16.0000 </r>
       <r>     6.8283     0.0000    16.0000 </r>
       <r>     6.9387     0.0000    16.0000 </r>
       <r>     7.0490     0.0000    16.0000 </r>
       <r>     7.1593     0.0000    16.0000 </r>
       <r>     7.2696     0.0000    16.0000 </r>
       <r>     7.3800     0.0000    16.0000 </r>
       <r>     7.4903     0.0000    16.0000 </r>
       <r>     7.6006     0.0000    16.0000 </r>
       <r>     7.7109     0.0000    16.0000 </r>
       <r>     7.8213     0.0000    16.0000 </r>
       <r>     7.9316     0.0000    16.0000 </r>
       <r>     8.0419     0.0000    16.0000 </r>
       <r>     8.1522     0.0000    16.0000 </r>
       <r>     8.2626     0.0000    16.0000 </r>
       <r>     8.3729     0.0000    16.0000 </r>
       <r>     8.4832     0.0000    16.0000 </r>
       <r>     8.5935     0.0000    16.0000 </r>
       <r>     8.7039     0.0000    16.0000 </r>
       <r>     8.8142     0.0000    16.0000 </r>
       <r>     8.9245     0.0000    16.0000 </r>
       <r>     9.0348     0.0000    16.0000 </r>
       <r>     9.1452     0.0000    16.0000 </r>
       <r>     9.2555     0.0000    16.0000 </r>
       <r>     9.3658     0.0000    16.0000 </r>
       <r>     9.4761     0.0000    16.0000 </r>
       <r>     9.5865     0.0000    16.0000 </r>
       <r>     9.6968     0.0000    16.0000 </r>
       <r>     9.8071     0.0000    16.0000 </r>
       <r>     9.9174     0.0000    16.0000 </r>
       <r>    10.0278     0.0115    16.0013 </r>
       <r>    10.1381     0.0000    16.0033 </r>
       <r>    10.2484     0.0000    16.0033 </r>
       <r>    10.3587     0.0000    16.0033 </r>
       <r>    10.4691     0.0000    16.0033 </r>
       <r>    10.5794     0.0604    16.0100 </r>
       <r>    10.6897     0.0000    16.0300 </r>
       <r>    10.8000     0.0000    16.0300 </r>
       <r>    10.9104     0.1813    16.0500 </r>
       <r>    11.0207     0.3626    16.0900 </r>
       <r>    11.1310     0.4775    16.1427 </r>
       <r>    11.2413     0.1901    16.1710 </r>
       <r>    11.3517     0.1490    16.2864 </r>
       <r>    11.4620     0.5678    16.3526 </r>
       <r>    11.5723     0.3626    16.5567 </r>
       <r>    11.6826     1.2834    16.6983 </r>
       <r>    11.7930     1.2698    16.9968 </r>
       <r>    11.9033     1.4687    17.1987 </r>
       <r>    12.0136     1.8061    17.4159 </r>
       <r>    12.1239     1.9939    17.6366 </r>
       <r>    12.2343     2.3013    17.9306 </r>
       <r>    12.3446     1.2887    18.0788 </r>
       <r>    12.4549     0.7251    18.3033 </r>
       <r>    12.5652     1.5765    18.4773 </r>
       <r>    12.6756     2.0532    18.7799 </r>
       <r>    12.7859     1.0877    18.9000 </r>
       <r>    12.8962     0.9888    19.0091 </r>
       <r>    13.0065     0.6368    19.1703 </r>
       <r>    13.1169     1.1136    19.3029 </r>
       <r>    13.2272     0.1813    19.4000 </r>
       <r>    13.3375     0.0689    19.4076 </r>
       <r>    13.4478     0.8030    19.5686 </r>
       <r>    13.5582     1.2327    19.7160 </r>
       <r>    13.6685     0.0379    19.7842 </r>
       <r>    13.7788     1.1031    19.9217 </r>
       <r>    13.8891     0.0000    19.9600 </r>
       <r>    13.9995     0.5964    20.0258 </r>
       <r>    14.1098     0.4447    20.1191 </r>
       <r>    14.2201     0.0618    20.1768 </r>
       <r>    14.3304     1.0850    20.4497 </r>
       <r>    14.4408     0.1924    20.4712 </r>
       <r>    14.5511     1.4521    20.6702 </r>
       <r>    14.6614     0.9269    20.8123 </r>
       <r>    14.7718     1.6355    21.1904 </r>
       <r>    14.8821     1.1058    21.4720 </r>
       <r>    14.9924     1.0879    21.6700 </r>
       <r>    15.1027     0.1809    21.7700 </r>
       <r>    15.2131     0.3555    21.8692 </r>
       <r>    15.3234     2.4964    22.1454 </r>
       <r>    15.4337     2.5417    22.5104 </r>
       <r>    15.5440     1.6540    22.8325 </r>
       <r>    15.6544     2.7159    23.1496 </r>
       <r>    15.7647     0.9055    23.3499 </r>
       <r>    15.8750     0.9064    23.4700 </r>
       <r>    15.9853     1.4708    23.6323 </r>
       <r>    16.0957     1.5853    23.8316 </r>
       <r>    16.2060     0.3326    23.9134 </r>
       <r>    16.3163     1.0164    24.0455 </r>
       <r>    16.4266     0.0010    24.0601 </r>
       <r>    16.5370     0.0000    24.0633 </r>
       <r>    16.6473     0.6354    24.1334 </r>
       <r>    16.7576     1.9937    24.4633 </r>
       <r>    16.8679     1.5373    24.6329 </r>
       <r>    16.9783     2.9239    24.9559 </r>
       <r>    17.0886     2.4906    25.3281 </r>
       <r>    17.1989     2.2056    25.6767 </r>
       <r>    17.3092     1.9114    25.9242 </r>
       <r>    17.4196     1.4926    26.1713 </r>
       <r>    17.5299     3.7689    26.6825 </r>
       <r>    17.6402     2.9909    27.0766 </r>
       <r>    17.7505     1.3781    27.2787 </r>
       <r>    17.8609     1.3415    27.5947 </r>
       <r>    17.9712     1.4165    27.8763 </r>
       <r>    18.0815     3.4389    28.3094 </r>
       <r>    18.1918     2.6949    28.6540 </r>
       <r>    18.3022     2.1537    29.0343 </r>
       <r>    18.4125     0.7234    29.2565 </r>
       <r>    18.5228     1.1628    29.3849 </r>
       <r>    18.6331     0.7302    29.5972 </r>
       <r>    18.7435     1.5289    29.8387 </r>
       <r>    18.8538     1.6316    30.0400 </r>
       <r>    18.9641     0.9599    30.1492 </r>
       <r>    19.0744     1.0965    30.2710 </r>
       <r>    19.1848     1.8108    30.5698 </r>
       <r>    19.2951     0.0000    30.5700 </r>
       <r>    19.4054     0.7251    30.6500 </r>
       <r>    19.5157     0.9832    30.7585 </r>
       <r>    19.6261     0.0000    30.8900 </r>
       <r>    19.7364     0.3800    30.9319 </r>
       <r>    19.8467     0.9064    31.0700 </r>
       <r>    19.9570     0.0000    31.0700 </r>
       <r>    20.0674     0.3617    31.1099 </r>
       <r>    20.1777     0.9153    31.2110 </r>
       <r>    20.2880     0.9208    31.3916 </r>
       <r>    20.3983     0.5998    31.4762 </r>
       <r>    20.5087     0.3650    31.5503 </r>
       <r>    20.6190     0.3131    31.6512 </r>
       <r>    20.7293     1.0905    31.8703 </r>
       <r>    20.8396     0.3546    31.9491 </r>
       <r>    20.9500     0.0906    31.9800 </r>
       <r>    21.0603     0.1813    32.0000 </r>
       <r>    21.1706     0.0000    32.0000 </r>
       <r>    21.2809     0.0000    32.0000 </r>
       <r>    21.3913     0.0000    32.0000 </r>
       <r>    21.5016     0.0000    32.0000 </r>
       <r>    21.6119     0.0000    32.0000 </r>
       <r>    21.7222     0.0000    32.0000 </r>
       <r>    21.8326     0.0000    32.0000 </r>
       <r>    21.9429     0.0000    32.0000 </r>
       <r>    22.0532     0.0000    32.0000 </r>
       <r>    22.1635     0.0000    32.0000 </r>
       <r>    22.2739     0.0000    32.0000 </r>
       <r>    22.3842     0.0000    32.0000 </r>
       <r>    22.4945     0.0000    32.0000 </r>
      </set>
     </set>
    </array>
   </total>
  </dos>
 </calculation>
 <structure name="finalpos" >
  <crystal>
   <varray name="basis" >
    <v>       3.12858790       0.00000000       0.00000000 </v>
    <v>      -1.56429395       2.70943660       0.00000000 </v>
    <v>       0.00000000       0.00000000       5.01695461 </v>
   </varray>
   <i name="volume">     42.52727205 </i>
   <varray name="rec_basis" >
    <v>       0.31963302       0.18454021       0.00000000 </v>
    <v>       0.00000000       0.36908042       0.00000000 </v>
    <v>       0.00000000       0.00000000       0.19932411 </v>
   </varray>
  </crystal>
  <varray name="positions" >
   <v>       0.33333336       0.66666664       0.49928704 </v>
   <v>       0.66666672       0.33333336       0.99928708 </v>
   <v>       0.33333336       0.66666664       0.88071307 </v>
   <v>       0.66666672       0.33333336       0.38071303 </v>
  </varray>
 </structure>
</modeling>
