<?xml version="1.0" encoding="ISO-8859-1"?>
<modeling>
 <generator>
  <i name="program" type="string">vasp </i>
  <i name="version" type="string">5.4.4.18Apr17-6-g9f103f2a35  </i>
  <i name="subversion" type="string">(build Aug 24 2017 11:22:49) complex            parallel </i>
  <i name="platform" type="string">LinuxIFC </i>
  <i name="date" type="string">2023 12 25 </i>
  <i name="time" type="string">13:07:19 </i>
 </generator>
 <incar>
  <i type="string" name="PREC">accurate</i>
  <i type="string" name="ALGO"> Normal</i>
  <i type="int" name="NELM">   100</i>
  <i type="int" name="IBRION">     8</i>
  <i name="EDIFF">      0.00000001</i>
  <i name="SYMPREC">      0.00000001</i>
  <i name="ENCUT">    520.00000000</i>
  <i type="logical" name="LREAL"> F  </i>
  <i type="int" name="ISMEAR">     0</i>
  <i name="SIGMA">      0.01000000</i>
  <i type="logical" name="LWAVE"> F  </i>
  <v type="int" name="KPOINT_BSE">    -1     0     0     0</v>
  <i type="int" name="NELM">   100</i>
  <i type="logical" name="LPEAD"> T  </i>
  <i type="logical" name="LEPSILON"> T  </i>
 </incar>
 <structure name="primitive_cell" >
  <crystal>
   <varray name="basis" >
    <v>      -2.79039150       0.00000000       2.79039150 </v>
    <v>       0.00000000       2.79039150       2.79039150 </v>
    <v>      -2.79039150       2.79039150       0.00000000 </v>
   </varray>
   <i name="volume">     43.45356519 </i>
   <varray name="rec_basis" >
    <v>      -0.17918633      -0.17918633       0.17918633 </v>
    <v>       0.17918633       0.17918633       0.17918633 </v>
    <v>      -0.17918633       0.17918633      -0.17918633 </v>
   </varray>
  </crystal>
  <varray name="positions" >
   <v>       0.00000000       0.00000000       0.00000000 </v>
   <v>       0.49999996      -0.49999996       0.49999996 </v>
  </varray>
 </structure>
 <varray name="primitive_index" >
  <v type="int" >        1 </v>
  <v type="int" >        2 </v>
 </varray>
 <kpoints>
  <generation param="Gamma">
   <v type="int" name="divisions">      12       12       12 </v>
   <v name="usershift">      0.00000000       0.00000000       0.00000000 </v>
   <v name="genvec1">      0.08333333       0.00000000       0.00000000 </v>
   <v name="genvec2">      0.00000000       0.08333333      -0.00000000 </v>
   <v name="genvec3">     -0.00000000      -0.00000000       0.08333333 </v>
   <v name="shift">      0.00000000       0.00000000       0.00000000 </v>
  </generation>
  <varray name="kpointlist" >
   <v>       0.00000000       0.00000000       0.00000000 </v>
   <v>       0.08333333       0.00000000       0.00000000 </v>
   <v>       0.16666667       0.00000000      -0.00000000 </v>
   <v>       0.25000000      -0.00000000      -0.00000000 </v>
   <v>       0.33333333       0.00000000       0.00000000 </v>
   <v>       0.41666667       0.00000000      -0.00000000 </v>
   <v>       0.50000000      -0.00000000      -0.00000000 </v>
   <v>       0.08333333       0.08333333      -0.00000000 </v>
   <v>       0.16666667       0.08333333       0.00000000 </v>
   <v>       0.25000000       0.08333333      -0.00000000 </v>
   <v>       0.33333333       0.08333333      -0.00000000 </v>
   <v>       0.41666667       0.08333333      -0.00000000 </v>
   <v>       0.50000000       0.08333333      -0.00000000 </v>
   <v>      -0.41666667       0.08333333       0.00000000 </v>
   <v>      -0.33333333       0.08333333       0.00000000 </v>
   <v>      -0.25000000       0.08333333      -0.00000000 </v>
   <v>      -0.16666667       0.08333333       0.00000000 </v>
   <v>      -0.08333333       0.08333333      -0.00000000 </v>
   <v>       0.16666667       0.16666667      -0.00000000 </v>
   <v>       0.25000000       0.16666667      -0.00000000 </v>
   <v>       0.33333333       0.16666667      -0.00000000 </v>
   <v>       0.41666667       0.16666667       0.00000000 </v>
   <v>       0.50000000       0.16666667       0.00000000 </v>
   <v>      -0.41666667       0.16666667       0.00000000 </v>
   <v>      -0.33333333       0.16666667       0.00000000 </v>
   <v>      -0.25000000       0.16666667      -0.00000000 </v>
   <v>      -0.16666667       0.16666667       0.00000000 </v>
   <v>       0.25000000       0.25000000      -0.00000000 </v>
   <v>       0.33333333       0.25000000      -0.00000000 </v>
   <v>       0.41666667       0.25000000      -0.00000000 </v>
   <v>       0.50000000       0.25000000      -0.00000000 </v>
   <v>      -0.41666667       0.25000000       0.00000000 </v>
   <v>      -0.33333333       0.25000000      -0.00000000 </v>
   <v>      -0.25000000       0.25000000       0.00000000 </v>
   <v>       0.33333333       0.33333333      -0.00000000 </v>
   <v>       0.41666667       0.33333333      -0.00000000 </v>
   <v>       0.50000000       0.33333333      -0.00000000 </v>
   <v>      -0.41666667       0.33333333      -0.00000000 </v>
   <v>      -0.33333333       0.33333333      -0.00000000 </v>
   <v>       0.41666667       0.41666667      -0.00000000 </v>
   <v>       0.50000000       0.41666667      -0.00000000 </v>
   <v>      -0.41666667       0.41666667      -0.00000000 </v>
   <v>       0.50000000       0.50000000      -0.00000000 </v>
   <v>       0.08333333      -0.00000000       0.08333333 </v>
   <v>       0.16666667       0.00000000       0.08333333 </v>
   <v>       0.25000000       0.00000000       0.08333333 </v>
   <v>       0.33333333      -0.00000000       0.08333333 </v>
   <v>       0.41666667      -0.00000000       0.08333333 </v>
   <v>       0.50000000       0.00000000       0.08333333 </v>
   <v>      -0.41666667      -0.00000000       0.08333333 </v>
   <v>      -0.33333333      -0.00000000       0.08333333 </v>
   <v>      -0.25000000      -0.00000000       0.08333333 </v>
   <v>      -0.16666667       0.00000000       0.08333333 </v>
   <v>      -0.08333333      -0.00000000       0.08333333 </v>
   <v>       0.25000000       0.16666667       0.08333333 </v>
   <v>       0.33333333       0.16666667       0.08333333 </v>
   <v>       0.41666667       0.16666667       0.08333333 </v>
   <v>       0.50000000       0.16666667       0.08333333 </v>
   <v>      -0.41666667       0.16666667       0.08333333 </v>
   <v>       0.16666667       0.25000000       0.08333333 </v>
   <v>       0.33333333       0.25000000       0.08333333 </v>
   <v>       0.41666667       0.25000000       0.08333333 </v>
   <v>       0.50000000       0.25000000       0.08333333 </v>
   <v>      -0.41666667       0.25000000       0.08333333 </v>
   <v>      -0.33333333       0.25000000       0.08333333 </v>
   <v>      -0.25000000       0.25000000       0.08333333 </v>
   <v>      -0.16666667       0.25000000       0.08333333 </v>
   <v>       0.16666667       0.33333333       0.08333333 </v>
   <v>       0.25000000       0.33333333       0.08333333 </v>
   <v>       0.41666667       0.33333333       0.08333333 </v>
   <v>       0.50000000       0.33333333       0.08333333 </v>
   <v>      -0.41666667       0.33333333       0.08333333 </v>
   <v>      -0.33333333       0.33333333       0.08333333 </v>
   <v>      -0.25000000       0.33333333       0.08333333 </v>
   <v>       0.16666667       0.41666667       0.08333333 </v>
   <v>       0.25000000       0.41666667       0.08333333 </v>
   <v>       0.33333333       0.41666667       0.08333333 </v>
   <v>       0.50000000       0.41666667       0.08333333 </v>
   <v>      -0.41666667       0.41666667       0.08333333 </v>
   <v>      -0.33333333       0.41666667       0.08333333 </v>
   <v>       0.16666667       0.50000000       0.08333333 </v>
   <v>       0.25000000       0.50000000       0.08333333 </v>
   <v>       0.33333333       0.50000000       0.08333333 </v>
   <v>       0.41666667       0.50000000       0.08333333 </v>
   <v>      -0.41666667       0.50000000       0.08333333 </v>
   <v>       0.16666667      -0.41666667       0.08333333 </v>
   <v>       0.25000000      -0.41666667       0.08333333 </v>
   <v>       0.33333333      -0.41666667       0.08333333 </v>
   <v>       0.41666667      -0.41666667       0.08333333 </v>
   <v>       0.50000000      -0.41666667       0.08333333 </v>
   <v>       0.16666667      -0.33333333       0.08333333 </v>
   <v>       0.25000000      -0.33333333       0.08333333 </v>
   <v>       0.33333333      -0.33333333       0.08333333 </v>
   <v>       0.41666667      -0.33333333       0.08333333 </v>
   <v>       0.16666667      -0.25000000       0.08333333 </v>
   <v>       0.25000000      -0.25000000       0.08333333 </v>
   <v>       0.33333333      -0.25000000       0.08333333 </v>
   <v>       0.16666667      -0.16666667       0.08333333 </v>
   <v>       0.25000000      -0.16666667       0.08333333 </v>
   <v>       0.16666667      -0.08333333       0.08333333 </v>
   <v>       0.16666667      -0.00000000       0.16666667 </v>
   <v>       0.25000000       0.00000000       0.16666667 </v>
   <v>       0.33333333       0.00000000       0.16666667 </v>
   <v>       0.41666667       0.00000000       0.16666667 </v>
   <v>       0.50000000      -0.00000000       0.16666667 </v>
   <v>      -0.41666667       0.00000000       0.16666667 </v>
   <v>      -0.33333333       0.00000000       0.16666667 </v>
   <v>      -0.25000000      -0.00000000       0.16666667 </v>
   <v>      -0.16666667      -0.00000000       0.16666667 </v>
   <v>       0.50000000       0.33333333       0.16666667 </v>
   <v>      -0.41666667       0.33333333       0.16666667 </v>
   <v>      -0.33333333       0.33333333       0.16666667 </v>
   <v>       0.25000000       0.41666667       0.16666667 </v>
   <v>      -0.41666667       0.41666667       0.16666667 </v>
   <v>      -0.33333333       0.41666667       0.16666667 </v>
   <v>      -0.25000000       0.41666667       0.16666667 </v>
   <v>       0.25000000       0.50000000       0.16666667 </v>
   <v>       0.33333333       0.50000000       0.16666667 </v>
   <v>      -0.33333333       0.50000000       0.16666667 </v>
   <v>       0.25000000      -0.41666667       0.16666667 </v>
   <v>       0.33333333      -0.41666667       0.16666667 </v>
   <v>       0.41666667      -0.41666667       0.16666667 </v>
   <v>       0.25000000      -0.33333333       0.16666667 </v>
   <v>       0.33333333      -0.33333333       0.16666667 </v>
   <v>       0.41666667      -0.33333333       0.16666667 </v>
   <v>       0.50000000      -0.33333333       0.16666667 </v>
   <v>       0.25000000      -0.25000000       0.16666667 </v>
   <v>       0.33333333      -0.25000000       0.16666667 </v>
   <v>       0.41666667      -0.25000000       0.16666667 </v>
   <v>       0.25000000      -0.16666667       0.16666667 </v>
   <v>       0.33333333      -0.16666667       0.16666667 </v>
   <v>       0.25000000      -0.08333333       0.16666667 </v>
   <v>       0.25000000      -0.00000000       0.25000000 </v>
   <v>       0.33333333       0.00000000       0.25000000 </v>
   <v>       0.41666667       0.00000000       0.25000000 </v>
   <v>       0.50000000       0.00000000       0.25000000 </v>
   <v>      -0.41666667      -0.00000000       0.25000000 </v>
   <v>      -0.33333333      -0.00000000       0.25000000 </v>
   <v>      -0.25000000       0.00000000       0.25000000 </v>
   <v>      -0.25000000       0.50000000       0.25000000 </v>
   <v>       0.33333333      -0.41666667       0.25000000 </v>
   <v>       0.33333333      -0.33333333       0.25000000 </v>
   <v>       0.41666667      -0.33333333       0.25000000 </v>
   <v>       0.33333333      -0.25000000       0.25000000 </v>
   <v>       0.41666667      -0.25000000       0.25000000 </v>
   <v>       0.50000000      -0.25000000       0.25000000 </v>
   <v>       0.33333333      -0.16666667       0.25000000 </v>
   <v>       0.41666667      -0.16666667       0.25000000 </v>
   <v>       0.33333333      -0.08333333       0.25000000 </v>
   <v>       0.33333333      -0.00000000       0.33333333 </v>
   <v>       0.41666667      -0.00000000       0.33333333 </v>
   <v>       0.50000000      -0.00000000       0.33333333 </v>
   <v>      -0.41666667       0.00000000       0.33333333 </v>
   <v>      -0.33333333      -0.00000000       0.33333333 </v>
   <v>       0.41666667      -0.25000000       0.33333333 </v>
   <v>       0.41666667      -0.16666667       0.33333333 </v>
   <v>       0.50000000      -0.16666667       0.33333333 </v>
   <v>       0.41666667      -0.08333333       0.33333333 </v>
   <v>       0.41666667      -0.00000000       0.41666667 </v>
   <v>       0.50000000      -0.00000000       0.41666667 </v>
   <v>      -0.41666667      -0.00000000       0.41666667 </v>
   <v>       0.50000000      -0.08333333       0.41666667 </v>
   <v>       0.50000000      -0.00000000       0.50000000 </v>
  </varray>
  <varray name="weights" >
   <v>       0.00057870 </v>
   <v>       0.00462963 </v>
   <v>       0.00462963 </v>
   <v>       0.00462963 </v>
   <v>       0.00462963 </v>
   <v>       0.00462963 </v>
   <v>       0.00231481 </v>
   <v>       0.00231481 </v>
   <v>       0.00925926 </v>
   <v>       0.00925926 </v>
   <v>       0.00925926 </v>
   <v>       0.00925926 </v>
   <v>       0.00925926 </v>
   <v>       0.00925926 </v>
   <v>       0.00925926 </v>
   <v>       0.00925926 </v>
   <v>       0.00925926 </v>
   <v>       0.00462963 </v>
   <v>       0.00231481 </v>
   <v>       0.00925926 </v>
   <v>       0.00925926 </v>
   <v>       0.00925926 </v>
   <v>       0.00925926 </v>
   <v>       0.00925926 </v>
   <v>       0.00925926 </v>
   <v>       0.00925926 </v>
   <v>       0.00462963 </v>
   <v>       0.00231481 </v>
   <v>       0.00925926 </v>
   <v>       0.00925926 </v>
   <v>       0.00925926 </v>
   <v>       0.00925926 </v>
   <v>       0.00925926 </v>
   <v>       0.00462963 </v>
   <v>       0.00231481 </v>
   <v>       0.00925926 </v>
   <v>       0.00925926 </v>
   <v>       0.00925926 </v>
   <v>       0.00462963 </v>
   <v>       0.00231481 </v>
   <v>       0.00925926 </v>
   <v>       0.00462963 </v>
   <v>       0.00115741 </v>
   <v>       0.00115741 </v>
   <v>       0.00462963 </v>
   <v>       0.00462963 </v>
   <v>       0.00462963 </v>
   <v>       0.00462963 </v>
   <v>       0.00462963 </v>
   <v>       0.00462963 </v>
   <v>       0.00462963 </v>
   <v>       0.00462963 </v>
   <v>       0.00462963 </v>
   <v>       0.00231481 </v>
   <v>       0.00462963 </v>
   <v>       0.00925926 </v>
   <v>       0.00925926 </v>
   <v>       0.00925926 </v>
   <v>       0.00462963 </v>
   <v>       0.00462963 </v>
   <v>       0.00462963 </v>
   <v>       0.00925926 </v>
   <v>       0.00925926 </v>
   <v>       0.00925926 </v>
   <v>       0.00925926 </v>
   <v>       0.00925926 </v>
   <v>       0.00462963 </v>
   <v>       0.00925926 </v>
   <v>       0.00462963 </v>
   <v>       0.00462963 </v>
   <v>       0.00925926 </v>
   <v>       0.00925926 </v>
   <v>       0.00925926 </v>
   <v>       0.00462963 </v>
   <v>       0.00925926 </v>
   <v>       0.00925926 </v>
   <v>       0.00462963 </v>
   <v>       0.00462963 </v>
   <v>       0.00925926 </v>
   <v>       0.00462963 </v>
   <v>       0.00925926 </v>
   <v>       0.00925926 </v>
   <v>       0.00925926 </v>
   <v>       0.00462963 </v>
   <v>       0.00231481 </v>
   <v>       0.00925926 </v>
   <v>       0.00925926 </v>
   <v>       0.00925926 </v>
   <v>       0.00925926 </v>
   <v>       0.00231481 </v>
   <v>       0.00925926 </v>
   <v>       0.00925926 </v>
   <v>       0.00925926 </v>
   <v>       0.00462963 </v>
   <v>       0.00925926 </v>
   <v>       0.00925926 </v>
   <v>       0.00462963 </v>
   <v>       0.00925926 </v>
   <v>       0.00462963 </v>
   <v>       0.00462963 </v>
   <v>       0.00115741 </v>
   <v>       0.00462963 </v>
   <v>       0.00462963 </v>
   <v>       0.00462963 </v>
   <v>       0.00462963 </v>
   <v>       0.00462963 </v>
   <v>       0.00462963 </v>
   <v>       0.00462963 </v>
   <v>       0.00231481 </v>
   <v>       0.00462963 </v>
   <v>       0.00925926 </v>
   <v>       0.00462963 </v>
   <v>       0.00462963 </v>
   <v>       0.00462963 </v>
   <v>       0.00925926 </v>
   <v>       0.00462963 </v>
   <v>       0.00925926 </v>
   <v>       0.00462963 </v>
   <v>       0.00231481 </v>
   <v>       0.00925926 </v>
   <v>       0.00925926 </v>
   <v>       0.00462963 </v>
   <v>       0.00925926 </v>
   <v>       0.00925926 </v>
   <v>       0.00925926 </v>
   <v>       0.00231481 </v>
   <v>       0.00925926 </v>
   <v>       0.00925926 </v>
   <v>       0.00462963 </v>
   <v>       0.00925926 </v>
   <v>       0.00462963 </v>
   <v>       0.00462963 </v>
   <v>       0.00115741 </v>
   <v>       0.00462963 </v>
   <v>       0.00462963 </v>
   <v>       0.00462963 </v>
   <v>       0.00462963 </v>
   <v>       0.00462963 </v>
   <v>       0.00231481 </v>
   <v>       0.00115741 </v>
   <v>       0.00462963 </v>
   <v>       0.00925926 </v>
   <v>       0.00462963 </v>
   <v>       0.00925926 </v>
   <v>       0.00925926 </v>
   <v>       0.00231481 </v>
   <v>       0.00925926 </v>
   <v>       0.00462963 </v>
   <v>       0.00462963 </v>
   <v>       0.00115741 </v>
   <v>       0.00462963 </v>
   <v>       0.00462963 </v>
   <v>       0.00462963 </v>
   <v>       0.00231481 </v>
   <v>       0.00462963 </v>
   <v>       0.00925926 </v>
   <v>       0.00231481 </v>
   <v>       0.00462963 </v>
   <v>       0.00115741 </v>
   <v>       0.00462963 </v>
   <v>       0.00231481 </v>
   <v>       0.00231481 </v>
   <v>       0.00057870 </v>
  </varray>
 </kpoints>
 <parameters>
  <separator name="general" >
   <i type="string" name="SYSTEM">unknown system</i>
   <i type="logical" name="LCOMPAT"> F  </i>
  </separator>
  <separator name="electronic" >
   <i type="string" name="PREC">accura</i>
   <i name="ENMAX">    520.00000000</i>
   <i name="ENAUG">    605.39200000</i>
   <i name="EDIFF">      0.00000001</i>
   <i type="int" name="IALGO">    38</i>
   <i type="int" name="IWAVPR">    11</i>
   <i type="int" name="NBANDS">    16</i>
   <i name="NELECT">     16.00000000</i>
   <i type="int" name="TURBO">     0</i>
   <i type="int" name="IRESTART">     0</i>
   <i type="int" name="NREBOOT">     0</i>
   <i type="int" name="NMIN">     0</i>
   <i name="EREF">      0.00000000</i>
   <separator name="electronic smearing" >
    <i type="int" name="ISMEAR">     0</i>
    <i name="SIGMA">      0.01000000</i>
    <i name="KSPACING">      0.50000000</i>
    <i type="logical" name="KGAMMA"> T  </i>
   </separator>
   <separator name="electronic projectors" >
    <i type="logical" name="LREAL"> F  </i>
    <v name="ROPT">      0.00000000      0.00000000</v>
    <i type="int" name="LMAXPAW">  -100</i>
    <i type="int" name="LMAXMIX">     2</i>
    <i type="logical" name="NLSPLINE"> F  </i>
   </separator>
   <separator name="electronic startup" >
    <i type="int" name="ISTART">     0</i>
    <i type="int" name="ICHARG">     2</i>
    <i type="int" name="INIWAV">     1</i>
   </separator>
   <separator name="electronic spin" >
    <i type="int" name="ISPIN">     1</i>
    <i type="logical" name="LNONCOLLINEAR"> F  </i>
    <v name="MAGMOM">      1.00000000      1.00000000</v>
    <i name="NUPDOWN">     -1.00000000</i>
    <i type="logical" name="LSORBIT"> F  </i>
    <v name="SAXIS">      0.00000000      0.00000000      1.00000000</v>
    <i type="logical" name="LSPIRAL"> F  </i>
    <v name="QSPIRAL">      0.00000000      0.00000000      0.00000000</v>
    <i type="logical" name="LZEROZ"> F  </i>
   </separator>
   <separator name="electronic exchange-correlation" >
    <i type="logical" name="LASPH"> F  </i>
    <i type="logical" name="LMETAGGA"> F  </i>
   </separator>
   <separator name="electronic convergence" >
    <i type="int" name="NELM">   100</i>
    <i type="int" name="NELMDL">    -5</i>
    <i type="int" name="NELMIN">     2</i>
    <i name="ENINI">    520.00000000</i>
    <separator name="electronic convergence detail" >
     <i type="logical" name="LDIAG"> T  </i>
     <i type="logical" name="LSUBROT"> F  </i>
     <i name="WEIMIN">      0.00100000</i>
     <i name="EBREAK">      0.00000000</i>
     <i name="DEPER">      0.30000000</i>
     <i type="int" name="NRMM">     4</i>
     <i name="TIME">      0.40000000</i>
    </separator>
   </separator>
   <separator name="electronic mixer" >
    <i name="AMIX">      0.40000000</i>
    <i name="BMIX">      1.00000000</i>
    <i name="AMIN">      0.10000000</i>
    <i name="AMIX_MAG">      1.60000000</i>
    <i name="BMIX_MAG">      1.00000000</i>
    <separator name="electronic mixer details" >
     <i type="int" name="IMIX">     4</i>
     <i type="logical" name="MIXFIRST"> F  </i>
     <i type="int" name="MAXMIX">   -45</i>
     <i name="WC">    100.00000000</i>
     <i type="int" name="INIMIX">     1</i>
     <i type="int" name="MIXPRE">     1</i>
     <i type="int" name="MREMOVE">     5</i>
    </separator>
   </separator>
   <separator name="electronic dipolcorrection" >
    <i type="logical" name="LDIPOL"> F  </i>
    <i type="logical" name="LMONO"> F  </i>
    <i type="int" name="IDIPOL">     0</i>
    <i name="EPSILON">      1.00000000</i>
    <v name="DIPOL">   -100.00000000   -100.00000000   -100.00000000</v>
    <i name="EFIELD">      0.00000000</i>
   </separator>
  </separator>
  <separator name="grids" >
   <i type="int" name="NGX">    30</i>
   <i type="int" name="NGY">    30</i>
   <i type="int" name="NGZ">    30</i>
   <i type="int" name="NGXF">    60</i>
   <i type="int" name="NGYF">    60</i>
   <i type="int" name="NGZF">    60</i>
   <i type="logical" name="ADDGRID"> F  </i>
  </separator>
  <separator name="ionic" >
   <i type="int" name="NSW">     1</i>
   <i type="int" name="IBRION">     8</i>
   <i type="int" name="MDALGO">     0</i>
   <i type="int" name="ISIF">     2</i>
   <i name="PSTRESS">      0.00000000</i>
   <i name="EDIFFG">      0.00000010</i>
   <i type="int" name="NFREE">     0</i>
   <i name="POTIM">      0.50000000</i>
   <i name="SMASS">     -3.00000000</i>
   <i name="SCALEE">      1.00000000</i>
  </separator>
  <separator name="ionic md" >
   <i name="TEBEG">      0.00010000</i>
   <i name="TEEND">      0.00010000</i>
   <i type="int" name="NBLOCK">     1</i>
   <i type="int" name="KBLOCK">     1</i>
   <i type="int" name="NPACO">   256</i>
   <i name="APACO">     16.00000000</i>
  </separator>
  <separator name="symmetry" >
   <i type="int" name="ISYM">     2</i>
   <i name="SYMPREC">      0.00000001</i>
  </separator>
  <separator name="dos" >
   <i type="int" name="LORBIT">     0</i>
   <v name="RWIGS">     -1.00000000     -1.00000000</v>
   <i type="int" name="NEDOS">   301</i>
   <i name="EMIN">     10.00000000</i>
   <i name="EMAX">    -10.00000000</i>
   <i name="EFERMI">      0.00000000</i>
  </separator>
  <separator name="writing" >
   <i type="int" name="NWRITE">     2</i>
   <i type="logical" name="LWAVE"> F  </i>
   <i type="logical" name="LDOWNSAMPLE"> F  </i>
   <i type="logical" name="LCHARG"> T  </i>
   <i type="logical" name="LPARD"> F  </i>
   <i type="logical" name="LVTOT"> F  </i>
   <i type="logical" name="LVHAR"> F  </i>
   <i type="logical" name="LELF"> F  </i>
   <i type="logical" name="LOPTICS"> F  </i>
   <v name="STM">      0.00000000      0.00000000      0.00000000      0.00000000      0.00000000      0.00000000      0.00000000</v>
  </separator>
  <separator name="performance" >
   <i type="int" name="NPAR">     8</i>
   <i type="int" name="NSIM">     4</i>
   <i type="int" name="NBLK">    -1</i>
   <i type="logical" name="LPLANE"> T  </i>
   <i type="logical" name="LSCALAPACK"> T  </i>
   <i type="logical" name="LSCAAWARE"> F  </i>
   <i type="logical" name="LSCALU"> F  </i>
   <i type="logical" name="LASYNC"> F  </i>
   <i type="logical" name="LORBITALREAL"> F  </i>
  </separator>
  <separator name="miscellaneous" >
   <i type="int" name="IDIOT">     3</i>
   <i type="int" name="ISPECIAL">     0</i>
   <i type="logical" name="LMUSIC"> F  </i>
   <v name="POMASS">    137.32700000     16.00000000</v>
   <v name="DARWINR">      0.00000000      0.00000000</v>
   <v name="DARWINV">      1.00000000      1.00000000</v>
   <i type="logical" name="LCORR"> T  </i>
  </separator>
  <i type="logical" name="GGA_COMPAT"> T  </i>
  <i type="logical" name="LBERRY"> F  </i>
  <i type="int" name="ICORELEVEL">     0</i>
  <i type="logical" name="LDAU"> F  </i>
  <i type="int" name="I_CONSTRAINED_M">     0</i>
  <separator name="electronic exchange-correlation" >
   <i type="string" name="GGA">--</i>
   <i type="int" name="VOSKOWN">     0</i>
   <i type="logical" name="LHFCALC"> F  </i>
   <i type="string" name="PRECFOCK"></i>
   <i type="logical" name="LSYMGRAD"> F  </i>
   <i type="logical" name="LHFONE"> F  </i>
   <i type="logical" name="LRHFCALC"> F  </i>
   <i type="logical" name="LTHOMAS"> F  </i>
   <i type="logical" name="LMODELHF"> F  </i>
   <i name="ENCUT4O">     -1.00000000</i>
   <i type="int" name="EXXOEP">     0</i>
   <i type="int" name="FOURORBIT">     0</i>
   <i name="AEXX">      0.00000000</i>
   <i name="HFALPHA">      0.00000000</i>
   <i name="MCALPHA">      0.00000000</i>
   <i name="ALDAX">      1.00000000</i>
   <i name="AGGAX">      1.00000000</i>
   <i name="ALDAC">      1.00000000</i>
   <i name="AGGAC">      1.00000000</i>
   <i type="int" name="NKREDX">     1</i>
   <i type="int" name="NKREDY">     1</i>
   <i type="int" name="NKREDZ">     1</i>
   <i type="logical" name="SHIFTRED"> F  </i>
   <i type="logical" name="ODDONLY"> F  </i>
   <i type="logical" name="EVENONLY"> F  </i>
   <i type="int" name="LMAXFOCK">     0</i>
   <i type="int" name="NMAXFOCKAE">     0</i>
   <i type="logical" name="LFOCKAEDFT"> F  </i>
   <i name="HFSCREEN">      0.00000000</i>
   <i name="HFSCREENC">      0.00000000</i>
   <i type="int" name="NBANDSGWLOW">     0</i>
  </separator>
  <separator name="vdW DFT" >
   <i type="logical" name="LUSE_VDW"> F  </i>
   <i name="Zab_VDW">     -0.84910000</i>
   <i name="PARAM1">      0.12340000</i>
   <i name="PARAM2">      1.00000000</i>
   <i name="PARAM3">      0.00000000</i>
  </separator>
  <separator name="model GW" >
   <i type="int" name="MODEL_GW">     0</i>
   <i name="MODEL_EPS0">     13.03606956</i>
   <i name="MODEL_ALPHA">      1.00000000</i>
  </separator>
  <separator name="linear response parameters" >
   <i type="logical" name="LEPSILON"> T  </i>
   <i type="logical" name="LRPA"> F  </i>
   <i type="logical" name="LNABLA"> F  </i>
   <i type="logical" name="LVEL"> F  </i>
   <i type="int" name="KINTER">     0</i>
   <i name="CSHIFT">      0.10000000</i>
   <i name="OMEGAMAX">     -1.00000000</i>
   <i name="DEG_THRESHOLD">      0.00200000</i>
   <i name="RTIME">     -0.10000000</i>
   <i name="WPLASMAI">      0.00000000</i>
   <v name="DFIELD">      0.00000000      0.00000000      0.00000000</v>
   <v name="WPLASMA">      0.00000000      0.00000000      0.00000000      0.00000000      0.00000000      0.00000000      0.00000000      0.00000000      0.00000000</v>
  </separator>
  <separator name="orbital magnetization" >
   <i type="logical" name="NUCIND"> F  </i>
   <v name="MAGPOS">      0.00000000      0.00000000      0.00000000</v>
   <i type="logical" name="LNICSALL"> T  </i>
   <i type="logical" name="ORBITALMAG"> F  </i>
   <i type="logical" name="LMAGBLOCH"> F  </i>
   <i type="logical" name="LCHIMAG"> F  </i>
   <i type="logical" name="LGAUGE"> T  </i>
   <i type="int" name="MAGATOM">     0</i>
   <v name="MAGDIPOL">      0.00000000      0.00000000      0.00000000</v>
   <v name="AVECCONST">      0.00000000      0.00000000      0.00000000</v>
  </separator>
  <separator name="response functions" >
   <i type="logical" name="LADDER"> F  </i>
   <i type="logical" name="LRPAFORCE"> F  </i>
   <i type="logical" name="LFXC"> F  </i>
   <i type="logical" name="LHARTREE"> T  </i>
   <i type="int" name="IBSE">     0</i>
   <v type="int" name="KPOINT">    -1     0     0     0</v>
   <i type="logical" name="LTCTE"> F  </i>
   <i type="logical" name="LTETE"> F  </i>
   <i type="logical" name="LTRIPLET"> F  </i>
   <i type="logical" name="LFXCEPS"> F  </i>
   <i type="logical" name="LFXHEG"> F  </i>
   <i type="int" name="NATURALO">     2</i>
   <i type="logical" name="L2ORDER"> F  </i>
   <i type="logical" name="LMP2LT"> F  </i>
   <i type="logical" name="LUSEW"> F  </i>
   <i name="ENCUTGW">     -2.00000000</i>
   <i name="ENCUTGWSOFT">     -2.00000000</i>
   <i name="ENCUTLF">     -1.00000000</i>
   <i type="int" name="LMAXMP2">    -1</i>
   <i name="SCISSOR">      0.00000000</i>
   <i type="int" name="NOMEGA">     0</i>
   <i type="int" name="NOMEGAR">     0</i>
   <i type="int" name="NBANDSGW">    -1</i>
   <i type="int" name="NBANDSO">    -1</i>
   <i type="int" name="NBANDSV">    -1</i>
   <i type="int" name="NELM">   100</i>
   <i type="int" name="NELMHF">     1</i>
   <i type="int" name="DIM">     3</i>
   <i type="int" name="ANTIRES">     0</i>
   <i name="OMEGAMAX">    -30.00000000</i>
   <i name="OMEGAMIN">    -30.00000000</i>
   <i name="OMEGATL">   -200.00000000</i>
   <i type="int" name="OMEGAGRID">   140</i>
   <i name="CSHIFT">     -0.10000000</i>
   <i type="logical" name="SELFENERGY"> F  </i>
   <i type="logical" name="LSPECTRAL"> F  </i>
   <i type="logical" name="LSPECTRALGW"> F  </i>
   <i type="logical" name="LSINGLES"> F  </i>
   <i type="logical" name="LFERMIGW"> F  </i>
   <i type="logical" name="ODDONLYGW"> F  </i>
   <i type="logical" name="EVENONLYGW"> F  </i>
   <i type="int" name="NKREDLFX">     1</i>
   <i type="int" name="NKREDLFY">     1</i>
   <i type="int" name="NKREDLFZ">     1</i>
   <i type="int" name="MAXMEM">  2800</i>
   <i type="int" name="TELESCOPE">     0</i>
   <i type="int" name="TAUPAR">     1</i>
   <i type="int" name="OMEGAPAR">    -1</i>
   <i name="LAMBDA">      1.00000000</i>
  </separator>
  <separator name="External order field" >
   <i name="OFIELD_KAPPA">      0.00000000</i>
   <v name="OFIELD_K">      0.00000000      0.00000000      0.00000000</v>
   <i name="OFIELD_Q6_NEAR">      0.00000000</i>
   <i name="OFIELD_Q6_FAR">      0.00000000</i>
   <i name="OFIELD_A">      0.00000000</i>
  </separator>
 </parameters>
 <atominfo>
  <atoms>       2 </atoms>
  <types>       2 </types>
  <array name="atoms" >
   <dimension dim="1">ion</dimension>
   <field type="string">element</field>
   <field type="int">atomtype</field>
   <set>
    <rc><c>Ba</c><c>   1</c></rc>
    <rc><c>O </c><c>   2</c></rc>
   </set>
  </array>
  <array name="atomtypes" >
   <dimension dim="1">type</dimension>
   <field type="int">atomspertype</field>
   <field type="string">element</field>
   <field>mass</field>
   <field>valence</field>
   <field type="string">pseudopotential</field>
   <set>
    <rc><c>   1</c><c>Ba</c><c>    137.32700000</c><c>     10.00000000</c><c>  PAW_PBE Ba_sv 06Sep2000               </c></rc>
    <rc><c>   1</c><c>O </c><c>     16.00000000</c><c>      6.00000000</c><c>  PAW_PBE O 08Apr2002                   </c></rc>
   </set>
  </array>
 </atominfo>
 <structure name="initialpos" >
  <crystal>
   <varray name="basis" >
    <v>      -2.79039150       0.00000000       2.79039150 </v>
    <v>       0.00000000       2.79039150       2.79039150 </v>
    <v>      -2.79039150       2.79039150       0.00000000 </v>
   </varray>
   <i name="volume">     43.45356519 </i>
   <varray name="rec_basis" >
    <v>      -0.17918633      -0.17918633       0.17918633 </v>
    <v>       0.17918633       0.17918633       0.17918633 </v>
    <v>      -0.17918633       0.17918633      -0.17918633 </v>
   </varray>
  </crystal>
  <varray name="positions" >
   <v>       0.00000000       0.00000000       0.00000000 </v>
   <v>       0.49999996       0.50000004       0.49999996 </v>
  </varray>
 </structure>
 <calculation>
  <scstep>
   <time name="dav">    1.29    1.30</time>
   <time name="total">    1.31    1.32</time>
   <energy>
    <i name="alphaZ">    105.15442118 </i>
    <i name="ewald">   -973.15124680 </i>
    <i name="hartreedc">   -186.39957995 </i>
    <i name="XCdc">     52.91848197 </i>
    <i name="pawpsdc">    863.89578395 </i>
    <i name="pawaedc">   -863.06732255 </i>
    <i name="eentropy">     -0.00002581 </i>
    <i name="bandstr">    -54.73061463 </i>
    <i name="atom">   1133.21345898 </i>
    <i name="e_fr_energy">     77.83335635 </i>
    <i name="e_wo_entrp">     77.83338215 </i>
    <i name="e_0_energy">     77.83336925 </i>
   </energy>
  </scstep>
  <scstep>
   <time name="dav">    1.65    1.66</time>
   <time name="total">    1.65    1.67</time>
   <energy>
    <i name="e_fr_energy">    -10.67565547 </i>
    <i name="e_wo_entrp">    -10.67565547 </i>
    <i name="e_0_energy">    -10.67565547 </i>
   </energy>
  </scstep>
  <scstep>
   <time name="dav">    1.49    1.51</time>
   <time name="total">    1.49    1.51</time>
   <energy>
    <i name="e_fr_energy">    -14.37667863 </i>
    <i name="e_wo_entrp">    -14.37667863 </i>
    <i name="e_0_energy">    -14.37667863 </i>
   </energy>
  </scstep>
  <scstep>
   <time name="dav">    1.53    1.55</time>
   <time name="total">    1.53    1.55</time>
   <energy>
    <i name="e_fr_energy">    -14.41732688 </i>
    <i name="e_wo_entrp">    -14.41732688 </i>
    <i name="e_0_energy">    -14.41732688 </i>
   </energy>
  </scstep>
  <scstep>
   <time name="dav">    1.43    1.45</time>
   <time name="total">    1.51    1.52</time>
   <energy>
    <i name="e_fr_energy">    -14.41805217 </i>
    <i name="e_wo_entrp">    -14.41805217 </i>
    <i name="e_0_energy">    -14.41805217 </i>
   </energy>
  </scstep>
  <scstep>
   <time name="dav">    1.34    1.35</time>
   <time name="total">    1.42    1.43</time>
   <energy>
    <i name="e_fr_energy">    -12.07447322 </i>
    <i name="e_wo_entrp">    -12.07447322 </i>
    <i name="e_0_energy">    -12.07447322 </i>
   </energy>
  </scstep>
  <scstep>
   <time name="dav">    1.43    1.44</time>
   <time name="total">    1.52    1.53</time>
   <energy>
    <i name="e_fr_energy">    -11.83035148 </i>
    <i name="e_wo_entrp">    -11.83035148 </i>
    <i name="e_0_energy">    -11.83035148 </i>
   </energy>
  </scstep>
  <scstep>
   <time name="dav">    1.49    1.50</time>
   <time name="total">    1.57    1.58</time>
   <energy>
    <i name="e_fr_energy">    -11.80600492 </i>
    <i name="e_wo_entrp">    -11.80600492 </i>
    <i name="e_0_energy">    -11.80600492 </i>
   </energy>
  </scstep>
  <scstep>
   <time name="dav">    1.46    1.48</time>
   <time name="total">    1.55    1.56</time>
   <energy>
    <i name="e_fr_energy">    -11.80479606 </i>
    <i name="e_wo_entrp">    -11.80479606 </i>
    <i name="e_0_energy">    -11.80479606 </i>
   </energy>
  </scstep>
  <scstep>
   <time name="dav">    1.45    1.47</time>
   <time name="total">    1.55    1.56</time>
   <energy>
    <i name="e_fr_energy">    -11.80608515 </i>
    <i name="e_wo_entrp">    -11.80608515 </i>
    <i name="e_0_energy">    -11.80608515 </i>
   </energy>
  </scstep>
  <scstep>
   <time name="dav">    1.50    1.51</time>
   <time name="total">    1.59    1.60</time>
   <energy>
    <i name="e_fr_energy">    -11.80607094 </i>
    <i name="e_wo_entrp">    -11.80607094 </i>
    <i name="e_0_energy">    -11.80607094 </i>
   </energy>
  </scstep>
  <scstep>
   <time name="dav">    1.41    1.43</time>
   <time name="total">    1.51    1.52</time>
   <energy>
    <i name="e_fr_energy">    -11.80607882 </i>
    <i name="e_wo_entrp">    -11.80607882 </i>
    <i name="e_0_energy">    -11.80607882 </i>
   </energy>
  </scstep>
  <scstep>
   <time name="dav">    1.51    1.52</time>
   <time name="total">    1.59    1.60</time>
   <energy>
    <i name="e_fr_energy">    -11.80607757 </i>
    <i name="e_wo_entrp">    -11.80607757 </i>
    <i name="e_0_energy">    -11.80607757 </i>
   </energy>
  </scstep>
  <scstep>
   <time name="dav">    1.35    1.36</time>
   <time name="total">    1.43    1.44</time>
   <energy>
    <i name="e_fr_energy">    -11.80607780 </i>
    <i name="e_wo_entrp">    -11.80607780 </i>
    <i name="e_0_energy">    -11.80607780 </i>
   </energy>
  </scstep>
  <scstep>
   <time name="dav">    1.58    1.60</time>
   <time name="total">    1.70    1.71</time>
   <energy>
    <i name="e_fr_energy">    -11.80607781 </i>
    <i name="e_wo_entrp">    -11.80607781 </i>
    <i name="e_0_energy">    -11.80607781 </i>
   </energy>
  </scstep>
  <scstep>
   <time name="dav">    0.99    1.00</time>
   <time name="total">    1.09    1.10</time>
   <energy>
    <i name="e_fr_energy">    -11.80607779 </i>
    <i name="e_wo_entrp">    -11.80607779 </i>
    <i name="e_0_energy">    -11.80607779 </i>
   </energy>
  </scstep>
  <scstep>
   <time name="dav">    0.91    0.92</time>
   <time name="total">    0.93    0.94</time>
   <energy>
    <i name="alphaZ">    105.15442118 </i>
    <i name="ewald">   -973.15124680 </i>
    <i name="hartreedc">   -205.24015216 </i>
    <i name="XCdc">     54.14997791 </i>
    <i name="pawpsdc">   1238.89297127 </i>
    <i name="pawaedc">  -1240.05934929 </i>
    <i name="eentropy">     -0.00000000 </i>
    <i name="bandstr">   -124.76615888 </i>
    <i name="atom">   1133.21345898 </i>
    <i name="e_fr_energy">    -11.80607779 </i>
    <i name="e_wo_entrp">    -11.80607779 </i>
    <i name="e_0_energy">    -11.80607779 </i>
   </energy>
  </scstep>
  <structure>
   <crystal>
    <varray name="basis" >
     <v>      -2.79039150       0.00000000       2.79039150 </v>
     <v>       0.00000000       2.79039150       2.79039150 </v>
     <v>      -2.79039150       2.79039150       0.00000000 </v>
    </varray>
    <i name="volume">     43.45356519 </i>
    <varray name="rec_basis" >
     <v>      -0.17918633      -0.17918633       0.17918633 </v>
     <v>       0.17918633       0.17918633       0.17918633 </v>
     <v>      -0.17918633       0.17918633      -0.17918633 </v>
    </varray>
   </crystal>
   <varray name="positions" >
    <v>       0.00000000       0.00000000       0.00000000 </v>
    <v>       0.49999996       0.50000004       0.49999996 </v>
   </varray>
  </structure>
  <varray name="forces" >
   <v>       0.00000012      -0.00000000       0.00000000 </v>
   <v>      -0.00000012       0.00000000      -0.00000000 </v>
  </varray>
  <varray name="stress" >
   <v>      12.91075361       0.00000000       0.00000000 </v>
   <v>       0.00000000      12.91075517      -0.00000000 </v>
   <v>      -0.00000000      -0.00000000      12.91075517 </v>
  </varray>
  <energy>
   <i name="e_fr_energy">    -11.80607779 </i>
   <i name="e_wo_entrp">    -11.80607779 </i>
   <i name="e_0_energy">     -0.00000000 </i>
  </energy>
  <scstep>
   <time name="total">    1.28    1.28</time>
   <energy>
    <i name="e_fr_energy">     -0.39567650 </i>
    <i name="e_wo_entrp">     -0.39567650 </i>
    <i name="e_0_energy">     -0.39567650 </i>
   </energy>
  </scstep>
  <scstep>
   <time name="total">    1.26    1.26</time>
   <energy>
    <i name="e_fr_energy">     -0.41478394 </i>
    <i name="e_wo_entrp">     -0.41478394 </i>
    <i name="e_0_energy">     -0.41478394 </i>
   </energy>
  </scstep>
  <scstep>
   <time name="total">    1.20    1.21</time>
   <energy>
    <i name="e_fr_energy">     -0.41628307 </i>
    <i name="e_wo_entrp">     -0.41628307 </i>
    <i name="e_0_energy">     -0.41628307 </i>
   </energy>
  </scstep>
  <scstep>
   <time name="total">    1.24    1.26</time>
   <energy>
    <i name="e_fr_energy">     -0.41637814 </i>
    <i name="e_wo_entrp">     -0.41637814 </i>
    <i name="e_0_energy">     -0.41637814 </i>
   </energy>
  </scstep>
  <scstep>
   <time name="total">    1.24    1.24</time>
   <energy>
    <i name="e_fr_energy">     -0.41638135 </i>
    <i name="e_wo_entrp">     -0.41638135 </i>
    <i name="e_0_energy">     -0.41638135 </i>
   </energy>
  </scstep>
  <scstep>
   <time name="total">    1.17    1.18</time>
   <energy>
    <i name="e_fr_energy">     -0.41638152 </i>
    <i name="e_wo_entrp">     -0.41638152 </i>
    <i name="e_0_energy">     -0.41638152 </i>
   </energy>
  </scstep>
  <scstep>
   <time name="total">    1.18    1.19</time>
   <energy>
    <i name="e_fr_energy">     -0.41638152 </i>
    <i name="e_wo_entrp">     -0.41638152 </i>
    <i name="e_0_energy">     -0.41638152 </i>
   </energy>
  </scstep>
  <scstep>
   <time name="total">    1.28    1.28</time>
   <energy>
    <i name="e_fr_energy">     -0.38321363 </i>
    <i name="e_wo_entrp">     -0.38321363 </i>
    <i name="e_0_energy">     -0.38321363 </i>
   </energy>
  </scstep>
  <scstep>
   <time name="total">    1.23    1.25</time>
   <energy>
    <i name="e_fr_energy">     -0.40659440 </i>
    <i name="e_wo_entrp">     -0.40659440 </i>
    <i name="e_0_energy">     -0.40659440 </i>
   </energy>
  </scstep>
  <scstep>
   <time name="total">    1.25    1.25</time>
   <energy>
    <i name="e_fr_energy">     -0.40811125 </i>
    <i name="e_wo_entrp">     -0.40811125 </i>
    <i name="e_0_energy">     -0.40811125 </i>
   </energy>
  </scstep>
  <scstep>
   <time name="total">    1.30    1.31</time>
   <energy>
    <i name="e_fr_energy">     -0.40820811 </i>
    <i name="e_wo_entrp">     -0.40820811 </i>
    <i name="e_0_energy">     -0.40820811 </i>
   </energy>
  </scstep>
  <scstep>
   <time name="total">    1.27    1.28</time>
   <energy>
    <i name="e_fr_energy">     -0.40821129 </i>
    <i name="e_wo_entrp">     -0.40821129 </i>
    <i name="e_0_energy">     -0.40821129 </i>
   </energy>
  </scstep>
  <scstep>
   <time name="total">    1.28    1.28</time>
   <energy>
    <i name="e_fr_energy">     -0.40821145 </i>
    <i name="e_wo_entrp">     -0.40821145 </i>
    <i name="e_0_energy">     -0.40821145 </i>
   </energy>
  </scstep>
  <scstep>
   <time name="total">    1.20    1.21</time>
   <energy>
    <i name="e_fr_energy">     -0.40821146 </i>
    <i name="e_wo_entrp">     -0.40821146 </i>
    <i name="e_0_energy">     -0.40821146 </i>
   </energy>
  </scstep>
  <scstep>
   <time name="total">    1.23    1.23</time>
   <energy>
    <i name="e_fr_energy">     -0.40819055 </i>
    <i name="e_wo_entrp">     -0.40819055 </i>
    <i name="e_0_energy">     -0.40819055 </i>
   </energy>
  </scstep>
  <scstep>
   <time name="total">    1.20    1.20</time>
   <energy>
    <i name="e_fr_energy">     -0.42309595 </i>
    <i name="e_wo_entrp">     -0.42309595 </i>
    <i name="e_0_energy">     -0.42309595 </i>
   </energy>
  </scstep>
  <scstep>
   <time name="total">    1.21    1.22</time>
   <energy>
    <i name="e_fr_energy">     -0.42456939 </i>
    <i name="e_wo_entrp">     -0.42456939 </i>
    <i name="e_0_energy">     -0.42456939 </i>
   </energy>
  </scstep>
  <scstep>
   <time name="total">    1.26    1.26</time>
   <energy>
    <i name="e_fr_energy">     -0.42466229 </i>
    <i name="e_wo_entrp">     -0.42466229 </i>
    <i name="e_0_energy">     -0.42466229 </i>
   </energy>
  </scstep>
  <scstep>
   <time name="total">    1.24    1.25</time>
   <energy>
    <i name="e_fr_energy">     -0.42466552 </i>
    <i name="e_wo_entrp">     -0.42466552 </i>
    <i name="e_0_energy">     -0.42466552 </i>
   </energy>
  </scstep>
  <scstep>
   <time name="total">    1.19    1.19</time>
   <energy>
    <i name="e_fr_energy">     -0.42466569 </i>
    <i name="e_wo_entrp">     -0.42466569 </i>
    <i name="e_0_energy">     -0.42466569 </i>
   </energy>
  </scstep>
  <scstep>
   <time name="total">    1.15    1.16</time>
   <energy>
    <i name="e_fr_energy">     -0.42466570 </i>
    <i name="e_wo_entrp">     -0.42466570 </i>
    <i name="e_0_energy">     -0.42466570 </i>
   </energy>
  </scstep>
  <varray name="epsilon_rpa" >
   <v>       4.46786191      -0.00000000       0.00000000 </v>
   <v>      -0.00000000       4.46833707      -0.00000000 </v>
   <v>       0.00000000      -0.00000000       4.46833707 </v>
  </varray>
  <kpoints>
   <generation param="Gamma">
    <v type="int" name="divisions">      12       12       12 </v>
    <v name="usershift">      0.00000000       0.00000000       0.00000000 </v>
    <v name="genvec1">      0.08333333       0.00000000       0.00000000 </v>
    <v name="genvec2">      0.00000000       0.08333333      -0.00000000 </v>
    <v name="genvec3">     -0.00000000      -0.00000000       0.08333333 </v>
    <v name="shift">      0.00000000       0.00000000       0.00000000 </v>
   </generation>
   <varray name="kpointlist" >
    <v>       0.00000000       0.00000000       0.00000000 </v>
    <v>       0.08333333       0.00000000       0.00000000 </v>
    <v>       0.16666667       0.00000000      -0.00000000 </v>
    <v>       0.25000000      -0.00000000      -0.00000000 </v>
    <v>       0.33333333       0.00000000       0.00000000 </v>
    <v>       0.41666667       0.00000000      -0.00000000 </v>
    <v>       0.50000000      -0.00000000      -0.00000000 </v>
    <v>       0.08333333       0.08333333      -0.00000000 </v>
    <v>       0.16666667       0.08333333       0.00000000 </v>
    <v>       0.25000000       0.08333333      -0.00000000 </v>
    <v>       0.33333333       0.08333333      -0.00000000 </v>
    <v>       0.41666667       0.08333333      -0.00000000 </v>
    <v>       0.50000000       0.08333333      -0.00000000 </v>
    <v>      -0.41666667       0.08333333       0.00000000 </v>
    <v>      -0.33333333       0.08333333       0.00000000 </v>
    <v>      -0.25000000       0.08333333      -0.00000000 </v>
    <v>      -0.16666667       0.08333333       0.00000000 </v>
    <v>      -0.08333333       0.08333333      -0.00000000 </v>
    <v>       0.16666667       0.16666667      -0.00000000 </v>
    <v>       0.25000000       0.16666667      -0.00000000 </v>
    <v>       0.33333333       0.16666667      -0.00000000 </v>
    <v>       0.41666667       0.16666667       0.00000000 </v>
    <v>       0.50000000       0.16666667       0.00000000 </v>
    <v>      -0.41666667       0.16666667       0.00000000 </v>
    <v>      -0.33333333       0.16666667       0.00000000 </v>
    <v>      -0.25000000       0.16666667      -0.00000000 </v>
    <v>      -0.16666667       0.16666667       0.00000000 </v>
    <v>       0.25000000       0.25000000      -0.00000000 </v>
    <v>       0.33333333       0.25000000      -0.00000000 </v>
    <v>       0.41666667       0.25000000      -0.00000000 </v>
    <v>       0.50000000       0.25000000      -0.00000000 </v>
    <v>      -0.41666667       0.25000000       0.00000000 </v>
    <v>      -0.33333333       0.25000000      -0.00000000 </v>
    <v>      -0.25000000       0.25000000       0.00000000 </v>
    <v>       0.33333333       0.33333333      -0.00000000 </v>
    <v>       0.41666667       0.33333333      -0.00000000 </v>
    <v>       0.50000000       0.33333333      -0.00000000 </v>
    <v>      -0.41666667       0.33333333      -0.00000000 </v>
    <v>      -0.33333333       0.33333333      -0.00000000 </v>
    <v>       0.41666667       0.41666667      -0.00000000 </v>
    <v>       0.50000000       0.41666667      -0.00000000 </v>
    <v>      -0.41666667       0.41666667      -0.00000000 </v>
    <v>       0.50000000       0.50000000      -0.00000000 </v>
    <v>       0.08333333      -0.00000000       0.08333333 </v>
    <v>       0.16666667       0.00000000       0.08333333 </v>
    <v>       0.25000000       0.00000000       0.08333333 </v>
    <v>       0.33333333      -0.00000000       0.08333333 </v>
    <v>       0.41666667      -0.00000000       0.08333333 </v>
    <v>       0.50000000       0.00000000       0.08333333 </v>
    <v>      -0.41666667      -0.00000000       0.08333333 </v>
    <v>      -0.33333333      -0.00000000       0.08333333 </v>
    <v>      -0.25000000      -0.00000000       0.08333333 </v>
    <v>      -0.16666667       0.00000000       0.08333333 </v>
    <v>      -0.08333333      -0.00000000       0.08333333 </v>
    <v>       0.25000000       0.16666667       0.08333333 </v>
    <v>       0.33333333       0.16666667       0.08333333 </v>
    <v>       0.41666667       0.16666667       0.08333333 </v>
    <v>       0.50000000       0.16666667       0.08333333 </v>
    <v>      -0.41666667       0.16666667       0.08333333 </v>
    <v>       0.16666667       0.25000000       0.08333333 </v>
    <v>       0.33333333       0.25000000       0.08333333 </v>
    <v>       0.41666667       0.25000000       0.08333333 </v>
    <v>       0.50000000       0.25000000       0.08333333 </v>
    <v>      -0.41666667       0.25000000       0.08333333 </v>
    <v>      -0.33333333       0.25000000       0.08333333 </v>
    <v>      -0.25000000       0.25000000       0.08333333 </v>
    <v>      -0.16666667       0.25000000       0.08333333 </v>
    <v>       0.16666667       0.33333333       0.08333333 </v>
    <v>       0.25000000       0.33333333       0.08333333 </v>
    <v>       0.41666667       0.33333333       0.08333333 </v>
    <v>       0.50000000       0.33333333       0.08333333 </v>
    <v>      -0.41666667       0.33333333       0.08333333 </v>
    <v>      -0.33333333       0.33333333       0.08333333 </v>
    <v>      -0.25000000       0.33333333       0.08333333 </v>
    <v>       0.16666667       0.41666667       0.08333333 </v>
    <v>       0.25000000       0.41666667       0.08333333 </v>
    <v>       0.33333333       0.41666667       0.08333333 </v>
    <v>       0.50000000       0.41666667       0.08333333 </v>
    <v>      -0.41666667       0.41666667       0.08333333 </v>
    <v>      -0.33333333       0.41666667       0.08333333 </v>
    <v>       0.16666667       0.50000000       0.08333333 </v>
    <v>       0.25000000       0.50000000       0.08333333 </v>
    <v>       0.33333333       0.50000000       0.08333333 </v>
    <v>       0.41666667       0.50000000       0.08333333 </v>
    <v>      -0.41666667       0.50000000       0.08333333 </v>
    <v>       0.16666667      -0.41666667       0.08333333 </v>
    <v>       0.25000000      -0.41666667       0.08333333 </v>
    <v>       0.33333333      -0.41666667       0.08333333 </v>
    <v>       0.41666667      -0.41666667       0.08333333 </v>
    <v>       0.50000000      -0.41666667       0.08333333 </v>
    <v>       0.16666667      -0.33333333       0.08333333 </v>
    <v>       0.25000000      -0.33333333       0.08333333 </v>
    <v>       0.33333333      -0.33333333       0.08333333 </v>
    <v>       0.41666667      -0.33333333       0.08333333 </v>
    <v>       0.16666667      -0.25000000       0.08333333 </v>
    <v>       0.25000000      -0.25000000       0.08333333 </v>
    <v>       0.33333333      -0.25000000       0.08333333 </v>
    <v>       0.16666667      -0.16666667       0.08333333 </v>
    <v>       0.25000000      -0.16666667       0.08333333 </v>
    <v>       0.16666667      -0.08333333       0.08333333 </v>
    <v>       0.16666667      -0.00000000       0.16666667 </v>
    <v>       0.25000000       0.00000000       0.16666667 </v>
    <v>       0.33333333       0.00000000       0.16666667 </v>
    <v>       0.41666667       0.00000000       0.16666667 </v>
    <v>       0.50000000      -0.00000000       0.16666667 </v>
    <v>      -0.41666667       0.00000000       0.16666667 </v>
    <v>      -0.33333333       0.00000000       0.16666667 </v>
    <v>      -0.25000000      -0.00000000       0.16666667 </v>
    <v>      -0.16666667      -0.00000000       0.16666667 </v>
    <v>       0.50000000       0.33333333       0.16666667 </v>
    <v>      -0.41666667       0.33333333       0.16666667 </v>
    <v>      -0.33333333       0.33333333       0.16666667 </v>
    <v>       0.25000000       0.41666667       0.16666667 </v>
    <v>      -0.41666667       0.41666667       0.16666667 </v>
    <v>      -0.33333333       0.41666667       0.16666667 </v>
    <v>      -0.25000000       0.41666667       0.16666667 </v>
    <v>       0.25000000       0.50000000       0.16666667 </v>
    <v>       0.33333333       0.50000000       0.16666667 </v>
    <v>      -0.33333333       0.50000000       0.16666667 </v>
    <v>       0.25000000      -0.41666667       0.16666667 </v>
    <v>       0.33333333      -0.41666667       0.16666667 </v>
    <v>       0.41666667      -0.41666667       0.16666667 </v>
    <v>       0.25000000      -0.33333333       0.16666667 </v>
    <v>       0.33333333      -0.33333333       0.16666667 </v>
    <v>       0.41666667      -0.33333333       0.16666667 </v>
    <v>       0.50000000      -0.33333333       0.16666667 </v>
    <v>       0.25000000      -0.25000000       0.16666667 </v>
    <v>       0.33333333      -0.25000000       0.16666667 </v>
    <v>       0.41666667      -0.25000000       0.16666667 </v>
    <v>       0.25000000      -0.16666667       0.16666667 </v>
    <v>       0.33333333      -0.16666667       0.16666667 </v>
    <v>       0.25000000      -0.08333333       0.16666667 </v>
    <v>       0.25000000      -0.00000000       0.25000000 </v>
    <v>       0.33333333       0.00000000       0.25000000 </v>
    <v>       0.41666667       0.00000000       0.25000000 </v>
    <v>       0.50000000       0.00000000       0.25000000 </v>
    <v>      -0.41666667      -0.00000000       0.25000000 </v>
    <v>      -0.33333333      -0.00000000       0.25000000 </v>
    <v>      -0.25000000       0.00000000       0.25000000 </v>
    <v>      -0.25000000       0.50000000       0.25000000 </v>
    <v>       0.33333333      -0.41666667       0.25000000 </v>
    <v>       0.33333333      -0.33333333       0.25000000 </v>
    <v>       0.41666667      -0.33333333       0.25000000 </v>
    <v>       0.33333333      -0.25000000       0.25000000 </v>
    <v>       0.41666667      -0.25000000       0.25000000 </v>
    <v>       0.50000000      -0.25000000       0.25000000 </v>
    <v>       0.33333333      -0.16666667       0.25000000 </v>
    <v>       0.41666667      -0.16666667       0.25000000 </v>
    <v>       0.33333333      -0.08333333       0.25000000 </v>
    <v>       0.33333333      -0.00000000       0.33333333 </v>
    <v>       0.41666667      -0.00000000       0.33333333 </v>
    <v>       0.50000000      -0.00000000       0.33333333 </v>
    <v>      -0.41666667       0.00000000       0.33333333 </v>
    <v>      -0.33333333      -0.00000000       0.33333333 </v>
    <v>       0.41666667      -0.25000000       0.33333333 </v>
    <v>       0.41666667      -0.16666667       0.33333333 </v>
    <v>       0.50000000      -0.16666667       0.33333333 </v>
    <v>       0.41666667      -0.08333333       0.33333333 </v>
    <v>       0.41666667      -0.00000000       0.41666667 </v>
    <v>       0.50000000      -0.00000000       0.41666667 </v>
    <v>      -0.41666667      -0.00000000       0.41666667 </v>
    <v>       0.50000000      -0.08333333       0.41666667 </v>
    <v>       0.50000000      -0.00000000       0.50000000 </v>
   </varray>
   <varray name="weights" >
    <v>       0.00057870 </v>
    <v>       0.00462963 </v>
    <v>       0.00462963 </v>
    <v>       0.00462963 </v>
    <v>       0.00462963 </v>
    <v>       0.00462963 </v>
    <v>       0.00231481 </v>
    <v>       0.00231481 </v>
    <v>       0.00925926 </v>
    <v>       0.00925926 </v>
    <v>       0.00925926 </v>
    <v>       0.00925926 </v>
    <v>       0.00925926 </v>
    <v>       0.00925926 </v>
    <v>       0.00925926 </v>
    <v>       0.00925926 </v>
    <v>       0.00925926 </v>
    <v>       0.00462963 </v>
    <v>       0.00231481 </v>
    <v>       0.00925926 </v>
    <v>       0.00925926 </v>
    <v>       0.00925926 </v>
    <v>       0.00925926 </v>
    <v>       0.00925926 </v>
    <v>       0.00925926 </v>
    <v>       0.00925926 </v>
    <v>       0.00462963 </v>
    <v>       0.00231481 </v>
    <v>       0.00925926 </v>
    <v>       0.00925926 </v>
    <v>       0.00925926 </v>
    <v>       0.00925926 </v>
    <v>       0.00925926 </v>
    <v>       0.00462963 </v>
    <v>       0.00231481 </v>
    <v>       0.00925926 </v>
    <v>       0.00925926 </v>
    <v>       0.00925926 </v>
    <v>       0.00462963 </v>
    <v>       0.00231481 </v>
    <v>       0.00925926 </v>
    <v>       0.00462963 </v>
    <v>       0.00115741 </v>
    <v>       0.00115741 </v>
    <v>       0.00462963 </v>
    <v>       0.00462963 </v>
    <v>       0.00462963 </v>
    <v>       0.00462963 </v>
    <v>       0.00462963 </v>
    <v>       0.00462963 </v>
    <v>       0.00462963 </v>
    <v>       0.00462963 </v>
    <v>       0.00462963 </v>
    <v>       0.00231481 </v>
    <v>       0.00462963 </v>
    <v>       0.00925926 </v>
    <v>       0.00925926 </v>
    <v>       0.00925926 </v>
    <v>       0.00462963 </v>
    <v>       0.00462963 </v>
    <v>       0.00462963 </v>
    <v>       0.00925926 </v>
    <v>       0.00925926 </v>
    <v>       0.00925926 </v>
    <v>       0.00925926 </v>
    <v>       0.00925926 </v>
    <v>       0.00462963 </v>
    <v>       0.00925926 </v>
    <v>       0.00462963 </v>
    <v>       0.00462963 </v>
    <v>       0.00925926 </v>
    <v>       0.00925926 </v>
    <v>       0.00925926 </v>
    <v>       0.00462963 </v>
    <v>       0.00925926 </v>
    <v>       0.00925926 </v>
    <v>       0.00462963 </v>
    <v>       0.00462963 </v>
    <v>       0.00925926 </v>
    <v>       0.00462963 </v>
    <v>       0.00925926 </v>
    <v>       0.00925926 </v>
    <v>       0.00925926 </v>
    <v>       0.00462963 </v>
    <v>       0.00231481 </v>
    <v>       0.00925926 </v>
    <v>       0.00925926 </v>
    <v>       0.00925926 </v>
    <v>       0.00925926 </v>
    <v>       0.00231481 </v>
    <v>       0.00925926 </v>
    <v>       0.00925926 </v>
    <v>       0.00925926 </v>
    <v>       0.00462963 </v>
    <v>       0.00925926 </v>
    <v>       0.00925926 </v>
    <v>       0.00462963 </v>
    <v>       0.00925926 </v>
    <v>       0.00462963 </v>
    <v>       0.00462963 </v>
    <v>       0.00115741 </v>
    <v>       0.00462963 </v>
    <v>       0.00462963 </v>
    <v>       0.00462963 </v>
    <v>       0.00462963 </v>
    <v>       0.00462963 </v>
    <v>       0.00462963 </v>
    <v>       0.00462963 </v>
    <v>       0.00231481 </v>
    <v>       0.00462963 </v>
    <v>       0.00925926 </v>
    <v>       0.00462963 </v>
    <v>       0.00462963 </v>
    <v>       0.00462963 </v>
    <v>       0.00925926 </v>
    <v>       0.00462963 </v>
    <v>       0.00925926 </v>
    <v>       0.00462963 </v>
    <v>       0.00231481 </v>
    <v>       0.00925926 </v>
    <v>       0.00925926 </v>
    <v>       0.00462963 </v>
    <v>       0.00925926 </v>
    <v>       0.00925926 </v>
    <v>       0.00925926 </v>
    <v>       0.00231481 </v>
    <v>       0.00925926 </v>
    <v>       0.00925926 </v>
    <v>       0.00462963 </v>
    <v>       0.00925926 </v>
    <v>       0.00462963 </v>
    <v>       0.00462963 </v>
    <v>       0.00115741 </v>
    <v>       0.00462963 </v>
    <v>       0.00462963 </v>
    <v>       0.00462963 </v>
    <v>       0.00462963 </v>
    <v>       0.00462963 </v>
    <v>       0.00231481 </v>
    <v>       0.00115741 </v>
    <v>       0.00462963 </v>
    <v>       0.00925926 </v>
    <v>       0.00462963 </v>
    <v>       0.00925926 </v>
    <v>       0.00925926 </v>
    <v>       0.00231481 </v>
    <v>       0.00925926 </v>
    <v>       0.00462963 </v>
    <v>       0.00462963 </v>
    <v>       0.00115741 </v>
    <v>       0.00462963 </v>
    <v>       0.00462963 </v>
    <v>       0.00462963 </v>
    <v>       0.00231481 </v>
    <v>       0.00462963 </v>
    <v>       0.00925926 </v>
    <v>       0.00231481 </v>
    <v>       0.00462963 </v>
    <v>       0.00115741 </v>
    <v>       0.00462963 </v>
    <v>       0.00231481 </v>
    <v>       0.00231481 </v>
    <v>       0.00057870 </v>
   </varray>
  </kpoints>
  <scstep>
   <time name="total">    1.29    1.29</time>
   <energy>
    <i name="e_fr_energy">     -0.39567650 </i>
    <i name="e_wo_entrp">     -0.39567650 </i>
    <i name="e_0_energy">     -0.39567650 </i>
   </energy>
  </scstep>
  <scstep>
   <time name="total">    1.36    1.36</time>
   <energy>
    <i name="e_fr_energy">     -0.41478394 </i>
    <i name="e_wo_entrp">     -0.41478394 </i>
    <i name="e_0_energy">     -0.41478394 </i>
   </energy>
  </scstep>
  <scstep>
   <time name="total">    1.62    1.63</time>
   <energy>
    <i name="e_fr_energy">     -0.40197790 </i>
    <i name="e_wo_entrp">     -0.40197790 </i>
    <i name="e_0_energy">     -0.40197790 </i>
   </energy>
  </scstep>
  <scstep>
   <time name="total">    1.78    1.81</time>
   <energy>
    <i name="e_fr_energy">     -0.41973052 </i>
    <i name="e_wo_entrp">     -0.41973052 </i>
    <i name="e_0_energy">     -0.41973052 </i>
   </energy>
  </scstep>
  <scstep>
   <time name="total">    1.69    1.69</time>
   <energy>
    <i name="e_fr_energy">     -0.43041492 </i>
    <i name="e_wo_entrp">     -0.43041492 </i>
    <i name="e_0_energy">     -0.43041492 </i>
   </energy>
  </scstep>
  <scstep>
   <time name="total">    1.94    1.95</time>
   <energy>
    <i name="e_fr_energy">     -0.43197809 </i>
    <i name="e_wo_entrp">     -0.43197809 </i>
    <i name="e_0_energy">     -0.43197809 </i>
   </energy>
  </scstep>
  <scstep>
   <time name="total">    1.95    1.97</time>
   <energy>
    <i name="e_fr_energy">     -0.43222066 </i>
    <i name="e_wo_entrp">     -0.43222066 </i>
    <i name="e_0_energy">     -0.43222066 </i>
   </energy>
  </scstep>
  <scstep>
   <time name="total">    2.01    2.02</time>
   <energy>
    <i name="e_fr_energy">     -0.43228713 </i>
    <i name="e_wo_entrp">     -0.43228713 </i>
    <i name="e_0_energy">     -0.43228713 </i>
   </energy>
  </scstep>
  <scstep>
   <time name="total">    1.88    1.88</time>
   <energy>
    <i name="e_fr_energy">     -0.43231325 </i>
    <i name="e_wo_entrp">     -0.43231325 </i>
    <i name="e_0_energy">     -0.43231325 </i>
   </energy>
  </scstep>
  <scstep>
   <time name="total">    1.92    1.93</time>
   <energy>
    <i name="e_fr_energy">     -0.43230663 </i>
    <i name="e_wo_entrp">     -0.43230663 </i>
    <i name="e_0_energy">     -0.43230663 </i>
   </energy>
  </scstep>
  <scstep>
   <time name="total">    1.92    1.92</time>
   <energy>
    <i name="e_fr_energy">     -0.43231168 </i>
    <i name="e_wo_entrp">     -0.43231168 </i>
    <i name="e_0_energy">     -0.43231168 </i>
   </energy>
  </scstep>
  <scstep>
   <time name="total">    1.82    1.82</time>
   <energy>
    <i name="e_fr_energy">     -0.43231205 </i>
    <i name="e_wo_entrp">     -0.43231205 </i>
    <i name="e_0_energy">     -0.43231205 </i>
   </energy>
  </scstep>
  <kpoints>
   <generation param="Gamma">
    <v type="int" name="divisions">      12       12       12 </v>
    <v name="usershift">      0.00000000       0.00000000       0.00000000 </v>
    <v name="genvec1">      0.08333333       0.00000000       0.00000000 </v>
    <v name="genvec2">      0.00000000       0.08333333      -0.00000000 </v>
    <v name="genvec3">     -0.00000000      -0.00000000       0.08333333 </v>
    <v name="shift">      0.00000000       0.00000000       0.00000000 </v>
   </generation>
   <varray name="kpointlist" >
    <v>       0.00000000       0.00000000       0.00000000 </v>
    <v>       0.08333333       0.00000000       0.00000000 </v>
    <v>       0.16666667       0.00000000      -0.00000000 </v>
    <v>       0.25000000      -0.00000000      -0.00000000 </v>
    <v>       0.33333333       0.00000000       0.00000000 </v>
    <v>       0.41666667       0.00000000      -0.00000000 </v>
    <v>       0.50000000      -0.00000000      -0.00000000 </v>
    <v>       0.08333333       0.08333333      -0.00000000 </v>
    <v>       0.16666667       0.08333333       0.00000000 </v>
    <v>       0.25000000       0.08333333      -0.00000000 </v>
    <v>       0.33333333       0.08333333      -0.00000000 </v>
    <v>       0.41666667       0.08333333      -0.00000000 </v>
    <v>       0.50000000       0.08333333      -0.00000000 </v>
    <v>      -0.41666667       0.08333333       0.00000000 </v>
    <v>      -0.33333333       0.08333333       0.00000000 </v>
    <v>      -0.25000000       0.08333333      -0.00000000 </v>
    <v>      -0.16666667       0.08333333       0.00000000 </v>
    <v>      -0.08333333       0.08333333      -0.00000000 </v>
    <v>       0.16666667       0.16666667      -0.00000000 </v>
    <v>       0.25000000       0.16666667      -0.00000000 </v>
    <v>       0.33333333       0.16666667      -0.00000000 </v>
    <v>       0.41666667       0.16666667       0.00000000 </v>
    <v>       0.50000000       0.16666667       0.00000000 </v>
    <v>      -0.41666667       0.16666667       0.00000000 </v>
    <v>      -0.33333333       0.16666667       0.00000000 </v>
    <v>      -0.25000000       0.16666667      -0.00000000 </v>
    <v>      -0.16666667       0.16666667       0.00000000 </v>
    <v>       0.25000000       0.25000000      -0.00000000 </v>
    <v>       0.33333333       0.25000000      -0.00000000 </v>
    <v>       0.41666667       0.25000000      -0.00000000 </v>
    <v>       0.50000000       0.25000000      -0.00000000 </v>
    <v>      -0.41666667       0.25000000       0.00000000 </v>
    <v>      -0.33333333       0.25000000      -0.00000000 </v>
    <v>      -0.25000000       0.25000000       0.00000000 </v>
    <v>       0.33333333       0.33333333      -0.00000000 </v>
    <v>       0.41666667       0.33333333      -0.00000000 </v>
    <v>       0.50000000       0.33333333      -0.00000000 </v>
    <v>      -0.41666667       0.33333333      -0.00000000 </v>
    <v>      -0.33333333       0.33333333      -0.00000000 </v>
    <v>       0.41666667       0.41666667      -0.00000000 </v>
    <v>       0.50000000       0.41666667      -0.00000000 </v>
    <v>      -0.41666667       0.41666667      -0.00000000 </v>
    <v>       0.50000000       0.50000000      -0.00000000 </v>
    <v>      -0.00000000      -0.00000000       0.08333333 </v>
    <v>       0.08333333      -0.00000000       0.08333333 </v>
    <v>       0.16666667       0.00000000       0.08333333 </v>
    <v>       0.25000000       0.00000000       0.08333333 </v>
    <v>       0.33333333      -0.00000000       0.08333333 </v>
    <v>       0.41666667      -0.00000000       0.08333333 </v>
    <v>       0.50000000       0.00000000       0.08333333 </v>
    <v>      -0.41666667      -0.00000000       0.08333333 </v>
    <v>      -0.33333333      -0.00000000       0.08333333 </v>
    <v>      -0.25000000      -0.00000000       0.08333333 </v>
    <v>      -0.16666667       0.00000000       0.08333333 </v>
    <v>      -0.08333333      -0.00000000       0.08333333 </v>
    <v>      -0.00000000       0.08333333       0.08333333 </v>
    <v>       0.16666667       0.08333333       0.08333333 </v>
    <v>       0.25000000       0.08333333       0.08333333 </v>
    <v>       0.33333333       0.08333333       0.08333333 </v>
    <v>       0.41666667       0.08333333       0.08333333 </v>
    <v>       0.50000000       0.08333333       0.08333333 </v>
    <v>      -0.41666667       0.08333333       0.08333333 </v>
    <v>      -0.33333333       0.08333333       0.08333333 </v>
    <v>      -0.25000000       0.08333333       0.08333333 </v>
    <v>      -0.16666667       0.08333333       0.08333333 </v>
    <v>      -0.08333333       0.08333333       0.08333333 </v>
    <v>       0.16666667       0.16666667       0.08333333 </v>
    <v>       0.25000000       0.16666667       0.08333333 </v>
    <v>       0.33333333       0.16666667       0.08333333 </v>
    <v>       0.41666667       0.16666667       0.08333333 </v>
    <v>       0.50000000       0.16666667       0.08333333 </v>
    <v>      -0.41666667       0.16666667       0.08333333 </v>
    <v>      -0.33333333       0.16666667       0.08333333 </v>
    <v>      -0.25000000       0.16666667       0.08333333 </v>
    <v>      -0.16666667       0.16666667       0.08333333 </v>
    <v>      -0.08333333       0.16666667       0.08333333 </v>
    <v>       0.16666667       0.25000000       0.08333333 </v>
    <v>       0.25000000       0.25000000       0.08333333 </v>
    <v>       0.33333333       0.25000000       0.08333333 </v>
    <v>       0.41666667       0.25000000       0.08333333 </v>
    <v>       0.50000000       0.25000000       0.08333333 </v>
    <v>      -0.41666667       0.25000000       0.08333333 </v>
    <v>      -0.33333333       0.25000000       0.08333333 </v>
    <v>      -0.25000000       0.25000000       0.08333333 </v>
    <v>      -0.16666667       0.25000000       0.08333333 </v>
    <v>       0.16666667       0.33333333       0.08333333 </v>
    <v>       0.25000000       0.33333333       0.08333333 </v>
    <v>       0.33333333       0.33333333       0.08333333 </v>
    <v>       0.41666667       0.33333333       0.08333333 </v>
    <v>       0.50000000       0.33333333       0.08333333 </v>
    <v>      -0.41666667       0.33333333       0.08333333 </v>
    <v>      -0.33333333       0.33333333       0.08333333 </v>
    <v>      -0.25000000       0.33333333       0.08333333 </v>
    <v>       0.16666667       0.41666667       0.08333333 </v>
    <v>       0.25000000       0.41666667       0.08333333 </v>
    <v>       0.33333333       0.41666667       0.08333333 </v>
    <v>       0.41666667       0.41666667       0.08333333 </v>
    <v>       0.50000000       0.41666667       0.08333333 </v>
    <v>      -0.41666667       0.41666667       0.08333333 </v>
    <v>      -0.33333333       0.41666667       0.08333333 </v>
    <v>       0.16666667       0.50000000       0.08333333 </v>
    <v>       0.25000000       0.50000000       0.08333333 </v>
    <v>       0.33333333       0.50000000       0.08333333 </v>
    <v>       0.41666667       0.50000000       0.08333333 </v>
    <v>       0.50000000       0.50000000       0.08333333 </v>
    <v>      -0.41666667       0.50000000       0.08333333 </v>
    <v>       0.16666667      -0.41666667       0.08333333 </v>
    <v>       0.25000000      -0.41666667       0.08333333 </v>
    <v>       0.33333333      -0.41666667       0.08333333 </v>
    <v>       0.41666667      -0.41666667       0.08333333 </v>
    <v>       0.50000000      -0.41666667       0.08333333 </v>
    <v>       0.16666667      -0.33333333       0.08333333 </v>
    <v>       0.25000000      -0.33333333       0.08333333 </v>
    <v>       0.33333333      -0.33333333       0.08333333 </v>
    <v>       0.41666667      -0.33333333       0.08333333 </v>
    <v>       0.16666667      -0.25000000       0.08333333 </v>
    <v>       0.25000000      -0.25000000       0.08333333 </v>
    <v>       0.33333333      -0.25000000       0.08333333 </v>
    <v>       0.16666667      -0.16666667       0.08333333 </v>
    <v>       0.25000000      -0.16666667       0.08333333 </v>
    <v>       0.16666667      -0.08333333       0.08333333 </v>
    <v>      -0.00000000      -0.00000000       0.16666667 </v>
    <v>       0.08333333       0.00000000       0.16666667 </v>
    <v>       0.16666667      -0.00000000       0.16666667 </v>
    <v>       0.25000000       0.00000000       0.16666667 </v>
    <v>       0.33333333       0.00000000       0.16666667 </v>
    <v>       0.41666667       0.00000000       0.16666667 </v>
    <v>       0.50000000      -0.00000000       0.16666667 </v>
    <v>      -0.41666667       0.00000000       0.16666667 </v>
    <v>      -0.33333333       0.00000000       0.16666667 </v>
    <v>      -0.25000000      -0.00000000       0.16666667 </v>
    <v>      -0.16666667      -0.00000000       0.16666667 </v>
    <v>      -0.08333333      -0.00000000       0.16666667 </v>
    <v>      -0.00000000       0.08333333       0.16666667 </v>
    <v>       0.08333333       0.08333333       0.16666667 </v>
    <v>       0.25000000       0.08333333       0.16666667 </v>
    <v>       0.33333333       0.08333333       0.16666667 </v>
    <v>       0.41666667       0.08333333       0.16666667 </v>
    <v>       0.50000000       0.08333333       0.16666667 </v>
    <v>      -0.41666667       0.08333333       0.16666667 </v>
    <v>      -0.33333333       0.08333333       0.16666667 </v>
    <v>      -0.25000000       0.08333333       0.16666667 </v>
    <v>      -0.16666667       0.08333333       0.16666667 </v>
    <v>      -0.08333333       0.08333333       0.16666667 </v>
    <v>      -0.00000000       0.16666667       0.16666667 </v>
    <v>       0.25000000       0.16666667       0.16666667 </v>
    <v>       0.33333333       0.16666667       0.16666667 </v>
    <v>       0.41666667       0.16666667       0.16666667 </v>
    <v>       0.50000000       0.16666667       0.16666667 </v>
    <v>      -0.41666667       0.16666667       0.16666667 </v>
    <v>      -0.33333333       0.16666667       0.16666667 </v>
    <v>      -0.25000000       0.16666667       0.16666667 </v>
    <v>      -0.16666667       0.16666667       0.16666667 </v>
    <v>      -0.08333333       0.16666667       0.16666667 </v>
    <v>       0.25000000       0.25000000       0.16666667 </v>
    <v>       0.33333333       0.25000000       0.16666667 </v>
    <v>       0.41666667       0.25000000       0.16666667 </v>
    <v>       0.50000000       0.25000000       0.16666667 </v>
    <v>      -0.41666667       0.25000000       0.16666667 </v>
    <v>      -0.33333333       0.25000000       0.16666667 </v>
    <v>      -0.25000000       0.25000000       0.16666667 </v>
    <v>      -0.16666667       0.25000000       0.16666667 </v>
    <v>      -0.08333333       0.25000000       0.16666667 </v>
    <v>       0.25000000       0.33333333       0.16666667 </v>
    <v>       0.33333333       0.33333333       0.16666667 </v>
    <v>       0.41666667       0.33333333       0.16666667 </v>
    <v>       0.50000000       0.33333333       0.16666667 </v>
    <v>      -0.41666667       0.33333333       0.16666667 </v>
    <v>      -0.33333333       0.33333333       0.16666667 </v>
    <v>      -0.25000000       0.33333333       0.16666667 </v>
    <v>      -0.16666667       0.33333333       0.16666667 </v>
    <v>       0.25000000       0.41666667       0.16666667 </v>
    <v>       0.33333333       0.41666667       0.16666667 </v>
    <v>       0.41666667       0.41666667       0.16666667 </v>
    <v>       0.50000000       0.41666667       0.16666667 </v>
    <v>      -0.41666667       0.41666667       0.16666667 </v>
    <v>      -0.33333333       0.41666667       0.16666667 </v>
    <v>      -0.25000000       0.41666667       0.16666667 </v>
    <v>       0.25000000       0.50000000       0.16666667 </v>
    <v>       0.33333333       0.50000000       0.16666667 </v>
    <v>       0.41666667       0.50000000       0.16666667 </v>
    <v>       0.50000000       0.50000000       0.16666667 </v>
    <v>      -0.41666667       0.50000000       0.16666667 </v>
    <v>      -0.33333333       0.50000000       0.16666667 </v>
    <v>       0.25000000      -0.41666667       0.16666667 </v>
    <v>       0.33333333      -0.41666667       0.16666667 </v>
    <v>       0.41666667      -0.41666667       0.16666667 </v>
    <v>       0.50000000      -0.41666667       0.16666667 </v>
    <v>      -0.41666667      -0.41666667       0.16666667 </v>
    <v>       0.25000000      -0.33333333       0.16666667 </v>
    <v>       0.33333333      -0.33333333       0.16666667 </v>
    <v>       0.41666667      -0.33333333       0.16666667 </v>
    <v>       0.50000000      -0.33333333       0.16666667 </v>
    <v>       0.25000000      -0.25000000       0.16666667 </v>
    <v>       0.33333333      -0.25000000       0.16666667 </v>
    <v>       0.41666667      -0.25000000       0.16666667 </v>
    <v>       0.25000000      -0.16666667       0.16666667 </v>
    <v>       0.33333333      -0.16666667       0.16666667 </v>
    <v>       0.25000000      -0.08333333       0.16666667 </v>
    <v>       0.00000000       0.00000000       0.25000000 </v>
    <v>       0.08333333       0.00000000       0.25000000 </v>
    <v>       0.16666667      -0.00000000       0.25000000 </v>
    <v>       0.25000000      -0.00000000       0.25000000 </v>
    <v>       0.33333333       0.00000000       0.25000000 </v>
    <v>       0.41666667       0.00000000       0.25000000 </v>
    <v>       0.50000000       0.00000000       0.25000000 </v>
    <v>      -0.41666667      -0.00000000       0.25000000 </v>
    <v>      -0.33333333      -0.00000000       0.25000000 </v>
    <v>      -0.25000000       0.00000000       0.25000000 </v>
    <v>      -0.16666667      -0.00000000       0.25000000 </v>
    <v>      -0.08333333      -0.00000000       0.25000000 </v>
    <v>       0.00000000       0.08333333       0.25000000 </v>
    <v>       0.08333333       0.08333333       0.25000000 </v>
    <v>       0.16666667       0.08333333       0.25000000 </v>
    <v>       0.33333333       0.08333333       0.25000000 </v>
    <v>       0.41666667       0.08333333       0.25000000 </v>
    <v>       0.50000000       0.08333333       0.25000000 </v>
    <v>      -0.41666667       0.08333333       0.25000000 </v>
    <v>      -0.33333333       0.08333333       0.25000000 </v>
    <v>      -0.25000000       0.08333333       0.25000000 </v>
    <v>      -0.16666667       0.08333333       0.25000000 </v>
    <v>      -0.08333333       0.08333333       0.25000000 </v>
    <v>      -0.00000000       0.16666667       0.25000000 </v>
    <v>       0.08333333       0.16666667       0.25000000 </v>
    <v>       0.33333333       0.16666667       0.25000000 </v>
    <v>       0.41666667       0.16666667       0.25000000 </v>
    <v>       0.50000000       0.16666667       0.25000000 </v>
    <v>      -0.41666667       0.16666667       0.25000000 </v>
    <v>      -0.33333333       0.16666667       0.25000000 </v>
    <v>      -0.25000000       0.16666667       0.25000000 </v>
    <v>      -0.16666667       0.16666667       0.25000000 </v>
    <v>      -0.08333333       0.16666667       0.25000000 </v>
    <v>      -0.00000000       0.25000000       0.25000000 </v>
    <v>       0.33333333       0.25000000       0.25000000 </v>
    <v>       0.41666667       0.25000000       0.25000000 </v>
    <v>       0.50000000       0.25000000       0.25000000 </v>
    <v>      -0.41666667       0.25000000       0.25000000 </v>
    <v>      -0.33333333       0.25000000       0.25000000 </v>
    <v>      -0.25000000       0.25000000       0.25000000 </v>
    <v>      -0.16666667       0.25000000       0.25000000 </v>
    <v>      -0.08333333       0.25000000       0.25000000 </v>
    <v>       0.33333333       0.33333333       0.25000000 </v>
    <v>       0.41666667       0.33333333       0.25000000 </v>
    <v>       0.50000000       0.33333333       0.25000000 </v>
    <v>      -0.41666667       0.33333333       0.25000000 </v>
    <v>      -0.33333333       0.33333333       0.25000000 </v>
    <v>      -0.25000000       0.33333333       0.25000000 </v>
    <v>      -0.16666667       0.33333333       0.25000000 </v>
    <v>      -0.08333333       0.33333333       0.25000000 </v>
    <v>       0.33333333       0.41666667       0.25000000 </v>
    <v>       0.41666667       0.41666667       0.25000000 </v>
    <v>       0.50000000       0.41666667       0.25000000 </v>
    <v>      -0.41666667       0.41666667       0.25000000 </v>
    <v>      -0.33333333       0.41666667       0.25000000 </v>
    <v>      -0.25000000       0.41666667       0.25000000 </v>
    <v>      -0.16666667       0.41666667       0.25000000 </v>
    <v>       0.33333333       0.50000000       0.25000000 </v>
    <v>       0.41666667       0.50000000       0.25000000 </v>
    <v>       0.50000000       0.50000000       0.25000000 </v>
    <v>      -0.41666667       0.50000000       0.25000000 </v>
    <v>      -0.33333333       0.50000000       0.25000000 </v>
    <v>      -0.25000000       0.50000000       0.25000000 </v>
    <v>       0.33333333      -0.41666667       0.25000000 </v>
[...]
       <r>   11.1099    0.0000 </r>
       <r>   11.3264    0.0000 </r>
       <r>   13.5953    0.0000 </r>
       <r>   13.8705    0.0000 </r>
       <r>   15.4776    0.0000 </r>
      </set>
      <set comment="kpoint 158">
       <r>  -23.9140    1.0000 </r>
       <r>  -13.4719    1.0000 </r>
       <r>   -9.8852    1.0000 </r>
       <r>   -9.3162    1.0000 </r>
       <r>   -9.1424    1.0000 </r>
       <r>    1.2539    1.0000 </r>
       <r>    1.3995    1.0000 </r>
       <r>    1.5250    1.0000 </r>
       <r>    4.2253    0.0000 </r>
       <r>    7.8937    0.0000 </r>
       <r>    9.4103    0.0000 </r>
       <r>   10.5512    0.0000 </r>
       <r>   10.8312    0.0000 </r>
       <r>   12.1755    0.0000 </r>
       <r>   14.7382    0.0000 </r>
       <r>   16.3037    0.0000 </r>
      </set>
      <set comment="kpoint 159">
       <r>  -23.9165    1.0000 </r>
       <r>  -13.4235    1.0000 </r>
       <r>   -9.9312    1.0000 </r>
       <r>   -9.2543    1.0000 </r>
       <r>   -9.2543    1.0000 </r>
       <r>    1.4339    1.0000 </r>
       <r>    1.5663    1.0000 </r>
       <r>    1.5663    1.0000 </r>
       <r>    3.8837    0.0000 </r>
       <r>    7.6291    0.0000 </r>
       <r>   10.3315    0.0000 </r>
       <r>   10.7531    0.0000 </r>
       <r>   10.8611    0.0000 </r>
       <r>   10.8611    0.0000 </r>
       <r>   15.6128    0.0000 </r>
       <r>   16.4575    0.0000 </r>
      </set>
      <set comment="kpoint 160">
       <r>  -23.9012    1.0000 </r>
       <r>  -13.4172    1.0000 </r>
       <r>  -10.0516    1.0000 </r>
       <r>   -9.2669    1.0000 </r>
       <r>   -9.2622    1.0000 </r>
       <r>    1.4723    1.0000 </r>
       <r>    1.5111    1.0000 </r>
       <r>    1.6267    1.0000 </r>
       <r>    3.9751    0.0000 </r>
       <r>    7.7687    0.0000 </r>
       <r>   10.0017    0.0000 </r>
       <r>   10.5306    0.0000 </r>
       <r>   11.1021    0.0000 </r>
       <r>   12.1519    0.0000 </r>
       <r>   14.5852    0.0000 </r>
       <r>   16.1881    0.0000 </r>
      </set>
      <set comment="kpoint 161">
       <r>  -23.8960    1.0000 </r>
       <r>  -13.4755    1.0000 </r>
       <r>  -10.0282    1.0000 </r>
       <r>   -9.2366    1.0000 </r>
       <r>   -9.2193    1.0000 </r>
       <r>    1.1940    1.0000 </r>
       <r>    1.3140    1.0000 </r>
       <r>    1.6573    1.0000 </r>
       <r>    4.4411    0.0000 </r>
       <r>    8.1363    0.0000 </r>
       <r>    9.0808    0.0000 </r>
       <r>   10.7910    0.0000 </r>
       <r>   10.8295    0.0000 </r>
       <r>   13.4738    0.0000 </r>
       <r>   13.7711    0.0000 </r>
       <r>   16.4418    0.0000 </r>
      </set>
      <set comment="kpoint 162">
       <r>  -23.8958    1.0000 </r>
       <r>  -13.4266    1.0000 </r>
       <r>  -10.0777    1.0000 </r>
       <r>   -9.3519    1.0000 </r>
       <r>   -9.1717    1.0000 </r>
       <r>    1.2916    1.0000 </r>
       <r>    1.5534    1.0000 </r>
       <r>    1.6893    1.0000 </r>
       <r>    4.1169    0.0000 </r>
       <r>    7.8650    0.0000 </r>
       <r>    9.5131    0.0000 </r>
       <r>   10.6903    0.0000 </r>
       <r>   11.3165    0.0000 </r>
       <r>   12.6316    0.0000 </r>
       <r>   14.2165    0.0000 </r>
       <r>   15.8980    0.0000 </r>
      </set>
      <set comment="kpoint 163">
       <r>  -23.8970    1.0000 </r>
       <r>  -13.3779    1.0000 </r>
       <r>  -10.1280    1.0000 </r>
       <r>   -9.2887    1.0000 </r>
       <r>   -9.2887    1.0000 </r>
       <r>    1.5963    1.0000 </r>
       <r>    1.5964    1.0000 </r>
       <r>    1.7213    1.0000 </r>
       <r>    3.7698    0.0000 </r>
       <r>    7.6058    0.0000 </r>
       <r>   10.5089    0.0000 </r>
       <r>   10.9754    0.0000 </r>
       <r>   11.3116    0.0000 </r>
       <r>   11.3116    0.0000 </r>
       <r>   14.7825    0.0000 </r>
       <r>   16.0482    0.0000 </r>
      </set>
     </set>
    </set>
   </array>
  </eigenvalues>
  <separator name="orbital magnetization" >
   <v name="MAGDIPOLOUT">      0.00000000      0.00000000      0.00000000</v>
  </separator>
  <dos>
   <i name="efermi">      1.81896933 </i>
   <total>
    <array>
     <dimension dim="1">gridpoints</dimension>
     <dimension dim="2">spin</dimension>
     <field>energy</field>
     <field>total</field>
     <field>integrated</field>
     <set>
      <set comment="spin 1">
       <r>   -26.4283     0.0000     0.0000 </r>
       <r>   -26.2643     0.0000     0.0000 </r>
       <r>   -26.1004     0.0000     0.0000 </r>
       <r>   -25.9364     0.0000     0.0000 </r>
       <r>   -25.7724     0.0000     0.0000 </r>
       <r>   -25.6084     0.0000     0.0000 </r>
       <r>   -25.4444     0.0000     0.0000 </r>
       <r>   -25.2804     0.0000     0.0000 </r>
       <r>   -25.1164     0.0000     0.0000 </r>
       <r>   -24.9524     0.0000     0.0000 </r>
       <r>   -24.7884     0.0000     0.0000 </r>
       <r>   -24.6244     0.0000     0.0000 </r>
       <r>   -24.4605     0.0000     0.0000 </r>
       <r>   -24.2965     0.0000     0.0000 </r>
       <r>   -24.1325     0.3737     0.0613 </r>
       <r>   -23.9685     2.5352     0.7086 </r>
       <r>   -23.8045     0.0000     2.0000 </r>
       <r>   -23.6405     0.0000     2.0000 </r>
       <r>   -23.4765     0.0000     2.0000 </r>
       <r>   -23.3125     0.0000     2.0000 </r>
       <r>   -23.1485     0.0000     2.0000 </r>
       <r>   -22.9845     0.0000     2.0000 </r>
       <r>   -22.8206     0.0000     2.0000 </r>
       <r>   -22.6566     0.0000     2.0000 </r>
       <r>   -22.4926     0.0000     2.0000 </r>
       <r>   -22.3286     0.0000     2.0000 </r>
       <r>   -22.1646     0.0000     2.0000 </r>
       <r>   -22.0006     0.0000     2.0000 </r>
       <r>   -21.8366     0.0000     2.0000 </r>
       <r>   -21.6726     0.0000     2.0000 </r>
       <r>   -21.5086     0.0000     2.0000 </r>
       <r>   -21.3446     0.0000     2.0000 </r>
       <r>   -21.1807     0.0000     2.0000 </r>
       <r>   -21.0167     0.0000     2.0000 </r>
       <r>   -20.8527     0.0000     2.0000 </r>
       <r>   -20.6887     0.0000     2.0000 </r>
       <r>   -20.5247     0.0000     2.0000 </r>
       <r>   -20.3607     0.0000     2.0000 </r>
       <r>   -20.1967     0.0000     2.0000 </r>
       <r>   -20.0327     0.0000     2.0000 </r>
       <r>   -19.8687     0.0000     2.0000 </r>
       <r>   -19.7047     0.0000     2.0000 </r>
       <r>   -19.5408     0.0000     2.0000 </r>
       <r>   -19.3768     0.0000     2.0000 </r>
       <r>   -19.2128     0.0000     2.0000 </r>
       <r>   -19.0488     0.0000     2.0000 </r>
       <r>   -18.8848     0.0000     2.0000 </r>
       <r>   -18.7208     0.0000     2.0000 </r>
       <r>   -18.5568     0.0000     2.0000 </r>
       <r>   -18.3928     0.0000     2.0000 </r>
       <r>   -18.2288     0.0000     2.0000 </r>
       <r>   -18.0648     0.0000     2.0000 </r>
       <r>   -17.9009     0.0000     2.0000 </r>
       <r>   -17.7369     0.0000     2.0000 </r>
       <r>   -17.5729     0.0000     2.0000 </r>
       <r>   -17.4089     0.0000     2.0000 </r>
       <r>   -17.2449     0.0000     2.0000 </r>
       <r>   -17.0809     0.0000     2.0000 </r>
       <r>   -16.9169     0.0000     2.0000 </r>
       <r>   -16.7529     0.0000     2.0000 </r>
       <r>   -16.5889     0.0000     2.0000 </r>
       <r>   -16.4249     0.0000     2.0000 </r>
       <r>   -16.2609     0.0000     2.0000 </r>
       <r>   -16.0970     0.0000     2.0000 </r>
       <r>   -15.9330     0.0000     2.0000 </r>
       <r>   -15.7690     0.0000     2.0000 </r>
       <r>   -15.6050     0.0000     2.0000 </r>
       <r>   -15.4410     0.0000     2.0000 </r>
       <r>   -15.2770     0.0000     2.0000 </r>
       <r>   -15.1130     0.0000     2.0000 </r>
       <r>   -14.9490     0.0000     2.0000 </r>
       <r>   -14.7850     0.0000     2.0000 </r>
       <r>   -14.6210     0.0000     2.0000 </r>
       <r>   -14.4571     0.0000     2.0000 </r>
       <r>   -14.2931     0.0000     2.0000 </r>
       <r>   -14.1291     0.0000     2.0000 </r>
       <r>   -13.9651     0.0000     2.0000 </r>
       <r>   -13.8011     0.7540     2.1283 </r>
       <r>   -13.6371     3.3109     2.9828 </r>
       <r>   -13.4731     1.8603     3.8028 </r>
       <r>   -13.3091     0.2753     3.9826 </r>
       <r>   -13.1451     0.0000     4.0000 </r>
       <r>   -12.9811     0.0000     4.0000 </r>
       <r>   -12.8172     0.0000     4.0000 </r>
       <r>   -12.6532     0.0000     4.0000 </r>
       <r>   -12.4892     0.0000     4.0000 </r>
       <r>   -12.3252     0.0000     4.0000 </r>
       <r>   -12.1612     0.0000     4.0000 </r>
       <r>   -11.9972     0.0000     4.0000 </r>
       <r>   -11.8332     0.0000     4.0000 </r>
       <r>   -11.6692     0.0000     4.0000 </r>
       <r>   -11.5052     0.0000     4.0000 </r>
       <r>   -11.3412     0.0000     4.0000 </r>
       <r>   -11.1773     0.0000     4.0000 </r>
       <r>   -11.0133     0.0000     4.0000 </r>
       <r>   -10.8493     0.0000     4.0000 </r>
       <r>   -10.6853     0.0000     4.0000 </r>
       <r>   -10.5213     0.0000     4.0000 </r>
       <r>   -10.3573     0.0000     4.0000 </r>
       <r>   -10.1933     0.0000     4.0000 </r>
       <r>   -10.0293     0.2912     4.0512 </r>
       <r>    -9.8653     0.5340     4.2022 </r>
       <r>    -9.7013     0.8202     4.4366 </r>
       <r>    -9.5374     1.2090     4.7781 </r>
       <r>    -9.3734     1.5783     5.2484 </r>
       <r>    -9.2094     2.3348     6.0114 </r>
       <r>    -9.0454     3.3118     7.0813 </r>
       <r>    -8.8814     5.5781     8.6266 </r>
       <r>    -8.7174     1.7199     9.9962 </r>
       <r>    -8.5534     0.0000    10.0000 </r>
       <r>    -8.3894     0.0000    10.0000 </r>
       <r>    -8.2254     0.0000    10.0000 </r>
       <r>    -8.0614     0.0000    10.0000 </r>
       <r>    -7.8974     0.0000    10.0000 </r>
       <r>    -7.7335     0.0000    10.0000 </r>
       <r>    -7.5695     0.0000    10.0000 </r>
       <r>    -7.4055     0.0000    10.0000 </r>
       <r>    -7.2415     0.0000    10.0000 </r>
       <r>    -7.0775     0.0000    10.0000 </r>
       <r>    -6.9135     0.0000    10.0000 </r>
       <r>    -6.7495     0.0000    10.0000 </r>
       <r>    -6.5855     0.0000    10.0000 </r>
       <r>    -6.4215     0.0000    10.0000 </r>
       <r>    -6.2575     0.0000    10.0000 </r>
       <r>    -6.0936     0.0000    10.0000 </r>
       <r>    -5.9296     0.0000    10.0000 </r>
       <r>    -5.7656     0.0000    10.0000 </r>
       <r>    -5.6016     0.0000    10.0000 </r>
       <r>    -5.4376     0.0000    10.0000 </r>
       <r>    -5.2736     0.0000    10.0000 </r>
       <r>    -5.1096     0.0000    10.0000 </r>
       <r>    -4.9456     0.0000    10.0000 </r>
       <r>    -4.7816     0.0000    10.0000 </r>
       <r>    -4.6176     0.0000    10.0000 </r>
       <r>    -4.4537     0.0000    10.0000 </r>
       <r>    -4.2897     0.0000    10.0000 </r>
       <r>    -4.1257     0.0000    10.0000 </r>
       <r>    -3.9617     0.0000    10.0000 </r>
       <r>    -3.7977     0.0000    10.0000 </r>
       <r>    -3.6337     0.0000    10.0000 </r>
       <r>    -3.4697     0.0000    10.0000 </r>
       <r>    -3.3057     0.0000    10.0000 </r>
       <r>    -3.1417     0.0000    10.0000 </r>
       <r>    -2.9777     0.0000    10.0000 </r>
       <r>    -2.8138     0.0000    10.0000 </r>
       <r>    -2.6498     0.0000    10.0000 </r>
       <r>    -2.4858     0.0000    10.0000 </r>
       <r>    -2.3218     0.0000    10.0000 </r>
       <r>    -2.1578     0.0000    10.0000 </r>
       <r>    -1.9938     0.0000    10.0000 </r>
       <r>    -1.8298     0.0000    10.0000 </r>
       <r>    -1.6658     0.0000    10.0000 </r>
       <r>    -1.5018     0.0000    10.0000 </r>
       <r>    -1.3378     0.0000    10.0000 </r>
       <r>    -1.1739     0.0000    10.0000 </r>
       <r>    -1.0099     0.0000    10.0000 </r>
       <r>    -0.8459     0.0000    10.0000 </r>
       <r>    -0.6819     0.0000    10.0000 </r>
       <r>    -0.5179     0.0000    10.0000 </r>
       <r>    -0.3539     0.0000    10.0000 </r>
       <r>    -0.1899     0.0090    10.0015 </r>
       <r>    -0.0259     0.3952    10.0694 </r>
       <r>     0.1381     0.6520    10.2042 </r>
       <r>     0.3021     1.3979    10.5996 </r>
       <r>     0.4661     2.2021    11.2546 </r>
       <r>     0.6300     1.6732    12.0499 </r>
       <r>     0.7940     2.1552    12.7169 </r>
       <r>     0.9580     1.2589    13.2342 </r>
       <r>     1.1220     2.1246    13.8716 </r>
       <r>     1.2860     1.9413    14.5059 </r>
       <r>     1.4500     2.9909    15.4835 </r>
       <r>     1.6140     0.8643    15.9369 </r>
       <r>     1.7780     0.0212    16.0000 </r>
       <r>     1.9420     0.0000    16.0000 </r>
       <r>     2.1060     0.0000    16.0000 </r>
       <r>     2.2699     0.0000    16.0000 </r>
       <r>     2.4339     0.0000    16.0000 </r>
       <r>     2.5979     0.0000    16.0000 </r>
       <r>     2.7619     0.0000    16.0000 </r>
       <r>     2.9259     0.0000    16.0000 </r>
       <r>     3.0899     0.0000    16.0000 </r>
       <r>     3.2539     0.0000    16.0000 </r>
       <r>     3.4179     0.0000    16.0000 </r>
       <r>     3.5819     0.0000    16.0000 </r>
       <r>     3.7459     0.0000    16.0000 </r>
       <r>     3.9098     0.0423    16.0104 </r>
       <r>     4.0738     0.0000    16.0382 </r>
       <r>     4.2378     0.3745    16.1135 </r>
       <r>     4.4018     0.0000    16.1146 </r>
       <r>     4.5658     0.3382    16.1839 </r>
       <r>     4.7298     0.0000    16.2674 </r>
       <r>     4.8938     0.5082    16.3576 </r>
       <r>     5.0578     0.2318    16.3956 </r>
       <r>     5.2218     0.5909    16.5240 </r>
       <r>     5.3858     0.5216    16.6249 </r>
       <r>     5.5497     0.0988    16.7292 </r>
       <r>     5.7137     1.0027    16.8936 </r>
       <r>     5.8777     0.3774    17.0411 </r>
       <r>     6.0417     0.5426    17.1931 </r>
       <r>     6.2057     0.8441    17.5088 </r>
       <r>     6.3697     0.4230    17.6643 </r>
       <r>     6.5337     0.9140    17.9288 </r>
       <r>     6.6977     0.5251    18.2123 </r>
       <r>     6.8617     0.2116    18.3044 </r>
       <r>     7.0257     0.5607    18.4149 </r>
       <r>     7.1896     1.3283    18.7074 </r>
       <r>     7.3536     0.8206    18.8742 </r>
       <r>     7.5176     0.9783    19.1384 </r>
       <r>     7.6816     1.4009    19.5318 </r>
       <r>     7.8456     2.1861    20.0043 </r>
       <r>     8.0096     0.2488    20.1589 </r>
       <r>     8.1736     0.5148    20.4154 </r>
       <r>     8.3376     0.9986    20.7170 </r>
       <r>     8.5016     0.5052    20.8861 </r>
       <r>     8.6656     0.4573    21.1306 </r>
       <r>     8.8295     1.0173    21.5002 </r>
       <r>     8.9935     1.9483    22.1390 </r>
       <r>     9.1575     0.7683    22.4871 </r>
       <r>     9.3215     0.7860    22.7400 </r>
       <r>     9.4855     0.9697    23.0942 </r>
       <r>     9.6495     0.0858    23.3405 </r>
       <r>     9.8135     0.6211    23.5810 </r>
       <r>     9.9775     0.8357    23.7806 </r>
       <r>    10.1415     0.4034    24.0685 </r>
       <r>    10.3055     0.6777    24.2940 </r>
       <r>    10.4695     0.2423    24.3823 </r>
       <r>    10.6334     0.3969    24.6125 </r>
       <r>    10.7974     1.0616    24.9368 </r>
       <r>    10.9614     0.3401    25.2190 </r>
       <r>    11.1254     1.2350    25.4803 </r>
       <r>    11.2894     0.9590    25.7684 </r>
       <r>    11.4534     0.2453    26.3527 </r>
       <r>    11.6174     0.4500    26.6363 </r>
       <r>    11.7814     0.1694    26.7211 </r>
       <r>    11.9454     0.0383    26.7551 </r>
       <r>    12.1094     0.4135    26.8444 </r>
       <r>    12.2733     0.3811    26.9687 </r>
       <r>    12.4373     0.4356    27.0680 </r>
       <r>    12.6013     0.3259    27.1889 </r>
       <r>    12.7653     0.4771    27.3387 </r>
       <r>    12.9293     0.1694    27.3715 </r>
       <r>    13.0933     0.1749    27.4141 </r>
       <r>    13.2573     1.1870    27.7190 </r>
       <r>    13.4213     0.5505    27.9850 </r>
       <r>    13.5853     0.0155    28.0014 </r>
       <r>    13.7493     0.0111    28.1326 </r>
       <r>    13.9132     0.4247    28.2699 </r>
       <r>    14.0772     0.3867    28.4442 </r>
       <r>    14.2412     0.5082    28.6308 </r>
       <r>    14.4052     0.7789    28.9252 </r>
       <r>    14.5692     0.5210    29.1607 </r>
       <r>    14.7332     0.2194    29.2594 </r>
       <r>    14.8972     0.0000    29.3796 </r>
       <r>    15.0612     0.0147    29.3820 </r>
       <r>    15.2252     0.3372    29.4859 </r>
       <r>    15.3892     0.7202    29.7431 </r>
       <r>    15.5531     0.2541    29.8796 </r>
       <r>    15.7171     0.3387    30.0741 </r>
       <r>    15.8811     0.7585    30.1985 </r>
       <r>    16.0451     0.3647    30.4209 </r>
       <r>    16.2091     1.1782    30.7800 </r>
       <r>    16.3731     1.3551    31.0868 </r>
       <r>    16.5371     0.2004    31.3002 </r>
       <r>    16.7011     0.9316    31.5382 </r>
       <r>    16.8651     0.0000    31.5382 </r>
       <r>    17.0291     0.1396    31.5611 </r>
       <r>    17.1930     0.3388    31.6354 </r>
       <r>    17.3570     0.0000    31.6910 </r>
       <r>    17.5210     0.5455    31.7804 </r>
       <r>    17.6850     0.0000    31.7975 </r>
       <r>    17.8490     0.0000    31.7975 </r>
       <r>    18.0130     0.0000    31.7975 </r>
       <r>    18.1770     0.0000    31.7975 </r>
       <r>    18.3410     0.0000    31.7975 </r>
       <r>    18.5050     0.0705    31.8090 </r>
       <r>    18.6690     0.1694    31.8900 </r>
       <r>    18.8330     0.1694    31.9178 </r>
       <r>    18.9969     0.0000    31.9248 </r>
       <r>    19.1609     0.0000    31.9248 </r>
       <r>    19.3249     0.0564    31.9340 </r>
       <r>    19.4889     0.0000    31.9340 </r>
       <r>    19.6529     0.0629    31.9721 </r>
       <r>    19.8169     0.0000    31.9757 </r>
       <r>    19.9809     0.0403    31.9823 </r>
       <r>    20.1449     0.0000    31.9826 </r>
       <r>    20.3089     0.0362    31.9978 </r>
       <r>    20.4729     0.0000    31.9988 </r>
       <r>    20.6368     0.0000    32.0000 </r>
       <r>    20.8008     0.0000    32.0000 </r>
       <r>    20.9648     0.0000    32.0000 </r>
       <r>    21.1288     0.0000    32.0000 </r>
       <r>    21.2928     0.0000    32.0000 </r>
       <r>    21.4568     0.0000    32.0000 </r>
       <r>    21.6208     0.0000    32.0000 </r>
       <r>    21.7848     0.0000    32.0000 </r>
       <r>    21.9488     0.0000    32.0000 </r>
       <r>    22.1128     0.0000    32.0000 </r>
       <r>    22.2767     0.0000    32.0000 </r>
       <r>    22.4407     0.0000    32.0000 </r>
       <r>    22.6047     0.0000    32.0000 </r>
       <r>    22.7687     0.0000    32.0000 </r>
      </set>
     </set>
    </array>
   </total>
  </dos>
 </calculation>
 <structure name="finalpos" >
  <crystal>
   <varray name="basis" >
    <v>      -2.79039150       0.00000000       2.79039150 </v>
    <v>       0.00000000       2.79039150       2.79039150 </v>
    <v>      -2.79039150       2.79039150       0.00000000 </v>
   </varray>
   <i name="volume">     43.45356519 </i>
   <varray name="rec_basis" >
    <v>      -0.17918633      -0.17918633       0.17918633 </v>
    <v>       0.17918633       0.17918633       0.17918633 </v>
    <v>      -0.17918633       0.17918633      -0.17918633 </v>
   </varray>
  </crystal>
  <varray name="positions" >
   <v>       0.00000000       0.00000000       0.00000000 </v>
   <v>       0.49999996       0.50000004       0.49999996 </v>
  </varray>
 </structure>
</modeling>
