 
             +---------------------------------------------------+
             |                                                   |
             |                   WANNIER90                       |
             |                                                   |
             +---------------------------------------------------+
             |                                                   |
             |        Welcome to the Maximally-Localized         |
             |        Generalized Wannier Functions code         |
             |            http://www.wannier.org                 |
             |                                                   |
             |                                                   |
             |  Wannier90 Developer Group:                       |
             |    Giovanni Pizzi    (EPFL)                       |
             |    Valerio Vitale    (Cambridge)                  |
             |    David Vanderbilt  (Rutgers University)         |
             |    Nicola Marzari    (EPFL)                       |
             |    Ivo Souza         (Universidad del Pais Vasco) |
             |    Arash A. Mostofi  (Imperial College London)    |
             |    Jonathan R. Yates (University of Oxford)       |
             |                                                   |
             |  For the full list of Wannier90 3.x authors,      |
             |  please check the code documentation and the      |
             |  README on the GitHub page of the code            |
             |                                                   |
             |                                                   |
             |  Please cite                                      |
             |                                                   |
             |  [ref] "Wannier90 as a community code:            |
             |        new features and applications",            |
             |        G. Pizzi et al., J. Phys. Cond. Matt. 32,  |
             |        165902 (2020).                             |
             |        http://doi.org/10.1088/1361-648X/ab51ff    |
             |                                                   |
             |  in any publications arising from the use of      |
             |  this code. For the method please cite            |
             |                                                   |
             |  [ref] "Maximally Localized Generalised Wannier   |
             |         Functions for Composite Energy Bands"     |
             |         N. Marzari and D. Vanderbilt              |
             |         Phys. Rev. B 56 12847 (1997)              |
             |                                                   |
             |  [ref] "Maximally Localized Wannier Functions     |
             |         for Entangled Energy Bands"               |
             |         I. Souza, N. Marzari and D. Vanderbilt    |
             |         Phys. Rev. B 65 035109 (2001)             |
             |                                                   |
             |                                                   |
             | Copyright (c) 1996-2020                           |
             |        The Wannier90 Developer Group and          |
             |        individual contributors                    |
             |                                                   |
             |      Release: 3.1.0        5th March    2020      |
             |                                                   |
             | This program is free software; you can            |
             | redistribute it and/or modify it under the terms  |
             | of the GNU General Public License as published by |
             | the Free Software Foundation; either version 2 of |
             | the License, or (at your option) any later version|
             |                                                   |
             | This program is distributed in the hope that it   |
             | will be useful, but WITHOUT ANY WARRANTY; without |
             | even the implied warranty of MERCHANTABILITY or   |
             | FITNESS FOR A PARTICULAR PURPOSE. See the GNU     |
             | General Public License for more details.          |
             |                                                   |
             | You should have received a copy of the GNU General|
             | Public License along with this program; if not,   |
             | write to the Free Software Foundation, Inc.,      |
             | 675 Mass Ave, Cambridge, MA 02139, USA.           |
             |                                                   |
             +---------------------------------------------------+
             |    Execution started on  3Jan2024 at 15:55:33     |
             +---------------------------------------------------+
 
 ******************************************************************************
 * -> Using CODATA 2006 constant values                                       *
 *    (http://physics.nist.gov/cuu/Constants/index.html)                      *
 * -> Using Bohr value from CODATA                                            *
 ******************************************************************************
 

 Running in parallel on   8 CPUs

 
                                    ------
                                    SYSTEM
                                    ------
 
                              Lattice Vectors (Ang)
                    a_1     4.548026   0.000000   0.000000
                    a_2     0.000000   7.671511   0.000000
                    a_3     0.000000   0.000000   9.171109
 
                   Unit Cell Volume:     319.98212  (Ang^3)
 
                        Reciprocal-Space Vectors (Ang^-1)
                    b_1     1.381519   0.000000   0.000000
                    b_2     0.000000   0.819028   0.000000
                    b_3     0.000000   0.000000   0.685106
  
 *----------------------------------------------------------------------------*
 |   Site       Fractional Coordinate          Cartesian Coordinate (Ang)     |
 +----------------------------------------------------------------------------+
 | Pb   1   0.25000   0.26365   0.90945   |    1.13701   2.02261   8.34063    |
 | Pb   2   0.75000   0.73635   0.09055   |    3.41102   5.64890   0.83048    |
 | Pb   3   0.25000   0.76365   0.59055   |    1.13701   5.85837   5.41604    |
 | Pb   4   0.75000   0.23635   0.40945   |    3.41102   1.81314   3.75507    |
 | Cl   1   0.25000   0.48277   0.15765   |    1.13701   3.70357   1.44580    |
 | Cl   2   0.75000   0.51723   0.84235   |    3.41102   3.96794   7.72531    |
 | Cl   3   0.25000   0.98277   0.34235   |    1.13701   7.53932   3.13975    |
 | Cl   4   0.75000   0.01723   0.65765   |    3.41102   0.13219   6.03136    |
 | Cl   5   0.75000   0.64146   0.42263   |    3.41102   4.92098   3.87596    |
 | Cl   6   0.25000   0.35854   0.57737   |    1.13701   2.75053   5.29515    |
 | Cl   7   0.75000   0.14146   0.07737   |    3.41102   1.08522   0.70960    |
 | Cl   8   0.25000   0.85854   0.92263   |    1.13701   6.58629   8.46151    |
 *----------------------------------------------------------------------------*
                                ------------
                                K-POINT GRID
                                ------------
  
             Grid size = 10 x  6 x  4      Total points =  240
  
  
 *---------------------------------- MAIN ------------------------------------*
 |  Number of Wannier Functions               :                24             |
 |  Number of Objective Wannier Functions     :                24             |
 |  Number of input Bloch states              :                24             |
 |  Output verbosity (1=low, 5=high)          :                 1             |
 |  Timing Level (1=low, 5=high)              :                 1             |
 |  Optimisation (0=memory, 3=speed)          :                 3             |
 |  Length Unit                               :               Ang             |
 |  Post-processing setup (write *.nnkp)      :                 F             |
 |  Using Gamma-only branch of algorithms     :                 F             |
 *----------------------------------------------------------------------------*
 *------------------------------- WANNIERISE ---------------------------------*
 |  Total number of iterations                :               500             |
 |  Number of CG steps before reset           :                 5             |
 |  Trial step length for line search         :             2.000             |
 |  Convergence tolerence                     :         0.100E-09             |
 |  Convergence window                        :                -1             |
 |  Iterations between writing output         :                 1             |
 |  Iterations between backing up to disk     :               100             |
 |  Write r^2_nm to file                      :                 F             |
 |  Write xyz WF centres to file              :                 F             |
 |  Write on-site energies <0n|H|0n> to file  :                 F             |
 |  Use guiding centre to control phases      :                 F             |
 |  Use phases for initial projections        :                 F             |
 *----------------------------------------------------------------------------*
 Time to read parameters        0.024 (sec)

 *---------------------------------- K-MESH ----------------------------------*
 +----------------------------------------------------------------------------+
 |                    Distance to Nearest-Neighbour Shells                    |
 |                    ------------------------------------                    |
 |          Shell             Distance (Ang^-1)          Multiplicity         |
 |          -----             -----------------          ------------         |
 |             1                   0.136505                      2            |
 |             2                   0.138152                      2            |
 |             3                   0.171277                      2            |
 |             4                   0.194215                      4            |
 |             5                   0.219019                      4            |
 |             6                   0.220049                      4            |
 |             7                   0.258950                      8            |
 |             8                   0.273009                      2            |
 |             9                   0.276304                      2            |
 |            10                   0.305974                      4            |
 |            11                   0.308184                      4            |
 |            12                   0.322288                      4            |
 |            13                   0.325084                      4            |
 |            14                   0.342553                      2            |
 |            15                   0.350651                      8            |
 |            16                   0.352581                      8            |
 |            17                   0.368750                      4            |
 |            18                   0.369362                      4            |
 |            19                   0.388430                      4            |
 |            20                   0.393779                      8            |
 |            21                   0.409514                      2            |
 |            22                   0.414456                      2            |
 |            23                   0.424516                      8            |
 |            24                   0.432190                      4            |
 |            25                   0.436357                      4            |
 |            26                   0.438038                      4            |
 |            27                   0.440098                      4            |
 |            28                   0.443889                      4            |
 |            29                   0.448452                      4            |
 |            30                   0.459307                      8            |
 |            31                   0.460782                      8            |
 |            32                   0.464891                      8            |
 |            33                   0.468767                      8            |
 |            34                   0.494010                      4            |
 |            35                   0.496294                      4            |
 |            36                   0.513830                      2            |
 +----------------------------------------------------------------------------+
 | The b-vectors are chosen automatically                                     |
 | The following shells are used:   1,  2,  3                                 |
 +----------------------------------------------------------------------------+
 |                        Shell   # Nearest-Neighbours                        |
 |                        -----   --------------------                        |
 |                          1               2                                 |
 |                          2               2                                 |
 |                          3               2                                 |
 +----------------------------------------------------------------------------+
 | Completeness relation is fully satisfied [Eq. (B1), PRB 56, 12847 (1997)]  |
 +----------------------------------------------------------------------------+
 |                  b_k Vectors (Ang^-1) and Weights (Ang^2)                  |
 |                  ----------------------------------------                  |
 |            No.         b_k(x)      b_k(y)      b_k(z)        w_b           |
 |            ---        --------------------------------     --------        |
 |             1         0.000000    0.136505    0.000000    26.833330        |
 |             2         0.000000   -0.136505    0.000000    26.833330        |
 |             3         0.138152    0.000000    0.000000    26.197277        |
 |             4        -0.138152    0.000000    0.000000    26.197277        |
 |             5         0.000000    0.000000    0.171277    17.044096        |
 |             6         0.000000    0.000000   -0.171277    17.044096        |
 +----------------------------------------------------------------------------+
 |                           b_k Directions (Ang^-1)                          |
 |                           -----------------------                          |
 |            No.           x           y           z                         |
 |            ---        --------------------------------                     |
 |             1         0.000000    0.136505    0.000000                     |
 |             2         0.138152    0.000000    0.000000                     |
 |             3         0.000000    0.000000    0.171277                     |
 +----------------------------------------------------------------------------+
  
 Time to get kmesh              0.154 (sec)
 *============================================================================*
 |                              MEMORY ESTIMATE                               |
 |         Maximum RAM allocated during each phase of the calculation         |
 *============================================================================*
 |                            Wannierise:           35.23 Mb                  |
 |                          plot_wannier:           35.23 Mb                  |
 *----------------------------------------------------------------------------*
  
 Starting a new Wannier90 calculation ...


 Reading overlaps from mp-23291.mmn    :  Created on  3Jan2024 at 15:55:13

 Reading projections from mp-23291.amn :  Created on  3Jan2024 at 15:54:58  with SCDM

 Time to read overlaps          0.882 (sec)

 Writing checkpoint file mp-23291.chk... done

 
 *------------------------------- WANNIERISE ---------------------------------*
 +--------------------------------------------------------------------+<-- CONV
 | Iter  Delta Spread     RMS Gradient      Spread (Ang^2)      Time  |<-- CONV
 +--------------------------------------------------------------------+<-- CONV
 
 ------------------------------------------------------------------------------
 Initial State
  WF centre and spread    1  ( -0.918383,  1.175763,  0.569412 )     2.67640101
  WF centre and spread    2  (  0.920164, -1.182046, -0.574039 )     2.66835122
  WF centre and spread    3  ( -1.356591, -2.672721,  4.011014 )     2.66773059
  WF centre and spread    4  (  1.356331,  2.672484, -4.011241 )     2.66764854
  WF centre and spread    5  ( -0.931428, -2.648590,  3.952912 )     2.65256051
  WF centre and spread    6  (  0.931595,  2.648296, -3.953009 )     2.65204837
  WF centre and spread    7  ( -1.012544,  3.842589, -1.389685 )     2.31966478
  WF centre and spread    8  (  1.013723, -3.842972,  1.390013 )     2.32171308
  WF centre and spread    9  (  1.030871, -0.018105,  3.182941 )     2.27082782
  WF centre and spread   10  ( -1.031797,  0.020009, -3.181640 )     2.27232107
  WF centre and spread   11  (  1.349209, -1.177899, -0.619166 )     2.65848945
  WF centre and spread   12  ( -1.348855,  1.181676,  0.620451 )     2.65807583
  WF centre and spread   13  (  1.256904, -3.867502,  1.403059 )     2.27458518
  WF centre and spread   14  ( -1.258410,  3.866659, -1.402937 )     2.26570299
  WF centre and spread   15  ( -1.258778,  0.044726, -3.211217 )     2.34812360
  WF centre and spread   16  (  1.259759, -0.043715,  3.211156 )     2.34627257
  WF centre and spread   17  ( -1.123710, -2.866059,  3.835384 )     2.21805552
  WF centre and spread   18  (  1.123860,  2.866396, -3.835945 )     2.21404583
  WF centre and spread   19  (  1.123484, -0.326392,  3.417728 )     2.61389124
  WF centre and spread   20  (  1.141789,  3.492816,  1.159806 )     2.60223763
  WF centre and spread   21  ( -1.123715,  0.328814, -3.418682 )     2.61192005
  WF centre and spread   22  ( -1.141532, -3.493429, -1.158322 )     2.60249760
  WF centre and spread   23  (  1.141714, -0.965518, -0.758307 )     2.17826783
  WF centre and spread   24  ( -1.143635,  0.964541,  0.760107 )     2.19798278
  Sum of centres and spreads (  0.000024, -0.000180, -0.000209 )    58.95941509
 
      0     0.590E+02     0.0000000000       58.9594096443       0.00  <-- CONV
        O_D=      0.0484072 O_OD=      3.5712923 O_TOT=     58.9594096 <-- SPRD
 ------------------------------------------------------------------------------
 Cycle:      1
  WF centre and spread    1  ( -0.917218,  1.176898,  0.568375 )     2.60549673
  WF centre and spread    2  (  0.919471, -1.183482, -0.573267 )     2.60230924
  WF centre and spread    3  ( -1.357668, -2.671076,  4.013483 )     2.60418302
  WF centre and spread    4  (  1.357609,  2.671082, -4.013484 )     2.60304849
  WF centre and spread    5  ( -0.931154, -2.647486,  3.955258 )     2.58049812
  WF centre and spread    6  (  0.931184,  2.647489, -3.955256 )     2.57921755
  WF centre and spread    7  ( -1.012875,  3.843796, -1.390806 )     2.25970710
  WF centre and spread    8  (  1.013270, -3.843634,  1.391075 )     2.26085209
  WF centre and spread    9  (  1.029518, -0.017484,  3.182291 )     2.21078453
  WF centre and spread   10  ( -1.029941,  0.018581, -3.181606 )     2.21126326
  WF centre and spread   11  (  1.350088, -1.179521, -0.617002 )     2.59420242
  WF centre and spread   12  ( -1.349998,  1.181784,  0.617822 )     2.59372704
  WF centre and spread   13  (  1.257069, -3.867100,  1.403629 )     2.20942112
  WF centre and spread   14  ( -1.257731,  3.866886, -1.403311 )     2.20706234
  WF centre and spread   15  ( -1.259206,  0.043438, -3.210505 )     2.28861922
  WF centre and spread   16  (  1.259691, -0.042958,  3.210782 )     2.28915202
  WF centre and spread   17  ( -1.122778, -2.863773,  3.836155 )     2.12960918
  WF centre and spread   18  (  1.122784,  2.863798, -3.836223 )     2.12890988
  WF centre and spread   19  (  1.122934, -0.328949,  3.417569 )     2.55151751
  WF centre and spread   20  (  1.141158,  3.491811,  1.158968 )     2.55846132
  WF centre and spread   21  ( -1.123070,  0.329970, -3.417343 )     2.54950836
  WF centre and spread   22  ( -1.141037, -3.492145, -1.158104 )     2.55655630
  WF centre and spread   23  (  1.141163, -0.965634, -0.758454 )     2.10099969
  WF centre and spread   24  ( -1.143271,  0.967755,  0.759992 )     2.10235672
  Sum of centres and spreads ( -0.000008,  0.000048,  0.000042 )    57.37746325
 
      1    -0.158E+01     0.8826611644       57.3774578038       0.02  <-- CONV
        O_D=      0.0208909 O_OD=      2.0168567 O_TOT=     57.3774578 <-- SPRD
 Delta: O_D= -0.2751627E-01 O_OD= -0.1554436E+01 O_TOT= -0.1581952E+01 <-- DLTA
 ------------------------------------------------------------------------------
 Cycle:      2
  WF centre and spread    1  ( -0.916764,  1.177360,  0.567924 )     2.59917668
  WF centre and spread    2  (  0.919019, -1.184022, -0.572813 )     2.59605712
  WF centre and spread    3  ( -1.358161, -2.670468,  4.014384 )     2.59750648
  WF centre and spread    4  (  1.358116,  2.670481, -4.014373 )     2.59689692
  WF centre and spread    5  ( -0.930686, -2.646968,  3.956107 )     2.57258462
  WF centre and spread    6  (  0.930715,  2.646999, -3.956108 )     2.57185466
  WF centre and spread    7  ( -1.012776,  3.843675, -1.390715 )     2.25368109
  WF centre and spread    8  (  1.013009, -3.843511,  1.390961 )     2.25413492
  WF centre and spread    9  (  1.029101, -0.017119,  3.182531 )     2.20483747
  WF centre and spread   10  ( -1.029409,  0.018014, -3.182008 )     2.20524805
  WF centre and spread   11  (  1.350554, -1.180101, -0.616150 )     2.58845128
  WF centre and spread   12  ( -1.350450,  1.182029,  0.616988 )     2.58829250
  WF centre and spread   13  (  1.257247, -3.866756,  1.403361 )     2.20254029
  WF centre and spread   14  ( -1.257699,  3.866671, -1.403071 )     2.20106044
  WF centre and spread   15  ( -1.259469,  0.042662, -3.210554 )     2.28251043
  WF centre and spread   16  (  1.259836, -0.042270,  3.210778 )     2.28272695
  WF centre and spread   17  ( -1.122589, -2.863029,  3.836340 )     2.11987662
  WF centre and spread   18  (  1.122589,  2.863032, -3.836374 )     2.11976118
  WF centre and spread   19  (  1.122859, -0.329018,  3.417421 )     2.54374956
  WF centre and spread   20  (  1.141052,  3.491434,  1.158158 )     2.55150233
  WF centre and spread   21  ( -1.122967,  0.329751, -3.417150 )     2.54270980
  WF centre and spread   22  ( -1.140970, -3.491660, -1.157387 )     2.54998660
  WF centre and spread   23  (  1.141020, -0.965667, -0.758256 )     2.09178071
  WF centre and spread   24  ( -1.143182,  0.968555,  0.760094 )     2.09171221
  Sum of centres and spreads ( -0.000004,  0.000073,  0.000089 )    57.20863892
 
      2    -0.169E+00     0.5137345156       57.2086334732       0.03  <-- CONV
        O_D=      0.0141894 O_OD=      1.8547339 O_TOT=     57.2086335 <-- SPRD
 Delta: O_D= -0.6701491E-02 O_OD= -0.1621228E+00 O_TOT= -0.1688243E+00 <-- DLTA
 ------------------------------------------------------------------------------
 Cycle:      3
  WF centre and spread    1  ( -0.916495,  1.177640,  0.567690 )     2.59746633
  WF centre and spread    2  (  0.918735, -1.184361, -0.572567 )     2.59432458
  WF centre and spread    3  ( -1.358484, -2.670103,  4.014930 )     2.59535245
  WF centre and spread    4  (  1.358446,  2.670114, -4.014911 )     2.59502437
  WF centre and spread    5  ( -0.930386, -2.646680,  3.956622 )     2.56999982
  WF centre and spread    6  (  0.930418,  2.646715, -3.956618 )     2.56959777
  WF centre and spread    7  ( -1.012721,  3.843584, -1.390662 )     2.25166147
  WF centre and spread    8  (  1.012865, -3.843437,  1.390876 )     2.25176392
  WF centre and spread    9  (  1.028854, -0.016893,  3.182687 )     2.20322719
  WF centre and spread   10  ( -1.029098,  0.017656, -3.182251 )     2.20352460
  WF centre and spread   11  (  1.350863, -1.180453, -0.615644 )     2.58687237
  WF centre and spread   12  ( -1.350734,  1.182181,  0.616504 )     2.58691036
  WF centre and spread   13  (  1.257333, -3.866571,  1.403182 )     2.20026319
  WF centre and spread   14  ( -1.257672,  3.866537, -1.402931 )     2.19928929
  WF centre and spread   15  ( -1.259621,  0.042171, -3.210576 )     2.28065646
  WF centre and spread   16  (  1.259923, -0.041832,  3.210760 )     2.28079665
  WF centre and spread   17  ( -1.122504, -2.862547,  3.836394 )     2.11634723
  WF centre and spread   18  (  1.122503,  2.862544, -3.836417 )     2.11626909
  WF centre and spread   19  (  1.122835, -0.329035,  3.417303 )     2.54080978
  WF centre and spread   20  (  1.140989,  3.491182,  1.157619 )     2.54962804
  WF centre and spread   21  ( -1.122928,  0.329610, -3.417042 )     2.54023954
  WF centre and spread   22  ( -1.140930, -3.491341, -1.156917 )     2.54823244
  WF centre and spread   23  (  1.140946, -0.965679, -0.758167 )     2.08838200
  WF centre and spread   24  ( -1.143139,  0.969084,  0.760250 )     2.08811016
  Sum of centres and spreads ( -0.000001,  0.000087,  0.000112 )    57.15474911
 
      3    -0.539E-01     0.3815291444       57.1547436615       0.05  <-- CONV
        O_D=      0.0127804 O_OD=      1.8022531 O_TOT=     57.1547437 <-- SPRD
 Delta: O_D= -0.1409026E-02 O_OD= -0.5248079E-01 O_TOT= -0.5388981E-01 <-- DLTA
 ------------------------------------------------------------------------------
 Cycle:      4
  WF centre and spread    1  ( -0.916189,  1.177952,  0.567437 )     2.59608487
  WF centre and spread    2  (  0.918403, -1.184747, -0.572296 )     2.59298628
  WF centre and spread    3  ( -1.358877, -2.669686,  4.015567 )     2.59367011
  WF centre and spread    4  (  1.358846,  2.669693, -4.015540 )     2.59356979
  WF centre and spread    5  ( -0.930034, -2.646376,  3.957228 )     2.56808015
  WF centre and spread    6  (  0.930067,  2.646409, -3.957216 )     2.56793830
  WF centre and spread    7  ( -1.012664,  3.843497, -1.390616 )     2.25002394
  WF centre and spread    8  (  1.012718, -3.843374,  1.390779 )     2.24991329
  WF centre and spread    9  (  1.028579, -0.016650,  3.182851 )     2.20235549
  WF centre and spread   10  ( -1.028754,  0.017257, -3.182512 )     2.20249564
  WF centre and spread   11  (  1.351239, -1.180846, -0.615057 )     2.58567295
  WF centre and spread   12  ( -1.351068,  1.182349,  0.615947 )     2.58583136
  WF centre and spread   13  (  1.257410, -3.866392,  1.402975 )     2.19855913
  WF centre and spread   14  ( -1.257631,  3.866398, -1.402784 )     2.19807268
  WF centre and spread   15  ( -1.259791,  0.041607, -3.210572 )     2.27931704
  WF centre and spread   16  (  1.260022, -0.041329,  3.210707 )     2.27941610
  WF centre and spread   17  ( -1.122429, -2.861964,  3.836428 )     2.11283029
  WF centre and spread   18  (  1.122428,  2.861955, -3.836442 )     2.11273403
  WF centre and spread   19  (  1.122816, -0.329050,  3.417126 )     2.53834205
  WF centre and spread   20  (  1.140918,  3.490870,  1.156973 )     2.54863169
  WF centre and spread   21  ( -1.122891,  0.329453, -3.416897 )     2.53815466
  WF centre and spread   22  ( -1.140885, -3.490960, -1.156364 )     2.54744539
  WF centre and spread   23  (  1.140867, -0.965699, -0.758076 )     2.08521505
  WF centre and spread   24  ( -1.143094,  0.969737,  0.760487 )     2.08487420
  Sum of centres and spreads (  0.000004,  0.000102,  0.000133 )    57.11221449
 
      4    -0.425E-01     0.3518624127       57.1122090426       0.07  <-- CONV
        O_D=      0.0119775 O_OD=      1.7605214 O_TOT=     57.1122090 <-- SPRD
 Delta: O_D= -0.8029424E-03 O_OD= -0.4173168E-01 O_TOT= -0.4253462E-01 <-- DLTA
 ------------------------------------------------------------------------------
 Cycle:      5
  WF centre and spread    1  ( -0.915897,  1.178235,  0.567204 )     2.59501440
  WF centre and spread    2  (  0.918068, -1.185107, -0.572044 )     2.59213087
  WF centre and spread    3  ( -1.359283, -2.669288,  4.016203 )     2.59249900
  WF centre and spread    4  (  1.359258,  2.669289, -4.016171 )     2.59257521
  WF centre and spread    5  ( -0.929675, -2.646113,  3.957843 )     2.56687081
  WF centre and spread    6  (  0.929706,  2.646137, -3.957826 )     2.56691497
  WF centre and spread    7  ( -1.012610,  3.843443, -1.390587 )     2.24885050
  WF centre and spread    8  (  1.012598, -3.843355,  1.390693 )     2.24870149
  WF centre and spread    9  (  1.028316, -0.016442,  3.182987 )     2.20203525
  WF centre and spread   10  ( -1.028431,  0.016893, -3.182739 )     2.20205955
  WF centre and spread   11  (  1.351626, -1.181207, -0.614474 )     2.58496850
  WF centre and spread   12  ( -1.351398,  1.182489,  0.615395 )     2.58503896
  WF centre and spread   13  (  1.257462, -3.866269,  1.402774 )     2.19749833
  WF centre and spread   14  ( -1.257584,  3.866290, -1.402653 )     2.19732145
  WF centre and spread   15  ( -1.259951,  0.041070, -3.210521 )     2.27837109
  WF centre and spread   16  (  1.260116, -0.040853,  3.210609 )     2.27842243
  WF centre and spread   17  ( -1.122383, -2.861362,  3.836450 )     2.10957165
  WF centre and spread   18  (  1.122382,  2.861351, -3.836456 )     2.10947790
  WF centre and spread   19  (  1.122808, -0.329060,  3.416915 )     2.53645088
  WF centre and spread   20  (  1.140854,  3.490529,  1.156309 )     2.54846416
  WF centre and spread   21  ( -1.122867,  0.329309, -3.416730 )     2.53658927
  WF centre and spread   22  ( -1.140842, -3.490564, -1.155797 )     2.54757996
  WF centre and spread   23  (  1.140789, -0.965707, -0.757987 )     2.08273738
  WF centre and spread   24  ( -1.143053,  0.970408,  0.760748 )     2.08215792
  Sum of centres and spreads (  0.000009,  0.000115,  0.000144 )    57.08230194
 
      5    -0.299E-01     0.2756954589       57.0822964907       0.08  <-- CONV
        O_D=      0.0118783 O_OD=      1.7307080 O_TOT=     57.0822965 <-- SPRD
 Delta: O_D= -0.9915532E-04 O_OD= -0.2981340E-01 O_TOT= -0.2991255E-01 <-- DLTA
 ------------------------------------------------------------------------------
 Cycle:      6
  WF centre and spread    1  ( -0.915638,  1.178473,  0.567004 )     2.59419448
  WF centre and spread    2  (  0.917753, -1.185417, -0.571823 )     2.59160216
  WF centre and spread    3  ( -1.359667, -2.668934,  4.016793 )     2.59168447
  WF centre and spread    4  (  1.359651,  2.668930, -4.016760 )     2.59187931
  WF centre and spread    5  ( -0.929330, -2.645897,  3.958433 )     2.56613540
  WF centre and spread    6  (  0.929355,  2.645913, -3.958414 )     2.56630120
  WF centre and spread    7  ( -1.012558,  3.843422, -1.390569 )     2.24795480
  WF centre and spread    8  (  1.012507, -3.843372,  1.390619 )     2.24788265
  WF centre and spread    9  (  1.028077, -0.016275,  3.183089 )     2.20189795
  WF centre and spread   10  ( -1.028142,  0.016579, -3.182923 )     2.20186942
  WF centre and spread   11  (  1.351996, -1.181514, -0.613930 )     2.58461609
  WF centre and spread   12  ( -1.351701,  1.182596,  0.614888 )     2.58445013
  WF centre and spread   13  (  1.257490, -3.866197,  1.402591 )     2.19681833
  WF centre and spread   14  ( -1.257538,  3.866217, -1.402542 )     2.19674798
  WF centre and spread   15  ( -1.260095,  0.040591, -3.210431 )     2.27749480
  WF centre and spread   16  (  1.260203, -0.040434,  3.210477 )     2.27749899
  WF centre and spread   17  ( -1.122364, -2.860788,  3.836473 )     2.10678061
  WF centre and spread   18  (  1.122363,  2.860777, -3.836472 )     2.10672826
  WF centre and spread   19  (  1.122811, -0.329067,  3.416693 )     2.53507738
  WF centre and spread   20  (  1.140800,  3.490190,  1.155681 )     2.54867093
  WF centre and spread   21  ( -1.122854,  0.329188, -3.416557 )     2.53536821
  WF centre and spread   22  ( -1.140804, -3.490185, -1.155266 )     2.54809609
  WF centre and spread   23  (  1.140718, -0.965712, -0.757899 )     2.08086659
  WF centre and spread   24  ( -1.143017,  0.971047,  0.760991 )     2.08001850
  Sum of centres and spreads (  0.000014,  0.000128,  0.000145 )    57.06063473
 
      6    -0.217E-01     0.2441676524       57.0606292813       0.10  <-- CONV
        O_D=      0.0119982 O_OD=      1.7089209 O_TOT=     57.0606293 <-- SPRD
 Delta: O_D=  0.1198747E-03 O_OD= -0.2178708E-01 O_TOT= -0.2166721E-01 <-- DLTA
 ------------------------------------------------------------------------------
 Cycle:      7
  WF centre and spread    1  ( -0.915618,  1.178494,  0.566997 )     2.59378928
  WF centre and spread    2  (  0.917726, -1.185444, -0.571810 )     2.59127034
  WF centre and spread    3  ( -1.359704, -2.668899,  4.016843 )     2.59136908
  WF centre and spread    4  (  1.359689,  2.668893, -4.016812 )     2.59154667
  WF centre and spread    5  ( -0.929294, -2.645881,  3.958494 )     2.56584323
  WF centre and spread    6  (  0.929316,  2.645895, -3.958476 )     2.56599575
  WF centre and spread    7  ( -1.012558,  3.843428, -1.390572 )     2.24762206
  WF centre and spread    8  (  1.012508, -3.843382,  1.390618 )     2.24757079
  WF centre and spread    9  (  1.028056, -0.016262,  3.183089 )     2.20162519
  WF centre and spread   10  ( -1.028116,  0.016552, -3.182931 )     2.20159586
  WF centre and spread   11  (  1.352031, -1.181539, -0.613881 )     2.58431360
  WF centre and spread   12  ( -1.351730,  1.182602,  0.614843 )     2.58407837
  WF centre and spread   13  (  1.257485, -3.866201,  1.402581 )     2.19649472
  WF centre and spread   14  ( -1.257531,  3.866219, -1.402538 )     2.19642188
  WF centre and spread   15  ( -1.260107,  0.040551, -3.210403 )     2.27710834
  WF centre and spread   16  (  1.260210, -0.040399,  3.210445 )     2.27711334
  WF centre and spread   17  ( -1.122370, -2.860733,  3.836475 )     2.10623819
  WF centre and spread   18  (  1.122369,  2.860723, -3.836475 )     2.10618327
  WF centre and spread   19  (  1.122816, -0.329075,  3.416676 )     2.53480178
  WF centre and spread   20  (  1.140795,  3.490156,  1.155623 )     2.54846968
  WF centre and spread   21  ( -1.122858,  0.329191, -3.416544 )     2.53505135
  WF centre and spread   22  ( -1.140801, -3.490150, -1.155219 )     2.54796063
  WF centre and spread   23  (  1.140711, -0.965719, -0.757894 )     2.08042660
  WF centre and spread   24  ( -1.143012,  0.971107,  0.761010 )     2.07948403
  Sum of centres and spreads (  0.000014,  0.000128,  0.000140 )    57.05237402
 
      7    -0.826E-02     0.1990398487       57.0523685770       0.11  <-- CONV
        O_D=      0.0116048 O_OD=      1.7010536 O_TOT=     57.0523686 <-- SPRD
 Delta: O_D= -0.3934170E-03 O_OD= -0.7867287E-02 O_TOT= -0.8260704E-02 <-- DLTA
 ------------------------------------------------------------------------------
 Cycle:      8
  WF centre and spread    1  ( -0.915569,  1.178547,  0.566979 )     2.59340143
  WF centre and spread    2  (  0.917659, -1.185511, -0.571779 )     2.59103454
  WF centre and spread    3  ( -1.359795, -2.668809,  4.016963 )     2.59119908
  WF centre and spread    4  (  1.359782,  2.668803, -4.016936 )     2.59132919
  WF centre and spread    5  ( -0.929206, -2.645836,  3.958641 )     2.56574652
  WF centre and spread    6  (  0.929225,  2.645847, -3.958626 )     2.56585531
  WF centre and spread    7  ( -1.012558,  3.843435, -1.390575 )     2.24738221
  WF centre and spread    8  (  1.012509, -3.843399,  1.390611 )     2.24738995
  WF centre and spread    9  (  1.028002, -0.016223,  3.183095 )     2.20154449
  WF centre and spread   10  ( -1.028052,  0.016481, -3.182954 )     2.20151686
  WF centre and spread   11  (  1.352117, -1.181603, -0.613760 )     2.58412865
  WF centre and spread   12  ( -1.351800,  1.182621,  0.614733 )     2.58374884
  WF centre and spread   13  (  1.257474, -3.866202,  1.402555 )     2.19629050
  WF centre and spread   14  ( -1.257512,  3.866217, -1.402524 )     2.19618308
  WF centre and spread   15  ( -1.260137,  0.040445, -3.210336 )     2.27672900
  WF centre and spread   16  (  1.260228, -0.040308,  3.210372 )     2.27673982
  WF centre and spread   17  ( -1.122384, -2.860600,  3.836482 )     2.10553241
  WF centre and spread   18  (  1.122382,  2.860595, -3.836483 )     2.10548192
  WF centre and spread   19  (  1.122829, -0.329094,  3.416640 )     2.53468147
  WF centre and spread   20  (  1.140784,  3.490077,  1.155480 )     2.54849512
  WF centre and spread   21  ( -1.122868,  0.329199, -3.416519 )     2.53483834
  WF centre and spread   22  ( -1.140793, -3.490068, -1.155102 )     2.54814121
  WF centre and spread   23  (  1.140696, -0.965739, -0.757880 )     2.07995250
  WF centre and spread   24  ( -1.142999,  0.971254,  0.761053 )     2.07889400
  Sum of centres and spreads (  0.000014,  0.000129,  0.000128 )    57.04623643
 
      8    -0.614E-02     0.1298213152       57.0462309854       0.13  <-- CONV
        O_D=      0.0114313 O_OD=      1.6950895 O_TOT=     57.0462310 <-- SPRD
 Delta: O_D= -0.1734955E-03 O_OD= -0.5964096E-02 O_TOT= -0.6137592E-02 <-- DLTA
 ------------------------------------------------------------------------------
 Cycle:      9
  WF centre and spread    1  ( -0.915505,  1.178619,  0.566959 )     2.59306671
  WF centre and spread    2  (  0.917570, -1.185600, -0.571741 )     2.59086389
  WF centre and spread    3  ( -1.359914, -2.668689,  4.017117 )     2.59113325
  WF centre and spread    4  (  1.359904,  2.668681, -4.017094 )     2.59120714
  WF centre and spread    5  ( -0.929090, -2.645775,  3.958832 )     2.56577122
  WF centre and spread    6  (  0.929105,  2.645782, -3.958819 )     2.56582779
  WF centre and spread    7  ( -1.012557,  3.843443, -1.390579 )     2.24720766
  WF centre and spread    8  (  1.012510, -3.843418,  1.390601 )     2.24728551
  WF centre and spread    9  (  1.027931, -0.016170,  3.183106 )     2.20162343
  WF centre and spread   10  ( -1.027968,  0.016385, -3.182986 )     2.20159532
  WF centre and spread   11  (  1.352232, -1.181688, -0.613603 )     2.58402576
  WF centre and spread   12  ( -1.351893,  1.182650,  0.614593 )     2.58349833
  WF centre and spread   13  (  1.257461, -3.866200,  1.402520 )     2.19618646
  WF centre and spread   14  ( -1.257489,  3.866213, -1.402506 )     2.19604138
  WF centre and spread   15  ( -1.260177,  0.040303, -3.210250 )     2.27644692
  WF centre and spread   16  (  1.260253, -0.040185,  3.210276 )     2.27646302
  WF centre and spread   17  ( -1.122403, -2.860432,  3.836491 )     2.10479589
  WF centre and spread   18  (  1.122400,  2.860431, -3.836493 )     2.10473987
  WF centre and spread   19  (  1.122847, -0.329123,  3.416601 )     2.53466135
  WF centre and spread   20  (  1.140770,  3.489974,  1.155292 )     2.54865958
  WF centre and spread   21  ( -1.122882,  0.329213, -3.416495 )     2.53472747
  WF centre and spread   22  ( -1.140782, -3.489961, -1.154947 )     2.54847756
  WF centre and spread   23  (  1.140676, -0.965769, -0.757863 )     2.07946880
  WF centre and spread   24  ( -1.142983,  0.971444,  0.761105 )     2.07837882
  Sum of centres and spreads (  0.000015,  0.000129,  0.000114 )    57.04215312
 
      9    -0.408E-02     0.1057449472       57.0421476764       0.15  <-- CONV
        O_D=      0.0114000 O_OD=      1.6910375 O_TOT=     57.0421477 <-- SPRD
 Delta: O_D= -0.3128786E-04 O_OD= -0.4052021E-02 O_TOT= -0.4083309E-02 <-- DLTA
 ------------------------------------------------------------------------------
 Cycle:     10
  WF centre and spread    1  ( -0.915433,  1.178701,  0.566942 )     2.59279762
  WF centre and spread    2  (  0.917468, -1.185699, -0.571700 )     2.59072839
  WF centre and spread    3  ( -1.360047, -2.668551,  4.017283 )     2.59112878
  WF centre and spread    4  (  1.360039,  2.668542, -4.017265 )     2.59114802
  WF centre and spread    5  ( -0.928958, -2.645706,  3.959044 )     2.56585874
  WF centre and spread    6  (  0.928969,  2.645710, -3.959034 )     2.56586554
  WF centre and spread    7  ( -1.012557,  3.843452, -1.390585 )     2.24704612
  WF centre and spread    8  (  1.012511, -3.843439,  1.390592 )     2.24719260
  WF centre and spread    9  (  1.027852, -0.016111,  3.183118 )     2.20178180
  WF centre and spread   10  ( -1.027876,  0.016280, -3.183021 )     2.20175603
  WF centre and spread   11  (  1.352363, -1.181784, -0.613428 )     2.58397380
  WF centre and spread   12  ( -1.351997,  1.182686,  0.614438 )     2.58332747
  WF centre and spread   13  (  1.257445, -3.866199,  1.402482 )     2.19612221
  WF centre and spread   14  ( -1.257462,  3.866208, -1.402488 )     2.19593488
  WF centre and spread   15  ( -1.260220,  0.040143, -3.210148 )     2.27622056
  WF centre and spread   16  (  1.260281, -0.040045,  3.210164 )     2.27622957
  WF centre and spread   17  ( -1.122427, -2.860251,  3.836503 )     2.10408705
  WF centre and spread   18  (  1.122423,  2.860255, -3.836508 )     2.10403565
  WF centre and spread   19  (  1.122868, -0.329162,  3.416566 )     2.53469324
  WF centre and spread   20  (  1.140754,  3.489857,  1.155081 )     2.54885115
  WF centre and spread   21  ( -1.122899,  0.329235, -3.416478 )     2.53468258
  WF centre and spread   22  ( -1.140770, -3.489841, -1.154772 )     2.54883905
  WF centre and spread   23  (  1.140654, -0.965809, -0.757844 )     2.07899257
  WF centre and spread   24  ( -1.142966,  0.971652,  0.761157 )     2.07799112
  Sum of centres and spreads (  0.000016,  0.000126,  0.000102 )    57.03928456
 
     10    -0.287E-02     0.0902242466       57.0392791168       0.16  <-- CONV
        O_D=      0.0113843 O_OD=      1.6881847 O_TOT=     57.0392791 <-- SPRD
 Delta: O_D= -0.1572916E-04 O_OD= -0.2852830E-02 O_TOT= -0.2868560E-02 <-- DLTA
 ------------------------------------------------------------------------------
 Cycle:     11
  WF centre and spread    1  ( -0.915332,  1.178818,  0.566927 )     2.59251508
  WF centre and spread    2  (  0.917322, -1.185835, -0.571648 )     2.59058528
  WF centre and spread    3  ( -1.360236, -2.668354,  4.017510 )     2.59117382
  WF centre and spread    4  (  1.360230,  2.668345, -4.017498 )     2.59114474
  WF centre and spread    5  ( -0.928766, -2.645611,  3.959347 )     2.56599746
  WF centre and spread    6  (  0.928774,  2.645611, -3.959341 )     2.56595111
  WF centre and spread    7  ( -1.012559,  3.843468, -1.390598 )     2.24681315
  WF centre and spread    8  (  1.012513, -3.843471,  1.390584 )     2.24703893
  WF centre and spread    9  (  1.027739, -0.016026,  3.183135 )     2.20203137
  WF centre and spread   10  ( -1.027745,  0.016133, -3.183069 )     2.20201070
  WF centre and spread   11  (  1.352551, -1.181919, -0.613176 )     2.58396759
  WF centre and spread   12  ( -1.352144,  1.182740,  0.614221 )     2.58320163
  WF centre and spread   13  (  1.257423, -3.866199,  1.402433 )     2.19605594
  WF centre and spread   14  ( -1.257422,  3.866204, -1.402465 )     2.19580789
  WF centre and spread   15  ( -1.260283,  0.039912, -3.209991 )     2.27593283
  WF centre and spread   16  (  1.260321, -0.039842,  3.209992 )     2.27592353
  WF centre and spread   17  ( -1.122465, -2.860006,  3.836523 )     2.10322668
  WF centre and spread   18  (  1.122460,  2.860016, -3.836532 )     2.10318535
  WF centre and spread   19  (  1.122902, -0.329228,  3.416534 )     2.53475951
  WF centre and spread   20  (  1.140733,  3.489687,  1.154780 )     2.54910464
  WF centre and spread   21  ( -1.122928,  0.329277, -3.416469 )     2.53467352
  WF centre and spread   22  ( -1.140754, -3.489667, -1.154519 )     2.54928763
  WF centre and spread   23  (  1.140622, -0.965872, -0.757817 )     2.07837330
  WF centre and spread   24  ( -1.142940,  0.971938,  0.761222 )     2.07764500
  Sum of centres and spreads (  0.000017,  0.000120,  0.000086 )    57.03640666
 
     11    -0.288E-02     0.0778176927       57.0364012206       0.18  <-- CONV
        O_D=      0.0114057 O_OD=      1.6852853 O_TOT=     57.0364012 <-- SPRD
 Delta: O_D=  0.2147433E-04 O_OD= -0.2899371E-02 O_TOT= -0.2877896E-02 <-- DLTA
 ------------------------------------------------------------------------------
 Cycle:     12
  WF centre and spread    1  ( -0.915265,  1.178899,  0.566926 )     2.59237469
  WF centre and spread    2  (  0.917222, -1.185926, -0.571620 )     2.59051196
  WF centre and spread    3  ( -1.360362, -2.668216,  4.017658 )     2.59123811
  WF centre and spread    4  (  1.360358,  2.668206, -4.017648 )     2.59119153
  WF centre and spread    5  ( -0.928631, -2.645548,  3.959559 )     2.56609202
  WF centre and spread    6  (  0.928638,  2.645546, -3.959555 )     2.56602375
  WF centre and spread    7  ( -1.012563,  3.843482, -1.390612 )     2.24663718
  WF centre and spread    8  (  1.012516, -3.843493,  1.390583 )     2.24689902
  WF centre and spread    9  (  1.027659, -0.015967,  3.183144 )     2.20219078
  WF centre and spread   10  ( -1.027653,  0.016031, -3.183099 )     2.20217458
  WF centre and spread   11  (  1.352681, -1.182010, -0.613003 )     2.58400442
  WF centre and spread   12  ( -1.352244,  1.182778,  0.614072 )     2.58317978
  WF centre and spread   13  (  1.257408, -3.866201,  1.402405 )     2.19600576
  WF centre and spread   14  ( -1.257395,  3.866204, -1.402453 )     2.19572349
  WF centre and spread   15  ( -1.260328,  0.039749, -3.209868 )     2.27570874
  WF centre and spread   16  (  1.260350, -0.039697,  3.209860 )     2.27568445
  WF centre and spread   17  ( -1.122496, -2.859848,  3.836537 )     2.10270657
  WF centre and spread   18  (  1.122490,  2.859861, -3.836549 )     2.10267509
  WF centre and spread   19  (  1.122929, -0.329287,  3.416528 )     2.53481190
  WF centre and spread   20  (  1.140719,  3.489568,  1.154571 )     2.54927416
  WF centre and spread   21  ( -1.122951,  0.329319, -3.416478 )     2.53468881
  WF centre and spread   22  ( -1.140742, -3.489546, -1.154342 )     2.54955761
  WF centre and spread   23  (  1.140600, -0.965921, -0.757799 )     2.07798438
  WF centre and spread   24  ( -1.142922,  0.972129,  0.761259 )     2.07751995
  Sum of centres and spreads (  0.000018,  0.000114,  0.000076 )    57.03485875
 
     12    -0.155E-02     0.0686530345       57.0348533060       0.19  <-- CONV
        O_D=      0.0114317 O_OD=      1.6837115 O_TOT=     57.0348533 <-- SPRD
 Delta: O_D=  0.2592338E-04 O_OD= -0.1573838E-02 O_TOT= -0.1547915E-02 <-- DLTA
 ------------------------------------------------------------------------------
 Cycle:     13
  WF centre and spread    1  ( -0.915259,  1.178907,  0.566932 )     2.59234601
  WF centre and spread    2  (  0.917212, -1.185933, -0.571622 )     2.59047868
  WF centre and spread    3  ( -1.360373, -2.668199,  4.017667 )     2.59122945
  WF centre and spread    4  (  1.360369,  2.668190, -4.017657 )     2.59118327
  WF centre and spread    5  ( -0.928616, -2.645542,  3.959583 )     2.56606492
  WF centre and spread    6  (  0.928623,  2.645540, -3.959579 )     2.56600278
  WF centre and spread    7  ( -1.012565,  3.843484, -1.390617 )     2.24658615
  WF centre and spread    8  (  1.012517, -3.843496,  1.390587 )     2.24684037
  WF centre and spread    9  (  1.027648, -0.015958,  3.183143 )     2.20216982
  WF centre and spread   10  ( -1.027641,  0.016020, -3.183100 )     2.20215348
  WF centre and spread   11  (  1.352694, -1.182018, -0.612985 )     2.58399170
  WF centre and spread   12  ( -1.352254,  1.182782,  0.614056 )     2.58316839
  WF centre and spread   13  (  1.257407, -3.866201,  1.402405 )     2.19596680
  WF centre and spread   14  ( -1.257392,  3.866205, -1.402455 )     2.19569053
  WF centre and spread   15  ( -1.260334,  0.039729, -3.209845 )     2.27563145
  WF centre and spread   16  (  1.260356, -0.039679,  3.209836 )     2.27560605
  WF centre and spread   17  ( -1.122502, -2.859837,  3.836537 )     2.10263171
  WF centre and spread   18  (  1.122496,  2.859850, -3.836550 )     2.10260223
  WF centre and spread   19  (  1.122933, -0.329303,  3.416539 )     2.53479660
  WF centre and spread   20  (  1.140718,  3.489557,  1.154548 )     2.54927208
  WF centre and spread   21  ( -1.122955,  0.329334, -3.416490 )     2.53467433
  WF centre and spread   22  ( -1.140741, -3.489535, -1.154322 )     2.54955186
  WF centre and spread   23  (  1.140598, -0.965930, -0.757798 )     2.07792169
  WF centre and spread   24  ( -1.142919,  0.972146,  0.761260 )     2.07749323
  Sum of centres and spreads (  0.000018,  0.000113,  0.000076 )    57.03405358
 
     13    -0.805E-03     0.0643541452       57.0340481323       0.21  <-- CONV
        O_D=      0.0113669 O_OD=      1.6829711 O_TOT=     57.0340481 <-- SPRD
 Delta: O_D= -0.6481147E-04 O_OD= -0.7403622E-03 O_TOT= -0.8051737E-03 <-- DLTA
 ------------------------------------------------------------------------------
 Cycle:     14
  WF centre and spread    1  ( -0.915241,  1.178931,  0.566950 )     2.59232653
  WF centre and spread    2  (  0.917184, -1.185955, -0.571630 )     2.59045430
  WF centre and spread    3  ( -1.360405, -2.668147,  4.017694 )     2.59127533
  WF centre and spread    4  (  1.360402,  2.668138, -4.017685 )     2.59123865
  WF centre and spread    5  ( -0.928570, -2.645525,  3.959657 )     2.56606665
  WF centre and spread    6  (  0.928577,  2.645523, -3.959652 )     2.56601929
  WF centre and spread    7  ( -1.012570,  3.843492, -1.390631 )     2.24649707
  WF centre and spread    8  (  1.012520, -3.843503,  1.390599 )     2.24672943
  WF centre and spread    9  (  1.027613, -0.015932,  3.183141 )     2.20217362
  WF centre and spread   10  ( -1.027603,  0.015985, -3.183103 )     2.20215706
  WF centre and spread   11  (  1.352733, -1.182046, -0.612930 )     2.58401765
  WF centre and spread   12  ( -1.352286,  1.182795,  0.614007 )     2.58319907
  WF centre and spread   13  (  1.257403, -3.866202,  1.402407 )     2.19591208
  WF centre and spread   14  ( -1.257384,  3.866207, -1.402459 )     2.19564973
  WF centre and spread   15  ( -1.260355,  0.039666, -3.209775 )     2.27545417
  WF centre and spread   16  (  1.260372, -0.039619,  3.209764 )     2.27542560
  WF centre and spread   17  ( -1.122519, -2.859804,  3.836535 )     2.10247026
  WF centre and spread   18  (  1.122514,  2.859817, -3.836549 )     2.10244715
  WF centre and spread   19  (  1.122947, -0.329353,  3.416575 )     2.53481251
  WF centre and spread   20  (  1.140712,  3.489524,  1.154479 )     2.54933595
  WF centre and spread   21  ( -1.122968,  0.329379, -3.416527 )     2.53469553
  WF centre and spread   22  ( -1.140736, -3.489500, -1.154259 )     2.54960954
  WF centre and spread   23  (  1.140590, -0.965957, -0.757796 )     2.07780374
  WF centre and spread   24  ( -1.142910,  0.972197,  0.761263 )     2.07748287
  Sum of centres and spreads (  0.000018,  0.000111,  0.000074 )    57.03325377
 
     14    -0.800E-03     0.0439527191       57.0332483302       0.22  <-- CONV
        O_D=      0.0113225 O_OD=      1.6822157 O_TOT=     57.0332483 <-- SPRD
 Delta: O_D= -0.4435734E-04 O_OD= -0.7554448E-03 O_TOT= -0.7998022E-03 <-- DLTA
 ------------------------------------------------------------------------------
 Cycle:     15
  WF centre and spread    1  ( -0.915215,  1.178963,  0.566972 )     2.59231431
  WF centre and spread    2  (  0.917144, -1.185984, -0.571641 )     2.59045058
  WF centre and spread    3  ( -1.360450, -2.668079,  4.017731 )     2.59135885
  WF centre and spread    4  (  1.360447,  2.668070, -4.017721 )     2.59133728
  WF centre and spread    5  ( -0.928508, -2.645503,  3.959756 )     2.56611208
  WF centre and spread    6  (  0.928515,  2.645502, -3.959751 )     2.56607953
  WF centre and spread    7  ( -1.012574,  3.843501, -1.390649 )     2.24640082
  WF centre and spread    8  (  1.012522, -3.843512,  1.390614 )     2.24660897
  WF centre and spread    9  (  1.027565, -0.015897,  3.183140 )     2.20220014
  WF centre and spread   10  ( -1.027551,  0.015938, -3.183108 )     2.20218515
  WF centre and spread   11  (  1.352785, -1.182081, -0.612857 )     2.58406716
  WF centre and spread   12  ( -1.352330,  1.182812,  0.613940 )     2.58324715
  WF centre and spread   13  (  1.257399, -3.866201,  1.402408 )     2.19585457
  WF centre and spread   14  ( -1.257375,  3.866209, -1.402464 )     2.19560660
  WF centre and spread   15  ( -1.260383,  0.039581, -3.209682 )     2.27523051
  WF centre and spread   16  (  1.260396, -0.039540,  3.209667 )     2.27519563
  WF centre and spread   17  ( -1.122543, -2.859763,  3.836529 )     2.10226234
  WF centre and spread   18  (  1.122538,  2.859776, -3.836544 )     2.10224583
  WF centre and spread   19  (  1.122966, -0.329422,  3.416626 )     2.53485506
  WF centre and spread   20  (  1.140705,  3.489480,  1.154386 )     2.54945985
  WF centre and spread   21  ( -1.122986,  0.329442, -3.416581 )     2.53474534
  WF centre and spread   22  ( -1.140730, -3.489456, -1.154175 )     2.54973220
  WF centre and spread   23  (  1.140579, -0.965989, -0.757793 )     2.07767196
  WF centre and spread   24  ( -1.142898,  0.972262,  0.761270 )     2.07746653
  Sum of centres and spreads (  0.000019,  0.000110,  0.000073 )    57.03268843
 
     15    -0.565E-03     0.0381030413       57.0326829891       0.24  <-- CONV
        O_D=      0.0113243 O_OD=      1.6816486 O_TOT=     57.0326830 <-- SPRD
 Delta: O_D=  0.1780794E-05 O_OD= -0.5671219E-03 O_TOT= -0.5653411E-03 <-- DLTA
 ------------------------------------------------------------------------------
 Cycle:     16
  WF centre and spread    1  ( -0.915164,  1.179022,  0.567014 )     2.59229625
  WF centre and spread    2  (  0.917068, -1.186035, -0.571663 )     2.59046789
  WF centre and spread    3  ( -1.360535, -2.667949,  4.017799 )     2.59153659
  WF centre and spread    4  (  1.360534,  2.667940, -4.017788 )     2.59153926
  WF centre and spread    5  ( -0.928388, -2.645465,  3.959947 )     2.56624988
  WF centre and spread    6  (  0.928395,  2.645463, -3.959942 )     2.56623858
  WF centre and spread    7  ( -1.012579,  3.843516, -1.390684 )     2.24623165
  WF centre and spread    8  (  1.012526, -3.843528,  1.390642 )     2.24640271
  WF centre and spread    9  (  1.027469, -0.015829,  3.183137 )     2.20226409
  WF centre and spread   10  ( -1.027449,  0.015848, -3.183117 )     2.20225528
  WF centre and spread   11  (  1.352885, -1.182146, -0.612715 )     2.58417243
  WF centre and spread   12  ( -1.352414,  1.182841,  0.613809 )     2.58333185
  WF centre and spread   13  (  1.257394, -3.866199,  1.402409 )     2.19575067
  WF centre and spread   14  ( -1.257363,  3.866209, -1.402471 )     2.19552256
  WF centre and spread   15  ( -1.260438,  0.039417, -3.209501 )     2.27479408
  WF centre and spread   16  (  1.260444, -0.039386,  3.209481 )     2.27474284
  WF centre and spread   17  ( -1.122589, -2.859689,  3.836511 )     2.10185420
  WF centre and spread   18  (  1.122583,  2.859703, -3.836527 )     2.10185040
  WF centre and spread   19  (  1.123002, -0.329559,  3.416731 )     2.53496099
  WF centre and spread   20  (  1.140692,  3.489399,  1.154208 )     2.54973360
  WF centre and spread   21  ( -1.123021,  0.329570, -3.416691 )     2.53486289
  WF centre and spread   22  ( -1.140717, -3.489373, -1.154015 )     2.55001689
  WF centre and spread   23  (  1.140559, -0.966045, -0.757788 )     2.07744559
  WF centre and spread   24  ( -1.142875,  0.972383,  0.761287 )     2.07741619
  Sum of centres and spreads (  0.000019,  0.000108,  0.000073 )    57.03193737
 
     16    -0.751E-03     0.0381222501       57.0319319269       0.26  <-- CONV
        O_D=      0.0113402 O_OD=      1.6808816 O_TOT=     57.0319319 <-- SPRD
 Delta: O_D=  0.1591809E-04 O_OD= -0.7669802E-03 O_TOT= -0.7510622E-03 <-- DLTA
 ------------------------------------------------------------------------------
 Cycle:     17
  WF centre and spread    1  ( -0.915097,  1.179094,  0.567070 )     2.59227016
  WF centre and spread    2  (  0.916970, -1.186095, -0.571696 )     2.59050983
  WF centre and spread    3  ( -1.360644, -2.667784,  4.017880 )     2.59177170
  WF centre and spread    4  (  1.360645,  2.667775, -4.017869 )     2.59179853
  WF centre and spread    5  ( -0.928232, -2.645421,  3.960195 )     2.56646761
  WF centre and spread    6  (  0.928239,  2.645419, -3.960190 )     2.56647648
  WF centre and spread    7  ( -1.012584,  3.843535, -1.390729 )     2.24602129
  WF centre and spread    8  (  1.012531, -3.843549,  1.390680 )     2.24615585
  WF centre and spread    9  (  1.027341, -0.015741,  3.183134 )     2.20234939
  WF centre and spread   10  ( -1.027314,  0.015733, -3.183129 )     2.20234998
  WF centre and spread   11  (  1.353012, -1.182224, -0.612534 )     2.58431741
  WF centre and spread   12  ( -1.352522,  1.182876,  0.613638 )     2.58342469
  WF centre and spread   13  (  1.257390, -3.866195,  1.402411 )     2.19562282
  WF centre and spread   14  ( -1.257350,  3.866207, -1.402481 )     2.19541119
  WF centre and spread   15  ( -1.260513,  0.039206, -3.209263 )     2.27420453
  WF centre and spread   16  (  1.260508, -0.039186,  3.209236 )     2.27413298
  WF centre and spread   17  ( -1.122651, -2.859607,  3.836480 )     2.10132643
  WF centre and spread   18  (  1.122645,  2.859621, -3.836496 )     2.10133505
  WF centre and spread   19  (  1.123051, -0.329744,  3.416879 )     2.53512753
  WF centre and spread   20  (  1.140675,  3.489298,  1.153982 )     2.55011063
  WF centre and spread   21  ( -1.123068,  0.329744, -3.416845 )     2.53504069
  WF centre and spread   22  ( -1.140701, -3.489273, -1.153812 )     2.55041705
  WF centre and spread   23  (  1.140533, -0.966109, -0.757782 )     2.07717895
  WF centre and spread   24  ( -1.142845,  0.972529,  0.761312 )     2.07732532
  Sum of centres and spreads (  0.000019,  0.000107,  0.000072 )    57.03114608
 
     17    -0.791E-03     0.0420560646       57.0311406346       0.27  <-- CONV
        O_D=      0.0113576 O_OD=      1.6800729 O_TOT=     57.0311406 <-- SPRD
 Delta: O_D=  0.1736891E-04 O_OD= -0.8086612E-03 O_TOT= -0.7912923E-03 <-- DLTA
 ------------------------------------------------------------------------------
 Cycle:     18
  WF centre and spread    1  ( -0.915021,  1.179170,  0.567142 )     2.59224022
  WF centre and spread    2  (  0.916860, -1.186155, -0.571742 )     2.59057441
  WF centre and spread    3  ( -1.360766, -2.667599,  4.017962 )     2.59204044
  WF centre and spread    4  (  1.360769,  2.667589, -4.017951 )     2.59208592
  WF centre and spread    5  ( -0.928054, -2.645379,  3.960482 )     2.56675626
  WF centre and spread    6  (  0.928060,  2.645376, -3.960476 )     2.56678067
  WF centre and spread    7  ( -1.012587,  3.843554, -1.390784 )     2.24577708
  WF centre and spread    8  (  1.012535, -3.843572,  1.390728 )     2.24588146
  WF centre and spread    9  (  1.027187, -0.015637,  3.183130 )     2.20244367
  WF centre and spread   10  ( -1.027152,  0.015601, -3.183140 )     2.20245611
  WF centre and spread   11  (  1.353156, -1.182307, -0.612325 )     2.58449173
  WF centre and spread   12  ( -1.352645,  1.182911,  0.613439 )     2.58351622
  WF centre and spread   13  (  1.257387, -3.866189,  1.402415 )     2.19547782
  WF centre and spread   14  ( -1.257341,  3.866202, -1.402493 )     2.19527486
  WF centre and spread   15  ( -1.260601,  0.038959, -3.208978 )     2.27347941
  WF centre and spread   16  (  1.260587, -0.038952,  3.208944 )     2.27338650
  WF centre and spread   17  ( -1.122726, -2.859528,  3.836433 )     2.10073023
  WF centre and spread   18  (  1.122719,  2.859543, -3.836449 )     2.10075146
  WF centre and spread   19  (  1.123112, -0.329972,  3.417069 )     2.53536007
  WF centre and spread   20  (  1.140655,  3.489188,  1.153728 )     2.55055275
  WF centre and spread   21  ( -1.123127,  0.329961, -3.417042 )     2.53527964
  WF centre and spread   22  ( -1.140682, -3.489164, -1.153583 )     2.55089364
  WF centre and spread   23  (  1.140505, -0.966178, -0.757779 )     2.07690516
  WF centre and spread   24  ( -1.142810,  0.972683,  0.761342 )     2.07720793
  Sum of centres and spreads (  0.000019,  0.000107,  0.000071 )    57.03034365
 
     18    -0.802E-03     0.0439403354       57.0303382086       0.29  <-- CONV
        O_D=      0.0113773 O_OD=      1.6792508 O_TOT=     57.0303382 <-- SPRD
 Delta: O_D=  0.1971030E-04 O_OD= -0.8221363E-03 O_TOT= -0.8024260E-03 <-- DLTA
 ------------------------------------------------------------------------------
 Cycle:     19
  WF centre and spread    1  ( -0.915020,  1.179170,  0.567151 )     2.59221412
  WF centre and spread    2  (  0.916858, -1.186151, -0.571751 )     2.59055598
  WF centre and spread    3  ( -1.360766, -2.667591,  4.017956 )     2.59201939
  WF centre and spread    4  (  1.360769,  2.667581, -4.017946 )     2.59206079
  WF centre and spread    5  ( -0.928047, -2.645382,  3.960496 )     2.56675844
  WF centre and spread    6  (  0.928053,  2.645379, -3.960489 )     2.56677936
  WF centre and spread    7  ( -1.012586,  3.843554, -1.390790 )     2.24573868
  WF centre and spread    8  (  1.012535, -3.843572,  1.390734 )     2.24584767
  WF centre and spread    9  (  1.027176, -0.015631,  3.183128 )     2.20242503
  WF centre and spread   10  ( -1.027141,  0.015595, -3.183138 )     2.20243755
  WF centre and spread   11  (  1.353159, -1.182306, -0.612317 )     2.58447341
  WF centre and spread   12  ( -1.352650,  1.182910,  0.613429 )     2.58348966
  WF centre and spread   13  (  1.257389, -3.866188,  1.402418 )     2.19545082
  WF centre and spread   14  ( -1.257344,  3.866201, -1.402496 )     2.19524439
  WF centre and spread   15  ( -1.260608,  0.038945, -3.208955 )     2.27339577
  WF centre and spread   16  (  1.260594, -0.038938,  3.208922 )     2.27330364
  WF centre and spread   17  ( -1.122733, -2.859536,  3.836422 )     2.10068588
  WF centre and spread   18  (  1.122726,  2.859551, -3.836438 )     2.10070497
  WF centre and spread   19  (  1.123117, -0.329996,  3.417093 )     2.53538207
  WF centre and spread   20  (  1.140654,  3.489188,  1.153721 )     2.55055233
  WF centre and spread   21  ( -1.123132,  0.329985, -3.417066 )     2.53529912
  WF centre and spread   22  ( -1.140681, -3.489164, -1.153577 )     2.55089794
  WF centre and spread   23  (  1.140504, -0.966178, -0.757783 )     2.07688087
  WF centre and spread   24  ( -1.142808,  0.972680,  0.761346 )     2.07716504
  Sum of centres and spreads (  0.000019,  0.000106,  0.000071 )    57.02976292
 
     19    -0.581E-03     0.0518628966       57.0297574781       0.30  <-- CONV
        O_D=      0.0113463 O_OD=      1.6787010 O_TOT=     57.0297575 <-- SPRD
 Delta: O_D= -0.3097289E-04 O_OD= -0.5497577E-03 O_TOT= -0.5807306E-03 <-- DLTA
 ------------------------------------------------------------------------------
 Cycle:     20
  WF centre and spread    1  ( -0.915016,  1.179170,  0.567175 )     2.59219195
  WF centre and spread    2  (  0.916852, -1.186142, -0.571775 )     2.59054805
  WF centre and spread    3  ( -1.360768, -2.667572,  4.017941 )     2.59200784
  WF centre and spread    4  (  1.360771,  2.667562, -4.017930 )     2.59203907
  WF centre and spread    5  ( -0.928030, -2.645389,  3.960529 )     2.56680638
  WF centre and spread    6  (  0.928035,  2.645386, -3.960523 )     2.56681826
  WF centre and spread    7  ( -1.012584,  3.843554, -1.390805 )     2.24567968
  WF centre and spread    8  (  1.012535, -3.843573,  1.390750 )     2.24580089
  WF centre and spread    9  (  1.027147, -0.015613,  3.183126 )     2.20241896
  WF centre and spread   10  ( -1.027113,  0.015579, -3.183135 )     2.20243244
  WF centre and spread   11  (  1.353167, -1.182304, -0.612295 )     2.58446617
  WF centre and spread   12  ( -1.352661,  1.182908,  0.613403 )     2.58346614
  WF centre and spread   13  (  1.257395, -3.866185,  1.402426 )     2.19542216
  WF centre and spread   14  ( -1.257350,  3.866196, -1.402504 )     2.19520514
  WF centre and spread   15  ( -1.260625,  0.038908, -3.208897 )     2.27321993
  WF centre and spread   16  (  1.260611, -0.038901,  3.208864 )     2.27312986
  WF centre and spread   17  ( -1.122750, -2.859557,  3.836395 )     2.10061896
  WF centre and spread   18  (  1.122743,  2.859573, -3.836410 )     2.10063549
  WF centre and spread   19  (  1.123130, -0.330055,  3.417157 )     2.53547665
  WF centre and spread   20  (  1.140652,  3.489186,  1.153703 )     2.55059118
  WF centre and spread   21  ( -1.123146,  0.330046, -3.417129 )     2.53538876
  WF centre and spread   22  ( -1.140678, -3.489164, -1.153559 )     2.55094877
  WF centre and spread   23  (  1.140501, -0.966181, -0.757791 )     2.07686451
  WF centre and spread   24  ( -1.142801,  0.972674,  0.761354 )     2.07711178
  Sum of centres and spreads (  0.000019,  0.000106,  0.000070 )    57.02928902
 
     20    -0.474E-03     0.0354203363       57.0292835811       0.32  <-- CONV
        O_D=      0.0113320 O_OD=      1.6782415 O_TOT=     57.0292836 <-- SPRD
 Delta: O_D= -0.1433929E-04 O_OD= -0.4595577E-03 O_TOT= -0.4738970E-03 <-- DLTA
 ------------------------------------------------------------------------------
 Cycle:     21
  WF centre and spread    1  ( -0.915008,  1.179170,  0.567219 )     2.59216917
  WF centre and spread    2  (  0.916843, -1.186126, -0.571817 )     2.59054256
  WF centre and spread    3  ( -1.360770, -2.667538,  4.017911 )     2.59199929
  WF centre and spread    4  (  1.360773,  2.667526, -4.017902 )     2.59201561
  WF centre and spread    5  ( -0.927999, -2.645403,  3.960590 )     2.56689951
  WF centre and spread    6  (  0.928003,  2.645399, -3.960584 )     2.56689685
  WF centre and spread    7  ( -1.012581,  3.843553, -1.390832 )     2.24558440
  WF centre and spread    8  (  1.012534, -3.843574,  1.390778 )     2.24572510
  WF centre and spread    9  (  1.027095, -0.015582,  3.183121 )     2.20242702
  WF centre and spread   10  ( -1.027061,  0.015550, -3.183129 )     2.20244283
  WF centre and spread   11  (  1.353182, -1.182302, -0.612255 )     2.58446242
  WF centre and spread   12  ( -1.352681,  1.182905,  0.613355 )     2.58344561
  WF centre and spread   13  (  1.257404, -3.866178,  1.402440 )     2.19538374
  WF centre and spread   14  ( -1.257362,  3.866188, -1.402517 )     2.19515042
  WF centre and spread   15  ( -1.260655,  0.038840, -3.208791 )     2.27292028
  WF centre and spread   16  (  1.260643, -0.038832,  3.208759 )     2.27283271
  WF centre and spread   17  ( -1.122781, -2.859595,  3.836346 )     2.10051663
  WF centre and spread   18  (  1.122774,  2.859611, -3.836360 )     2.10052850
  WF centre and spread   19  (  1.123154, -0.330163,  3.417273 )     2.53566115
  WF centre and spread   20  (  1.140647,  3.489183,  1.153669 )     2.55068632
  WF centre and spread   21  ( -1.123170,  0.330157, -3.417244 )     2.53556740
  WF centre and spread   22  ( -1.140673, -3.489161, -1.153525 )     2.55105994
  WF centre and spread   23  (  1.140497, -0.966186, -0.757806 )     2.07684735
  WF centre and spread   24  ( -1.142789,  0.972662,  0.761369 )     2.07704353
  Sum of centres and spreads (  0.000019,  0.000106,  0.000070 )    57.02880834
 
     21    -0.481E-03     0.0327154782       57.0288028928       0.33  <-- CONV
        O_D=      0.0113342 O_OD=      1.6777586 O_TOT=     57.0288029 <-- SPRD
 Delta: O_D=  0.2197196E-05 O_OD= -0.4828855E-03 O_TOT= -0.4806883E-03 <-- DLTA
 ------------------------------------------------------------------------------
 Cycle:     22
  WF centre and spread    1  ( -0.914998,  1.179172,  0.567280 )     2.59215291
  WF centre and spread    2  (  0.916830, -1.186104, -0.571875 )     2.59053533
  WF centre and spread    3  ( -1.360772, -2.667488,  4.017869 )     2.59199172
  WF centre and spread    4  (  1.360776,  2.667476, -4.017860 )     2.59199373
  WF centre and spread    5  ( -0.927956, -2.645421,  3.960675 )     2.56702209
  WF centre and spread    6  (  0.927959,  2.645416, -3.960669 )     2.56700364
  WF centre and spread    7  ( -1.012578,  3.843553, -1.390871 )     2.24545529
  WF centre and spread    8  (  1.012534, -3.843575,  1.390818 )     2.24561682
  WF centre and spread    9  (  1.027023, -0.015539,  3.183115 )     2.20244997
  WF centre and spread   10  ( -1.026990,  0.015511, -3.183121 )     2.20246961
  WF centre and spread   11  (  1.353204, -1.182301, -0.612197 )     2.58445795
  WF centre and spread   12  ( -1.352709,  1.182902,  0.613289 )     2.58343830
  WF centre and spread   13  (  1.257416, -3.866169,  1.402461 )     2.19533330
  WF centre and spread   14  ( -1.257378,  3.866177, -1.402537 )     2.19508315
  WF centre and spread   15  ( -1.260697,  0.038746, -3.208642 )     2.27251264
  WF centre and spread   16  (  1.260686, -0.038736,  3.208612 )     2.27242569
  WF centre and spread   17  ( -1.122824, -2.859648,  3.836279 )     2.10038956
  WF centre and spread   18  (  1.122817,  2.859665, -3.836291 )     2.10039785
  WF centre and spread   19  (  1.123188, -0.330314,  3.417436 )     2.53591844
  WF centre and spread   20  (  1.140639,  3.489178,  1.153619 )     2.55083583
  WF centre and spread   21  ( -1.123203,  0.330313, -3.417407 )     2.53581966
  WF centre and spread   22  ( -1.140665, -3.489157, -1.153475 )     2.55122392
  WF centre and spread   23  (  1.140490, -0.966196, -0.757827 )     2.07683363
  WF centre and spread   24  ( -1.142772,  0.972645,  0.761389 )     2.07698148
  Sum of centres and spreads (  0.000019,  0.000105,  0.000069 )    57.02834253
 
     22    -0.466E-03     0.0324160949       57.0283370877       0.35  <-- CONV
        O_D=      0.0113458 O_OD=      1.6772812 O_TOT=     57.0283371 <-- SPRD
 Delta: O_D=  0.1161433E-04 O_OD= -0.4774194E-03 O_TOT= -0.4658051E-03 <-- DLTA
 ------------------------------------------------------------------------------
 Cycle:     23
  WF centre and spread    1  ( -0.914980,  1.179176,  0.567398 )     2.59213970
  WF centre and spread    2  (  0.916805, -1.186064, -0.571986 )     2.59052109
  WF centre and spread    3  ( -1.360775, -2.667393,  4.017788 )     2.59197995
  WF centre and spread    4  (  1.360777,  2.667381, -4.017780 )     2.59196629
  WF centre and spread    5  ( -0.927875, -2.645454,  3.960836 )     2.56722788
  WF centre and spread    6  (  0.927877,  2.645448, -3.960830 )     2.56718928
  WF centre and spread    7  ( -1.012573,  3.843553, -1.390947 )     2.24521515
  WF centre and spread    8  (  1.012532, -3.843578,  1.390896 )     2.24540383
  WF centre and spread    9  (  1.026886, -0.015456,  3.183105 )     2.20250324
  WF centre and spread   10  ( -1.026855,  0.015435, -3.183107 )     2.20252857
  WF centre and spread   11  (  1.353245, -1.182299, -0.612087 )     2.58445173
  WF centre and spread   12  ( -1.352761,  1.182898,  0.613162 )     2.58345187
  WF centre and spread   13  (  1.257440, -3.866152,  1.402502 )     2.19524139
  WF centre and spread   14  ( -1.257406,  3.866157, -1.402575 )     2.19497082
  WF centre and spread   15  ( -1.260776,  0.038564, -3.208357 )     2.27174454
  WF centre and spread   16  (  1.260767, -0.038553,  3.208329 )     2.27165896
  WF centre and spread   17  ( -1.122906, -2.859750,  3.836153 )     2.10017516
  WF centre and spread   18  (  1.122899,  2.859768, -3.836164 )     2.10017846
  WF centre and spread   19  (  1.123252, -0.330602,  3.417747 )     2.53639527
  WF centre and spread   20  (  1.140625,  3.489166,  1.153524 )     2.55113698
  WF centre and spread   21  ( -1.123268,  0.330607, -3.417716 )     2.53629069
  WF centre and spread   22  ( -1.140650, -3.489146, -1.153378 )     2.55153451
  WF centre and spread   23  (  1.140478, -0.966218, -0.757865 )     2.07682128
  WF centre and spread   24  ( -1.142740,  0.972615,  0.761423 )     2.07690582
  Sum of centres and spreads (  0.000020,  0.000104,  0.000069 )    57.02763246
 
     23    -0.710E-03     0.0358457441       57.0276270148       0.37  <-- CONV
        O_D=      0.0113763 O_OD=      1.6765406 O_TOT=     57.0276270 <-- SPRD
 Delta: O_D=  0.3051736E-04 O_OD= -0.7405902E-03 O_TOT= -0.7100729E-03 <-- DLTA
 ------------------------------------------------------------------------------
 Cycle:     24
  WF centre and spread    1  ( -0.914960,  1.179181,  0.567541 )     2.59214007
  WF centre and spread    2  (  0.916776, -1.186016, -0.572120 )     2.59050613
  WF centre and spread    3  ( -1.360775, -2.667276,  4.017689 )     2.59197329
  WF centre and spread    4  (  1.360777,  2.667264, -4.017682 )     2.59194942
  WF centre and spread    5  ( -0.927777, -2.645492,  3.961030 )     2.56744649
  WF centre and spread    6  (  0.927780,  2.645486, -3.961026 )     2.56739459
  WF centre and spread    7  ( -1.012570,  3.843555, -1.391040 )     2.24493003
  WF centre and spread    8  (  1.012530, -3.843581,  1.390991 )     2.24513703
  WF centre and spread    9  (  1.026720, -0.015357,  3.183093 )     2.20256994
  WF centre and spread   10  ( -1.026691,  0.015344, -3.183090 )     2.20259903
  WF centre and spread   11  (  1.353295, -1.182299, -0.611951 )     2.58445367
  WF centre and spread   12  ( -1.352823,  1.182894,  0.613008 )     2.58349318
  WF centre and spread   13  (  1.257469, -3.866129,  1.402553 )     2.19513218
  WF centre and spread   14  ( -1.257437,  3.866133, -1.402622 )     2.19484991
  WF centre and spread   15  ( -1.260870,  0.038345, -3.208012 )     2.27081424
  WF centre and spread   16  (  1.260864, -0.038331,  3.207986 )     2.27073253
  WF centre and spread   17  ( -1.123005, -2.859872,  3.836003 )     2.09993816
  WF centre and spread   18  (  1.122998,  2.859890, -3.836015 )     2.09993809
  WF centre and spread   19  (  1.123330, -0.330947,  3.418122 )     2.53695371
  WF centre and spread   20  (  1.140607,  3.489152,  1.153407 )     2.55150734
  WF centre and spread   21  ( -1.123346,  0.330959, -3.418089 )     2.53684357
  WF centre and spread   22  ( -1.140631, -3.489132, -1.153258 )     2.55189982
  WF centre and spread   23  (  1.140462, -0.966248, -0.757912 )     2.07682461
  WF centre and spread   24  ( -1.142701,  0.972579,  0.761462 )     2.07685375
  Sum of centres and spreads (  0.000020,  0.000102,  0.000068 )    57.02688076
 
     24    -0.752E-03     0.0421328150       57.0268753203       0.38  <-- CONV
        O_D=      0.0114084 O_OD=      1.6757568 O_TOT=     57.0268753 <-- SPRD
 Delta: O_D=  0.3211884E-04 O_OD= -0.7838133E-03 O_TOT= -0.7516945E-03 <-- DLTA
 ------------------------------------------------------------------------------
 Cycle:     25
  WF centre and spread    1  ( -0.914959,  1.179182,  0.567549 )     2.59211964
  WF centre and spread    2  (  0.916774, -1.186014, -0.572127 )     2.59048006
  WF centre and spread    3  ( -1.360775, -2.667268,  4.017684 )     2.59195405
  WF centre and spread    4  (  1.360777,  2.667257, -4.017677 )     2.59193189
  WF centre and spread    5  ( -0.927771, -2.645494,  3.961042 )     2.56741625
  WF centre and spread    6  (  0.927774,  2.645488, -3.961038 )     2.56737010
  WF centre and spread    7  ( -1.012570,  3.843556, -1.391047 )     2.24489073
  WF centre and spread    8  (  1.012530, -3.843581,  1.390997 )     2.24509112
  WF centre and spread    9  (  1.026710, -0.015350,  3.183092 )     2.20254763
  WF centre and spread   10  ( -1.026681,  0.015337, -3.183090 )     2.20257501
  WF centre and spread   11  (  1.353299, -1.182300, -0.611942 )     2.58443474
  WF centre and spread   12  ( -1.352826,  1.182894,  0.612998 )     2.58347948
  WF centre and spread   13  (  1.257470, -3.866127,  1.402557 )     2.19509969
  WF centre and spread   14  ( -1.257438,  3.866132, -1.402626 )     2.19482503
  WF centre and spread   15  ( -1.260876,  0.038331, -3.207991 )     2.27073324
  WF centre and spread   16  (  1.260869, -0.038317,  3.207965 )     2.27065250
  WF centre and spread   17  ( -1.123010, -2.859879,  3.835996 )     2.09989821
  WF centre and spread   18  (  1.123003,  2.859896, -3.836008 )     2.09989839
  WF centre and spread   19  (  1.123334, -0.330968,  3.418144 )     2.53695305
  WF centre and spread   20  (  1.140606,  3.489150,  1.153399 )     2.55150913
  WF centre and spread   21  ( -1.123350,  0.330979, -3.418111 )     2.53684243
  WF centre and spread   22  ( -1.140630, -3.489130, -1.153249 )     2.55189397
  WF centre and spread   23  (  1.140460, -0.966252, -0.757914 )     2.07680256
  WF centre and spread   24  ( -1.142699,  0.972579,  0.761464 )     2.07683230
  Sum of centres and spreads (  0.000020,  0.000102,  0.000068 )    57.02623119
 
     25    -0.650E-03     0.0571996469       57.0262257458       0.40  <-- CONV
        O_D=      0.0113602 O_OD=      1.6751554 O_TOT=     57.0262257 <-- SPRD
 Delta: O_D= -0.4825222E-04 O_OD= -0.6013223E-03 O_TOT= -0.6495745E-03 <-- DLTA
 ------------------------------------------------------------------------------
 Cycle:     26
  WF centre and spread    1  ( -0.914955,  1.179184,  0.567572 )     2.59211344
  WF centre and spread    2  (  0.916768, -1.186007, -0.572147 )     2.59045992
  WF centre and spread    3  ( -1.360774, -2.667245,  4.017668 )     2.59195340
  WF centre and spread    4  (  1.360776,  2.667234, -4.017661 )     2.59193956
  WF centre and spread    5  ( -0.927753, -2.645498,  3.961080 )     2.56739196
  WF centre and spread    6  (  0.927756,  2.645492, -3.961076 )     2.56735914
  WF centre and spread    7  ( -1.012570,  3.843558, -1.391064 )     2.24482662
  WF centre and spread    8  (  1.012528, -3.843580,  1.391015 )     2.24500927
  WF centre and spread    9  (  1.026680, -0.015332,  3.183090 )     2.20253464
  WF centre and spread   10  ( -1.026651,  0.015319, -3.183089 )     2.20255768
  WF centre and spread   11  (  1.353309, -1.182303, -0.611913 )     2.58443012
  WF centre and spread   12  ( -1.352838,  1.182894,  0.612968 )     2.58349158
  WF centre and spread   13  (  1.257476, -3.866121,  1.402567 )     2.19505519
  WF centre and spread   14  ( -1.257442,  3.866128, -1.402635 )     2.19479848
  WF centre and spread   15  ( -1.260894,  0.038289, -3.207929 )     2.27054091
  WF centre and spread   16  (  1.260887, -0.038275,  3.207903 )     2.27046322
  WF centre and spread   17  ( -1.123026, -2.859897,  3.835973 )     2.09983561
  WF centre and spread   18  (  1.123019,  2.859914, -3.835986 )     2.09983800
  WF centre and spread   19  (  1.123346, -0.331030,  3.418209 )     2.53700114
  WF centre and spread   20  (  1.140601,  3.489144,  1.153374 )     2.55156611
  WF centre and spread   21  ( -1.123363,  0.331039, -3.418176 )     2.53689198
  WF centre and spread   22  ( -1.140626, -3.489123, -1.153223 )     2.55193322
  WF centre and spread   23  (  1.140457, -0.966261, -0.757921 )     2.07679399
  WF centre and spread   24  ( -1.142692,  0.972578,  0.761470 )     2.07682887
  Sum of centres and spreads (  0.000020,  0.000102,  0.000067 )    57.02561406
 
     26    -0.617E-03     0.0390062737       57.0256086221       0.41  <-- CONV
        O_D=      0.0113261 O_OD=      1.6745723 O_TOT=     57.0256086 <-- SPRD
 Delta: O_D= -0.3402079E-04 O_OD= -0.5831030E-03 O_TOT= -0.6171238E-03 <-- DLTA
 ------------------------------------------------------------------------------
 Cycle:     27
  WF centre and spread    1  ( -0.914948,  1.179186,  0.567601 )     2.59211846
  WF centre and spread    2  (  0.916757, -1.185999, -0.572174 )     2.59045160
  WF centre and spread    3  ( -1.360775, -2.667213,  4.017649 )     2.59197018
[...]
 Delta: O_D= -0.3006365E-05 O_OD= -0.3788243E-04 O_TOT= -0.4088880E-04 <-- DLTA
 ------------------------------------------------------------------------------
 Cycle:    494
  WF centre and spread    1  ( -0.913316,  1.179735,  0.581272 )     2.59086360
  WF centre and spread    2  (  0.913979, -1.181970, -0.583605 )     2.58978130
  WF centre and spread    3  ( -1.360898, -2.657015,  4.005553 )     2.59143033
  WF centre and spread    4  (  1.360898,  2.657011, -4.005548 )     2.59143051
  WF centre and spread    5  ( -0.916857, -2.651209,  3.986475 )     2.58503525
  WF centre and spread    6  (  0.916859,  2.651206, -3.986470 )     2.58503455
  WF centre and spread    7  ( -1.011102,  3.847510, -1.398662 )     2.21692288
  WF centre and spread    8  (  1.011088, -3.847512,  1.398657 )     2.21694635
  WF centre and spread    9  (  1.012174, -0.013364,  3.184681 )     2.20859357
  WF centre and spread   10  ( -1.012167,  0.013365, -3.184682 )     2.20859781
  WF centre and spread   11  (  1.358808, -1.181913, -0.594511 )     2.58815205
  WF centre and spread   12  ( -1.358972,  1.181358,  0.594248 )     2.58853785
  WF centre and spread   13  (  1.261416, -3.862126,  1.404913 )     2.18775653
  WF centre and spread   14  ( -1.261404,  3.862133, -1.404924 )     2.18771297
  WF centre and spread   15  ( -1.263917,  0.024730, -3.183544 )     2.19826122
  WF centre and spread   16  (  1.263913, -0.024734,  3.183541 )     2.19824984
  WF centre and spread   17  ( -1.133441, -2.864327,  3.822623 )     2.07321378
  WF centre and spread   18  (  1.133440,  2.864335, -3.822632 )     2.07321995
  WF centre and spread   19  (  1.134821, -0.346869,  3.441728 )     2.57908752
  WF centre and spread   20  (  1.138284,  3.488894,  1.143143 )     2.58112768
  WF centre and spread   21  ( -1.134821,  0.346871, -3.441721 )     2.57907096
  WF centre and spread   22  ( -1.138290, -3.488893, -1.143108 )     2.58120290
  WF centre and spread   23  (  1.138093, -0.970828, -0.763877 )     2.07102932
  WF centre and spread   24  ( -1.138572,  0.973661,  0.766485 )     2.06952550
  Sum of centres and spreads (  0.000012,  0.000051,  0.000031 )    56.94078421
 
    494    -0.414E-04     0.0098376885       56.9407787625       7.92  <-- CONV
        O_D=      0.0109135 O_OD=      1.5901551 O_TOT=     56.9407788 <-- SPRD
 Delta: O_D= -0.1742846E-05 O_OD= -0.3965033E-04 O_TOT= -0.4139318E-04 <-- DLTA
 ------------------------------------------------------------------------------
 Cycle:    495
  WF centre and spread    1  ( -0.913317,  1.179735,  0.581281 )     2.59086215
  WF centre and spread    2  (  0.913978, -1.181967, -0.583612 )     2.58978100
  WF centre and spread    3  ( -1.360897, -2.657011,  4.005541 )     2.59142779
  WF centre and spread    4  (  1.360896,  2.657007, -4.005537 )     2.59142802
  WF centre and spread    5  ( -0.916851, -2.651216,  3.986495 )     2.58504492
  WF centre and spread    6  (  0.916853,  2.651213, -3.986490 )     2.58504456
  WF centre and spread    7  ( -1.011099,  3.847516, -1.398667 )     2.21690156
  WF centre and spread    8  (  1.011085, -3.847517,  1.398662 )     2.21692520
  WF centre and spread    9  (  1.012166, -0.013368,  3.184682 )     2.20859096
  WF centre and spread   10  ( -1.012159,  0.013369, -3.184684 )     2.20859545
  WF centre and spread   11  (  1.358811, -1.181911, -0.594497 )     2.58815580
  WF centre and spread   12  ( -1.358975,  1.181356,  0.594233 )     2.58854170
  WF centre and spread   13  (  1.261420, -3.862121,  1.404912 )     2.18776183
  WF centre and spread   14  ( -1.261409,  3.862129, -1.404924 )     2.18771837
  WF centre and spread   15  ( -1.263917,  0.024726, -3.183537 )     2.19823773
  WF centre and spread   16  (  1.263912, -0.024730,  3.183534 )     2.19822586
  WF centre and spread   17  ( -1.133448, -2.864324,  3.822614 )     2.07320303
  WF centre and spread   18  (  1.133447,  2.864333, -3.822623 )     2.07320921
  WF centre and spread   19  (  1.134829, -0.346870,  3.441735 )     2.57910115
  WF centre and spread   20  (  1.138282,  3.488895,  1.143138 )     2.58114462
  WF centre and spread   21  ( -1.134829,  0.346872, -3.441727 )     2.57908285
  WF centre and spread   22  ( -1.138289, -3.488894, -1.143104 )     2.58122185
  WF centre and spread   23  (  1.138091, -0.970834, -0.763884 )     2.07102334
  WF centre and spread   24  ( -1.138569,  0.973663,  0.766489 )     2.06952242
  Sum of centres and spreads (  0.000012,  0.000051,  0.000031 )    56.94075137
 
    495    -0.328E-04     0.0092199207       56.9407459275       7.93  <-- CONV
        O_D=      0.0109131 O_OD=      1.5901227 O_TOT=     56.9407459 <-- SPRD
 Delta: O_D= -0.3829768E-06 O_OD= -0.3245209E-04 O_TOT= -0.3283507E-04 <-- DLTA
 ------------------------------------------------------------------------------
 Cycle:    496
  WF centre and spread    1  ( -0.913317,  1.179735,  0.581297 )     2.59086066
  WF centre and spread    2  (  0.913977, -1.181962, -0.583623 )     2.58978142
  WF centre and spread    3  ( -1.360896, -2.657005,  4.005522 )     2.59142469
  WF centre and spread    4  (  1.360895,  2.657001, -4.005518 )     2.59142502
  WF centre and spread    5  ( -0.916840, -2.651227,  3.986528 )     2.58506218
  WF centre and spread    6  (  0.916842,  2.651224, -3.986524 )     2.58506223
  WF centre and spread    7  ( -1.011095,  3.847526, -1.398675 )     2.21686854
  WF centre and spread    8  (  1.011080, -3.847527,  1.398669 )     2.21689239
  WF centre and spread    9  (  1.012155, -0.013375,  3.184684 )     2.20858911
  WF centre and spread   10  ( -1.012148,  0.013376, -3.184685 )     2.20859438
  WF centre and spread   11  (  1.358815, -1.181908, -0.594475 )     2.58816224
  WF centre and spread   12  ( -1.358980,  1.181353,  0.594211 )     2.58854847
  WF centre and spread   13  (  1.261427, -3.862113,  1.404911 )     2.18777031
  WF centre and spread   14  ( -1.261416,  3.862121, -1.404923 )     2.18772694
  WF centre and spread   15  ( -1.263916,  0.024720, -3.183526 )     2.19820157
  WF centre and spread   16  (  1.263911, -0.024723,  3.183523 )     2.19818853
  WF centre and spread   17  ( -1.133460, -2.864320,  3.822600 )     2.07318322
  WF centre and spread   18  (  1.133459,  2.864329, -3.822609 )     2.07318972
  WF centre and spread   19  (  1.134841, -0.346872,  3.441745 )     2.57912496
  WF centre and spread   20  (  1.138280,  3.488897,  1.143131 )     2.58117154
  WF centre and spread   21  ( -1.134841,  0.346873, -3.441738 )     2.57910521
  WF centre and spread   22  ( -1.138286, -3.488896, -1.143097 )     2.58125147
  WF centre and spread   23  (  1.138088, -0.970843, -0.763894 )     2.07101404
  WF centre and spread   24  ( -1.138564,  0.973668,  0.766496 )     2.06951634
  Sum of centres and spreads (  0.000012,  0.000051,  0.000031 )    56.94071515
 
    496    -0.362E-04     0.0089088287       56.9407097095       7.95  <-- CONV
        O_D=      0.0109097 O_OD=      1.5900898 O_TOT=     56.9407097 <-- SPRD
 Delta: O_D= -0.3346340E-05 O_OD= -0.3287165E-04 O_TOT= -0.3621799E-04 <-- DLTA
 ------------------------------------------------------------------------------
 Cycle:    497
  WF centre and spread    1  ( -0.913317,  1.179735,  0.581315 )     2.59085928
  WF centre and spread    2  (  0.913975, -1.181956, -0.583636 )     2.58978222
  WF centre and spread    3  ( -1.360894, -2.656997,  4.005501 )     2.59142140
  WF centre and spread    4  (  1.360893,  2.656993, -4.005497 )     2.59142178
  WF centre and spread    5  ( -0.916828, -2.651239,  3.986565 )     2.58508183
  WF centre and spread    6  (  0.916830,  2.651236, -3.986561 )     2.58508213
  WF centre and spread    7  ( -1.011091,  3.847537, -1.398683 )     2.21683347
  WF centre and spread    8  (  1.011076, -3.847538,  1.398678 )     2.21685751
  WF centre and spread    9  (  1.012142, -0.013382,  3.184685 )     2.20858844
  WF centre and spread   10  ( -1.012135,  0.013384, -3.184687 )     2.20859440
  WF centre and spread   11  (  1.358821, -1.181904, -0.594451 )     2.58816930
  WF centre and spread   12  ( -1.358986,  1.181348,  0.594185 )     2.58855595
  WF centre and spread   13  (  1.261435, -3.862104,  1.404910 )     2.18777902
  WF centre and spread   14  ( -1.261423,  3.862112, -1.404922 )     2.18773571
  WF centre and spread   15  ( -1.263915,  0.024713, -3.183513 )     2.19816233
  WF centre and spread   16  (  1.263910, -0.024716,  3.183510 )     2.19814830
  WF centre and spread   17  ( -1.133473, -2.864316,  3.822584 )     2.07316076
  WF centre and spread   18  (  1.133472,  2.864324, -3.822593 )     2.07316742
  WF centre and spread   19  (  1.134855, -0.346873,  3.441757 )     2.57915482
  WF centre and spread   20  (  1.138277,  3.488898,  1.143123 )     2.58120010
  WF centre and spread   21  ( -1.134855,  0.346874, -3.441749 )     2.57913428
  WF centre and spread   22  ( -1.138283, -3.488898, -1.143090 )     2.58128124
  WF centre and spread   23  (  1.138085, -0.970853, -0.763905 )     2.07100445
  WF centre and spread   24  ( -1.138559,  0.973673,  0.766504 )     2.06950881
  Sum of centres and spreads (  0.000012,  0.000051,  0.000031 )    56.94068493
 
    497    -0.302E-04     0.0087936185       56.9406794897       7.97  <-- CONV
        O_D=      0.0109085 O_OD=      1.5900609 O_TOT=     56.9406795 <-- SPRD
 Delta: O_D= -0.1277412E-05 O_OD= -0.2894232E-04 O_TOT= -0.3021973E-04 <-- DLTA
 ------------------------------------------------------------------------------
 Cycle:    498
  WF centre and spread    1  ( -0.913317,  1.179735,  0.581338 )     2.59085785
  WF centre and spread    2  (  0.913973, -1.181948, -0.583654 )     2.58978387
  WF centre and spread    3  ( -1.360892, -2.656987,  4.005473 )     2.59141705
  WF centre and spread    4  (  1.360891,  2.656983, -4.005468 )     2.59141745
  WF centre and spread    5  ( -0.916811, -2.651256,  3.986616 )     2.58510951
  WF centre and spread    6  (  0.916813,  2.651252, -3.986611 )     2.58510988
  WF centre and spread    7  ( -1.011085,  3.847551, -1.398695 )     2.21678633
  WF centre and spread    8  (  1.011070, -3.847553,  1.398689 )     2.21681047
  WF centre and spread    9  (  1.012125, -0.013392,  3.184687 )     2.20858740
  WF centre and spread   10  ( -1.012118,  0.013394, -3.184689 )     2.20859376
  WF centre and spread   11  (  1.358828, -1.181899, -0.594418 )     2.58817916
  WF centre and spread   12  ( -1.358994,  1.181342,  0.594151 )     2.58856621
  WF centre and spread   13  (  1.261445, -3.862092,  1.404909 )     2.18778867
  WF centre and spread   14  ( -1.261433,  3.862100, -1.404921 )     2.18774532
  WF centre and spread   15  ( -1.263913,  0.024703, -3.183496 )     2.19810782
  WF centre and spread   16  (  1.263909, -0.024706,  3.183493 )     2.19809324
  WF centre and spread   17  ( -1.133491, -2.864309,  3.822562 )     2.07313120
  WF centre and spread   18  (  1.133490,  2.864317, -3.822571 )     2.07313799
  WF centre and spread   19  (  1.134874, -0.346874,  3.441773 )     2.57920082
  WF centre and spread   20  (  1.138273,  3.488901,  1.143113 )     2.58123681
  WF centre and spread   21  ( -1.134874,  0.346874, -3.441766 )     2.57918028
  WF centre and spread   22  ( -1.138279, -3.488900, -1.143079 )     2.58131839
  WF centre and spread   23  (  1.138080, -0.970867, -0.763921 )     2.07099293
  WF centre and spread   24  ( -1.138552,  0.973680,  0.766515 )     2.06949981
  Sum of centres and spreads (  0.000012,  0.000051,  0.000031 )    56.94065222
 
    498    -0.327E-04     0.0085149193       56.9406467801       7.98  <-- CONV
        O_D=      0.0109084 O_OD=      1.5900282 O_TOT=     56.9406468 <-- SPRD
 Delta: O_D= -0.5272643E-07 O_OD= -0.3265692E-04 O_TOT= -0.3270964E-04 <-- DLTA
 ------------------------------------------------------------------------------
 Cycle:    499
  WF centre and spread    1  ( -0.913317,  1.179734,  0.581341 )     2.59085675
  WF centre and spread    2  (  0.913973, -1.181947, -0.583655 )     2.58978306
  WF centre and spread    3  ( -1.360892, -2.656986,  4.005470 )     2.59141546
  WF centre and spread    4  (  1.360891,  2.656982, -4.005466 )     2.59141580
  WF centre and spread    5  ( -0.916810, -2.651257,  3.986621 )     2.58511132
  WF centre and spread    6  (  0.916811,  2.651254, -3.986616 )     2.58511157
  WF centre and spread    7  ( -1.011085,  3.847553, -1.398696 )     2.21678047
  WF centre and spread    8  (  1.011070, -3.847554,  1.398690 )     2.21680446
  WF centre and spread    9  (  1.012123, -0.013393,  3.184687 )     2.20858566
  WF centre and spread   10  ( -1.012116,  0.013395, -3.184689 )     2.20859172
  WF centre and spread   11  (  1.358829, -1.181899, -0.594415 )     2.58817904
  WF centre and spread   12  ( -1.358995,  1.181341,  0.594147 )     2.58856610
  WF centre and spread   13  (  1.261445, -3.862090,  1.404909 )     2.18778730
  WF centre and spread   14  ( -1.261434,  3.862099, -1.404921 )     2.18774407
  WF centre and spread   15  ( -1.263913,  0.024702, -3.183494 )     2.19810050
  WF centre and spread   16  (  1.263908, -0.024705,  3.183491 )     2.19808633
  WF centre and spread   17  ( -1.133493, -2.864308,  3.822560 )     2.07312751
  WF centre and spread   18  (  1.133492,  2.864317, -3.822568 )     2.07313415
  WF centre and spread   19  (  1.134876, -0.346874,  3.441775 )     2.57920681
  WF centre and spread   20  (  1.138272,  3.488901,  1.143112 )     2.58123815
  WF centre and spread   21  ( -1.134876,  0.346874, -3.441768 )     2.57918641
  WF centre and spread   22  ( -1.138279, -3.488900, -1.143078 )     2.58131887
  WF centre and spread   23  (  1.138079, -0.970868, -0.763922 )     2.07099066
  WF centre and spread   24  ( -1.138551,  0.973681,  0.766516 )     2.06949762
  Sum of centres and spreads (  0.000012,  0.000051,  0.000031 )    56.94061978
 
    499    -0.324E-04     0.0120168326       56.9406143397       8.00  <-- CONV
        O_D=      0.0109075 O_OD=      1.5899967 O_TOT=     56.9406143 <-- SPRD
 Delta: O_D= -0.9603420E-06 O_OD= -0.3148002E-04 O_TOT= -0.3244037E-04 <-- DLTA
 ------------------------------------------------------------------------------
 Cycle:    500
  WF centre and spread    1  ( -0.913317,  1.179734,  0.581348 )     2.59085586
  WF centre and spread    2  (  0.913972, -1.181944, -0.583661 )     2.58978308
  WF centre and spread    3  ( -1.360892, -2.656983,  4.005462 )     2.59141331
  WF centre and spread    4  (  1.360891,  2.656979, -4.005457 )     2.59141357
  WF centre and spread    5  ( -0.916805, -2.651262,  3.986635 )     2.58511894
  WF centre and spread    6  (  0.916807,  2.651259, -3.986631 )     2.58511891
  WF centre and spread    7  ( -1.011084,  3.847557, -1.398699 )     2.21676664
  WF centre and spread    8  (  1.011069, -3.847558,  1.398693 )     2.21679037
  WF centre and spread    9  (  1.012119, -0.013396,  3.184687 )     2.20858365
  WF centre and spread   10  ( -1.012112,  0.013397, -3.184689 )     2.20858908
  WF centre and spread   11  (  1.358831, -1.181897, -0.594406 )     2.58818098
  WF centre and spread   12  ( -1.358997,  1.181339,  0.594138 )     2.58856804
  WF centre and spread   13  (  1.261448, -3.862087,  1.404909 )     2.18778621
  WF centre and spread   14  ( -1.261436,  3.862095, -1.404921 )     2.18774303
  WF centre and spread   15  ( -1.263912,  0.024699, -3.183488 )     2.19808268
  WF centre and spread   16  (  1.263908, -0.024702,  3.183485 )     2.19806942
  WF centre and spread   17  ( -1.133498, -2.864306,  3.822553 )     2.07311924
  WF centre and spread   18  (  1.133497,  2.864315, -3.822562 )     2.07312570
  WF centre and spread   19  (  1.134881, -0.346873,  3.441780 )     2.57922500
  WF centre and spread   20  (  1.138271,  3.488901,  1.143109 )     2.58124471
  WF centre and spread   21  ( -1.134881,  0.346874, -3.441773 )     2.57920547
  WF centre and spread   22  ( -1.138278, -3.488901, -1.143076 )     2.58132385
  WF centre and spread   23  (  1.138078, -0.970872, -0.763927 )     2.07098748
  WF centre and spread   24  ( -1.138549,  0.973683,  0.766518 )     2.06949478
  Sum of centres and spreads (  0.000012,  0.000051,  0.000031 )    56.94059000
 
    500    -0.298E-04     0.0084669302       56.9405845586       8.01  <-- CONV
        O_D=      0.0109079 O_OD=      1.5899665 O_TOT=     56.9405846 <-- SPRD
 Delta: O_D=  0.4683570E-06 O_OD= -0.3024947E-04 O_TOT= -0.2978111E-04 <-- DLTA
 ------------------------------------------------------------------------------

 Writing checkpoint file mp-23291.chk... done

 Final State
  WF centre and spread    1  ( -0.913317,  1.179734,  0.581348 )     2.59085586
  WF centre and spread    2  (  0.913972, -1.181944, -0.583661 )     2.58978308
  WF centre and spread    3  ( -1.360892, -2.656983,  4.005462 )     2.59141331
  WF centre and spread    4  (  1.360891,  2.656979, -4.005457 )     2.59141357
  WF centre and spread    5  ( -0.916805, -2.651262,  3.986635 )     2.58511894
  WF centre and spread    6  (  0.916807,  2.651259, -3.986631 )     2.58511891
  WF centre and spread    7  ( -1.011084,  3.847557, -1.398699 )     2.21676664
  WF centre and spread    8  (  1.011069, -3.847558,  1.398693 )     2.21679037
  WF centre and spread    9  (  1.012119, -0.013396,  3.184687 )     2.20858365
  WF centre and spread   10  ( -1.012112,  0.013397, -3.184689 )     2.20858908
  WF centre and spread   11  (  1.358831, -1.181897, -0.594406 )     2.58818098
  WF centre and spread   12  ( -1.358997,  1.181339,  0.594138 )     2.58856804
  WF centre and spread   13  (  1.261448, -3.862087,  1.404909 )     2.18778621
  WF centre and spread   14  ( -1.261436,  3.862095, -1.404921 )     2.18774303
  WF centre and spread   15  ( -1.263912,  0.024699, -3.183488 )     2.19808268
  WF centre and spread   16  (  1.263908, -0.024702,  3.183485 )     2.19806942
  WF centre and spread   17  ( -1.133498, -2.864306,  3.822553 )     2.07311924
  WF centre and spread   18  (  1.133497,  2.864315, -3.822562 )     2.07312570
  WF centre and spread   19  (  1.134881, -0.346873,  3.441780 )     2.57922500
  WF centre and spread   20  (  1.138271,  3.488901,  1.143109 )     2.58124471
  WF centre and spread   21  ( -1.134881,  0.346874, -3.441773 )     2.57920547
  WF centre and spread   22  ( -1.138278, -3.488901, -1.143076 )     2.58132385
  WF centre and spread   23  (  1.138078, -0.970872, -0.763927 )     2.07098748
  WF centre and spread   24  ( -1.138549,  0.973683,  0.766518 )     2.06949478
  Sum of centres and spreads (  0.000012,  0.000051,  0.000031 )    56.94059000
 
         Spreads (Ang^2)       Omega I      =    55.339710154
        ================       Omega D      =     0.010907920
                               Omega OD     =     1.589966485
    Final Spread (Ang^2)       Omega Total  =    56.940584559
 ------------------------------------------------------------------------------
 Time for wannierise            8.018 (sec)

 Writing checkpoint file mp-23291.chk... done

 Time for plotting              0.000 (sec)
 Total Execution Time           9.086 (sec)

 *===========================================================================*
 |                             TIMING INFORMATION                            |
 *===========================================================================*
 |    Tag                                                Ncalls      Time (s)|
 |---------------------------------------------------------------------------|
 |kmesh: get                                        :         1         0.154|
 |overlap: allocate                                 :         1         0.006|
 |overlap: read                                     :         1         0.875|
 |wann: main                                        :         1         8.018|
 |plot: main                                        :         1         0.000|
 *---------------------------------------------------------------------------*
 
 All done: wannier90 exiting
