
     Program PWSCF v.7.1 starts on  8Apr2024 at 15:31:10 

     This program is part of the open-source Quantum ESPRESSO suite
     for quantum simulation of materials; please cite
         "P. Giannozzi et al., J. Phys.:Condens. Matter 21 395502 (2009);
         "P. Giannozzi et al., J. Phys.:Condens. Matter 29 465901 (2017);
         "P. Giannozzi et al., J. Chem. Phys. 152 154105 (2020);
          URL http://www.quantum-espresso.org", 
     in publications or presentations arising from this work. More details at
     http://www.quantum-espresso.org/quote

     Parallel version (MPI), running on    16 processors

     MPI processes distributed on     1 nodes
     247667 MiB available memory on the printing compute node when the environment starts
 
     Reading input from pw_mp-23291_nscf_k3000_E65.in
Warning: card &IONS ignored
Warning: card / ignored
Warning: card &CELL ignored
Warning: card / ignored

     Current dimensions of program PWSCF are:
     Max number of different atomic species (ntypx) = 10
     Max number of k-points (npk) =  40000
     Max angular momentum in pseudopotentials (lmaxx) =  4

     Atomic positions and unit cell read from directory:
     out/mp-23291.save/
     Atomic positions from file used, from input discarded
 
 
     R & G space division:  proc/nbgrp/npool/nimage =      16
     Subspace diagonalization in iterative solution of the eigenvalue problem:
     a serial algorithm will be used

 
     Parallelization info
     --------------------
     sticks:   dense  smooth     PW     G-vecs:    dense   smooth      PW
     Min         161     161     48                 9551     9551    1580
     Max         162     162     49                 9556     9556    1585
     Sum        2579    2579    777               152827   152827   25321
 
     Using Slab Decomposition
 


     bravais-lattice index     =            8
     lattice parameter (alat)  =       8.5945  a.u.
     unit-cell volume          =    2159.3465 (a.u.)^3
     number of atoms/cell      =           12
     number of atomic types    =            2
     number of electrons       =       112.00
     number of Kohn-Sham states=          112
     kinetic-energy cutoff     =      65.0000  Ry
     charge density cutoff     =     260.0000  Ry
     Exchange-correlation= PBE
                           (   1   4   3   4   0   0   0)

     celldm(1)=   8.594524  celldm(2)=   1.686778  celldm(3)=   2.016503
     celldm(4)=   0.000000  celldm(5)=   0.000000  celldm(6)=   0.000000

     crystal axes: (cart. coord. in units of alat)
               a(1) = (   1.000000   0.000000   0.000000 )  
               a(2) = (   0.000000   1.686778   0.000000 )  
               a(3) = (   0.000000   0.000000   2.016503 )  

     reciprocal axes: (cart. coord. in units 2 pi/alat)
               b(1) = (  1.000000  0.000000  0.000000 )  
               b(2) = (  0.000000  0.592846  0.000000 )  
               b(3) = (  0.000000  0.000000  0.495908 )  


     PseudoPot. # 1 for Cl read from file:
     /usr/scratch4/magr4826/Promotion/Python/Code/devEb/pseudo/SG15/Cl.upf
     MD5 check sum: 0f993535b366f580ecbcdacce103c843
     Pseudo is Norm-conserving, Zval =  7.0
     Generated using ONCVPSP code by D. R. Hamann
     Using radial grid of  602 points,  4 beta functions with: 
                l(1) =   0
                l(2) =   0
                l(3) =   1
                l(4) =   1

     PseudoPot. # 2 for Pb read from file:
     /usr/scratch4/magr4826/Promotion/Python/Code/devEb/pseudo/SG15/Pb.upf
     MD5 check sum: 7f27c247474026287e0dbe0f3167d60b
     Pseudo is Norm-conserving, Zval = 14.0
     Generated using ONCVPSP code by D. R. Hamann
     Using radial grid of  602 points,  8 beta functions with: 
                l(1) =   0
                l(2) =   0
                l(3) =   1
                l(4) =   1
                l(5) =   2
                l(6) =   2
                l(7) =   3
                l(8) =   3

     atomic species   valence    mass     pseudopotential
        Cl             7.00    35.45300     Cl( 1.00)
        Pb            14.00   207.20000     Pb( 1.00)

     No symmetry found



   Cartesian axes

     site n.     atom                  positions (alat units)
         1           Pb  tau(   1) = (   0.2500000   0.4447236   1.8339008  )
         2           Pb  tau(   2) = (   0.7500001   1.2420547   0.1826025  )
         3           Pb  tau(   3) = (   0.2500000   1.2881128   1.1908541  )
         4           Pb  tau(   4) = (   0.7500001   0.3986655   0.8256492  )
         5           Cl  tau(   5) = (   0.2500000   0.8143243   0.3178971  )
         6           Cl  tau(   6) = (   0.7500001   0.8724541   1.6986062  )
         7           Cl  tau(   7) = (   0.2500000   1.6577134   0.6903546  )
         8           Cl  tau(   8) = (   0.7500001   0.0290649   1.3261487  )
         9           Cl  tau(   9) = (   0.7500001   1.0820031   0.8522280  )
        10           Cl  tau(  10) = (   0.2500000   0.6047752   1.1642753  )
        11           Cl  tau(  11) = (   0.7500001   0.2386139   0.1560237  )
        12           Cl  tau(  12) = (   0.2500000   1.4481644   1.8604796  )

     number of k points=   240  Gaussian smearing, width (Ry)=  0.0005

     Number of k-points >= 100: set verbosity='high' to print them.

     Dense  grid:   152827 G-vectors     FFT dimensions: (  45,  75,  90)

     Estimated max dynamical RAM per process >     515.29 MB

     Estimated total dynamical RAM >       8.05 GB

     The potential is recalculated from file :
     out/mp-23291.save/charge-density

     Starting wfcs are random

     Band Structure Calculation
     Davidson diagonalization with overlap

     ethr =  5.00E-06,  avg # of iterations = 32.9

     total cpu time spent up to now is      276.9 secs

     End of band structure calculation

     Number of k-points >= 100: set verbosity='high' to print the bands.

     the Fermi energy is     5.9405 ev
     (compare with:     5.9404 eV, computed in scf)

     Writing all to output data dir out/mp-23291.save/
 
     init_run     :      0.19s CPU      0.24s WALL (       1 calls)
     electrons    :    271.58s CPU    276.06s WALL (       1 calls)

     Called by init_run:
     wfcinit      :      0.00s CPU      0.00s WALL (       1 calls)
     potinit      :      0.03s CPU      0.06s WALL (       1 calls)
     hinit0       :      0.11s CPU      0.12s WALL (       1 calls)

     Called by electrons:
     c_bands      :    271.58s CPU    276.06s WALL (       1 calls)
     v_of_rho     :      0.02s CPU      0.02s WALL (       1 calls)

     Called by c_bands:
     init_us_2    :      0.10s CPU      0.14s WALL (     240 calls)
     init_us_2:cp :      0.10s CPU      0.14s WALL (     240 calls)
     cegterg      :    258.19s CPU    261.32s WALL (     495 calls)

     Called by *egterg:
     cdiaghg      :     72.96s CPU     73.46s WALL (    8124 calls)
     h_psi        :    132.65s CPU    134.71s WALL (    8619 calls)
     g_psi        :      0.88s CPU      0.89s WALL (    7884 calls)

     Called by h_psi:
     h_psi:calbec :     11.91s CPU     12.01s WALL (    8619 calls)
     vloc_psi     :    108.33s CPU    109.96s WALL (    8619 calls)
     add_vuspsi   :     11.47s CPU     11.51s WALL (    8619 calls)

     General routines
     calbec       :     11.89s CPU     12.00s WALL (    8619 calls)
     fft          :      0.01s CPU      0.02s WALL (      10 calls)
     fftw         :    100.15s CPU    101.64s WALL (  859200 calls)
 
     Parallel routines
 
     PWSCF        :   4m40.15s CPU   4m57.03s WALL

 
   This run was terminated on:  15:36: 7   8Apr2024            

=------------------------------------------------------------------------------=
   JOB DONE.
=------------------------------------------------------------------------------=
