<?xml version="1.0" encoding="ISO-8859-1"?>
<modeling>
 <generator>
  <i name="program" type="string">vasp </i>
  <i name="version" type="string">5.4.4.18Apr17-6-g9f103f2a35  </i>
  <i name="subversion" type="string">(build Aug 24 2017 11:22:49) complex            parallel </i>
  <i name="platform" type="string">LinuxIFC </i>
  <i name="date" type="string">2023 12 25 </i>
  <i name="time" type="string">13:07:54 </i>
 </generator>
 <incar>
  <i type="string" name="PREC">accurate</i>
  <i type="string" name="ALGO"> Normal</i>
  <i type="int" name="NELM">   100</i>
  <i type="int" name="IBRION">     8</i>
  <i name="EDIFF">      0.00000001</i>
  <i name="SYMPREC">      0.00000001</i>
  <i name="ENCUT">    520.00000000</i>
  <i type="logical" name="LREAL"> F  </i>
  <i type="int" name="ISMEAR">     0</i>
  <i name="SIGMA">      0.01000000</i>
  <i type="logical" name="LWAVE"> F  </i>
  <v type="int" name="KPOINT_BSE">    -1     0     0     0</v>
  <i type="int" name="NELM">   100</i>
  <i type="logical" name="LPEAD"> T  </i>
  <i type="logical" name="LEPSILON"> T  </i>
 </incar>
 <structure name="primitive_cell" >
  <crystal>
   <varray name="basis" >
    <v>       4.74311129       0.00000000       0.00000000 </v>
    <v>       0.00000000       8.13019127       0.00000000 </v>
    <v>       0.00000000       0.00000000       9.87943770 </v>
   </varray>
   <i name="volume">    380.97484763 </i>
   <varray name="rec_basis" >
    <v>       0.21083208       0.00000000       0.00000000 </v>
    <v>       0.00000000       0.12299834       0.00000000 </v>
    <v>       0.00000000       0.00000000       0.10122034 </v>
   </varray>
  </crystal>
  <varray name="positions" >
   <v>       0.25000002       0.23348407       0.42250843 </v>
   <v>       0.25000002       0.00905653      -0.34381562 </v>
   <v>      -0.24999994       0.35872167      -0.41377093 </v>
   <v>      -0.24999994      -0.00905645       0.34381570 </v>
   <v>       0.25000002      -0.35872159       0.41377101 </v>
   <v>       0.25000002       0.14127837       0.08622903 </v>
   <v>      -0.24999994       0.49094351       0.15618434 </v>
   <v>       0.25000002      -0.49094343      -0.15618427 </v>
   <v>      -0.24999994      -0.23348399      -0.42250836 </v>
   <v>       0.25000002      -0.26651589       0.07749161 </v>
   <v>      -0.24999994       0.26651597      -0.07749153 </v>
   <v>      -0.24999994      -0.14127829      -0.08622895 </v>
  </varray>
 </structure>
 <varray name="primitive_index" >
  <v type="int" >        1 </v>
  <v type="int" >        5 </v>
  <v type="int" >       11 </v>
  <v type="int" >        6 </v>
  <v type="int" >       12 </v>
  <v type="int" >       10 </v>
  <v type="int" >        8 </v>
  <v type="int" >        7 </v>
  <v type="int" >        2 </v>
  <v type="int" >        3 </v>
  <v type="int" >        4 </v>
  <v type="int" >        9 </v>
 </varray>
 <kpoints>
  <generation param="Gamma">
   <v type="int" name="divisions">      10        6        4 </v>
   <v name="usershift">      0.00000000       0.00000000       0.00000000 </v>
   <v name="genvec1">      0.10000000       0.00000000       0.00000000 </v>
   <v name="genvec2">      0.00000000       0.16666667       0.00000000 </v>
   <v name="genvec3">      0.00000000       0.00000000       0.25000000 </v>
   <v name="shift">      0.00000000       0.00000000       0.00000000 </v>
  </generation>
  <varray name="kpointlist" >
   <v>       0.00000000       0.00000000       0.00000000 </v>
   <v>       0.10000000       0.00000000       0.00000000 </v>
   <v>       0.20000000       0.00000000       0.00000000 </v>
   <v>       0.30000000       0.00000000       0.00000000 </v>
   <v>       0.40000000       0.00000000       0.00000000 </v>
   <v>       0.50000000       0.00000000       0.00000000 </v>
   <v>       0.00000000       0.16666667       0.00000000 </v>
   <v>       0.10000000       0.16666667       0.00000000 </v>
   <v>       0.20000000       0.16666667       0.00000000 </v>
   <v>       0.30000000       0.16666667       0.00000000 </v>
   <v>       0.40000000       0.16666667       0.00000000 </v>
   <v>       0.50000000       0.16666667       0.00000000 </v>
   <v>      -0.40000000       0.16666667       0.00000000 </v>
   <v>      -0.30000000       0.16666667       0.00000000 </v>
   <v>      -0.20000000       0.16666667       0.00000000 </v>
   <v>      -0.10000000       0.16666667       0.00000000 </v>
   <v>       0.00000000       0.33333333       0.00000000 </v>
   <v>       0.10000000       0.33333333       0.00000000 </v>
   <v>       0.20000000       0.33333333       0.00000000 </v>
   <v>       0.30000000       0.33333333       0.00000000 </v>
   <v>       0.40000000       0.33333333       0.00000000 </v>
   <v>       0.50000000       0.33333333       0.00000000 </v>
   <v>      -0.40000000       0.33333333       0.00000000 </v>
   <v>      -0.30000000       0.33333333       0.00000000 </v>
   <v>      -0.20000000       0.33333333       0.00000000 </v>
   <v>      -0.10000000       0.33333333       0.00000000 </v>
   <v>       0.00000000       0.50000000       0.00000000 </v>
   <v>       0.10000000       0.50000000       0.00000000 </v>
   <v>       0.20000000       0.50000000       0.00000000 </v>
   <v>       0.30000000       0.50000000       0.00000000 </v>
   <v>       0.40000000       0.50000000       0.00000000 </v>
   <v>       0.50000000       0.50000000       0.00000000 </v>
   <v>       0.00000000       0.00000000       0.25000000 </v>
   <v>       0.10000000       0.00000000       0.25000000 </v>
   <v>       0.20000000       0.00000000       0.25000000 </v>
   <v>       0.30000000       0.00000000       0.25000000 </v>
   <v>       0.40000000       0.00000000       0.25000000 </v>
   <v>       0.50000000       0.00000000       0.25000000 </v>
   <v>      -0.40000000       0.00000000       0.25000000 </v>
   <v>      -0.30000000       0.00000000       0.25000000 </v>
   <v>      -0.20000000       0.00000000       0.25000000 </v>
   <v>      -0.10000000       0.00000000       0.25000000 </v>
   <v>       0.00000000       0.16666667       0.25000000 </v>
   <v>       0.10000000       0.16666667       0.25000000 </v>
   <v>       0.20000000       0.16666667       0.25000000 </v>
   <v>       0.30000000       0.16666667       0.25000000 </v>
   <v>       0.40000000       0.16666667       0.25000000 </v>
   <v>       0.50000000       0.16666667       0.25000000 </v>
   <v>      -0.40000000       0.16666667       0.25000000 </v>
   <v>      -0.30000000       0.16666667       0.25000000 </v>
   <v>      -0.20000000       0.16666667       0.25000000 </v>
   <v>      -0.10000000       0.16666667       0.25000000 </v>
   <v>       0.00000000       0.33333333       0.25000000 </v>
   <v>       0.10000000       0.33333333       0.25000000 </v>
   <v>       0.20000000       0.33333333       0.25000000 </v>
   <v>       0.30000000       0.33333333       0.25000000 </v>
   <v>       0.40000000       0.33333333       0.25000000 </v>
   <v>       0.50000000       0.33333333       0.25000000 </v>
   <v>      -0.40000000       0.33333333       0.25000000 </v>
   <v>      -0.30000000       0.33333333       0.25000000 </v>
   <v>      -0.20000000       0.33333333       0.25000000 </v>
   <v>      -0.10000000       0.33333333       0.25000000 </v>
   <v>       0.00000000       0.50000000       0.25000000 </v>
   <v>       0.10000000       0.50000000       0.25000000 </v>
   <v>       0.20000000       0.50000000       0.25000000 </v>
   <v>       0.30000000       0.50000000       0.25000000 </v>
   <v>       0.40000000       0.50000000       0.25000000 </v>
   <v>       0.50000000       0.50000000       0.25000000 </v>
   <v>      -0.40000000       0.50000000       0.25000000 </v>
   <v>      -0.30000000       0.50000000       0.25000000 </v>
   <v>      -0.20000000       0.50000000       0.25000000 </v>
   <v>      -0.10000000       0.50000000       0.25000000 </v>
   <v>       0.00000000      -0.33333333       0.25000000 </v>
   <v>       0.10000000      -0.33333333       0.25000000 </v>
   <v>       0.20000000      -0.33333333       0.25000000 </v>
   <v>       0.30000000      -0.33333333       0.25000000 </v>
   <v>       0.40000000      -0.33333333       0.25000000 </v>
   <v>       0.50000000      -0.33333333       0.25000000 </v>
   <v>      -0.40000000      -0.33333333       0.25000000 </v>
   <v>      -0.30000000      -0.33333333       0.25000000 </v>
   <v>      -0.20000000      -0.33333333       0.25000000 </v>
   <v>      -0.10000000      -0.33333333       0.25000000 </v>
   <v>       0.00000000      -0.16666667       0.25000000 </v>
   <v>       0.10000000      -0.16666667       0.25000000 </v>
   <v>       0.20000000      -0.16666667       0.25000000 </v>
   <v>       0.30000000      -0.16666667       0.25000000 </v>
   <v>       0.40000000      -0.16666667       0.25000000 </v>
   <v>       0.50000000      -0.16666667       0.25000000 </v>
   <v>      -0.40000000      -0.16666667       0.25000000 </v>
   <v>      -0.30000000      -0.16666667       0.25000000 </v>
   <v>      -0.20000000      -0.16666667       0.25000000 </v>
   <v>      -0.10000000      -0.16666667       0.25000000 </v>
   <v>       0.00000000       0.00000000       0.50000000 </v>
   <v>       0.10000000       0.00000000       0.50000000 </v>
   <v>       0.20000000       0.00000000       0.50000000 </v>
   <v>       0.30000000       0.00000000       0.50000000 </v>
   <v>       0.40000000       0.00000000       0.50000000 </v>
   <v>       0.50000000       0.00000000       0.50000000 </v>
   <v>       0.00000000       0.16666667       0.50000000 </v>
   <v>       0.10000000       0.16666667       0.50000000 </v>
   <v>       0.20000000       0.16666667       0.50000000 </v>
   <v>       0.30000000       0.16666667       0.50000000 </v>
   <v>       0.40000000       0.16666667       0.50000000 </v>
   <v>       0.50000000       0.16666667       0.50000000 </v>
   <v>      -0.40000000       0.16666667       0.50000000 </v>
   <v>      -0.30000000       0.16666667       0.50000000 </v>
   <v>      -0.20000000       0.16666667       0.50000000 </v>
   <v>      -0.10000000       0.16666667       0.50000000 </v>
   <v>       0.00000000       0.33333333       0.50000000 </v>
   <v>       0.10000000       0.33333333       0.50000000 </v>
   <v>       0.20000000       0.33333333       0.50000000 </v>
   <v>       0.30000000       0.33333333       0.50000000 </v>
   <v>       0.40000000       0.33333333       0.50000000 </v>
   <v>       0.50000000       0.33333333       0.50000000 </v>
   <v>      -0.40000000       0.33333333       0.50000000 </v>
   <v>      -0.30000000       0.33333333       0.50000000 </v>
   <v>      -0.20000000       0.33333333       0.50000000 </v>
   <v>      -0.10000000       0.33333333       0.50000000 </v>
   <v>       0.00000000       0.50000000       0.50000000 </v>
   <v>       0.10000000       0.50000000       0.50000000 </v>
   <v>       0.20000000       0.50000000       0.50000000 </v>
   <v>       0.30000000       0.50000000       0.50000000 </v>
   <v>       0.40000000       0.50000000       0.50000000 </v>
   <v>       0.50000000       0.50000000       0.50000000 </v>
  </varray>
  <varray name="weights" >
   <v>       0.00416667 </v>
   <v>       0.00833333 </v>
   <v>       0.00833333 </v>
   <v>       0.00833333 </v>
   <v>       0.00833333 </v>
   <v>       0.00416667 </v>
   <v>       0.00833333 </v>
   <v>       0.00833333 </v>
   <v>       0.00833333 </v>
   <v>       0.00833333 </v>
   <v>       0.00833333 </v>
   <v>       0.00833333 </v>
   <v>       0.00833333 </v>
   <v>       0.00833333 </v>
   <v>       0.00833333 </v>
   <v>       0.00833333 </v>
   <v>       0.00833333 </v>
   <v>       0.00833333 </v>
   <v>       0.00833333 </v>
   <v>       0.00833333 </v>
   <v>       0.00833333 </v>
   <v>       0.00833333 </v>
   <v>       0.00833333 </v>
   <v>       0.00833333 </v>
   <v>       0.00833333 </v>
   <v>       0.00833333 </v>
   <v>       0.00416667 </v>
   <v>       0.00833333 </v>
   <v>       0.00833333 </v>
   <v>       0.00833333 </v>
   <v>       0.00833333 </v>
   <v>       0.00416667 </v>
   <v>       0.00833333 </v>
   <v>       0.00833333 </v>
   <v>       0.00833333 </v>
   <v>       0.00833333 </v>
   <v>       0.00833333 </v>
   <v>       0.00833333 </v>
   <v>       0.00833333 </v>
   <v>       0.00833333 </v>
   <v>       0.00833333 </v>
   <v>       0.00833333 </v>
   <v>       0.00833333 </v>
   <v>       0.00833333 </v>
   <v>       0.00833333 </v>
   <v>       0.00833333 </v>
   <v>       0.00833333 </v>
   <v>       0.00833333 </v>
   <v>       0.00833333 </v>
   <v>       0.00833333 </v>
   <v>       0.00833333 </v>
   <v>       0.00833333 </v>
   <v>       0.00833333 </v>
   <v>       0.00833333 </v>
   <v>       0.00833333 </v>
   <v>       0.00833333 </v>
   <v>       0.00833333 </v>
   <v>       0.00833333 </v>
   <v>       0.00833333 </v>
   <v>       0.00833333 </v>
   <v>       0.00833333 </v>
   <v>       0.00833333 </v>
   <v>       0.00833333 </v>
   <v>       0.00833333 </v>
   <v>       0.00833333 </v>
   <v>       0.00833333 </v>
   <v>       0.00833333 </v>
   <v>       0.00833333 </v>
   <v>       0.00833333 </v>
   <v>       0.00833333 </v>
   <v>       0.00833333 </v>
   <v>       0.00833333 </v>
   <v>       0.00833333 </v>
   <v>       0.00833333 </v>
   <v>       0.00833333 </v>
   <v>       0.00833333 </v>
   <v>       0.00833333 </v>
   <v>       0.00833333 </v>
   <v>       0.00833333 </v>
   <v>       0.00833333 </v>
   <v>       0.00833333 </v>
   <v>       0.00833333 </v>
   <v>       0.00833333 </v>
   <v>       0.00833333 </v>
   <v>       0.00833333 </v>
   <v>       0.00833333 </v>
   <v>       0.00833333 </v>
   <v>       0.00833333 </v>
   <v>       0.00833333 </v>
   <v>       0.00833333 </v>
   <v>       0.00833333 </v>
   <v>       0.00833333 </v>
   <v>       0.00416667 </v>
   <v>       0.00833333 </v>
   <v>       0.00833333 </v>
   <v>       0.00833333 </v>
   <v>       0.00833333 </v>
   <v>       0.00416667 </v>
   <v>       0.00833333 </v>
   <v>       0.00833333 </v>
   <v>       0.00833333 </v>
   <v>       0.00833333 </v>
   <v>       0.00833333 </v>
   <v>       0.00833333 </v>
   <v>       0.00833333 </v>
   <v>       0.00833333 </v>
   <v>       0.00833333 </v>
   <v>       0.00833333 </v>
   <v>       0.00833333 </v>
   <v>       0.00833333 </v>
   <v>       0.00833333 </v>
   <v>       0.00833333 </v>
   <v>       0.00833333 </v>
   <v>       0.00833333 </v>
   <v>       0.00833333 </v>
   <v>       0.00833333 </v>
   <v>       0.00833333 </v>
   <v>       0.00833333 </v>
   <v>       0.00416667 </v>
   <v>       0.00833333 </v>
   <v>       0.00833333 </v>
   <v>       0.00833333 </v>
   <v>       0.00833333 </v>
   <v>       0.00416667 </v>
  </varray>
 </kpoints>
 <parameters>
  <separator name="general" >
   <i type="string" name="SYSTEM">unknown system</i>
   <i type="logical" name="LCOMPAT"> F  </i>
  </separator>
  <separator name="electronic" >
   <i type="string" name="PREC">accura</i>
   <i name="ENMAX">    520.00000000</i>
   <i name="ENAUG">    503.85200000</i>
   <i name="EDIFF">      0.00000001</i>
   <i type="int" name="IALGO">    38</i>
   <i type="int" name="IWAVPR">    11</i>
   <i type="int" name="NBANDS">    72</i>
   <i name="NELECT">    112.00000000</i>
   <i type="int" name="TURBO">     0</i>
   <i type="int" name="IRESTART">     0</i>
   <i type="int" name="NREBOOT">     0</i>
   <i type="int" name="NMIN">     0</i>
   <i name="EREF">      0.00000000</i>
   <separator name="electronic smearing" >
    <i type="int" name="ISMEAR">     0</i>
    <i name="SIGMA">      0.01000000</i>
    <i name="KSPACING">      0.50000000</i>
    <i type="logical" name="KGAMMA"> T  </i>
   </separator>
   <separator name="electronic projectors" >
    <i type="logical" name="LREAL"> F  </i>
    <v name="ROPT">      0.00000000      0.00000000</v>
    <i type="int" name="LMAXPAW">  -100</i>
    <i type="int" name="LMAXMIX">     2</i>
    <i type="logical" name="NLSPLINE"> F  </i>
   </separator>
   <separator name="electronic startup" >
    <i type="int" name="ISTART">     0</i>
    <i type="int" name="ICHARG">     2</i>
    <i type="int" name="INIWAV">     1</i>
   </separator>
   <separator name="electronic spin" >
    <i type="int" name="ISPIN">     1</i>
    <i type="logical" name="LNONCOLLINEAR"> F  </i>
    <v name="MAGMOM">      1.00000000      1.00000000      1.00000000      1.00000000      1.00000000      1.00000000      1.00000000      1.00000000      1.00000000      1.00000000      1.00000000      1.00000000</v>
    <i name="NUPDOWN">     -1.00000000</i>
    <i type="logical" name="LSORBIT"> F  </i>
    <v name="SAXIS">      0.00000000      0.00000000      1.00000000</v>
    <i type="logical" name="LSPIRAL"> F  </i>
    <v name="QSPIRAL">      0.00000000      0.00000000      0.00000000</v>
    <i type="logical" name="LZEROZ"> F  </i>
   </separator>
   <separator name="electronic exchange-correlation" >
    <i type="logical" name="LASPH"> F  </i>
    <i type="logical" name="LMETAGGA"> F  </i>
   </separator>
   <separator name="electronic convergence" >
    <i type="int" name="NELM">   100</i>
    <i type="int" name="NELMDL">    -5</i>
    <i type="int" name="NELMIN">     2</i>
    <i name="ENINI">    520.00000000</i>
    <separator name="electronic convergence detail" >
     <i type="logical" name="LDIAG"> T  </i>
     <i type="logical" name="LSUBROT"> F  </i>
     <i name="WEIMIN">      0.00100000</i>
     <i name="EBREAK">      0.00000000</i>
     <i name="DEPER">      0.30000000</i>
     <i type="int" name="NRMM">     4</i>
     <i name="TIME">      0.40000000</i>
    </separator>
   </separator>
   <separator name="electronic mixer" >
    <i name="AMIX">      0.40000000</i>
    <i name="BMIX">      1.00000000</i>
    <i name="AMIN">      0.10000000</i>
    <i name="AMIX_MAG">      1.60000000</i>
    <i name="BMIX_MAG">      1.00000000</i>
    <separator name="electronic mixer details" >
     <i type="int" name="IMIX">     4</i>
     <i type="logical" name="MIXFIRST"> F  </i>
     <i type="int" name="MAXMIX">   -45</i>
     <i name="WC">    100.00000000</i>
     <i type="int" name="INIMIX">     1</i>
     <i type="int" name="MIXPRE">     1</i>
     <i type="int" name="MREMOVE">     5</i>
    </separator>
   </separator>
   <separator name="electronic dipolcorrection" >
    <i type="logical" name="LDIPOL"> F  </i>
    <i type="logical" name="LMONO"> F  </i>
    <i type="int" name="IDIPOL">     0</i>
    <i name="EPSILON">      1.00000000</i>
    <v name="DIPOL">   -100.00000000   -100.00000000   -100.00000000</v>
    <i name="EFIELD">      0.00000000</i>
   </separator>
  </separator>
  <separator name="grids" >
   <i type="int" name="NGX">    36</i>
   <i type="int" name="NGY">    60</i>
   <i type="int" name="NGZ">    80</i>
   <i type="int" name="NGXF">    72</i>
   <i type="int" name="NGYF">   120</i>
   <i type="int" name="NGZF">   160</i>
   <i type="logical" name="ADDGRID"> F  </i>
  </separator>
  <separator name="ionic" >
   <i type="int" name="NSW">     1</i>
   <i type="int" name="IBRION">     8</i>
   <i type="int" name="MDALGO">     0</i>
   <i type="int" name="ISIF">     2</i>
   <i name="PSTRESS">      0.00000000</i>
   <i name="EDIFFG">      0.00000010</i>
   <i type="int" name="NFREE">     0</i>
   <i name="POTIM">      0.50000000</i>
   <i name="SMASS">     -3.00000000</i>
   <i name="SCALEE">      1.00000000</i>
  </separator>
  <separator name="ionic md" >
   <i name="TEBEG">      0.00010000</i>
   <i name="TEEND">      0.00010000</i>
   <i type="int" name="NBLOCK">     1</i>
   <i type="int" name="KBLOCK">     1</i>
   <i type="int" name="NPACO">   256</i>
   <i name="APACO">     16.00000000</i>
  </separator>
  <separator name="symmetry" >
   <i type="int" name="ISYM">     2</i>
   <i name="SYMPREC">      0.00000001</i>
  </separator>
  <separator name="dos" >
   <i type="int" name="LORBIT">     0</i>
   <v name="RWIGS">     -1.00000000     -1.00000000</v>
   <i type="int" name="NEDOS">   301</i>
   <i name="EMIN">     10.00000000</i>
   <i name="EMAX">    -10.00000000</i>
   <i name="EFERMI">      0.00000000</i>
  </separator>
  <separator name="writing" >
   <i type="int" name="NWRITE">     2</i>
   <i type="logical" name="LWAVE"> F  </i>
   <i type="logical" name="LDOWNSAMPLE"> F  </i>
   <i type="logical" name="LCHARG"> T  </i>
   <i type="logical" name="LPARD"> F  </i>
   <i type="logical" name="LVTOT"> F  </i>
   <i type="logical" name="LVHAR"> F  </i>
   <i type="logical" name="LELF"> F  </i>
   <i type="logical" name="LOPTICS"> F  </i>
   <v name="STM">      0.00000000      0.00000000      0.00000000      0.00000000      0.00000000      0.00000000      0.00000000</v>
  </separator>
  <separator name="performance" >
   <i type="int" name="NPAR">     8</i>
   <i type="int" name="NSIM">     4</i>
   <i type="int" name="NBLK">    -1</i>
   <i type="logical" name="LPLANE"> T  </i>
   <i type="logical" name="LSCALAPACK"> T  </i>
   <i type="logical" name="LSCAAWARE"> F  </i>
   <i type="logical" name="LSCALU"> F  </i>
   <i type="logical" name="LASYNC"> F  </i>
   <i type="logical" name="LORBITALREAL"> F  </i>
  </separator>
  <separator name="miscellaneous" >
   <i type="int" name="IDIOT">     3</i>
   <i type="int" name="ISPECIAL">     0</i>
   <i type="logical" name="LMUSIC"> F  </i>
   <v name="POMASS">    207.20000000     79.90400000</v>
   <v name="DARWINR">      0.00000000      0.00000000</v>
   <v name="DARWINV">      1.00000000      1.00000000</v>
   <i type="logical" name="LCORR"> T  </i>
  </separator>
  <i type="logical" name="GGA_COMPAT"> T  </i>
  <i type="logical" name="LBERRY"> F  </i>
  <i type="int" name="ICORELEVEL">     0</i>
  <i type="logical" name="LDAU"> F  </i>
  <i type="int" name="I_CONSTRAINED_M">     0</i>
  <separator name="electronic exchange-correlation" >
   <i type="string" name="GGA">--</i>
   <i type="int" name="VOSKOWN">     0</i>
   <i type="logical" name="LHFCALC"> F  </i>
   <i type="string" name="PRECFOCK"></i>
   <i type="logical" name="LSYMGRAD"> F  </i>
   <i type="logical" name="LHFONE"> F  </i>
   <i type="logical" name="LRHFCALC"> F  </i>
   <i type="logical" name="LTHOMAS"> F  </i>
   <i type="logical" name="LMODELHF"> F  </i>
   <i name="ENCUT4O">     -1.00000000</i>
   <i type="int" name="EXXOEP">     0</i>
   <i type="int" name="FOURORBIT">     0</i>
   <i name="AEXX">      0.00000000</i>
   <i name="HFALPHA">      0.00000000</i>
   <i name="MCALPHA">      0.00000000</i>
   <i name="ALDAX">      1.00000000</i>
   <i name="AGGAX">      1.00000000</i>
   <i name="ALDAC">      1.00000000</i>
   <i name="AGGAC">      1.00000000</i>
   <i type="int" name="NKREDX">     1</i>
   <i type="int" name="NKREDY">     1</i>
   <i type="int" name="NKREDZ">     1</i>
   <i type="logical" name="SHIFTRED"> F  </i>
   <i type="logical" name="ODDONLY"> F  </i>
   <i type="logical" name="EVENONLY"> F  </i>
   <i type="int" name="LMAXFOCK">     0</i>
   <i type="int" name="NMAXFOCKAE">     0</i>
   <i type="logical" name="LFOCKAEDFT"> F  </i>
   <i name="HFSCREEN">      0.00000000</i>
   <i name="HFSCREENC">      0.00000000</i>
   <i type="int" name="NBANDSGWLOW">     0</i>
  </separator>
  <separator name="vdW DFT" >
   <i type="logical" name="LUSE_VDW"> F  </i>
   <i name="Zab_VDW">     -0.84910000</i>
   <i name="PARAM1">      0.12340000</i>
   <i name="PARAM2">      1.00000000</i>
   <i name="PARAM3">      0.00000000</i>
  </separator>
  <separator name="model GW" >
   <i type="int" name="MODEL_GW">     0</i>
   <i name="MODEL_EPS0">     19.04874238</i>
   <i name="MODEL_ALPHA">      1.00000000</i>
  </separator>
  <separator name="linear response parameters" >
   <i type="logical" name="LEPSILON"> T  </i>
   <i type="logical" name="LRPA"> F  </i>
   <i type="logical" name="LNABLA"> F  </i>
   <i type="logical" name="LVEL"> F  </i>
   <i type="int" name="KINTER">     0</i>
   <i name="CSHIFT">      0.10000000</i>
   <i name="OMEGAMAX">     -1.00000000</i>
   <i name="DEG_THRESHOLD">      0.00200000</i>
   <i name="RTIME">     -0.10000000</i>
   <i name="WPLASMAI">      0.00000000</i>
   <v name="DFIELD">      0.00000000      0.00000000      0.00000000</v>
   <v name="WPLASMA">      0.00000000      0.00000000      0.00000000      0.00000000      0.00000000      0.00000000      0.00000000      0.00000000      0.00000000</v>
  </separator>
  <separator name="orbital magnetization" >
   <i type="logical" name="NUCIND"> F  </i>
   <v name="MAGPOS">      0.00000000      0.00000000      0.00000000</v>
   <i type="logical" name="LNICSALL"> T  </i>
   <i type="logical" name="ORBITALMAG"> F  </i>
   <i type="logical" name="LMAGBLOCH"> F  </i>
   <i type="logical" name="LCHIMAG"> F  </i>
   <i type="logical" name="LGAUGE"> T  </i>
   <i type="int" name="MAGATOM">     0</i>
   <v name="MAGDIPOL">      0.00000000      0.00000000      0.00000000</v>
   <v name="AVECCONST">      0.00000000      0.00000000      0.00000000</v>
  </separator>
  <separator name="response functions" >
   <i type="logical" name="LADDER"> F  </i>
   <i type="logical" name="LRPAFORCE"> F  </i>
   <i type="logical" name="LFXC"> F  </i>
   <i type="logical" name="LHARTREE"> T  </i>
   <i type="int" name="IBSE">     0</i>
   <v type="int" name="KPOINT">    -1     0     0     0</v>
   <i type="logical" name="LTCTE"> F  </i>
   <i type="logical" name="LTETE"> F  </i>
   <i type="logical" name="LTRIPLET"> F  </i>
   <i type="logical" name="LFXCEPS"> F  </i>
   <i type="logical" name="LFXHEG"> F  </i>
   <i type="int" name="NATURALO">     2</i>
   <i type="logical" name="L2ORDER"> F  </i>
   <i type="logical" name="LMP2LT"> F  </i>
   <i type="logical" name="LUSEW"> F  </i>
   <i name="ENCUTGW">     -2.00000000</i>
   <i name="ENCUTGWSOFT">     -2.00000000</i>
   <i name="ENCUTLF">     -1.00000000</i>
   <i type="int" name="LMAXMP2">    -1</i>
   <i name="SCISSOR">      0.00000000</i>
   <i type="int" name="NOMEGA">     0</i>
   <i type="int" name="NOMEGAR">     0</i>
   <i type="int" name="NBANDSGW">    -1</i>
   <i type="int" name="NBANDSO">    -1</i>
   <i type="int" name="NBANDSV">    -1</i>
   <i type="int" name="NELM">   100</i>
   <i type="int" name="NELMHF">     1</i>
   <i type="int" name="DIM">     3</i>
   <i type="int" name="ANTIRES">     0</i>
   <i name="OMEGAMAX">    -30.00000000</i>
   <i name="OMEGAMIN">    -30.00000000</i>
   <i name="OMEGATL">   -200.00000000</i>
   <i type="int" name="OMEGAGRID">   140</i>
   <i name="CSHIFT">     -0.10000000</i>
   <i type="logical" name="SELFENERGY"> F  </i>
   <i type="logical" name="LSPECTRAL"> F  </i>
   <i type="logical" name="LSPECTRALGW"> F  </i>
   <i type="logical" name="LSINGLES"> F  </i>
   <i type="logical" name="LFERMIGW"> F  </i>
   <i type="logical" name="ODDONLYGW"> F  </i>
   <i type="logical" name="EVENONLYGW"> F  </i>
   <i type="int" name="NKREDLFX">     1</i>
   <i type="int" name="NKREDLFY">     1</i>
   <i type="int" name="NKREDLFZ">     1</i>
   <i type="int" name="MAXMEM">  2800</i>
   <i type="int" name="TELESCOPE">     0</i>
   <i type="int" name="TAUPAR">     1</i>
   <i type="int" name="OMEGAPAR">    -1</i>
   <i name="LAMBDA">      1.00000000</i>
  </separator>
  <separator name="External order field" >
   <i name="OFIELD_KAPPA">      0.00000000</i>
   <v name="OFIELD_K">      0.00000000      0.00000000      0.00000000</v>
   <i name="OFIELD_Q6_NEAR">      0.00000000</i>
   <i name="OFIELD_Q6_FAR">      0.00000000</i>
   <i name="OFIELD_A">      0.00000000</i>
  </separator>
 </parameters>
 <atominfo>
  <atoms>      12 </atoms>
  <types>       2 </types>
  <array name="atoms" >
   <dimension dim="1">ion</dimension>
   <field type="string">element</field>
   <field type="int">atomtype</field>
   <set>
    <rc><c>Pb</c><c>   1</c></rc>
    <rc><c>Pb</c><c>   1</c></rc>
    <rc><c>Pb</c><c>   1</c></rc>
    <rc><c>Pb</c><c>   1</c></rc>
    <rc><c>Br</c><c>   2</c></rc>
    <rc><c>Br</c><c>   2</c></rc>
    <rc><c>Br</c><c>   2</c></rc>
    <rc><c>Br</c><c>   2</c></rc>
    <rc><c>Br</c><c>   2</c></rc>
    <rc><c>Br</c><c>   2</c></rc>
    <rc><c>Br</c><c>   2</c></rc>
    <rc><c>Br</c><c>   2</c></rc>
   </set>
  </array>
  <array name="atomtypes" >
   <dimension dim="1">type</dimension>
   <field type="int">atomspertype</field>
   <field type="string">element</field>
   <field>mass</field>
   <field>valence</field>
   <field type="string">pseudopotential</field>
   <set>
    <rc><c>   4</c><c>Pb</c><c>    207.20000000</c><c>     14.00000000</c><c>  PAW_PBE Pb_d 06Sep2000                </c></rc>
    <rc><c>   8</c><c>Br</c><c>     79.90400000</c><c>      7.00000000</c><c>  PAW_PBE Br 06Sep2000                  </c></rc>
   </set>
  </array>
 </atominfo>
 <structure name="initialpos" >
  <crystal>
   <varray name="basis" >
    <v>       4.74311129       0.00000000       0.00000000 </v>
    <v>       0.00000000       8.13019127       0.00000000 </v>
    <v>       0.00000000       0.00000000       9.87943770 </v>
   </varray>
   <i name="volume">    380.97484763 </i>
   <varray name="rec_basis" >
    <v>       0.21083208       0.00000000       0.00000000 </v>
    <v>       0.00000000       0.12299834       0.00000000 </v>
    <v>       0.00000000       0.00000000       0.10122034 </v>
   </varray>
  </crystal>
  <varray name="positions" >
   <v>       0.25000002       0.23348407       0.42250843 </v>
   <v>       0.75000006       0.76651601       0.57749164 </v>
   <v>       0.25000002       0.73348411       0.07749161 </v>
   <v>       0.75000006       0.26651597       0.92250847 </v>
   <v>       0.25000002       0.00905653       0.65618438 </v>
   <v>       0.75000006       0.99094355       0.34381570 </v>
   <v>       0.25000002       0.50905657       0.84381573 </v>
   <v>       0.75000006       0.49094351       0.15618434 </v>
   <v>       0.75000006       0.85872171       0.91377105 </v>
   <v>       0.25000002       0.14127837       0.08622903 </v>
   <v>       0.75000006       0.35872167       0.58622907 </v>
   <v>       0.25000002       0.64127841       0.41377101 </v>
  </varray>
 </structure>
 <calculation>
  <scstep>
   <time name="dav">   32.50   32.51</time>
   <time name="total">   32.61   32.62</time>
   <energy>
    <i name="alphaZ">    291.13799205 </i>
    <i name="ewald">  -7118.75678239 </i>
    <i name="hartreedc">  -2391.06799914 </i>
    <i name="XCdc">    229.35962196 </i>
    <i name="pawpsdc">   8102.28111639 </i>
    <i name="pawaedc">  -7986.20594205 </i>
    <i name="eentropy">     -0.00010946 </i>
    <i name="bandstr">    516.83447970 </i>
    <i name="atom">   9594.04099011 </i>
    <i name="e_fr_energy">   1237.62336715 </i>
    <i name="e_wo_entrp">   1237.62347661 </i>
    <i name="e_0_energy">   1237.62342188 </i>
   </energy>
  </scstep>
  <scstep>
   <time name="dav">   33.34   33.35</time>
   <time name="total">   33.34   33.35</time>
   <energy>
    <i name="e_fr_energy">    165.53494309 </i>
    <i name="e_wo_entrp">    165.53511758 </i>
    <i name="e_0_energy">    165.53503034 </i>
   </energy>
  </scstep>
  <scstep>
   <time name="dav">   40.41   40.42</time>
   <time name="total">   40.41   40.42</time>
   <energy>
    <i name="e_fr_energy">    -27.89656051 </i>
    <i name="e_wo_entrp">    -27.89656051 </i>
    <i name="e_0_energy">    -27.89656051 </i>
   </energy>
  </scstep>
  <scstep>
   <time name="dav">   35.90   36.00</time>
   <time name="total">   35.90   36.00</time>
   <energy>
    <i name="e_fr_energy">    -39.68414832 </i>
    <i name="e_wo_entrp">    -39.68414832 </i>
    <i name="e_0_energy">    -39.68414832 </i>
   </energy>
  </scstep>
  <scstep>
   <time name="dav">   34.64   34.66</time>
   <time name="total">   36.56   36.58</time>
   <energy>
    <i name="e_fr_energy">    -40.13741526 </i>
    <i name="e_wo_entrp">    -40.13741526 </i>
    <i name="e_0_energy">    -40.13741526 </i>
   </energy>
  </scstep>
  <scstep>
   <time name="dav">   41.29   41.32</time>
   <time name="total">   43.30   43.33</time>
   <energy>
    <i name="e_fr_energy">    -38.37975584 </i>
    <i name="e_wo_entrp">    -38.37975584 </i>
    <i name="e_0_energy">    -38.37975584 </i>
   </energy>
  </scstep>
  <scstep>
   <time name="dav">   40.12   40.13</time>
   <time name="total">   42.11   42.12</time>
   <energy>
    <i name="e_fr_energy">    -38.27329043 </i>
    <i name="e_wo_entrp">    -38.27329043 </i>
    <i name="e_0_energy">    -38.27329043 </i>
   </energy>
  </scstep>
  <scstep>
   <time name="dav">   38.45   38.46</time>
   <time name="total">   40.49   40.50</time>
   <energy>
    <i name="e_fr_energy">    -38.28116609 </i>
    <i name="e_wo_entrp">    -38.28116609 </i>
    <i name="e_0_energy">    -38.28116609 </i>
   </energy>
  </scstep>
  <scstep>
   <time name="dav">   40.32   40.34</time>
   <time name="total">   42.32   42.34</time>
   <energy>
    <i name="e_fr_energy">    -38.27634406 </i>
    <i name="e_wo_entrp">    -38.27634406 </i>
    <i name="e_0_energy">    -38.27634406 </i>
   </energy>
  </scstep>
  <scstep>
   <time name="dav">   35.51   35.52</time>
   <time name="total">   37.54   37.55</time>
   <energy>
    <i name="e_fr_energy">    -38.27694855 </i>
    <i name="e_wo_entrp">    -38.27694855 </i>
    <i name="e_0_energy">    -38.27694855 </i>
   </energy>
  </scstep>
  <scstep>
   <time name="dav">   36.82   36.83</time>
   <time name="total">   38.81   38.82</time>
   <energy>
    <i name="e_fr_energy">    -38.27736677 </i>
    <i name="e_wo_entrp">    -38.27736677 </i>
    <i name="e_0_energy">    -38.27736677 </i>
   </energy>
  </scstep>
  <scstep>
   <time name="dav">   39.89   39.90</time>
   <time name="total">   41.90   41.91</time>
   <energy>
    <i name="e_fr_energy">    -38.27735222 </i>
    <i name="e_wo_entrp">    -38.27735222 </i>
    <i name="e_0_energy">    -38.27735222 </i>
   </energy>
  </scstep>
  <scstep>
   <time name="dav">   35.82   35.82</time>
   <time name="total">   37.81   37.82</time>
   <energy>
    <i name="e_fr_energy">    -38.27735499 </i>
    <i name="e_wo_entrp">    -38.27735499 </i>
    <i name="e_0_energy">    -38.27735499 </i>
   </energy>
  </scstep>
  <scstep>
   <time name="dav">   41.59   41.60</time>
   <time name="total">   43.61   43.62</time>
   <energy>
    <i name="e_fr_energy">    -38.27735492 </i>
    <i name="e_wo_entrp">    -38.27735492 </i>
    <i name="e_0_energy">    -38.27735492 </i>
   </energy>
  </scstep>
  <scstep>
   <time name="dav">   32.99   32.99</time>
   <time name="total">   34.98   34.99</time>
   <energy>
    <i name="e_fr_energy">    -38.27735498 </i>
    <i name="e_wo_entrp">    -38.27735498 </i>
    <i name="e_0_energy">    -38.27735498 </i>
   </energy>
  </scstep>
  <scstep>
   <time name="dav">   30.18   30.19</time>
   <time name="total">   32.18   32.19</time>
   <energy>
    <i name="e_fr_energy">    -38.27735493 </i>
    <i name="e_wo_entrp">    -38.27735493 </i>
    <i name="e_0_energy">    -38.27735493 </i>
   </energy>
  </scstep>
  <scstep>
   <time name="dav">   25.03   25.04</time>
   <time name="total">   25.11   25.12</time>
   <energy>
    <i name="alphaZ">    291.13799205 </i>
    <i name="ewald">  -7118.75678239 </i>
    <i name="hartreedc">  -2387.88598244 </i>
    <i name="XCdc">    231.82187753 </i>
    <i name="pawpsdc">   8742.52332905 </i>
    <i name="pawaedc">  -8620.13445715 </i>
    <i name="eentropy">     -0.00000000 </i>
    <i name="bandstr">   -771.02432170 </i>
    <i name="atom">   9594.04099011 </i>
    <i name="e_fr_energy">    -38.27735494 </i>
    <i name="e_wo_entrp">    -38.27735494 </i>
    <i name="e_0_energy">    -38.27735494 </i>
   </energy>
  </scstep>
  <structure>
   <crystal>
    <varray name="basis" >
     <v>       4.74311129       0.00000000       0.00000000 </v>
     <v>       0.00000000       8.13019127       0.00000000 </v>
     <v>       0.00000000       0.00000000       9.87943770 </v>
    </varray>
    <i name="volume">    380.97484763 </i>
    <varray name="rec_basis" >
     <v>       0.21083208       0.00000000       0.00000000 </v>
     <v>       0.00000000       0.12299834       0.00000000 </v>
     <v>       0.00000000       0.00000000       0.10122034 </v>
    </varray>
   </crystal>
   <varray name="positions" >
    <v>       0.25000002       0.23348407       0.42250843 </v>
    <v>       0.75000006       0.76651601       0.57749164 </v>
    <v>       0.25000002       0.73348411       0.07749161 </v>
    <v>       0.75000006       0.26651597       0.92250847 </v>
    <v>       0.25000002       0.00905653       0.65618438 </v>
    <v>       0.75000006       0.99094355       0.34381570 </v>
    <v>       0.25000002       0.50905657       0.84381573 </v>
    <v>       0.75000006       0.49094351       0.15618434 </v>
    <v>       0.75000006       0.85872171       0.91377105 </v>
    <v>       0.25000002       0.14127837       0.08622903 </v>
    <v>       0.75000006       0.35872167       0.58622907 </v>
    <v>       0.25000002       0.64127841       0.41377101 </v>
   </varray>
  </structure>
  <varray name="forces" >
   <v>       0.00000027      -0.01013566      -0.04314353 </v>
   <v>      -0.00000027       0.01013566       0.04314353 </v>
   <v>       0.00000025      -0.01013795       0.04314571 </v>
   <v>      -0.00000025       0.01013795      -0.04314571 </v>
   <v>       0.00000027      -0.00389633       0.03350189 </v>
   <v>      -0.00000027       0.00389633      -0.03350189 </v>
   <v>       0.00000027      -0.00389712      -0.03350278 </v>
   <v>      -0.00000027       0.00389712       0.03350278 </v>
   <v>      -0.00000047       0.01750871      -0.02892994 </v>
   <v>       0.00000047      -0.01750871       0.02892994 </v>
   <v>      -0.00000034       0.01750901       0.02892887 </v>
   <v>       0.00000034      -0.01750901      -0.02892887 </v>
  </varray>
  <varray name="stress" >
   <v>       8.47235318      -0.00000129      -0.00000013 </v>
   <v>      -0.00000132       8.09060734       0.00000731 </v>
   <v>      -0.00000007       0.00000742       8.88167596 </v>
  </varray>
  <energy>
   <i name="e_fr_energy">    -38.27735494 </i>
   <i name="e_wo_entrp">    -38.27735494 </i>
   <i name="e_0_energy">     -0.00000000 </i>
  </energy>
  <scstep>
   <time name="total">   42.74   42.75</time>
   <energy>
    <i name="e_fr_energy">     -5.43680757 </i>
    <i name="e_wo_entrp">     -5.43680757 </i>
    <i name="e_0_energy">     -5.43680757 </i>
   </energy>
  </scstep>
  <scstep>
   <time name="total">   38.44   38.44</time>
   <energy>
    <i name="e_fr_energy">     -5.82077211 </i>
    <i name="e_wo_entrp">     -5.82077211 </i>
    <i name="e_0_energy">     -5.82077211 </i>
   </energy>
  </scstep>
  <scstep>
   <time name="total">   40.36   40.36</time>
   <energy>
    <i name="e_fr_energy">     -5.82464218 </i>
    <i name="e_wo_entrp">     -5.82464218 </i>
    <i name="e_0_energy">     -5.82464218 </i>
   </energy>
  </scstep>
  <scstep>
   <time name="total">   38.63   38.63</time>
   <energy>
    <i name="e_fr_energy">     -5.82518543 </i>
    <i name="e_wo_entrp">     -5.82518543 </i>
    <i name="e_0_energy">     -5.82518543 </i>
   </energy>
  </scstep>
  <scstep>
   <time name="total">   40.34   40.35</time>
   <energy>
    <i name="e_fr_energy">     -5.82520495 </i>
    <i name="e_wo_entrp">     -5.82520495 </i>
    <i name="e_0_energy">     -5.82520495 </i>
   </energy>
  </scstep>
  <scstep>
   <time name="total">   43.54   43.54</time>
   <energy>
    <i name="e_fr_energy">     -5.82520724 </i>
    <i name="e_wo_entrp">     -5.82520724 </i>
    <i name="e_0_energy">     -5.82520724 </i>
   </energy>
  </scstep>
  <scstep>
   <time name="total">   48.44   48.44</time>
   <energy>
    <i name="e_fr_energy">     -5.82520727 </i>
    <i name="e_wo_entrp">     -5.82520727 </i>
    <i name="e_0_energy">     -5.82520727 </i>
   </energy>
  </scstep>
  <scstep>
   <time name="total">   47.08   47.08</time>
   <energy>
    <i name="e_fr_energy">     -5.82520727 </i>
    <i name="e_wo_entrp">     -5.82520727 </i>
    <i name="e_0_energy">     -5.82520727 </i>
   </energy>
  </scstep>
  <scstep>
   <time name="total">   46.71   46.72</time>
   <energy>
    <i name="e_fr_energy">     -5.82520726 </i>
    <i name="e_wo_entrp">     -5.82520726 </i>
    <i name="e_0_energy">     -5.82520726 </i>
   </energy>
  </scstep>
  <scstep>
   <time name="total">   46.24   46.24</time>
   <energy>
    <i name="e_fr_energy">     -5.82520726 </i>
    <i name="e_wo_entrp">     -5.82520726 </i>
    <i name="e_0_energy">     -5.82520726 </i>
   </energy>
  </scstep>
  <scstep>
   <time name="total">   46.18   46.18</time>
   <energy>
    <i name="e_fr_energy">     -5.82520726 </i>
    <i name="e_wo_entrp">     -5.82520726 </i>
    <i name="e_0_energy">     -5.82520726 </i>
   </energy>
  </scstep>
  <scstep>
   <time name="total">   46.16   46.16</time>
   <energy>
    <i name="e_fr_energy">     -5.82520726 </i>
    <i name="e_wo_entrp">     -5.82520726 </i>
    <i name="e_0_energy">     -5.82520726 </i>
   </energy>
  </scstep>
  <scstep>
   <time name="total">   46.27   46.27</time>
   <energy>
    <i name="e_fr_energy">     -5.82520726 </i>
    <i name="e_wo_entrp">     -5.82520726 </i>
    <i name="e_0_energy">     -5.82520726 </i>
   </energy>
  </scstep>
  <scstep>
   <time name="total">   46.55   46.55</time>
   <energy>
    <i name="e_fr_energy">     -5.82520726 </i>
    <i name="e_wo_entrp">     -5.82520726 </i>
    <i name="e_0_energy">     -5.82520726 </i>
   </energy>
  </scstep>
  <scstep>
   <time name="total">   46.59   46.60</time>
   <energy>
    <i name="e_fr_energy">     -5.82520726 </i>
    <i name="e_wo_entrp">     -5.82520726 </i>
    <i name="e_0_energy">     -5.82520726 </i>
   </energy>
  </scstep>
  <scstep>
   <time name="total">   43.14   43.14</time>
   <energy>
    <i name="e_fr_energy">     -5.13126698 </i>
    <i name="e_wo_entrp">     -5.13126698 </i>
    <i name="e_0_energy">     -5.13126698 </i>
   </energy>
  </scstep>
  <scstep>
   <time name="total">   38.45   38.45</time>
   <energy>
    <i name="e_fr_energy">     -5.52216856 </i>
    <i name="e_wo_entrp">     -5.52216856 </i>
    <i name="e_0_energy">     -5.52216856 </i>
   </energy>
  </scstep>
  <scstep>
   <time name="total">   40.40   40.40</time>
   <energy>
    <i name="e_fr_energy">     -5.52544099 </i>
    <i name="e_wo_entrp">     -5.52544099 </i>
    <i name="e_0_energy">     -5.52544099 </i>
   </energy>
  </scstep>
  <scstep>
   <time name="total">   38.40   38.40</time>
   <energy>
    <i name="e_fr_energy">     -5.52599771 </i>
    <i name="e_wo_entrp">     -5.52599771 </i>
    <i name="e_0_energy">     -5.52599771 </i>
   </energy>
  </scstep>
  <scstep>
   <time name="total">   40.14   40.14</time>
   <energy>
    <i name="e_fr_energy">     -5.52601426 </i>
    <i name="e_wo_entrp">     -5.52601426 </i>
    <i name="e_0_energy">     -5.52601426 </i>
   </energy>
  </scstep>
  <scstep>
   <time name="total">   46.17   46.17</time>
   <energy>
    <i name="e_fr_energy">     -5.52601751 </i>
    <i name="e_wo_entrp">     -5.52601751 </i>
    <i name="e_0_energy">     -5.52601751 </i>
   </energy>
  </scstep>
  <scstep>
   <time name="total">   48.70   48.70</time>
   <energy>
    <i name="e_fr_energy">     -5.52601754 </i>
    <i name="e_wo_entrp">     -5.52601754 </i>
    <i name="e_0_energy">     -5.52601754 </i>
   </energy>
  </scstep>
  <scstep>
   <time name="total">   47.22   47.22</time>
   <energy>
    <i name="e_fr_energy">     -5.52601755 </i>
    <i name="e_wo_entrp">     -5.52601755 </i>
    <i name="e_0_energy">     -5.52601755 </i>
   </energy>
  </scstep>
  <scstep>
   <time name="total">   47.03   47.03</time>
   <energy>
    <i name="e_fr_energy">     -5.52601754 </i>
    <i name="e_wo_entrp">     -5.52601754 </i>
    <i name="e_0_energy">     -5.52601754 </i>
   </energy>
  </scstep>
  <scstep>
   <time name="total">   46.39   46.39</time>
   <energy>
    <i name="e_fr_energy">     -5.52601754 </i>
    <i name="e_wo_entrp">     -5.52601754 </i>
    <i name="e_0_energy">     -5.52601754 </i>
   </energy>
  </scstep>
  <scstep>
   <time name="total">   46.24   46.24</time>
   <energy>
    <i name="e_fr_energy">     -5.52601754 </i>
    <i name="e_wo_entrp">     -5.52601754 </i>
    <i name="e_0_energy">     -5.52601754 </i>
   </energy>
  </scstep>
  <scstep>
   <time name="total">   46.14   46.15</time>
   <energy>
    <i name="e_fr_energy">     -5.52601754 </i>
    <i name="e_wo_entrp">     -5.52601754 </i>
    <i name="e_0_energy">     -5.52601754 </i>
   </energy>
  </scstep>
  <scstep>
   <time name="total">   46.38   46.38</time>
   <energy>
    <i name="e_fr_energy">     -5.52601754 </i>
    <i name="e_wo_entrp">     -5.52601754 </i>
    <i name="e_0_energy">     -5.52601754 </i>
   </energy>
  </scstep>
  <scstep>
   <time name="total">   46.38   46.38</time>
   <energy>
    <i name="e_fr_energy">     -5.52601754 </i>
    <i name="e_wo_entrp">     -5.52601754 </i>
    <i name="e_0_energy">     -5.52601754 </i>
   </energy>
  </scstep>
  <scstep>
   <time name="total">   46.49   46.49</time>
   <energy>
    <i name="e_fr_energy">     -5.52601754 </i>
    <i name="e_wo_entrp">     -5.52601754 </i>
    <i name="e_0_energy">     -5.52601754 </i>
   </energy>
  </scstep>
  <scstep>
   <time name="total">   42.66   42.66</time>
   <energy>
    <i name="e_fr_energy">     -4.97048239 </i>
    <i name="e_wo_entrp">     -4.97048239 </i>
    <i name="e_0_energy">     -4.97048239 </i>
   </energy>
  </scstep>
  <scstep>
   <time name="total">   38.45   38.45</time>
   <energy>
    <i name="e_fr_energy">     -5.34983570 </i>
    <i name="e_wo_entrp">     -5.34983570 </i>
    <i name="e_0_energy">     -5.34983570 </i>
   </energy>
  </scstep>
  <scstep>
   <time name="total">   40.41   40.41</time>
   <energy>
    <i name="e_fr_energy">     -5.35301545 </i>
    <i name="e_wo_entrp">     -5.35301545 </i>
    <i name="e_0_energy">     -5.35301545 </i>
   </energy>
  </scstep>
  <scstep>
   <time name="total">   38.40   38.40</time>
   <energy>
    <i name="e_fr_energy">     -5.35354222 </i>
    <i name="e_wo_entrp">     -5.35354222 </i>
    <i name="e_0_energy">     -5.35354222 </i>
   </energy>
  </scstep>
  <scstep>
   <time name="total">   40.40   40.40</time>
   <energy>
    <i name="e_fr_energy">     -5.35355766 </i>
    <i name="e_wo_entrp">     -5.35355766 </i>
    <i name="e_0_energy">     -5.35355766 </i>
   </energy>
  </scstep>
  <scstep>
   <time name="total">   46.09   46.09</time>
   <energy>
    <i name="e_fr_energy">     -5.35356055 </i>
    <i name="e_wo_entrp">     -5.35356055 </i>
    <i name="e_0_energy">     -5.35356055 </i>
   </energy>
  </scstep>
  <scstep>
   <time name="total">   48.39   48.39</time>
   <energy>
    <i name="e_fr_energy">     -5.35356057 </i>
    <i name="e_wo_entrp">     -5.35356057 </i>
    <i name="e_0_energy">     -5.35356057 </i>
   </energy>
  </scstep>
  <scstep>
   <time name="total">   47.20   47.20</time>
   <energy>
    <i name="e_fr_energy">     -5.35356058 </i>
    <i name="e_wo_entrp">     -5.35356058 </i>
    <i name="e_0_energy">     -5.35356058 </i>
   </energy>
  </scstep>
  <scstep>
   <time name="total">   47.01   47.01</time>
   <energy>
    <i name="e_fr_energy">     -5.35356058 </i>
    <i name="e_wo_entrp">     -5.35356058 </i>
    <i name="e_0_energy">     -5.35356058 </i>
   </energy>
  </scstep>
  <scstep>
   <time name="total">   46.74   46.74</time>
   <energy>
    <i name="e_fr_energy">     -5.35356058 </i>
    <i name="e_wo_entrp">     -5.35356058 </i>
    <i name="e_0_energy">     -5.35356058 </i>
   </energy>
  </scstep>
  <scstep>
   <time name="total">   46.19   46.19</time>
   <energy>
    <i name="e_fr_energy">     -5.35356058 </i>
    <i name="e_wo_entrp">     -5.35356058 </i>
    <i name="e_0_energy">     -5.35356058 </i>
   </energy>
  </scstep>
  <scstep>
   <time name="total">   46.11   46.11</time>
   <energy>
    <i name="e_fr_energy">     -5.35356057 </i>
    <i name="e_wo_entrp">     -5.35356057 </i>
    <i name="e_0_energy">     -5.35356057 </i>
   </energy>
  </scstep>
  <scstep>
   <time name="total">   46.41   46.41</time>
   <energy>
    <i name="e_fr_energy">     -5.35356058 </i>
    <i name="e_wo_entrp">     -5.35356058 </i>
    <i name="e_0_energy">     -5.35356058 </i>
   </energy>
  </scstep>
  <scstep>
   <time name="total">   46.58   46.58</time>
   <energy>
    <i name="e_fr_energy">     -5.35356057 </i>
    <i name="e_wo_entrp">     -5.35356057 </i>
    <i name="e_0_energy">     -5.35356057 </i>
   </energy>
  </scstep>
  <scstep>
   <time name="total">   46.71   46.71</time>
   <energy>
    <i name="e_fr_energy">     -5.35356058 </i>
    <i name="e_wo_entrp">     -5.35356058 </i>
    <i name="e_0_energy">     -5.35356058 </i>
   </energy>
  </scstep>
  <varray name="epsilon_rpa" >
   <v>       6.53364264       0.00000344       0.00000109 </v>
   <v>       0.00000099       6.24943000      -0.00000097 </v>
   <v>       0.00000004       0.00000183       6.08559961 </v>
  </varray>
  <kpoints>
   <generation param="Gamma">
    <v type="int" name="divisions">      10        6        4 </v>
    <v name="usershift">      0.00000000       0.00000000       0.00000000 </v>
    <v name="genvec1">      0.10000000       0.00000000       0.00000000 </v>
    <v name="genvec2">      0.00000000       0.16666667       0.00000000 </v>
    <v name="genvec3">      0.00000000       0.00000000       0.25000000 </v>
    <v name="shift">      0.00000000       0.00000000       0.00000000 </v>
   </generation>
   <varray name="kpointlist" >
    <v>       0.00000000       0.00000000       0.00000000 </v>
    <v>       0.10000000       0.00000000       0.00000000 </v>
    <v>       0.20000000       0.00000000       0.00000000 </v>
    <v>       0.30000000       0.00000000       0.00000000 </v>
    <v>       0.40000000       0.00000000       0.00000000 </v>
    <v>       0.50000000       0.00000000       0.00000000 </v>
    <v>       0.00000000       0.16666667       0.00000000 </v>
    <v>       0.10000000       0.16666667       0.00000000 </v>
    <v>       0.20000000       0.16666667       0.00000000 </v>
    <v>       0.30000000       0.16666667       0.00000000 </v>
    <v>       0.40000000       0.16666667       0.00000000 </v>
    <v>       0.50000000       0.16666667       0.00000000 </v>
    <v>      -0.40000000       0.16666667       0.00000000 </v>
    <v>      -0.30000000       0.16666667       0.00000000 </v>
    <v>      -0.20000000       0.16666667       0.00000000 </v>
    <v>      -0.10000000       0.16666667       0.00000000 </v>
    <v>       0.00000000       0.33333333       0.00000000 </v>
    <v>       0.10000000       0.33333333       0.00000000 </v>
    <v>       0.20000000       0.33333333       0.00000000 </v>
    <v>       0.30000000       0.33333333       0.00000000 </v>
    <v>       0.40000000       0.33333333       0.00000000 </v>
    <v>       0.50000000       0.33333333       0.00000000 </v>
    <v>      -0.40000000       0.33333333       0.00000000 </v>
    <v>      -0.30000000       0.33333333       0.00000000 </v>
    <v>      -0.20000000       0.33333333       0.00000000 </v>
    <v>      -0.10000000       0.33333333       0.00000000 </v>
    <v>       0.00000000       0.50000000       0.00000000 </v>
    <v>       0.10000000       0.50000000       0.00000000 </v>
    <v>       0.20000000       0.50000000       0.00000000 </v>
    <v>       0.30000000       0.50000000       0.00000000 </v>
    <v>       0.40000000       0.50000000       0.00000000 </v>
    <v>       0.50000000       0.50000000       0.00000000 </v>
    <v>       0.00000000       0.00000000       0.25000000 </v>
    <v>       0.10000000       0.00000000       0.25000000 </v>
    <v>       0.20000000       0.00000000       0.25000000 </v>
    <v>       0.30000000       0.00000000       0.25000000 </v>
    <v>       0.40000000       0.00000000       0.25000000 </v>
    <v>       0.50000000       0.00000000       0.25000000 </v>
    <v>      -0.40000000       0.00000000       0.25000000 </v>
    <v>      -0.30000000       0.00000000       0.25000000 </v>
    <v>      -0.20000000       0.00000000       0.25000000 </v>
    <v>      -0.10000000       0.00000000       0.25000000 </v>
    <v>       0.00000000       0.16666667       0.25000000 </v>
    <v>       0.10000000       0.16666667       0.25000000 </v>
    <v>       0.20000000       0.16666667       0.25000000 </v>
    <v>       0.30000000       0.16666667       0.25000000 </v>
    <v>       0.40000000       0.16666667       0.25000000 </v>
    <v>       0.50000000       0.16666667       0.25000000 </v>
    <v>      -0.40000000       0.16666667       0.25000000 </v>
    <v>      -0.30000000       0.16666667       0.25000000 </v>
    <v>      -0.20000000       0.16666667       0.25000000 </v>
    <v>      -0.10000000       0.16666667       0.25000000 </v>
    <v>       0.00000000       0.33333333       0.25000000 </v>
    <v>       0.10000000       0.33333333       0.25000000 </v>
    <v>       0.20000000       0.33333333       0.25000000 </v>
    <v>       0.30000000       0.33333333       0.25000000 </v>
    <v>       0.40000000       0.33333333       0.25000000 </v>
    <v>       0.50000000       0.33333333       0.25000000 </v>
    <v>      -0.40000000       0.33333333       0.25000000 </v>
    <v>      -0.30000000       0.33333333       0.25000000 </v>
    <v>      -0.20000000       0.33333333       0.25000000 </v>
    <v>      -0.10000000       0.33333333       0.25000000 </v>
    <v>       0.00000000       0.50000000       0.25000000 </v>
    <v>       0.10000000       0.50000000       0.25000000 </v>
    <v>       0.20000000       0.50000000       0.25000000 </v>
    <v>       0.30000000       0.50000000       0.25000000 </v>
    <v>       0.40000000       0.50000000       0.25000000 </v>
    <v>       0.50000000       0.50000000       0.25000000 </v>
    <v>      -0.40000000       0.50000000       0.25000000 </v>
    <v>      -0.30000000       0.50000000       0.25000000 </v>
    <v>      -0.20000000       0.50000000       0.25000000 </v>
    <v>      -0.10000000       0.50000000       0.25000000 </v>
    <v>       0.00000000      -0.33333333       0.25000000 </v>
    <v>       0.10000000      -0.33333333       0.25000000 </v>
    <v>       0.20000000      -0.33333333       0.25000000 </v>
    <v>       0.30000000      -0.33333333       0.25000000 </v>
    <v>       0.40000000      -0.33333333       0.25000000 </v>
    <v>       0.50000000      -0.33333333       0.25000000 </v>
    <v>      -0.40000000      -0.33333333       0.25000000 </v>
    <v>      -0.30000000      -0.33333333       0.25000000 </v>
    <v>      -0.20000000      -0.33333333       0.25000000 </v>
    <v>      -0.10000000      -0.33333333       0.25000000 </v>
    <v>       0.00000000      -0.16666667       0.25000000 </v>
    <v>       0.10000000      -0.16666667       0.25000000 </v>
    <v>       0.20000000      -0.16666667       0.25000000 </v>
    <v>       0.30000000      -0.16666667       0.25000000 </v>
    <v>       0.40000000      -0.16666667       0.25000000 </v>
    <v>       0.50000000      -0.16666667       0.25000000 </v>
    <v>      -0.40000000      -0.16666667       0.25000000 </v>
    <v>      -0.30000000      -0.16666667       0.25000000 </v>
    <v>      -0.20000000      -0.16666667       0.25000000 </v>
    <v>      -0.10000000      -0.16666667       0.25000000 </v>
    <v>       0.00000000       0.00000000       0.50000000 </v>
    <v>       0.10000000       0.00000000       0.50000000 </v>
    <v>       0.20000000       0.00000000       0.50000000 </v>
    <v>       0.30000000       0.00000000       0.50000000 </v>
    <v>       0.40000000       0.00000000       0.50000000 </v>
    <v>       0.50000000       0.00000000       0.50000000 </v>
    <v>       0.00000000       0.16666667       0.50000000 </v>
    <v>       0.10000000       0.16666667       0.50000000 </v>
    <v>       0.20000000       0.16666667       0.50000000 </v>
    <v>       0.30000000       0.16666667       0.50000000 </v>
    <v>       0.40000000       0.16666667       0.50000000 </v>
    <v>       0.50000000       0.16666667       0.50000000 </v>
    <v>      -0.40000000       0.16666667       0.50000000 </v>
    <v>      -0.30000000       0.16666667       0.50000000 </v>
    <v>      -0.20000000       0.16666667       0.50000000 </v>
    <v>      -0.10000000       0.16666667       0.50000000 </v>
    <v>       0.00000000       0.33333333       0.50000000 </v>
    <v>       0.10000000       0.33333333       0.50000000 </v>
    <v>       0.20000000       0.33333333       0.50000000 </v>
    <v>       0.30000000       0.33333333       0.50000000 </v>
    <v>       0.40000000       0.33333333       0.50000000 </v>
    <v>       0.50000000       0.33333333       0.50000000 </v>
    <v>      -0.40000000       0.33333333       0.50000000 </v>
    <v>      -0.30000000       0.33333333       0.50000000 </v>
    <v>      -0.20000000       0.33333333       0.50000000 </v>
    <v>      -0.10000000       0.33333333       0.50000000 </v>
    <v>       0.00000000       0.50000000       0.50000000 </v>
    <v>       0.10000000       0.50000000       0.50000000 </v>
    <v>       0.20000000       0.50000000       0.50000000 </v>
    <v>       0.30000000       0.50000000       0.50000000 </v>
    <v>       0.40000000       0.50000000       0.50000000 </v>
    <v>       0.50000000       0.50000000       0.50000000 </v>
   </varray>
   <varray name="weights" >
    <v>       0.00416667 </v>
    <v>       0.00833333 </v>
    <v>       0.00833333 </v>
    <v>       0.00833333 </v>
    <v>       0.00833333 </v>
    <v>       0.00416667 </v>
    <v>       0.00833333 </v>
    <v>       0.00833333 </v>
    <v>       0.00833333 </v>
    <v>       0.00833333 </v>
    <v>       0.00833333 </v>
    <v>       0.00833333 </v>
    <v>       0.00833333 </v>
    <v>       0.00833333 </v>
    <v>       0.00833333 </v>
    <v>       0.00833333 </v>
    <v>       0.00833333 </v>
    <v>       0.00833333 </v>
    <v>       0.00833333 </v>
    <v>       0.00833333 </v>
    <v>       0.00833333 </v>
    <v>       0.00833333 </v>
    <v>       0.00833333 </v>
    <v>       0.00833333 </v>
    <v>       0.00833333 </v>
    <v>       0.00833333 </v>
    <v>       0.00416667 </v>
    <v>       0.00833333 </v>
    <v>       0.00833333 </v>
    <v>       0.00833333 </v>
    <v>       0.00833333 </v>
    <v>       0.00416667 </v>
    <v>       0.00833333 </v>
    <v>       0.00833333 </v>
    <v>       0.00833333 </v>
    <v>       0.00833333 </v>
    <v>       0.00833333 </v>
    <v>       0.00833333 </v>
    <v>       0.00833333 </v>
    <v>       0.00833333 </v>
    <v>       0.00833333 </v>
    <v>       0.00833333 </v>
    <v>       0.00833333 </v>
    <v>       0.00833333 </v>
    <v>       0.00833333 </v>
    <v>       0.00833333 </v>
    <v>       0.00833333 </v>
    <v>       0.00833333 </v>
    <v>       0.00833333 </v>
    <v>       0.00833333 </v>
    <v>       0.00833333 </v>
    <v>       0.00833333 </v>
    <v>       0.00833333 </v>
    <v>       0.00833333 </v>
    <v>       0.00833333 </v>
    <v>       0.00833333 </v>
    <v>       0.00833333 </v>
    <v>       0.00833333 </v>
    <v>       0.00833333 </v>
    <v>       0.00833333 </v>
    <v>       0.00833333 </v>
    <v>       0.00833333 </v>
    <v>       0.00833333 </v>
    <v>       0.00833333 </v>
    <v>       0.00833333 </v>
    <v>       0.00833333 </v>
    <v>       0.00833333 </v>
    <v>       0.00833333 </v>
    <v>       0.00833333 </v>
    <v>       0.00833333 </v>
    <v>       0.00833333 </v>
    <v>       0.00833333 </v>
    <v>       0.00833333 </v>
    <v>       0.00833333 </v>
    <v>       0.00833333 </v>
    <v>       0.00833333 </v>
    <v>       0.00833333 </v>
    <v>       0.00833333 </v>
    <v>       0.00833333 </v>
    <v>       0.00833333 </v>
    <v>       0.00833333 </v>
    <v>       0.00833333 </v>
    <v>       0.00833333 </v>
    <v>       0.00833333 </v>
    <v>       0.00833333 </v>
    <v>       0.00833333 </v>
    <v>       0.00833333 </v>
    <v>       0.00833333 </v>
    <v>       0.00833333 </v>
    <v>       0.00833333 </v>
    <v>       0.00833333 </v>
    <v>       0.00833333 </v>
    <v>       0.00416667 </v>
    <v>       0.00833333 </v>
    <v>       0.00833333 </v>
    <v>       0.00833333 </v>
    <v>       0.00833333 </v>
    <v>       0.00416667 </v>
    <v>       0.00833333 </v>
    <v>       0.00833333 </v>
    <v>       0.00833333 </v>
    <v>       0.00833333 </v>
    <v>       0.00833333 </v>
    <v>       0.00833333 </v>
    <v>       0.00833333 </v>
    <v>       0.00833333 </v>
    <v>       0.00833333 </v>
    <v>       0.00833333 </v>
    <v>       0.00833333 </v>
    <v>       0.00833333 </v>
    <v>       0.00833333 </v>
    <v>       0.00833333 </v>
    <v>       0.00833333 </v>
    <v>       0.00833333 </v>
    <v>       0.00833333 </v>
    <v>       0.00833333 </v>
    <v>       0.00833333 </v>
    <v>       0.00833333 </v>
    <v>       0.00416667 </v>
    <v>       0.00833333 </v>
    <v>       0.00833333 </v>
    <v>       0.00833333 </v>
    <v>       0.00833333 </v>
    <v>       0.00416667 </v>
   </varray>
  </kpoints>
  <scstep>
   <time name="total">   42.65   42.65</time>
   <energy>
    <i name="e_fr_energy">     -5.43680757 </i>
    <i name="e_wo_entrp">     -5.43680757 </i>
    <i name="e_0_energy">     -5.43680757 </i>
   </energy>
  </scstep>
  <scstep>
   <time name="total">   42.13   42.14</time>
   <energy>
    <i name="e_fr_energy">     -5.82077211 </i>
    <i name="e_wo_entrp">     -5.82077211 </i>
    <i name="e_0_energy">     -5.82077211 </i>
   </energy>
  </scstep>
  <scstep>
   <time name="total">   46.58   46.58</time>
   <energy>
    <i name="e_fr_energy">     -5.51300485 </i>
    <i name="e_wo_entrp">     -5.51300485 </i>
    <i name="e_0_energy">     -5.51300485 </i>
   </energy>
  </scstep>
  <scstep>
   <time name="total">   51.24   51.25</time>
   <energy>
    <i name="e_fr_energy">     -5.71782492 </i>
    <i name="e_wo_entrp">     -5.71782492 </i>
    <i name="e_0_energy">     -5.71782492 </i>
   </energy>
  </scstep>
  <scstep>
   <time name="total">   50.70   50.70</time>
   <energy>
    <i name="e_fr_energy">     -5.82077523 </i>
    <i name="e_wo_entrp">     -5.82077523 </i>
    <i name="e_0_energy">     -5.82077523 </i>
   </energy>
  </scstep>
  <scstep>
   <time name="total">   55.24   55.24</time>
   <energy>
    <i name="e_fr_energy">     -5.83851248 </i>
    <i name="e_wo_entrp">     -5.83851248 </i>
    <i name="e_0_energy">     -5.83851248 </i>
   </energy>
  </scstep>
  <scstep>
   <time name="total">   57.42   57.42</time>
   <energy>
    <i name="e_fr_energy">     -5.84226069 </i>
    <i name="e_wo_entrp">     -5.84226069 </i>
    <i name="e_0_energy">     -5.84226069 </i>
   </energy>
  </scstep>
  <scstep>
   <time name="total">   60.15   60.15</time>
   <energy>
    <i name="e_fr_energy">     -5.84239453 </i>
    <i name="e_wo_entrp">     -5.84239453 </i>
    <i name="e_0_energy">     -5.84239453 </i>
   </energy>
  </scstep>
  <scstep>
   <time name="total">   58.31   58.31</time>
   <energy>
    <i name="e_fr_energy">     -5.84292460 </i>
    <i name="e_wo_entrp">     -5.84292460 </i>
    <i name="e_0_energy">     -5.84292460 </i>
   </energy>
  </scstep>
  <scstep>
   <time name="total">   61.17   61.17</time>
   <energy>
    <i name="e_fr_energy">     -5.84322267 </i>
    <i name="e_wo_entrp">     -5.84322267 </i>
    <i name="e_0_energy">     -5.84322267 </i>
   </energy>
  </scstep>
  <scstep>
   <time name="total">   59.60   59.60</time>
   <energy>
    <i name="e_fr_energy">     -5.84294349 </i>
    <i name="e_wo_entrp">     -5.84294349 </i>
    <i name="e_0_energy">     -5.84294349 </i>
   </energy>
  </scstep>
  <scstep>
   <time name="total">   62.76   62.76</time>
   <energy>
    <i name="e_fr_energy">     -5.84308716 </i>
    <i name="e_wo_entrp">     -5.84308716 </i>
    <i name="e_0_energy">     -5.84308716 </i>
   </energy>
  </scstep>
  <scstep>
   <time name="total">   64.35   64.35</time>
   <energy>
    <i name="e_fr_energy">     -5.84288049 </i>
    <i name="e_wo_entrp">     -5.84288049 </i>
    <i name="e_0_energy">     -5.84288049 </i>
   </energy>
  </scstep>
  <scstep>
   <time name="total">   62.30   62.30</time>
   <energy>
    <i name="e_fr_energy">     -5.84322588 </i>
    <i name="e_wo_entrp">     -5.84322588 </i>
    <i name="e_0_energy">     -5.84322588 </i>
   </energy>
  </scstep>
  <scstep>
   <time name="total">   62.49   62.49</time>
   <energy>
    <i name="e_fr_energy">     -5.84270956 </i>
    <i name="e_wo_entrp">     -5.84270956 </i>
    <i name="e_0_energy">     -5.84270956 </i>
   </energy>
  </scstep>
  <scstep>
   <time name="total">   60.95   60.95</time>
   <energy>
    <i name="e_fr_energy">     -5.84319170 </i>
    <i name="e_wo_entrp">     -5.84319170 </i>
    <i name="e_0_energy">     -5.84319170 </i>
   </energy>
  </scstep>
  <scstep>
   <time name="total">   61.35   61.35</time>
   <energy>
    <i name="e_fr_energy">     -5.84287169 </i>
    <i name="e_wo_entrp">     -5.84287169 </i>
    <i name="e_0_energy">     -5.84287169 </i>
   </energy>
  </scstep>
  <scstep>
   <time name="total">   60.72   60.72</time>
   <energy>
    <i name="e_fr_energy">     -5.84303861 </i>
    <i name="e_wo_entrp">     -5.84303861 </i>
    <i name="e_0_energy">     -5.84303861 </i>
   </energy>
  </scstep>
  <scstep>
   <time name="total">   61.19   61.19</time>
   <energy>
    <i name="e_fr_energy">     -5.84284839 </i>
    <i name="e_wo_entrp">     -5.84284839 </i>
    <i name="e_0_energy">     -5.84284839 </i>
   </energy>
  </scstep>
  <scstep>
   <time name="total">   60.66   60.66</time>
   <energy>
    <i name="e_fr_energy">     -5.84319287 </i>
    <i name="e_wo_entrp">     -5.84319287 </i>
    <i name="e_0_energy">     -5.84319287 </i>
   </energy>
  </scstep>
  <scstep>
   <time name="total">   61.15   61.15</time>
   <energy>
    <i name="e_fr_energy">     -5.84269001 </i>
    <i name="e_wo_entrp">     -5.84269001 </i>
    <i name="e_0_energy">     -5.84269001 </i>
   </energy>
  </scstep>
  <scstep>
   <time name="total">   60.58   60.59</time>
   <energy>
    <i name="e_fr_energy">     -5.84318393 </i>
    <i name="e_wo_entrp">     -5.84318393 </i>
    <i name="e_0_energy">     -5.84318393 </i>
   </energy>
  </scstep>
  <scstep>
   <time name="total">   61.11   61.11</time>
   <energy>
    <i name="e_fr_energy">     -5.84284152 </i>
    <i name="e_wo_entrp">     -5.84284152 </i>
    <i name="e_0_energy">     -5.84284152 </i>
   </energy>
  </scstep>
  <scstep>
   <time name="total">   60.52   60.52</time>
   <energy>
    <i name="e_fr_energy">     -5.84303599 </i>
    <i name="e_wo_entrp">     -5.84303599 </i>
    <i name="e_0_energy">     -5.84303599 </i>
   </energy>
  </scstep>
  <scstep>
   <time name="total">   61.08   61.08</time>
   <energy>
    <i name="e_fr_energy">     -5.84281101 </i>
    <i name="e_wo_entrp">     -5.84281101 </i>
    <i name="e_0_energy">     -5.84281101 </i>
   </energy>
  </scstep>
  <scstep>
   <time name="total">   60.45   60.45</time>
   <energy>
    <i name="e_fr_energy">     -5.84319165 </i>
    <i name="e_wo_entrp">     -5.84319165 </i>
    <i name="e_0_energy">     -5.84319165 </i>
   </energy>
  </scstep>
  <scstep>
   <time name="total">   61.00   61.00</time>
   <energy>
    <i name="e_fr_energy">     -5.84266184 </i>
    <i name="e_wo_entrp">     -5.84266184 </i>
    <i name="e_0_energy">     -5.84266184 </i>
   </energy>
  </scstep>
  <scstep>
   <time name="total">   60.45   60.45</time>
   <energy>
    <i name="e_fr_energy">     -5.84317547 </i>
    <i name="e_wo_entrp">     -5.84317547 </i>
    <i name="e_0_energy">     -5.84317547 </i>
   </energy>
  </scstep>
  <scstep>
   <time name="total">   60.92   60.93</time>
   <energy>
    <i name="e_fr_energy">     -5.84282593 </i>
    <i name="e_wo_entrp">     -5.84282593 </i>
    <i name="e_0_energy">     -5.84282593 </i>
   </energy>
  </scstep>
  <scstep>
   <time name="total">   60.27   60.27</time>
   <energy>
    <i name="e_fr_energy">     -5.84299156 </i>
    <i name="e_wo_entrp">     -5.84299156 </i>
    <i name="e_0_energy">     -5.84299156 </i>
   </energy>
  </scstep>
  <scstep>
   <time name="total">   60.85   60.85</time>
   <energy>
    <i name="e_fr_energy">     -5.84281233 </i>
    <i name="e_wo_entrp">     -5.84281233 </i>
    <i name="e_0_energy">     -5.84281233 </i>
   </energy>
  </scstep>
  <scstep>
   <time name="total">   60.10   60.10</time>
   <energy>
    <i name="e_fr_energy">     -5.84318571 </i>
    <i name="e_wo_entrp">     -5.84318571 </i>
    <i name="e_0_energy">     -5.84318571 </i>
   </energy>
  </scstep>
  <scstep>
   <time name="total">   60.94   60.94</time>
   <energy>
    <i name="e_fr_energy">     -5.84263456 </i>
    <i name="e_wo_entrp">     -5.84263456 </i>
    <i name="e_0_energy">     -5.84263456 </i>
   </energy>
  </scstep>
  <scstep>
   <time name="total">   60.13   60.13</time>
   <energy>
    <i name="e_fr_energy">     -5.84314676 </i>
    <i name="e_wo_entrp">     -5.84314676 </i>
    <i name="e_0_energy">     -5.84314676 </i>
   </energy>
  </scstep>
  <scstep>
   <time name="total">   60.83   60.83</time>
   <energy>
    <i name="e_fr_energy">     -5.84283547 </i>
    <i name="e_wo_entrp">     -5.84283547 </i>
    <i name="e_0_energy">     -5.84283547 </i>
   </energy>
  </scstep>
  <scstep>
   <time name="total">   60.07   60.07</time>
   <energy>
    <i name="e_fr_energy">     -5.84298257 </i>
    <i name="e_wo_entrp">     -5.84298257 </i>
    <i name="e_0_energy">     -5.84298257 </i>
   </energy>
  </scstep>
  <scstep>
   <time name="total">   60.86   60.86</time>
   <energy>
    <i name="e_fr_energy">     -5.84278686 </i>
    <i name="e_wo_entrp">     -5.84278686 </i>
    <i name="e_0_energy">     -5.84278686 </i>
   </energy>
  </scstep>
  <scstep>
   <time name="total">   59.98   59.98</time>
   <energy>
    <i name="e_fr_energy">     -5.84318421 </i>
    <i name="e_wo_entrp">     -5.84318421 </i>
    <i name="e_0_energy">     -5.84318421 </i>
   </energy>
  </scstep>
  <scstep>
   <time name="total">   60.94   60.94</time>
   <energy>
    <i name="e_fr_energy">     -5.84264465 </i>
    <i name="e_wo_entrp">     -5.84264465 </i>
    <i name="e_0_energy">     -5.84264465 </i>
   </energy>
  </scstep>
  <kpoints>
   <generation param="Gamma">
    <v type="int" name="divisions">      10        6        4 </v>
    <v name="usershift">      0.00000000       0.00000000       0.00000000 </v>
    <v name="genvec1">      0.10000000       0.00000000       0.00000000 </v>
    <v name="genvec2">      0.00000000       0.16666667       0.00000000 </v>
    <v name="genvec3">      0.00000000       0.00000000       0.25000000 </v>
    <v name="shift">      0.00000000       0.00000000       0.00000000 </v>
   </generation>
   <varray name="kpointlist" >
    <v>       0.00000000       0.00000000       0.00000000 </v>
    <v>       0.10000000       0.00000000       0.00000000 </v>
    <v>       0.20000000       0.00000000       0.00000000 </v>
    <v>       0.30000000       0.00000000       0.00000000 </v>
    <v>       0.40000000       0.00000000       0.00000000 </v>
    <v>       0.50000000       0.00000000       0.00000000 </v>
    <v>       0.00000000       0.16666667       0.00000000 </v>
    <v>       0.10000000       0.16666667       0.00000000 </v>
    <v>       0.20000000       0.16666667       0.00000000 </v>
    <v>       0.30000000       0.16666667       0.00000000 </v>
    <v>       0.40000000       0.16666667       0.00000000 </v>
    <v>       0.50000000       0.16666667       0.00000000 </v>
    <v>      -0.40000000       0.16666667       0.00000000 </v>
    <v>      -0.30000000       0.16666667       0.00000000 </v>
    <v>      -0.20000000       0.16666667       0.00000000 </v>
    <v>      -0.10000000       0.16666667       0.00000000 </v>
    <v>       0.00000000       0.33333333       0.00000000 </v>
    <v>       0.10000000       0.33333333       0.00000000 </v>
    <v>       0.20000000       0.33333333       0.00000000 </v>
    <v>       0.30000000       0.33333333       0.00000000 </v>
    <v>       0.40000000       0.33333333       0.00000000 </v>
    <v>       0.50000000       0.33333333       0.00000000 </v>
    <v>      -0.40000000       0.33333333       0.00000000 </v>
    <v>      -0.30000000       0.33333333       0.00000000 </v>
    <v>      -0.20000000       0.33333333       0.00000000 </v>
    <v>      -0.10000000       0.33333333       0.00000000 </v>
    <v>       0.00000000       0.50000000       0.00000000 </v>
    <v>       0.10000000       0.50000000       0.00000000 </v>
    <v>       0.20000000       0.50000000       0.00000000 </v>
    <v>       0.30000000       0.50000000       0.00000000 </v>
    <v>       0.40000000       0.50000000       0.00000000 </v>
    <v>       0.50000000       0.50000000       0.00000000 </v>
    <v>       0.00000000       0.00000000       0.25000000 </v>
    <v>       0.10000000       0.00000000       0.25000000 </v>
    <v>       0.20000000       0.00000000       0.25000000 </v>
    <v>       0.30000000       0.00000000       0.25000000 </v>
    <v>       0.40000000       0.00000000       0.25000000 </v>
    <v>       0.50000000       0.00000000       0.25000000 </v>
    <v>      -0.40000000       0.00000000       0.25000000 </v>
    <v>      -0.30000000       0.00000000       0.25000000 </v>
    <v>      -0.20000000       0.00000000       0.25000000 </v>
    <v>      -0.10000000       0.00000000       0.25000000 </v>
    <v>       0.00000000       0.16666667       0.25000000 </v>
    <v>       0.10000000       0.16666667       0.25000000 </v>
    <v>       0.20000000       0.16666667       0.25000000 </v>
    <v>       0.30000000       0.16666667       0.25000000 </v>
    <v>       0.40000000       0.16666667       0.25000000 </v>
    <v>       0.50000000       0.16666667       0.25000000 </v>
    <v>      -0.40000000       0.16666667       0.25000000 </v>
    <v>      -0.30000000       0.16666667       0.25000000 </v>
    <v>      -0.20000000       0.16666667       0.25000000 </v>
    <v>      -0.10000000       0.16666667       0.25000000 </v>
    <v>       0.00000000       0.33333333       0.25000000 </v>
    <v>       0.10000000       0.33333333       0.25000000 </v>
    <v>       0.20000000       0.33333333       0.25000000 </v>
    <v>       0.30000000       0.33333333       0.25000000 </v>
    <v>       0.40000000       0.33333333       0.25000000 </v>
    <v>       0.50000000       0.33333333       0.25000000 </v>
    <v>      -0.40000000       0.33333333       0.25000000 </v>
    <v>      -0.30000000       0.33333333       0.25000000 </v>
    <v>      -0.20000000       0.33333333       0.25000000 </v>
    <v>      -0.10000000       0.33333333       0.25000000 </v>
    <v>       0.00000000       0.50000000       0.25000000 </v>
    <v>       0.10000000       0.50000000       0.25000000 </v>
    <v>       0.20000000       0.50000000       0.25000000 </v>
    <v>       0.30000000       0.50000000       0.25000000 </v>
    <v>       0.40000000       0.50000000       0.25000000 </v>
    <v>       0.50000000       0.50000000       0.25000000 </v>
    <v>      -0.40000000       0.50000000       0.25000000 </v>
    <v>      -0.30000000       0.50000000       0.25000000 </v>
    <v>      -0.20000000       0.50000000       0.25000000 </v>
    <v>      -0.10000000       0.50000000       0.25000000 </v>
    <v>       0.00000000      -0.33333333       0.25000000 </v>
    <v>       0.10000000      -0.33333333       0.25000000 </v>
    <v>       0.20000000      -0.33333333       0.25000000 </v>
    <v>       0.30000000      -0.33333333       0.25000000 </v>
    <v>       0.40000000      -0.33333333       0.25000000 </v>
    <v>       0.50000000      -0.33333333       0.25000000 </v>
    <v>      -0.40000000      -0.33333333       0.25000000 </v>
    <v>      -0.30000000      -0.33333333       0.25000000 </v>
    <v>      -0.20000000      -0.33333333       0.25000000 </v>
    <v>      -0.10000000      -0.33333333       0.25000000 </v>
    <v>       0.00000000      -0.16666667       0.25000000 </v>
    <v>       0.10000000      -0.16666667       0.25000000 </v>
    <v>       0.20000000      -0.16666667       0.25000000 </v>
    <v>       0.30000000      -0.16666667       0.25000000 </v>
    <v>       0.40000000      -0.16666667       0.25000000 </v>
    <v>       0.50000000      -0.16666667       0.25000000 </v>
    <v>      -0.40000000      -0.16666667       0.25000000 </v>
    <v>      -0.30000000      -0.16666667       0.25000000 </v>
    <v>      -0.20000000      -0.16666667       0.25000000 </v>
    <v>      -0.10000000      -0.16666667       0.25000000 </v>
    <v>       0.00000000       0.00000000       0.50000000 </v>
    <v>       0.10000000       0.00000000       0.50000000 </v>
    <v>       0.20000000       0.00000000       0.50000000 </v>
    <v>       0.30000000       0.00000000       0.50000000 </v>
    <v>       0.40000000       0.00000000       0.50000000 </v>
    <v>       0.50000000       0.00000000       0.50000000 </v>
    <v>       0.00000000       0.16666667       0.50000000 </v>
    <v>       0.10000000       0.16666667       0.50000000 </v>
    <v>       0.20000000       0.16666667       0.50000000 </v>
    <v>       0.30000000       0.16666667       0.50000000 </v>
    <v>       0.40000000       0.16666667       0.50000000 </v>
    <v>       0.50000000       0.16666667       0.50000000 </v>
    <v>      -0.40000000       0.16666667       0.50000000 </v>
    <v>      -0.30000000       0.16666667       0.50000000 </v>
    <v>      -0.20000000       0.16666667       0.50000000 </v>
    <v>      -0.10000000       0.16666667       0.50000000 </v>
    <v>       0.00000000       0.33333333       0.50000000 </v>
    <v>       0.10000000       0.33333333       0.50000000 </v>
    <v>       0.20000000       0.33333333       0.50000000 </v>
    <v>       0.30000000       0.33333333       0.50000000 </v>
    <v>       0.40000000       0.33333333       0.50000000 </v>
    <v>       0.50000000       0.33333333       0.50000000 </v>
    <v>      -0.40000000       0.33333333       0.50000000 </v>
    <v>      -0.30000000       0.33333333       0.50000000 </v>
    <v>      -0.20000000       0.33333333       0.50000000 </v>
    <v>      -0.10000000       0.33333333       0.50000000 </v>
    <v>       0.00000000       0.50000000       0.50000000 </v>
    <v>       0.10000000       0.50000000       0.50000000 </v>
    <v>       0.20000000       0.50000000       0.50000000 </v>
    <v>       0.30000000       0.50000000       0.50000000 </v>
    <v>       0.40000000       0.50000000       0.50000000 </v>
    <v>       0.50000000       0.50000000       0.50000000 </v>
   </varray>
   <varray name="weights" >
    <v>       0.00416667 </v>
    <v>       0.00833333 </v>
    <v>       0.00833333 </v>
    <v>       0.00833333 </v>
    <v>       0.00833333 </v>
    <v>       0.00416667 </v>
    <v>       0.00833333 </v>
    <v>       0.00833333 </v>
    <v>       0.00833333 </v>
    <v>       0.00833333 </v>
    <v>       0.00833333 </v>
    <v>       0.00833333 </v>
    <v>       0.00833333 </v>
    <v>       0.00833333 </v>
    <v>       0.00833333 </v>
    <v>       0.00833333 </v>
    <v>       0.00833333 </v>
    <v>       0.00833333 </v>
    <v>       0.00833333 </v>
    <v>       0.00833333 </v>
    <v>       0.00833333 </v>
    <v>       0.00833333 </v>
    <v>       0.00833333 </v>
    <v>       0.00833333 </v>
    <v>       0.00833333 </v>
[...]
       <r>    1.4876    1.0000 </r>
       <r>    1.4876    1.0000 </r>
       <r>    5.4471    0.0000 </r>
       <r>    5.4471    0.0000 </r>
       <r>    5.5523    0.0000 </r>
       <r>    5.5523    0.0000 </r>
       <r>    6.3891    0.0000 </r>
       <r>    6.3891    0.0000 </r>
       <r>    6.3911    0.0000 </r>
       <r>    6.3911    0.0000 </r>
       <r>    6.7952    0.0000 </r>
       <r>    6.7952    0.0000 </r>
       <r>    6.7974    0.0000 </r>
       <r>    6.7974    0.0000 </r>
       <r>   10.0572    0.0000 </r>
       <r>   10.0572    0.0000 </r>
       <r>   10.1175    0.0000 </r>
       <r>   10.1175    0.0000 </r>
      </set>
      <set comment="kpoint 124">
       <r>  -14.1122    1.0000 </r>
       <r>  -14.1122    1.0000 </r>
       <r>  -14.1122    1.0000 </r>
       <r>  -14.1122    1.0000 </r>
       <r>  -14.0721    1.0000 </r>
       <r>  -14.0721    1.0000 </r>
       <r>  -14.0721    1.0000 </r>
       <r>  -14.0721    1.0000 </r>
       <r>  -14.0478    1.0000 </r>
       <r>  -14.0478    1.0000 </r>
       <r>  -14.0478    1.0000 </r>
       <r>  -14.0478    1.0000 </r>
       <r>  -14.0410    1.0000 </r>
       <r>  -14.0410    1.0000 </r>
       <r>  -14.0410    1.0000 </r>
       <r>  -14.0410    1.0000 </r>
       <r>  -14.0355    1.0000 </r>
       <r>  -14.0355    1.0000 </r>
       <r>  -14.0355    1.0000 </r>
       <r>  -14.0355    1.0000 </r>
       <r>  -11.5540    1.0000 </r>
       <r>  -11.5540    1.0000 </r>
       <r>  -11.5540    1.0000 </r>
       <r>  -11.5540    1.0000 </r>
       <r>  -11.3755    1.0000 </r>
       <r>  -11.3755    1.0000 </r>
       <r>  -11.3755    1.0000 </r>
       <r>  -11.3755    1.0000 </r>
       <r>   -5.2744    1.0000 </r>
       <r>   -5.2744    1.0000 </r>
       <r>   -5.2744    1.0000 </r>
       <r>   -5.2744    1.0000 </r>
       <r>   -1.1519    1.0000 </r>
       <r>   -1.1519    1.0000 </r>
       <r>   -1.1519    1.0000 </r>
       <r>   -1.1519    1.0000 </r>
       <r>   -0.4367    1.0000 </r>
       <r>   -0.4367    1.0000 </r>
       <r>   -0.4367    1.0000 </r>
       <r>   -0.4367    1.0000 </r>
       <r>   -0.0985    1.0000 </r>
       <r>   -0.0985    1.0000 </r>
       <r>   -0.0985    1.0000 </r>
       <r>   -0.0985    1.0000 </r>
       <r>    0.8282    1.0000 </r>
       <r>    0.8282    1.0000 </r>
       <r>    0.8282    1.0000 </r>
       <r>    0.8282    1.0000 </r>
       <r>    1.0593    1.0000 </r>
       <r>    1.0593    1.0000 </r>
       <r>    1.0593    1.0000 </r>
       <r>    1.0593    1.0000 </r>
       <r>    1.4278    1.0000 </r>
       <r>    1.4278    1.0000 </r>
       <r>    1.4278    1.0000 </r>
       <r>    1.4278    1.0000 </r>
       <r>    5.4807    0.0000 </r>
       <r>    5.4807    0.0000 </r>
       <r>    5.4807    0.0000 </r>
       <r>    5.4807    0.0000 </r>
       <r>    6.4631    0.0000 </r>
       <r>    6.4631    0.0000 </r>
       <r>    6.4631    0.0000 </r>
       <r>    6.4631    0.0000 </r>
       <r>    6.9036    0.0000 </r>
       <r>    6.9036    0.0000 </r>
       <r>    6.9036    0.0000 </r>
       <r>    6.9036    0.0000 </r>
       <r>   10.2467    0.0000 </r>
       <r>   10.2467    0.0000 </r>
       <r>   10.2467    0.0000 </r>
       <r>   10.2467    0.0000 </r>
      </set>
     </set>
    </set>
   </array>
  </eigenvalues>
  <separator name="orbital magnetization" >
   <v name="MAGDIPOLOUT">      0.00000000      0.00000000      0.00000000</v>
  </separator>
  <dos>
   <i name="efermi">      1.75868804 </i>
   <total>
    <array>
     <dimension dim="1">gridpoints</dimension>
     <dimension dim="2">spin</dimension>
     <field>energy</field>
     <field>total</field>
     <field>integrated</field>
     <set>
      <set comment="spin 1">
       <r>   -15.3535     0.0000     0.0000 </r>
       <r>   -15.2626     0.0000     0.0000 </r>
       <r>   -15.1717     0.0000     0.0000 </r>
       <r>   -15.0808     0.0000     0.0000 </r>
       <r>   -14.9899     0.0000     0.0000 </r>
       <r>   -14.8990     0.0000     0.0000 </r>
       <r>   -14.8081     0.0000     0.0000 </r>
       <r>   -14.7172     0.0000     0.0000 </r>
       <r>   -14.6263     0.0000     0.0000 </r>
       <r>   -14.5354     0.0000     0.0000 </r>
       <r>   -14.4445     0.0000     0.0000 </r>
       <r>   -14.3536     0.0000     0.0000 </r>
       <r>   -14.2627     0.0000     0.0000 </r>
       <r>   -14.1717     0.0000     0.0000 </r>
       <r>   -14.0808    91.7976     8.3445 </r>
       <r>   -13.9899   317.5226    40.0000 </r>
       <r>   -13.8990     0.0000    40.0000 </r>
       <r>   -13.8081     0.0000    40.0000 </r>
       <r>   -13.7172     0.0000    40.0000 </r>
       <r>   -13.6263     0.0000    40.0000 </r>
       <r>   -13.5354     0.0000    40.0000 </r>
       <r>   -13.4445     0.0000    40.0000 </r>
       <r>   -13.3536     0.0000    40.0000 </r>
       <r>   -13.2627     0.0000    40.0000 </r>
       <r>   -13.1718     0.0000    40.0000 </r>
       <r>   -13.0809     0.0000    40.0000 </r>
       <r>   -12.9900     0.0000    40.0000 </r>
       <r>   -12.8991     0.0000    40.0000 </r>
       <r>   -12.8082     0.0000    40.0000 </r>
       <r>   -12.7173     0.0000    40.0000 </r>
       <r>   -12.6264     0.0000    40.0000 </r>
       <r>   -12.5355     0.0000    40.0000 </r>
       <r>   -12.4446     0.0000    40.0000 </r>
       <r>   -12.3537     0.0000    40.0000 </r>
       <r>   -12.2628     0.0000    40.0000 </r>
       <r>   -12.1719     0.0000    40.0000 </r>
       <r>   -12.0810     1.1478    40.1043 </r>
       <r>   -11.9901     3.5882    40.4845 </r>
       <r>   -11.8992     5.2449    41.0852 </r>
       <r>   -11.8083     8.0024    41.9524 </r>
       <r>   -11.7174     9.5944    43.0069 </r>
       <r>   -11.6265    12.9755    44.3800 </r>
       <r>   -11.5356    19.8769    46.3440 </r>
       <r>   -11.4447    14.3053    47.9923 </r>
       <r>   -11.3538    36.6949    51.3557 </r>
       <r>   -11.2629    29.9778    54.4560 </r>
       <r>   -11.1720    13.2123    55.9774 </r>
       <r>   -11.0811     0.0000    56.0000 </r>
       <r>   -10.9902     0.0000    56.0000 </r>
       <r>   -10.8993     0.0000    56.0000 </r>
       <r>   -10.8084     0.0000    56.0000 </r>
       <r>   -10.7175     0.0000    56.0000 </r>
       <r>   -10.6266     0.0000    56.0000 </r>
       <r>   -10.5357     0.0000    56.0000 </r>
       <r>   -10.4448     0.0000    56.0000 </r>
       <r>   -10.3539     0.0000    56.0000 </r>
       <r>   -10.2630     0.0000    56.0000 </r>
       <r>   -10.1721     0.0000    56.0000 </r>
       <r>   -10.0812     0.0000    56.0000 </r>
       <r>    -9.9903     0.0000    56.0000 </r>
       <r>    -9.8994     0.0000    56.0000 </r>
       <r>    -9.8085     0.0000    56.0000 </r>
       <r>    -9.7176     0.0000    56.0000 </r>
       <r>    -9.6267     0.0000    56.0000 </r>
       <r>    -9.5358     0.0000    56.0000 </r>
       <r>    -9.4449     0.0000    56.0000 </r>
       <r>    -9.3540     0.0000    56.0000 </r>
       <r>    -9.2631     0.0000    56.0000 </r>
       <r>    -9.1722     0.0000    56.0000 </r>
       <r>    -9.0813     0.0000    56.0000 </r>
       <r>    -8.9904     0.0000    56.0000 </r>
       <r>    -8.8995     0.0000    56.0000 </r>
       <r>    -8.8086     0.0000    56.0000 </r>
       <r>    -8.7177     0.0000    56.0000 </r>
       <r>    -8.6268     0.0000    56.0000 </r>
       <r>    -8.5359     0.0000    56.0000 </r>
       <r>    -8.4450     0.0000    56.0000 </r>
       <r>    -8.3541     0.0000    56.0000 </r>
       <r>    -8.2632     0.0000    56.0000 </r>
       <r>    -8.1723     0.0000    56.0000 </r>
       <r>    -8.0814     0.0000    56.0000 </r>
       <r>    -7.9905     0.0000    56.0000 </r>
       <r>    -7.8996     0.0000    56.0000 </r>
       <r>    -7.8087     0.0000    56.0000 </r>
       <r>    -7.7178     0.0000    56.0000 </r>
       <r>    -7.6269     0.0000    56.0000 </r>
       <r>    -7.5360     0.0000    56.0000 </r>
       <r>    -7.4451     0.0000    56.0000 </r>
       <r>    -7.3542     0.0000    56.0000 </r>
       <r>    -7.2633     0.0000    56.0000 </r>
       <r>    -7.1724     0.0000    56.0000 </r>
       <r>    -7.0815     0.0000    56.0000 </r>
       <r>    -6.9906     0.0000    56.0000 </r>
       <r>    -6.8997     0.0000    56.0000 </r>
       <r>    -6.8088     0.0000    56.0000 </r>
       <r>    -6.7178     0.0000    56.0000 </r>
       <r>    -6.6269     0.0000    56.0000 </r>
       <r>    -6.5360     0.0000    56.0000 </r>
       <r>    -6.4451     0.0000    56.0000 </r>
       <r>    -6.3542     0.0000    56.0000 </r>
       <r>    -6.2633     0.0000    56.0000 </r>
       <r>    -6.1724     0.0000    56.0000 </r>
       <r>    -6.0815     0.0000    56.0000 </r>
       <r>    -5.9906     0.0000    56.0000 </r>
       <r>    -5.8997     0.0000    56.0000 </r>
       <r>    -5.8088     0.0000    56.0000 </r>
       <r>    -5.7179     0.0000    56.0000 </r>
       <r>    -5.6270     0.0000    56.0000 </r>
       <r>    -5.5361     0.0000    56.0000 </r>
       <r>    -5.4452     0.1630    56.0148 </r>
       <r>    -5.3543     8.1097    56.7707 </r>
       <r>    -5.2634    19.5019    58.6860 </r>
       <r>    -5.1725    13.3059    60.2019 </r>
       <r>    -5.0816     7.6603    61.0468 </r>
       <r>    -4.9907     7.3280    61.8361 </r>
       <r>    -4.8998     7.5790    62.5397 </r>
       <r>    -4.8089     4.5790    62.9829 </r>
       <r>    -4.7180     2.3507    63.3220 </r>
       <r>    -4.6271     2.9209    63.5905 </r>
       <r>    -4.5362     1.6400    63.7742 </r>
       <r>    -4.4453     1.7125    63.9308 </r>
       <r>    -4.3544     0.5510    63.9917 </r>
       <r>    -4.2635     0.0908    64.0000 </r>
       <r>    -4.1726     0.0000    64.0000 </r>
       <r>    -4.0817     0.0000    64.0000 </r>
       <r>    -3.9908     0.0000    64.0000 </r>
       <r>    -3.8999     0.0000    64.0000 </r>
       <r>    -3.8090     0.0000    64.0000 </r>
       <r>    -3.7181     0.0000    64.0000 </r>
       <r>    -3.6272     0.0000    64.0000 </r>
       <r>    -3.5363     0.0000    64.0000 </r>
       <r>    -3.4454     0.0000    64.0000 </r>
       <r>    -3.3545     0.0000    64.0000 </r>
       <r>    -3.2636     0.0000    64.0000 </r>
       <r>    -3.1727     0.0000    64.0000 </r>
       <r>    -3.0818     0.0000    64.0000 </r>
       <r>    -2.9909     0.0000    64.0000 </r>
       <r>    -2.9000     0.0000    64.0000 </r>
       <r>    -2.8091     0.0000    64.0000 </r>
       <r>    -2.7182     0.0000    64.0000 </r>
       <r>    -2.6273     0.0000    64.0000 </r>
       <r>    -2.5364     0.0000    64.0000 </r>
       <r>    -2.4455     0.0000    64.0000 </r>
       <r>    -2.3546     0.0000    64.0000 </r>
       <r>    -2.2637     0.0000    64.0000 </r>
       <r>    -2.1728     0.0000    64.0000 </r>
       <r>    -2.0819     0.0000    64.0000 </r>
       <r>    -1.9910     0.0000    64.0000 </r>
       <r>    -1.9001     0.0000    64.0000 </r>
       <r>    -1.8092     0.0000    64.0000 </r>
       <r>    -1.7183     0.0000    64.0000 </r>
       <r>    -1.6274     0.0000    64.0000 </r>
       <r>    -1.5365     0.0000    64.0000 </r>
       <r>    -1.4456     0.2000    64.0182 </r>
       <r>    -1.3547     2.5016    64.2609 </r>
       <r>    -1.2638     5.0772    64.8283 </r>
       <r>    -1.1729    11.9496    65.9869 </r>
       <r>    -1.0820    15.8824    67.4480 </r>
       <r>    -0.9911    13.3165    68.9322 </r>
       <r>    -0.9002    10.7773    69.9779 </r>
       <r>    -0.8093    14.0417    71.4215 </r>
       <r>    -0.7184     8.8914    72.3859 </r>
       <r>    -0.6275     9.6279    73.4019 </r>
       <r>    -0.5366     9.8413    74.5698 </r>
       <r>    -0.4457     9.1304    75.5406 </r>
       <r>    -0.3548    14.2443    76.9474 </r>
       <r>    -0.2639     8.3866    77.9388 </r>
       <r>    -0.1730    12.1877    79.1253 </r>
       <r>    -0.0821     9.6232    80.1099 </r>
       <r>     0.0088     8.3025    81.1052 </r>
       <r>     0.0997    14.6557    82.6161 </r>
       <r>     0.1906     8.8340    83.6866 </r>
       <r>     0.2815     9.8490    84.7972 </r>
       <r>     0.3724    10.4192    85.8991 </r>
       <r>     0.4633    10.4611    87.0290 </r>
       <r>     0.5542    12.5509    88.2281 </r>
       <r>     0.6451    15.0980    89.6682 </r>
       <r>     0.7360    15.3052    91.2519 </r>
       <r>     0.8270    17.6905    93.0934 </r>
       <r>     0.9179    17.9909    95.0213 </r>
       <r>     1.0088    26.2127    97.8536 </r>
       <r>     1.0997    22.8377   100.1958 </r>
       <r>     1.1906    21.7296   102.5691 </r>
       <r>     1.2815    21.2194   104.8400 </r>
       <r>     1.3724    15.9665   106.8290 </r>
       <r>     1.4633    17.9604   108.6253 </r>
       <r>     1.5542    18.2160   110.6585 </r>
       <r>     1.6451    10.9808   111.8652 </r>
       <r>     1.7360     0.5410   112.0000 </r>
       <r>     1.8269     0.0000   112.0000 </r>
       <r>     1.9178     0.0000   112.0000 </r>
       <r>     2.0087     0.0000   112.0000 </r>
       <r>     2.0996     0.0000   112.0000 </r>
       <r>     2.1905     0.0000   112.0000 </r>
       <r>     2.2814     0.0000   112.0000 </r>
       <r>     2.3723     0.0000   112.0000 </r>
       <r>     2.4632     0.0000   112.0000 </r>
       <r>     2.5541     0.0000   112.0000 </r>
       <r>     2.6450     0.0000   112.0000 </r>
       <r>     2.7359     0.0000   112.0000 </r>
       <r>     2.8268     0.0000   112.0000 </r>
       <r>     2.9177     0.0000   112.0000 </r>
       <r>     3.0086     0.0000   112.0000 </r>
       <r>     3.0995     0.0000   112.0000 </r>
       <r>     3.1904     0.0000   112.0000 </r>
       <r>     3.2813     0.0000   112.0000 </r>
       <r>     3.3722     0.0000   112.0000 </r>
       <r>     3.4631     0.0000   112.0000 </r>
       <r>     3.5540     0.0000   112.0000 </r>
       <r>     3.6449     0.0000   112.0000 </r>
       <r>     3.7358     0.0000   112.0000 </r>
       <r>     3.8267     0.0000   112.0000 </r>
       <r>     3.9176     0.0000   112.0000 </r>
       <r>     4.0085     0.0000   112.0000 </r>
       <r>     4.0994     0.0000   112.0000 </r>
       <r>     4.1903     0.0000   112.0000 </r>
       <r>     4.2812     0.0000   112.0000 </r>
       <r>     4.3721     0.0000   112.0000 </r>
       <r>     4.4630     0.0000   112.0000 </r>
       <r>     4.5539     0.0000   112.0000 </r>
       <r>     4.6448     0.0000   112.0000 </r>
       <r>     4.7357     0.0218   112.0020 </r>
       <r>     4.8266     1.1183   112.1183 </r>
       <r>     4.9175     3.7674   112.4758 </r>
       <r>     5.0084     7.7126   113.2534 </r>
       <r>     5.0993     5.7189   113.8077 </r>
       <r>     5.1902     6.0084   114.4388 </r>
       <r>     5.2811     7.9910   115.1964 </r>
       <r>     5.3720     4.2670   115.7462 </r>
       <r>     5.4629     6.8923   116.4688 </r>
       <r>     5.5538    12.0521   117.6637 </r>
       <r>     5.6447    10.0359   118.6460 </r>
       <r>     5.7356     8.5478   119.5444 </r>
       <r>     5.8265    18.2607   121.2708 </r>
       <r>     5.9174    11.3666   122.5089 </r>
       <r>     6.0083    10.1223   123.5052 </r>
       <r>     6.0992    12.6320   124.7351 </r>
       <r>     6.1901    12.5174   126.0482 </r>
       <r>     6.2810    12.9147   127.2684 </r>
       <r>     6.3719    13.7094   128.6093 </r>
       <r>     6.4628    14.0699   130.0234 </r>
       <r>     6.5537    11.2737   131.2375 </r>
       <r>     6.6446    10.3922   132.3471 </r>
       <r>     6.7355     9.8135   133.3103 </r>
       <r>     6.8264    10.7049   134.3354 </r>
       <r>     6.9173     5.9342   134.9979 </r>
       <r>     7.0082     4.1197   135.4607 </r>
       <r>     7.0991     3.2961   135.8500 </r>
       <r>     7.1900     1.0629   135.9645 </r>
       <r>     7.2809     0.1827   135.9999 </r>
       <r>     7.3718     0.0000   136.0000 </r>
       <r>     7.4627     0.0000   136.0000 </r>
       <r>     7.5536     0.0000   136.0000 </r>
       <r>     7.6445     0.0000   136.0000 </r>
       <r>     7.7354     0.0000   136.0000 </r>
       <r>     7.8263     0.0000   136.0000 </r>
       <r>     7.9172     0.0000   136.0000 </r>
       <r>     8.0081     0.0000   136.0000 </r>
       <r>     8.0990     0.0000   136.0000 </r>
       <r>     8.1899     0.0000   136.0000 </r>
       <r>     8.2808     0.0000   136.0000 </r>
       <r>     8.3718     0.0000   136.0000 </r>
       <r>     8.4627     0.0000   136.0000 </r>
       <r>     8.5536     0.0000   136.0000 </r>
       <r>     8.6445     0.1285   136.0117 </r>
       <r>     8.7354     0.2140   136.0444 </r>
       <r>     8.8263     0.9736   136.1469 </r>
       <r>     8.9172     1.1001   136.2583 </r>
       <r>     9.0081     0.7335   136.3250 </r>
       <r>     9.0990     1.6475   136.4748 </r>
       <r>     9.1899     0.5191   136.5722 </r>
       <r>     9.2808     2.1293   136.8186 </r>
       <r>     9.3717     0.6641   136.8854 </r>
       <r>     9.4626     1.9801   137.1550 </r>
       <r>     9.5535     5.9199   137.6971 </r>
       <r>     9.6444     7.1522   138.4008 </r>
       <r>     9.7353     7.2090   139.0881 </r>
       <r>     9.8262     4.9055   139.6715 </r>
       <r>     9.9171     9.1696   140.5174 </r>
       <r>    10.0080     9.2560   141.4083 </r>
       <r>    10.0989     9.5327   142.3718 </r>
       <r>    10.1898     7.5675   143.2588 </r>
       <r>    10.2807     3.2735   143.6809 </r>
       <r>    10.3716     0.8242   143.7583 </r>
       <r>    10.4625     1.1249   143.8858 </r>
       <r>    10.5534     0.7334   143.9833 </r>
       <r>    10.6443     0.0000   143.9833 </r>
       <r>    10.7352     0.1833   144.0000 </r>
       <r>    10.8261     0.0000   144.0000 </r>
       <r>    10.9170     0.0000   144.0000 </r>
       <r>    11.0079     0.0000   144.0000 </r>
       <r>    11.0988     0.0000   144.0000 </r>
       <r>    11.1897     0.0000   144.0000 </r>
       <r>    11.2806     0.0000   144.0000 </r>
       <r>    11.3715     0.0000   144.0000 </r>
       <r>    11.4624     0.0000   144.0000 </r>
       <r>    11.5533     0.0000   144.0000 </r>
       <r>    11.6442     0.0000   144.0000 </r>
       <r>    11.7351     0.0000   144.0000 </r>
       <r>    11.8260     0.0000   144.0000 </r>
       <r>    11.9169     0.0000   144.0000 </r>
      </set>
     </set>
    </array>
   </total>
  </dos>
 </calculation>
 <structure name="finalpos" >
  <crystal>
   <varray name="basis" >
    <v>       4.74311129       0.00000000       0.00000000 </v>
    <v>       0.00000000       8.13019127       0.00000000 </v>
    <v>       0.00000000       0.00000000       9.87943770 </v>
   </varray>
   <i name="volume">    380.97484763 </i>
   <varray name="rec_basis" >
    <v>       0.21083208       0.00000000       0.00000000 </v>
    <v>       0.00000000       0.12299834       0.00000000 </v>
    <v>       0.00000000       0.00000000       0.10122034 </v>
   </varray>
  </crystal>
  <varray name="positions" >
   <v>       0.25000002       0.23348407       0.42250843 </v>
   <v>       0.75000006       0.76651601       0.57749164 </v>
   <v>       0.25000002       0.73348411       0.07749161 </v>
   <v>       0.75000006       0.26651597       0.92250847 </v>
   <v>       0.25000002       0.00905653       0.65618438 </v>
   <v>       0.75000006       0.99094355       0.34381570 </v>
   <v>       0.25000002       0.50905657       0.84381573 </v>
   <v>       0.75000006       0.49094351       0.15618434 </v>
   <v>       0.75000006       0.85872171       0.91377105 </v>
   <v>       0.25000002       0.14127837       0.08622903 </v>
   <v>       0.75000006       0.35872167       0.58622907 </v>
   <v>       0.25000002       0.64127841       0.41377101 </v>
  </varray>
 </structure>
</modeling>
