 
             +---------------------------------------------------+
             |                                                   |
             |                   WANNIER90                       |
             |                                                   |
             +---------------------------------------------------+
             |                                                   |
             |        Welcome to the Maximally-Localized         |
             |        Generalized Wannier Functions code         |
             |            http://www.wannier.org                 |
             |                                                   |
             |                                                   |
             |  Wannier90 Developer Group:                       |
             |    Giovanni Pizzi    (EPFL)                       |
             |    Valerio Vitale    (Cambridge)                  |
             |    David Vanderbilt  (Rutgers University)         |
             |    Nicola Marzari    (EPFL)                       |
             |    Ivo Souza         (Universidad del Pais Vasco) |
             |    Arash A. Mostofi  (Imperial College London)    |
             |    Jonathan R. Yates (University of Oxford)       |
             |                                                   |
             |  For the full list of Wannier90 3.x authors,      |
             |  please check the code documentation and the      |
             |  README on the GitHub page of the code            |
             |                                                   |
             |                                                   |
             |  Please cite                                      |
             |                                                   |
             |  [ref] "Wannier90 as a community code:            |
             |        new features and applications",            |
             |        G. Pizzi et al., J. Phys. Cond. Matt. 32,  |
             |        165902 (2020).                             |
             |        http://doi.org/10.1088/1361-648X/ab51ff    |
             |                                                   |
             |  in any publications arising from the use of      |
             |  this code. For the method please cite            |
             |                                                   |
             |  [ref] "Maximally Localized Generalised Wannier   |
             |         Functions for Composite Energy Bands"     |
             |         N. Marzari and D. Vanderbilt              |
             |         Phys. Rev. B 56 12847 (1997)              |
             |                                                   |
             |  [ref] "Maximally Localized Wannier Functions     |
             |         for Entangled Energy Bands"               |
             |         I. Souza, N. Marzari and D. Vanderbilt    |
             |         Phys. Rev. B 65 035109 (2001)             |
             |                                                   |
             |                                                   |
             | Copyright (c) 1996-2020                           |
             |        The Wannier90 Developer Group and          |
             |        individual contributors                    |
             |                                                   |
             |      Release: 3.1.0        5th March    2020      |
             |                                                   |
             | This program is free software; you can            |
             | redistribute it and/or modify it under the terms  |
             | of the GNU General Public License as published by |
             | the Free Software Foundation; either version 2 of |
             | the License, or (at your option) any later version|
             |                                                   |
             | This program is distributed in the hope that it   |
             | will be useful, but WITHOUT ANY WARRANTY; without |
             | even the implied warranty of MERCHANTABILITY or   |
             | FITNESS FOR A PARTICULAR PURPOSE. See the GNU     |
             | General Public License for more details.          |
             |                                                   |
             | You should have received a copy of the GNU General|
             | Public License along with this program; if not,   |
             | write to the Free Software Foundation, Inc.,      |
             | 675 Mass Ave, Cambridge, MA 02139, USA.           |
             |                                                   |
             +---------------------------------------------------+
             |    Execution started on  3Jan2024 at 14:32:48     |
             +---------------------------------------------------+
 
 ******************************************************************************
 * -> Using CODATA 2006 constant values                                       *
 *    (http://physics.nist.gov/cuu/Constants/index.html)                      *
 * -> Using Bohr value from CODATA                                            *
 ******************************************************************************
 

 Running in parallel on   8 CPUs

 
                                    ------
                                    SYSTEM
                                    ------
 
                              Lattice Vectors (Ang)
                    a_1    -2.681580   0.000000   2.681580
                    a_2     0.000000   2.681580   2.681580
                    a_3    -2.681580   2.681580   0.000000
 
                   Unit Cell Volume:      38.56579  (Ang^3)
 
                        Reciprocal-Space Vectors (Ang^-1)
                    b_1    -1.171545  -1.171545   1.171545
                    b_2     1.171545   1.171545   1.171545
                    b_3    -1.171545   1.171545  -1.171545
  
 *----------------------------------------------------------------------------*
 |   Site       Fractional Coordinate          Cartesian Coordinate (Ang)     |
 +----------------------------------------------------------------------------+
 | Ar   1   0.00000   0.00000   0.00000   |    0.00000   0.00000   0.00000    |
 *----------------------------------------------------------------------------*
                                ------------
                                K-POINT GRID
                                ------------
  
             Grid size = 14 x 14 x 14      Total points = 2744
  
  
 *---------------------------------- MAIN ------------------------------------*
 |  Number of Wannier Functions               :                 3             |
 |  Number of Objective Wannier Functions     :                 3             |
 |  Number of input Bloch states              :                 3             |
 |  Output verbosity (1=low, 5=high)          :                 1             |
 |  Timing Level (1=low, 5=high)              :                 1             |
 |  Optimisation (0=memory, 3=speed)          :                 3             |
 |  Length Unit                               :               Ang             |
 |  Post-processing setup (write *.nnkp)      :                 F             |
 |  Using Gamma-only branch of algorithms     :                 F             |
 *----------------------------------------------------------------------------*
 *------------------------------- WANNIERISE ---------------------------------*
 |  Total number of iterations                :               500             |
 |  Number of CG steps before reset           :                 5             |
 |  Trial step length for line search         :             2.000             |
 |  Convergence tolerence                     :         0.100E-09             |
 |  Convergence window                        :                -1             |
 |  Iterations between writing output         :                 1             |
 |  Iterations between backing up to disk     :               100             |
 |  Write r^2_nm to file                      :                 F             |
 |  Write xyz WF centres to file              :                 F             |
 |  Write on-site energies <0n|H|0n> to file  :                 F             |
 |  Use guiding centre to control phases      :                 F             |
 |  Use phases for initial projections        :                 F             |
 *----------------------------------------------------------------------------*
 Time to read parameters        0.177 (sec)

 *---------------------------------- K-MESH ----------------------------------*
 +----------------------------------------------------------------------------+
 |                    Distance to Nearest-Neighbour Shells                    |
 |                    ------------------------------------                    |
 |          Shell             Distance (Ang^-1)          Multiplicity         |
 |          -----             -----------------          ------------         |
 |             1                   0.144941                      8            |
 |             2                   0.167364                      6            |
 |             3                   0.236688                     12            |
 |             4                   0.277541                     24            |
 |             5                   0.289882                      8            |
 |             6                   0.334727                      6            |
 |             7                   0.364761                     24            |
 |             8                   0.374236                     24            |
 |             9                   0.409955                     24            |
 |            10                   0.434823                     32            |
 |            11                   0.473376                     12            |
 |            12                   0.495068                     48            |
 |            13                   0.502091                     30            |
 |            14                   0.529250                     24            |
 |            15                   0.548738                     24            |
 |            16                   0.555082                     24            |
 |            17                   0.579765                      8            |
 |            18                   0.597608                     48            |
 |            19                   0.603438                     24            |
 |            20                   0.626217                     48            |
 |            21                   0.642772                     72            |
 |            22                   0.669455                      6            |
 |            23                   0.684965                     24            |
 |            24                   0.690058                     48            |
 |            25                   0.710064                     36            |
 |            26                   0.724706                     56            |
 |            27                   0.729521                     24            |
 |            28                   0.748473                     24            |
 |            29                   0.762378                     72            |
 |            30                   0.766956                     48            |
 |            31                   0.785005                     24            |
 |            32                   0.798274                     48            |
 |            33                   0.819911                     24            |
 |            34                   0.832624                     72            |
 |            35                   0.836818                     30            |
 |            36                   0.853390                     72            |
 +----------------------------------------------------------------------------+
 | The b-vectors are chosen automatically                                     |
 | The following shells are used:   1                                         |
 +----------------------------------------------------------------------------+
 |                        Shell   # Nearest-Neighbours                        |
 |                        -----   --------------------                        |
 |                          1               8                                 |
 +----------------------------------------------------------------------------+
 | Completeness relation is fully satisfied [Eq. (B1), PRB 56, 12847 (1997)]  |
 +----------------------------------------------------------------------------+
 |                  b_k Vectors (Ang^-1) and Weights (Ang^2)                  |
 |                  ----------------------------------------                  |
 |            No.         b_k(x)      b_k(y)      b_k(z)        w_b           |
 |            ---        --------------------------------     --------        |
 |             1        -0.083682    0.083682   -0.083682    17.850397        |
 |             2         0.083682    0.083682    0.083682    17.850397        |
 |             3        -0.083682   -0.083682    0.083682    17.850397        |
 |             4        -0.083682    0.083682    0.083682    17.850397        |
 |             5         0.083682   -0.083682    0.083682    17.850397        |
 |             6        -0.083682   -0.083682   -0.083682    17.850397        |
 |             7         0.083682    0.083682   -0.083682    17.850397        |
 |             8         0.083682   -0.083682   -0.083682    17.850397        |
 +----------------------------------------------------------------------------+
 |                           b_k Directions (Ang^-1)                          |
 |                           -----------------------                          |
 |            No.           x           y           z                         |
 |            ---        --------------------------------                     |
 |             1        -0.083682    0.083682   -0.083682                     |
 |             2         0.083682    0.083682    0.083682                     |
 |             3        -0.083682   -0.083682    0.083682                     |
 |             4        -0.083682    0.083682    0.083682                     |
 +----------------------------------------------------------------------------+
  
 Time to get kmesh              1.663 (sec)
 *============================================================================*
 |                              MEMORY ESTIMATE                               |
 |         Maximum RAM allocated during each phase of the calculation         |
 *============================================================================*
 |                            Wannierise:           11.12 Mb                  |
 |                          plot_wannier:           11.12 Mb                  |
 *----------------------------------------------------------------------------*
  
 Starting a new Wannier90 calculation ...


 Reading overlaps from mp-23155.mmn    :  Created on  3Jan2024 at 14:32:43

 Reading projections from mp-23155.amn :  Created on  3Jan2024 at 14:32:42  with SCDM

 Time to read overlaps          0.220 (sec)

 Writing checkpoint file mp-23155.chk... done

 
 *------------------------------- WANNIERISE ---------------------------------*
 +--------------------------------------------------------------------+<-- CONV
 | Iter  Delta Spread     RMS Gradient      Spread (Ang^2)      Time  |<-- CONV
 +--------------------------------------------------------------------+<-- CONV
 
 ------------------------------------------------------------------------------
 Initial State
  WF centre and spread    1  ( -0.000122, -0.000071, -0.000209 )     0.94764346
  WF centre and spread    2  (  0.000247, -0.000158,  0.000063 )     0.94720945
  WF centre and spread    3  ( -0.000101,  0.000254,  0.000115 )     0.94727449
  Sum of centres and spreads (  0.000023,  0.000025, -0.000030 )     2.84212741
 
      0     0.284E+01     0.0000000000        2.8421274060       0.00  <-- CONV
        O_D=      0.0090213 O_OD=      0.0120826 O_TOT=      2.8421274 <-- SPRD
 ------------------------------------------------------------------------------
 Cycle:      1
  WF centre and spread    1  ( -0.000025, -0.000016, -0.000039 )     0.94219521
  WF centre and spread    2  (  0.000042, -0.000023,  0.000012 )     0.94220895
  WF centre and spread    3  ( -0.000013,  0.000043,  0.000021 )     0.94220497
  Sum of centres and spreads (  0.000004,  0.000005, -0.000006 )     2.82660914
 
      1    -0.155E-01     0.0197480971        2.8266091419       0.01  <-- CONV
        O_D=      0.0012009 O_OD=      0.0043847 O_TOT=      2.8266091 <-- SPRD
 Delta: O_D= -0.7820383E-02 O_OD= -0.7697881E-02 O_TOT= -0.1551826E-01 <-- DLTA
 ------------------------------------------------------------------------------
 Cycle:      2
  WF centre and spread    1  ( -0.000024, -0.000015, -0.000038 )     0.94140697
  WF centre and spread    2  (  0.000041, -0.000022,  0.000012 )     0.94139016
  WF centre and spread    3  ( -0.000012,  0.000042,  0.000020 )     0.94140663
  Sum of centres and spreads (  0.000004,  0.000004, -0.000005 )     2.82420376
 
      2    -0.241E-02     0.0370042227        2.8242037571       0.02  <-- CONV
        O_D=      0.0003776 O_OD=      0.0028027 O_TOT=      2.8242038 <-- SPRD
 Delta: O_D= -0.8233132E-03 O_OD= -0.1582072E-02 O_TOT= -0.2405385E-02 <-- DLTA
 ------------------------------------------------------------------------------
 Cycle:      3
  WF centre and spread    1  ( -0.000023, -0.000015, -0.000036 )     0.94133295
  WF centre and spread    2  (  0.000039, -0.000021,  0.000011 )     0.94131464
  WF centre and spread    3  ( -0.000012,  0.000040,  0.000020 )     0.94133268
  Sum of centres and spreads (  0.000004,  0.000004, -0.000005 )     2.82398028
 
      3    -0.223E-03     0.0097776477        2.8239802777       0.03  <-- CONV
        O_D=      0.0002911 O_OD=      0.0026656 O_TOT=      2.8239803 <-- SPRD
 Delta: O_D= -0.8647176E-04 O_OD= -0.1370077E-03 O_TOT= -0.2234795E-03 <-- DLTA
 ------------------------------------------------------------------------------
 Cycle:      4
  WF centre and spread    1  ( -0.000020, -0.000012, -0.000031 )     0.94127089
  WF centre and spread    2  (  0.000033, -0.000017,  0.000010 )     0.94125774
  WF centre and spread    3  ( -0.000010,  0.000033,  0.000017 )     0.94127556
  Sum of centres and spreads (  0.000003,  0.000004, -0.000004 )     2.82380419
 
      4    -0.176E-03     0.0054138746        2.8238041876       0.04  <-- CONV
        O_D=      0.0002072 O_OD=      0.0025735 O_TOT=      2.8238042 <-- SPRD
 Delta: O_D= -0.8390771E-04 O_OD= -0.9218237E-04 O_TOT= -0.1760901E-03 <-- DLTA
 ------------------------------------------------------------------------------
 Cycle:      5
  WF centre and spread    1  ( -0.000013, -0.000008, -0.000021 )     0.94119168
  WF centre and spread    2  (  0.000022, -0.000011,  0.000006 )     0.94118392
  WF centre and spread    3  ( -0.000006,  0.000022,  0.000011 )     0.94120240
  Sum of centres and spreads (  0.000002,  0.000002, -0.000003 )     2.82357800
 
      5    -0.226E-03     0.0069639428        2.8235779959       0.05  <-- CONV
        O_D=      0.0001039 O_OD=      0.0024506 O_TOT=      2.8235780 <-- SPRD
 Delta: O_D= -0.1033120E-03 O_OD= -0.1228797E-03 O_TOT= -0.2261917E-03 <-- DLTA
 ------------------------------------------------------------------------------
 Cycle:      6
  WF centre and spread    1  ( -0.000009, -0.000006, -0.000015 )     0.94115977
  WF centre and spread    2  (  0.000016, -0.000008,  0.000005 )     0.94115248
  WF centre and spread    3  ( -0.000005,  0.000016,  0.000008 )     0.94117180
  Sum of centres and spreads (  0.000002,  0.000002, -0.000002 )     2.82348406
 
      6    -0.939E-04     0.0054287914        2.8234840584       0.06  <-- CONV
        O_D=      0.0000634 O_OD=      0.0023972 O_TOT=      2.8234841 <-- SPRD
 Delta: O_D= -0.4055269E-04 O_OD= -0.5338476E-04 O_TOT= -0.9393745E-04 <-- DLTA
 ------------------------------------------------------------------------------
 Cycle:      7
  WF centre and spread    1  ( -0.000006, -0.000004, -0.000010 )     0.94113773
  WF centre and spread    2  (  0.000010, -0.000005,  0.000003 )     0.94113153
  WF centre and spread    3  ( -0.000003,  0.000011,  0.000005 )     0.94115180
  Sum of centres and spreads (  0.000001,  0.000001, -0.000002 )     2.82342105
 
      7    -0.630E-04     0.0037841248        2.8234210537       0.07  <-- CONV
        O_D=      0.0000353 O_OD=      0.0023622 O_TOT=      2.8234211 <-- SPRD
 Delta: O_D= -0.2801031E-04 O_OD= -0.3499441E-04 O_TOT= -0.6300472E-04 <-- DLTA
 ------------------------------------------------------------------------------
 Cycle:      8
  WF centre and spread    1  ( -0.000006, -0.000004, -0.000009 )     0.94112841
  WF centre and spread    2  (  0.000010, -0.000005,  0.000003 )     0.94112206
  WF centre and spread    3  ( -0.000003,  0.000010,  0.000005 )     0.94114239
  Sum of centres and spreads (  0.000001,  0.000001, -0.000002 )     2.82339286
 
      8    -0.282E-04     0.0034797801        2.8233928585       0.08  <-- CONV
        O_D=      0.0000248 O_OD=      0.0023446 O_TOT=      2.8233929 <-- SPRD
 Delta: O_D= -0.1054675E-04 O_OD= -0.1764842E-04 O_TOT= -0.2819516E-04 <-- DLTA
 ------------------------------------------------------------------------------
 Cycle:      9
  WF centre and spread    1  ( -0.000005, -0.000003, -0.000008 )     0.94112072
  WF centre and spread    2  (  0.000008, -0.000004,  0.000002 )     0.94111464
  WF centre and spread    3  ( -0.000002,  0.000009,  0.000004 )     0.94113521
  Sum of centres and spreads (  0.000001,  0.000001, -0.000001 )     2.82337057
 
      9    -0.223E-04     0.0022881906        2.8233705739       0.09  <-- CONV
        O_D=      0.0000154 O_OD=      0.0023317 O_TOT=      2.8233706 <-- SPRD
 Delta: O_D= -0.9434713E-05 O_OD= -0.1284996E-04 O_TOT= -0.2228467E-04 <-- DLTA
 ------------------------------------------------------------------------------
 Cycle:     10
  WF centre and spread    1  ( -0.000004, -0.000003, -0.000006 )     0.94111500
  WF centre and spread    2  (  0.000007, -0.000004,  0.000002 )     0.94110916
  WF centre and spread    3  ( -0.000002,  0.000007,  0.000003 )     0.94112985
  Sum of centres and spreads (  0.000001,  0.000001, -0.000001 )     2.82335401
 
     10    -0.166E-04     0.0020188496        2.8233540127       0.11  <-- CONV
        O_D=      0.0000084 O_OD=      0.0023221 O_TOT=      2.8233540 <-- SPRD
 Delta: O_D= -0.6953238E-05 O_OD= -0.9607919E-05 O_TOT= -0.1656116E-04 <-- DLTA
 ------------------------------------------------------------------------------
 Cycle:     11
  WF centre and spread    1  ( -0.000003, -0.000002, -0.000005 )     0.94111274
  WF centre and spread    2  (  0.000005, -0.000003,  0.000002 )     0.94110691
  WF centre and spread    3  ( -0.000002,  0.000006,  0.000003 )     0.94112772
  Sum of centres and spreads (  0.000001,  0.000001, -0.000001 )     2.82334737
 
     11    -0.664E-05     0.0014972781        2.8233473722       0.12  <-- CONV
        O_D=      0.0000056 O_OD=      0.0023182 O_TOT=      2.8233474 <-- SPRD
 Delta: O_D= -0.2782167E-05 O_OD= -0.3858377E-05 O_TOT= -0.6640544E-05 <-- DLTA
 ------------------------------------------------------------------------------
 Cycle:     12
  WF centre and spread    1  ( -0.000003, -0.000002, -0.000004 )     0.94111160
  WF centre and spread    2  (  0.000004, -0.000002,  0.000001 )     0.94110584
  WF centre and spread    3  ( -0.000001,  0.000005,  0.000002 )     0.94112678
  Sum of centres and spreads (  0.000001,  0.000001, -0.000001 )     2.82334422
 
     12    -0.315E-05     0.0008813703        2.8233442212       0.13  <-- CONV
        O_D=      0.0000042 O_OD=      0.0023165 O_TOT=      2.8233442 <-- SPRD
 Delta: O_D= -0.1447942E-05 O_OD= -0.1703013E-05 O_TOT= -0.3150954E-05 <-- DLTA
 ------------------------------------------------------------------------------
 Cycle:     13
  WF centre and spread    1  ( -0.000001, -0.000001, -0.000002 )     0.94110984
  WF centre and spread    2  (  0.000002, -0.000001,  0.000001 )     0.94110428
  WF centre and spread    3  ( -0.000001,  0.000003,  0.000001 )     0.94112543
  Sum of centres and spreads (  0.000000,  0.000000, -0.000001 )     2.82333955
 
     13    -0.467E-05     0.0008757552        2.8233395517       0.14  <-- CONV
        O_D=      0.0000021 O_OD=      0.0023140 O_TOT=      2.8233396 <-- SPRD
 Delta: O_D= -0.2089116E-05 O_OD= -0.2580417E-05 O_TOT= -0.4669533E-05 <-- DLTA
 ------------------------------------------------------------------------------
 Cycle:     14
  WF centre and spread    1  ( -0.000001, -0.000001, -0.000002 )     0.94110918
  WF centre and spread    2  (  0.000002, -0.000001,  0.000001 )     0.94110359
  WF centre and spread    3  ( -0.000001,  0.000003,  0.000001 )     0.94112475
  Sum of centres and spreads (  0.000000,  0.000000, -0.000001 )     2.82333752
 
     14    -0.203E-05     0.0010090053        2.8233375231       0.15  <-- CONV
        O_D=      0.0000014 O_OD=      0.0023127 O_TOT=      2.8233375 <-- SPRD
 Delta: O_D= -0.7356409E-06 O_OD= -0.1292946E-05 O_TOT= -0.2028587E-05 <-- DLTA
 ------------------------------------------------------------------------------
 Cycle:     15
  WF centre and spread    1  ( -0.000001, -0.000001, -0.000002 )     0.94110888
  WF centre and spread    2  (  0.000002, -0.000001,  0.000001 )     0.94110331
  WF centre and spread    3  ( -0.000001,  0.000002,  0.000001 )     0.94112449
  Sum of centres and spreads (  0.000000,  0.000000, -0.000001 )     2.82333667
 
     15    -0.854E-06     0.0004958086        2.8233366696       0.16  <-- CONV
        O_D=      0.0000010 O_OD=      0.0023122 O_TOT=      2.8233367 <-- SPRD
 Delta: O_D= -0.3591854E-06 O_OD= -0.4943195E-06 O_TOT= -0.8535050E-06 <-- DLTA
 ------------------------------------------------------------------------------
 Cycle:     16
  WF centre and spread    1  ( -0.000001, -0.000001, -0.000002 )     0.94110861
  WF centre and spread    2  (  0.000002, -0.000001,  0.000001 )     0.94110309
  WF centre and spread    3  ( -0.000001,  0.000002,  0.000001 )     0.94112430
  Sum of centres and spreads (  0.000000,  0.000000, -0.000000 )     2.82333600
 
     16    -0.666E-06     0.0003866307        2.8233360032       0.17  <-- CONV
        O_D=      0.0000007 O_OD=      0.0023118 O_TOT=      2.8233360 <-- SPRD
 Delta: O_D= -0.3037863E-06 O_OD= -0.3626222E-06 O_TOT= -0.6664086E-06 <-- DLTA
 ------------------------------------------------------------------------------
 Cycle:     17
  WF centre and spread    1  ( -0.000001, -0.000000, -0.000001 )     0.94110833
  WF centre and spread    2  (  0.000001, -0.000001,  0.000000 )     0.94110284
  WF centre and spread    3  ( -0.000000,  0.000001,  0.000001 )     0.94112412
  Sum of centres and spreads (  0.000000,  0.000000, -0.000000 )     2.82333530
 
     17    -0.708E-06     0.0003863058        2.8233352953       0.18  <-- CONV
        O_D=      0.0000004 O_OD=      0.0023114 O_TOT=      2.8233353 <-- SPRD
 Delta: O_D= -0.3115695E-06 O_OD= -0.3963224E-06 O_TOT= -0.7078919E-06 <-- DLTA
 ------------------------------------------------------------------------------
 Cycle:     18
  WF centre and spread    1  ( -0.000000, -0.000000, -0.000001 )     0.94110819
  WF centre and spread    2  (  0.000001, -0.000001,  0.000000 )     0.94110271
  WF centre and spread    3  ( -0.000000,  0.000001,  0.000000 )     0.94112403
  Sum of centres and spreads (  0.000000,  0.000000, -0.000000 )     2.82333493
 
     18    -0.362E-06     0.0003303414        2.8233349333       0.19  <-- CONV
        O_D=      0.0000002 O_OD=      0.0023112 O_TOT=      2.8233349 <-- SPRD
 Delta: O_D= -0.1495329E-06 O_OD= -0.2124520E-06 O_TOT= -0.3619848E-06 <-- DLTA
 ------------------------------------------------------------------------------
 Cycle:     19
  WF centre and spread    1  ( -0.000000, -0.000000, -0.000001 )     0.94110811
  WF centre and spread    2  (  0.000001, -0.000000,  0.000000 )     0.94110264
  WF centre and spread    3  ( -0.000000,  0.000001,  0.000000 )     0.94112400
  Sum of centres and spreads (  0.000000,  0.000000, -0.000000 )     2.82333475
 
     19    -0.185E-06     0.0002207321        2.8233347480       0.20  <-- CONV
        O_D=      0.0000001 O_OD=      0.0023111 O_TOT=      2.8233347 <-- SPRD
 Delta: O_D= -0.8109777E-07 O_OD= -0.1042380E-06 O_TOT= -0.1853357E-06 <-- DLTA
 ------------------------------------------------------------------------------
 Cycle:     20
  WF centre and spread    1  ( -0.000000, -0.000000, -0.000001 )     0.94110808
  WF centre and spread    2  (  0.000000, -0.000000,  0.000000 )     0.94110260
  WF centre and spread    3  ( -0.000000,  0.000001,  0.000000 )     0.94112397
  Sum of centres and spreads (  0.000000,  0.000000, -0.000000 )     2.82333464
 
     20    -0.106E-06     0.0002138261        2.8233346420       0.21  <-- CONV
        O_D=      0.0000001 O_OD=      0.0023110 O_TOT=      2.8233346 <-- SPRD
 Delta: O_D= -0.4016937E-07 O_OD= -0.6576935E-07 O_TOT= -0.1059387E-06 <-- DLTA
 ------------------------------------------------------------------------------
 Cycle:     21
  WF centre and spread    1  ( -0.000000, -0.000000, -0.000001 )     0.94110804
  WF centre and spread    2  (  0.000000, -0.000000,  0.000000 )     0.94110256
  WF centre and spread    3  ( -0.000000,  0.000001,  0.000000 )     0.94112395
  Sum of centres and spreads (  0.000000,  0.000000, -0.000000 )     2.82333455
 
     21    -0.965E-07     0.0001423089        2.8233345455       0.22  <-- CONV
        O_D=      0.0000001 O_OD=      0.0023110 O_TOT=      2.8233345 <-- SPRD
 Delta: O_D= -0.4062450E-07 O_OD= -0.5588674E-07 O_TOT= -0.9651124E-07 <-- DLTA
 ------------------------------------------------------------------------------
 Cycle:     22
  WF centre and spread    1  ( -0.000000, -0.000000, -0.000000 )     0.94110802
  WF centre and spread    2  (  0.000000, -0.000000,  0.000000 )     0.94110253
  WF centre and spread    3  ( -0.000000,  0.000000,  0.000000 )     0.94112393
  Sum of centres and spreads (  0.000000,  0.000000, -0.000000 )     2.82333448
 
     22    -0.668E-07     0.0001294448        2.8233344787       0.23  <-- CONV
        O_D=      0.0000000 O_OD=      0.0023109 O_TOT=      2.8233345 <-- SPRD
 Delta: O_D= -0.2781137E-07 O_OD= -0.3896399E-07 O_TOT= -0.6677536E-07 <-- DLTA
 ------------------------------------------------------------------------------
 Cycle:     23
  WF centre and spread    1  (  0.000000, -0.000000, -0.000000 )     0.94110800
  WF centre and spread    2  (  0.000000, -0.000000,  0.000000 )     0.94110251
  WF centre and spread    3  ( -0.000000,  0.000000,  0.000000 )     0.94112393
  Sum of centres and spreads (  0.000000,  0.000000, -0.000000 )     2.82333445
 
     23    -0.283E-07     0.0000927156        2.8233344504       0.24  <-- CONV
        O_D=      0.0000000 O_OD=      0.0023109 O_TOT=      2.8233345 <-- SPRD
 Delta: O_D= -0.1170130E-07 O_OD= -0.1662681E-07 O_TOT= -0.2832810E-07 <-- DLTA
 ------------------------------------------------------------------------------
 Cycle:     24
  WF centre and spread    1  (  0.000000, -0.000000, -0.000000 )     0.94110800
  WF centre and spread    2  (  0.000000, -0.000000,  0.000000 )     0.94110250
  WF centre and spread    3  ( -0.000000,  0.000000,  0.000000 )     0.94112393
  Sum of centres and spreads (  0.000000,  0.000000, -0.000000 )     2.82333443
 
     24    -0.174E-07     0.0000699052        2.8233344330       0.25  <-- CONV
        O_D=      0.0000000 O_OD=      0.0023109 O_TOT=      2.8233344 <-- SPRD
 Delta: O_D= -0.7274346E-08 O_OD= -0.1015534E-07 O_TOT= -0.1742969E-07 <-- DLTA
 ------------------------------------------------------------------------------
 Cycle:     25
  WF centre and spread    1  (  0.000000,  0.000000, -0.000000 )     0.94110798
  WF centre and spread    2  ( -0.000000, -0.000000, -0.000000 )     0.94110249
  WF centre and spread    3  ( -0.000000,  0.000000, -0.000000 )     0.94112394
  Sum of centres and spreads (  0.000000,  0.000000, -0.000000 )     2.82333442
 
     25    -0.157E-07     0.0000559778        2.8233344172       0.26  <-- CONV
        O_D=      0.0000000 O_OD=      0.0023109 O_TOT=      2.8233344 <-- SPRD
 Delta: O_D= -0.5907731E-08 O_OD= -0.9840716E-08 O_TOT= -0.1574845E-07 <-- DLTA
 ------------------------------------------------------------------------------
 Cycle:     26
  WF centre and spread    1  (  0.000000,  0.000000, -0.000000 )     0.94110798
  WF centre and spread    2  ( -0.000000, -0.000000, -0.000000 )     0.94110249
  WF centre and spread    3  ( -0.000000,  0.000000, -0.000000 )     0.94112393
  Sum of centres and spreads (  0.000000,  0.000000, -0.000000 )     2.82333440
 
     26    -0.151E-07     0.0000936093        2.8233344022       0.27  <-- CONV
        O_D=      0.0000000 O_OD=      0.0023109 O_TOT=      2.8233344 <-- SPRD
 Delta: O_D= -0.5693584E-08 O_OD= -0.9377211E-08 O_TOT= -0.1507080E-07 <-- DLTA
 ------------------------------------------------------------------------------
 Cycle:     27
  WF centre and spread    1  (  0.000000,  0.000000, -0.000000 )     0.94110798
  WF centre and spread    2  ( -0.000000, -0.000000, -0.000000 )     0.94110249
  WF centre and spread    3  ( -0.000000,  0.000000, -0.000000 )     0.94112393
  Sum of centres and spreads (  0.000000,  0.000000, -0.000000 )     2.82333440
 
     27    -0.395E-08     0.0000349614        2.8233343982       0.28  <-- CONV
        O_D=      0.0000000 O_OD=      0.0023109 O_TOT=      2.8233344 <-- SPRD
 Delta: O_D= -0.1518541E-08 O_OD= -0.2434990E-08 O_TOT= -0.3953531E-08 <-- DLTA
 ------------------------------------------------------------------------------
 Cycle:     28
  WF centre and spread    1  (  0.000000,  0.000000, -0.000000 )     0.94110798
  WF centre and spread    2  ( -0.000000, -0.000000, -0.000000 )     0.94110249
  WF centre and spread    3  ( -0.000000,  0.000000, -0.000000 )     0.94112393
  Sum of centres and spreads (  0.000000,  0.000000, -0.000000 )     2.82333440
 
     28    -0.270E-11     0.0000242823        2.8233343982       0.28  <-- CONV
        O_D=      0.0000000 O_OD=      0.0023109 O_TOT=      2.8233344 <-- SPRD
 Delta: O_D= -0.9576341E-12 O_OD= -0.1739942E-11 O_TOT= -0.2697398E-11 <-- DLTA
 ------------------------------------------------------------------------------
 Cycle:     29
  WF centre and spread    1  (  0.000000,  0.000000, -0.000000 )     0.94110797
  WF centre and spread    2  ( -0.000000, -0.000000, -0.000000 )     0.94110249
  WF centre and spread    3  ( -0.000000,  0.000000, -0.000000 )     0.94112394
  Sum of centres and spreads (  0.000000,  0.000000, -0.000000 )     2.82333439
 
     29    -0.391E-08     0.0000242757        2.8233343943       0.29  <-- CONV
        O_D=      0.0000000 O_OD=      0.0023109 O_TOT=      2.8233344 <-- SPRD
 Delta: O_D= -0.1082254E-08 O_OD= -0.2824223E-08 O_TOT= -0.3906477E-08 <-- DLTA
 ------------------------------------------------------------------------------
 Cycle:     30
  WF centre and spread    1  (  0.000000,  0.000000, -0.000000 )     0.94110797
  WF centre and spread    2  ( -0.000000, -0.000000, -0.000000 )     0.94110249
  WF centre and spread    3  ( -0.000000,  0.000000, -0.000000 )     0.94112394
  Sum of centres and spreads (  0.000000,  0.000000, -0.000000 )     2.82333439
 
     30    -0.310E-08     0.0000425482        2.8233343912       0.31  <-- CONV
        O_D=      0.0000000 O_OD=      0.0023109 O_TOT=      2.8233344 <-- SPRD
 Delta: O_D= -0.1177100E-08 O_OD= -0.1920854E-08 O_TOT= -0.3097954E-08 <-- DLTA
 ------------------------------------------------------------------------------
 Cycle:     31
  WF centre and spread    1  (  0.000000,  0.000000, -0.000000 )     0.94110797
  WF centre and spread    2  ( -0.000000, -0.000000, -0.000000 )     0.94110249
  WF centre and spread    3  ( -0.000000,  0.000000, -0.000000 )     0.94112394
  Sum of centres and spreads (  0.000000,  0.000000, -0.000000 )     2.82333439
 
     31    -0.101E-11     0.0000170235        2.8233343912       0.31  <-- CONV
        O_D=      0.0000000 O_OD=      0.0023109 O_TOT=      2.8233344 <-- SPRD
 Delta: O_D= -0.3604974E-12 O_OD= -0.6497277E-12 O_TOT= -0.1010303E-11 <-- DLTA
 ------------------------------------------------------------------------------
 Cycle:     32
  WF centre and spread    1  (  0.000000,  0.000000, -0.000000 )     0.94110797
  WF centre and spread    2  ( -0.000000, -0.000000, -0.000000 )     0.94110249
  WF centre and spread    3  ( -0.000000,  0.000000, -0.000000 )     0.94112394
  Sum of centres and spreads (  0.000000,  0.000000, -0.000000 )     2.82333439
 
     32    -0.202E-11     0.0000170187        2.8233343912       0.32  <-- CONV
        O_D=      0.0000000 O_OD=      0.0023109 O_TOT=      2.8233344 <-- SPRD
 Delta: O_D= -0.7779759E-12 O_OD= -0.1244992E-11 O_TOT= -0.2023270E-11 <-- DLTA
 ------------------------------------------------------------------------------
 Cycle:     33
  WF centre and spread    1  (  0.000000,  0.000000, -0.000000 )     0.94110797
  WF centre and spread    2  ( -0.000000, -0.000000, -0.000000 )     0.94110248
  WF centre and spread    3  ( -0.000000,  0.000000, -0.000000 )     0.94112394
  Sum of centres and spreads (  0.000000,  0.000000, -0.000000 )     2.82333439
 
     33    -0.141E-08     0.0000170062        2.8233343898       0.33  <-- CONV
        O_D=      0.0000000 O_OD=      0.0023109 O_TOT=      2.8233344 <-- SPRD
 Delta: O_D=  0.1673946E-10 O_OD= -0.1428685E-08 O_TOT= -0.1411946E-08 <-- DLTA
 ------------------------------------------------------------------------------
 Cycle:     34
  WF centre and spread    1  (  0.000000,  0.000000, -0.000000 )     0.94110797
  WF centre and spread    2  ( -0.000000, -0.000000, -0.000000 )     0.94110248
  WF centre and spread    3  ( -0.000000,  0.000000, -0.000000 )     0.94112394
  Sum of centres and spreads (  0.000000,  0.000000, -0.000000 )     2.82333439
 
     34    -0.209E-09     0.0000267381        2.8233343896       0.34  <-- CONV
        O_D=      0.0000000 O_OD=      0.0023109 O_TOT=      2.8233344 <-- SPRD
 Delta: O_D=  0.3986786E-09 O_OD= -0.6080535E-09 O_TOT= -0.2093747E-09 <-- DLTA
 ------------------------------------------------------------------------------
 Cycle:     35
  WF centre and spread    1  (  0.000000,  0.000000, -0.000000 )     0.94110797
  WF centre and spread    2  ( -0.000000, -0.000000, -0.000000 )     0.94110248
  WF centre and spread    3  ( -0.000000,  0.000000, -0.000000 )     0.94112394
  Sum of centres and spreads (  0.000000,  0.000000, -0.000000 )     2.82333439
 
     35    -0.615E-09     0.0000360725        2.8233343890       0.35  <-- CONV
        O_D=      0.0000000 O_OD=      0.0023109 O_TOT=      2.8233344 <-- SPRD
 Delta: O_D=  0.5323380E-09 O_OD= -0.1147376E-08 O_TOT= -0.6150382E-09 <-- DLTA
 ------------------------------------------------------------------------------
 Cycle:     36
  WF centre and spread    1  (  0.000000,  0.000000, -0.000000 )     0.94110797
  WF centre and spread    2  ( -0.000000, -0.000000, -0.000000 )     0.94110248
  WF centre and spread    3  ( -0.000000,  0.000000, -0.000000 )     0.94112394
  Sum of centres and spreads (  0.000000,  0.000000, -0.000000 )     2.82333439
 
     36    -0.309E-08     0.0000469424        2.8233343859       0.36  <-- CONV
        O_D=      0.0000000 O_OD=      0.0023109 O_TOT=      2.8233344 <-- SPRD
 Delta: O_D= -0.2081812E-08 O_OD= -0.1005567E-08 O_TOT= -0.3087379E-08 <-- DLTA
 ------------------------------------------------------------------------------
 Cycle:     37
  WF centre and spread    1  (  0.000000,  0.000000, -0.000000 )     0.94110797
  WF centre and spread    2  ( -0.000000, -0.000000, -0.000000 )     0.94110248
  WF centre and spread    3  ( -0.000000,  0.000000, -0.000000 )     0.94112394
  Sum of centres and spreads (  0.000000,  0.000000, -0.000000 )     2.82333439
 
     37    -0.949E-12     0.0000165622        2.8233343859       0.36  <-- CONV
        O_D=      0.0000000 O_OD=      0.0023109 O_TOT=      2.8233344 <-- SPRD
 Delta: O_D= -0.2659167E-12 O_OD= -0.6823361E-12 O_TOT= -0.9485746E-12 <-- DLTA
 ------------------------------------------------------------------------------
 Cycle:     38
  WF centre and spread    1  (  0.000000,  0.000000, -0.000000 )     0.94110797
  WF centre and spread    2  ( -0.000000, -0.000000, -0.000000 )     0.94110248
  WF centre and spread    3  ( -0.000000,  0.000000, -0.000000 )     0.94112394
  Sum of centres and spreads (  0.000000,  0.000000, -0.000000 )     2.82333438
 
     38    -0.127E-08     0.0000165571        2.8233343846       0.37  <-- CONV
        O_D=      0.0000000 O_OD=      0.0023109 O_TOT=      2.8233344 <-- SPRD
 Delta: O_D= -0.2494407E-09 O_OD= -0.1024018E-08 O_TOT= -0.1273459E-08 <-- DLTA
 ------------------------------------------------------------------------------
 Cycle:     39
  WF centre and spread    1  (  0.000000,  0.000000, -0.000000 )     0.94110797
  WF centre and spread    2  ( -0.000000, -0.000000, -0.000000 )     0.94110248
  WF centre and spread    3  ( -0.000000,  0.000000, -0.000000 )     0.94112394
  Sum of centres and spreads (  0.000000,  0.000000, -0.000000 )     2.82333438
 
     39    -0.935E-12     0.0000132862        2.8233343846       0.38  <-- CONV
        O_D=      0.0000000 O_OD=      0.0023109 O_TOT=      2.8233344 <-- SPRD
 Delta: O_D= -0.1505756E-12 O_OD= -0.7847633E-12 O_TOT= -0.9352519E-12 <-- DLTA
 ------------------------------------------------------------------------------
 Cycle:     40
  WF centre and spread    1  (  0.000000,  0.000000, -0.000000 )     0.94110797
  WF centre and spread    2  ( -0.000000, -0.000000, -0.000000 )     0.94110248
  WF centre and spread    3  ( -0.000000,  0.000000, -0.000000 )     0.94112394
  Sum of centres and spreads (  0.000000,  0.000000, -0.000000 )     2.82333438
 
     40    -0.155E-11     0.0000132848        2.8233343846       0.38  <-- CONV
        O_D=      0.0000000 O_OD=      0.0023109 O_TOT=      2.8233344 <-- SPRD
 Delta: O_D= -0.3978196E-12 O_OD= -0.1154704E-11 O_TOT= -0.1552536E-11 <-- DLTA
 ------------------------------------------------------------------------------
 Cycle:     41
  WF centre and spread    1  (  0.000000,  0.000000, -0.000000 )     0.94110796
  WF centre and spread    2  ( -0.000000, -0.000000, -0.000000 )     0.94110248
  WF centre and spread    3  ( -0.000000,  0.000000, -0.000000 )     0.94112394
  Sum of centres and spreads (  0.000000,  0.000000, -0.000000 )     2.82333438
 
     41    -0.121E-08     0.0000132762        2.8233343834       0.39  <-- CONV
        O_D=      0.0000000 O_OD=      0.0023109 O_TOT=      2.8233344 <-- SPRD
 Delta: O_D=  0.2148702E-09 O_OD= -0.1424542E-08 O_TOT= -0.1209671E-08 <-- DLTA
 ------------------------------------------------------------------------------
 Cycle:     42
  WF centre and spread    1  (  0.000000,  0.000000, -0.000000 )     0.94110796
  WF centre and spread    2  ( -0.000000, -0.000000, -0.000000 )     0.94110248
  WF centre and spread    3  ( -0.000000,  0.000000, -0.000000 )     0.94112394
  Sum of centres and spreads (  0.000000,  0.000000, -0.000000 )     2.82333438
 
     42    -0.763E-09     0.0000234722        2.8233343826       0.40  <-- CONV
        O_D=      0.0000000 O_OD=      0.0023109 O_TOT=      2.8233344 <-- SPRD
 Delta: O_D= -0.2668151E-09 O_OD= -0.4965225E-09 O_TOT= -0.7633378E-09 <-- DLTA
 ------------------------------------------------------------------------------
 Cycle:     43
  WF centre and spread    1  (  0.000000,  0.000000, -0.000000 )     0.94110796
  WF centre and spread    2  ( -0.000000, -0.000000, -0.000000 )     0.94110248
  WF centre and spread    3  ( -0.000000,  0.000000, -0.000000 )     0.94112394
  Sum of centres and spreads (  0.000000,  0.000000, -0.000000 )     2.82333438
 
     43    -0.774E-12     0.0000184250        2.8233343826       0.41  <-- CONV
        O_D=      0.0000000 O_OD=      0.0023109 O_TOT=      2.8233344 <-- SPRD
 Delta: O_D= -0.2208751E-12 O_OD= -0.5538343E-12 O_TOT= -0.7744916E-12 <-- DLTA
 ------------------------------------------------------------------------------
 Cycle:     44
  WF centre and spread    1  (  0.000000,  0.000000, -0.000000 )     0.94110796
  WF centre and spread    2  ( -0.000000, -0.000000, -0.000000 )     0.94110248
  WF centre and spread    3  ( -0.000000,  0.000000, -0.000000 )     0.94112394
  Sum of centres and spreads (  0.000000,  0.000000, -0.000000 )     2.82333438
 
     44    -0.101E-08     0.0000184208        2.8233343816       0.42  <-- CONV
        O_D=      0.0000000 O_OD=      0.0023109 O_TOT=      2.8233344 <-- SPRD
 Delta: O_D= -0.7803181E-10 O_OD= -0.9295831E-09 O_TOT= -0.1007615E-08 <-- DLTA
 ------------------------------------------------------------------------------
 Cycle:     45
  WF centre and spread    1  (  0.000000,  0.000000, -0.000000 )     0.94110796
  WF centre and spread    2  ( -0.000000, -0.000000, -0.000000 )     0.94110248
  WF centre and spread    3  ( -0.000000,  0.000000, -0.000000 )     0.94112394
  Sum of centres and spreads (  0.000000,  0.000000, -0.000000 )     2.82333438
 
     45    -0.963E-12     0.0000184031        2.8233343816       0.43  <-- CONV
        O_D=      0.0000000 O_OD=      0.0023109 O_TOT=      2.8233344 <-- SPRD
 Delta: O_D=  0.5961680E-13 O_OD= -0.1022606E-11 O_TOT= -0.9632295E-12 <-- DLTA
 ------------------------------------------------------------------------------
 Cycle:     46
  WF centre and spread    1  (  0.000000,  0.000000, -0.000000 )     0.94110796
  WF centre and spread    2  ( -0.000000, -0.000000, -0.000000 )     0.94110248
  WF centre and spread    3  ( -0.000000,  0.000000, -0.000000 )     0.94112394
  Sum of centres and spreads (  0.000000,  0.000000, -0.000000 )     2.82333438
 
     46    -0.215E-11     0.0000184066        2.8233343816       0.43  <-- CONV
        O_D=      0.0000000 O_OD=      0.0023109 O_TOT=      2.8233344 <-- SPRD
 Delta: O_D= -0.7522195E-12 O_OD= -0.1396813E-11 O_TOT= -0.2148948E-11 <-- DLTA
 ------------------------------------------------------------------------------
 Cycle:     47
  WF centre and spread    1  (  0.000000,  0.000000, -0.000000 )     0.94110796
  WF centre and spread    2  ( -0.000000, -0.000000, -0.000000 )     0.94110248
  WF centre and spread    3  ( -0.000000,  0.000000, -0.000000 )     0.94112394
  Sum of centres and spreads (  0.000000,  0.000000, -0.000000 )     2.82333438
 
     47    -0.128E-08     0.0000183906        2.8233343803       0.44  <-- CONV
        O_D=      0.0000000 O_OD=      0.0023109 O_TOT=      2.8233344 <-- SPRD
 Delta: O_D= -0.1258527E-09 O_OD= -0.1158423E-08 O_TOT= -0.1284276E-08 <-- DLTA
 ------------------------------------------------------------------------------
 Cycle:     48
  WF centre and spread    1  (  0.000000,  0.000000, -0.000000 )     0.94110796
  WF centre and spread    2  ( -0.000000, -0.000000, -0.000000 )     0.94110248
  WF centre and spread    3  ( -0.000000,  0.000000, -0.000000 )     0.94112394
  Sum of centres and spreads (  0.000000,  0.000000, -0.000000 )     2.82333438
 
     48    -0.104E-11     0.0000172541        2.8233343803       0.45  <-- CONV
        O_D=      0.0000000 O_OD=      0.0023109 O_TOT=      2.8233344 <-- SPRD
 Delta: O_D= -0.6740531E-12 O_OD= -0.3677852E-12 O_TOT= -0.1041833E-11 <-- DLTA
 ------------------------------------------------------------------------------
 Cycle:     49
  WF centre and spread    1  (  0.000000,  0.000000, -0.000000 )     0.94110796
  WF centre and spread    2  ( -0.000000, -0.000000, -0.000000 )     0.94110248
  WF centre and spread    3  ( -0.000000,  0.000000, -0.000000 )     0.94112394
  Sum of centres and spreads (  0.000000,  0.000000, -0.000000 )     2.82333438
 
     49    -0.523E-09     0.0000172369        2.8233343798       0.46  <-- CONV
        O_D=      0.0000000 O_OD=      0.0023109 O_TOT=      2.8233344 <-- SPRD
 Delta: O_D= -0.2009850E-09 O_OD= -0.3215830E-09 O_TOT= -0.5225682E-09 <-- DLTA
 ------------------------------------------------------------------------------
 Cycle:     50
  WF centre and spread    1  (  0.000000,  0.000000, -0.000000 )     0.94110796
  WF centre and spread    2  ( -0.000000, -0.000000, -0.000000 )     0.94110248
  WF centre and spread    3  ( -0.000000,  0.000000, -0.000000 )     0.94112394
  Sum of centres and spreads (  0.000000,  0.000000, -0.000000 )     2.82333438
 
     50    -0.461E-12     0.0000114132        2.8233343798       0.46  <-- CONV
        O_D=      0.0000000 O_OD=      0.0023109 O_TOT=      2.8233344 <-- SPRD
 Delta: O_D=  0.8390867E-13 O_OD= -0.5445163E-12 O_TOT= -0.4605205E-12 <-- DLTA
 ------------------------------------------------------------------------------
 Cycle:     51
  WF centre and spread    1  (  0.000000,  0.000000, -0.000000 )     0.94110796
  WF centre and spread    2  ( -0.000000, -0.000000, -0.000000 )     0.94110248
  WF centre and spread    3  ( -0.000000,  0.000000, -0.000000 )     0.94112394
  Sum of centres and spreads (  0.000000,  0.000000, -0.000000 )     2.82333438
 
     51    -0.917E-12     0.0000114176        2.8233343798       0.47  <-- CONV
        O_D=      0.0000000 O_OD=      0.0023109 O_TOT=      2.8233344 <-- SPRD
 Delta: O_D= -0.6963724E-13 O_OD= -0.8476219E-12 O_TOT= -0.9174883E-12 <-- DLTA
 ------------------------------------------------------------------------------
 Cycle:     52
  WF centre and spread    1  (  0.000000,  0.000000, -0.000000 )     0.94110796
  WF centre and spread    2  ( -0.000000, -0.000000, -0.000000 )     0.94110248
  WF centre and spread    3  ( -0.000000,  0.000000, -0.000000 )     0.94112394
  Sum of centres and spreads (  0.000000,  0.000000, -0.000000 )     2.82333438
 
     52    -0.111E-08     0.0000114166        2.8233343787       0.48  <-- CONV
        O_D=      0.0000000 O_OD=      0.0023109 O_TOT=      2.8233344 <-- SPRD
 Delta: O_D= -0.8815409E-10 O_OD= -0.1025753E-08 O_TOT= -0.1113907E-08 <-- DLTA
 ------------------------------------------------------------------------------
 Cycle:     53
  WF centre and spread    1  (  0.000000,  0.000000, -0.000000 )     0.94110796
  WF centre and spread    2  ( -0.000000, -0.000000, -0.000000 )     0.94110248
  WF centre and spread    3  ( -0.000000,  0.000000, -0.000000 )     0.94112394
  Sum of centres and spreads (  0.000000,  0.000000, -0.000000 )     2.82333438
 
     53    -0.108E-11     0.0000097593        2.8233343787       0.49  <-- CONV
        O_D=      0.0000000 O_OD=      0.0023109 O_TOT=      2.8233344 <-- SPRD
 Delta: O_D= -0.2035868E-13 O_OD= -0.1058786E-11 O_TOT= -0.1079137E-11 <-- DLTA
 ------------------------------------------------------------------------------
 Cycle:     54
  WF centre and spread    1  (  0.000000,  0.000000, -0.000000 )     0.94110796
  WF centre and spread    2  ( -0.000000, -0.000000, -0.000000 )     0.94110248
  WF centre and spread    3  ( -0.000000,  0.000000, -0.000000 )     0.94112394
  Sum of centres and spreads (  0.000000,  0.000000, -0.000000 )     2.82333438
 
     54    -0.334E-12     0.0000097604        2.8233343787       0.49  <-- CONV
        O_D=      0.0000000 O_OD=      0.0023109 O_TOT=      2.8233344 <-- SPRD
 Delta: O_D= -0.4513584E-13 O_OD= -0.2883878E-12 O_TOT= -0.3335110E-12 <-- DLTA
 ------------------------------------------------------------------------------
 Cycle:     55
  WF centre and spread    1  (  0.000000,  0.000000, -0.000000 )     0.94110796
  WF centre and spread    2  ( -0.000000, -0.000000, -0.000000 )     0.94110248
  WF centre and spread    3  ( -0.000000,  0.000000, -0.000000 )     0.94112394
  Sum of centres and spreads (  0.000000,  0.000000, -0.000000 )     2.82333438
 
     55    -0.667E-12     0.0000097588        2.8233343787       0.50  <-- CONV
        O_D=      0.0000000 O_OD=      0.0023109 O_TOT=      2.8233344 <-- SPRD
 Delta: O_D= -0.9007130E-13 O_OD= -0.5766533E-12 O_TOT= -0.6665779E-12 <-- DLTA
 ------------------------------------------------------------------------------
 Cycle:     56
  WF centre and spread    1  (  0.000000,  0.000000, -0.000000 )     0.94110796
  WF centre and spread    2  ( -0.000000, -0.000000, -0.000000 )     0.94110248
  WF centre and spread    3  ( -0.000000,  0.000000, -0.000000 )     0.94112394
  Sum of centres and spreads (  0.000000,  0.000000, -0.000000 )     2.82333438
 
     56    -0.999E-12     0.0000097556        2.8233343787       0.50  <-- CONV
        O_D=      0.0000000 O_OD=      0.0023109 O_TOT=      2.8233344 <-- SPRD
 Delta: O_D= -0.1345929E-12 O_OD= -0.8645901E-12 O_TOT= -0.9992007E-12 <-- DLTA
 ------------------------------------------------------------------------------
 Cycle:     57
  WF centre and spread    1  (  0.000000,  0.000000, -0.000000 )     0.94110796
  WF centre and spread    2  ( -0.000000, -0.000000, -0.000000 )     0.94110248
  WF centre and spread    3  ( -0.000000,  0.000000, -0.000000 )     0.94112394
  Sum of centres and spreads (  0.000000,  0.000000, -0.000000 )     2.82333438
 
     57    -0.133E-11     0.0000097509        2.8233343787       0.51  <-- CONV
        O_D=      0.0000000 O_OD=      0.0023109 O_TOT=      2.8233344 <-- SPRD
 Delta: O_D= -0.1784904E-12 O_OD= -0.1151943E-11 O_TOT= -0.1330491E-11 <-- DLTA
 ------------------------------------------------------------------------------
 Cycle:     58
  WF centre and spread    1  (  0.000000,  0.000000, -0.000000 )     0.94110796
  WF centre and spread    2  ( -0.000000, -0.000000, -0.000000 )     0.94110248
  WF centre and spread    3  ( -0.000000,  0.000000, -0.000000 )     0.94112394
  Sum of centres and spreads (  0.000000,  0.000000, -0.000000 )     2.82333438
 
     58    -0.101E-08     0.0000097446        2.8233343777       0.52  <-- CONV
        O_D=      0.0000000 O_OD=      0.0023109 O_TOT=      2.8233344 <-- SPRD
 Delta: O_D=  0.4396797E-09 O_OD= -0.1453824E-08 O_TOT= -0.1014144E-08 <-- DLTA
 ------------------------------------------------------------------------------
 Cycle:     59
  WF centre and spread    1  (  0.000000,  0.000000, -0.000000 )     0.94110796
  WF centre and spread    2  ( -0.000000, -0.000000, -0.000000 )     0.94110248
  WF centre and spread    3  ( -0.000000,  0.000000, -0.000000 )     0.94112394
  Sum of centres and spreads (  0.000000,  0.000000, -0.000000 )     2.82333438
 
     59    -0.688E-09     0.0000232500        2.8233343770       0.53  <-- CONV
        O_D=      0.0000000 O_OD=      0.0023109 O_TOT=      2.8233344 <-- SPRD
 Delta: O_D= -0.3361476E-09 O_OD= -0.3519117E-09 O_TOT= -0.6880594E-09 <-- DLTA
 ------------------------------------------------------------------------------
 Cycle:     60
  WF centre and spread    1  (  0.000000,  0.000000, -0.000000 )     0.94110796
  WF centre and spread    2  ( -0.000000, -0.000000, -0.000000 )     0.94110248
  WF centre and spread    3  ( -0.000000,  0.000000, -0.000000 )     0.94112394
  Sum of centres and spreads (  0.000000,  0.000000, -0.000000 )     2.82333438
 
     60    -0.553E-12     0.0000154596        2.8233343770       0.53  <-- CONV
        O_D=      0.0000000 O_OD=      0.0023109 O_TOT=      2.8233344 <-- SPRD
 Delta: O_D= -0.1501204E-12 O_OD= -0.4029398E-12 O_TOT= -0.5533352E-12 <-- DLTA
 ------------------------------------------------------------------------------
 Cycle:     61
  WF centre and spread    1  (  0.000000,  0.000000, -0.000000 )     0.94110796
  WF centre and spread    2  ( -0.000000, -0.000000, -0.000000 )     0.94110248
  WF centre and spread    3  ( -0.000000,  0.000000, -0.000000 )     0.94112394
  Sum of centres and spreads (  0.000000,  0.000000, -0.000000 )     2.82333438
 
     61    -0.680E-09     0.0000154557        2.8233343763       0.54  <-- CONV
        O_D=      0.0000000 O_OD=      0.0023109 O_TOT=      2.8233344 <-- SPRD
 Delta: O_D= -0.1634467E-09 O_OD= -0.5166200E-09 O_TOT= -0.6800667E-09 <-- DLTA
 ------------------------------------------------------------------------------
 Cycle:     62
  WF centre and spread    1  (  0.000000,  0.000000, -0.000000 )     0.94110796
  WF centre and spread    2  ( -0.000000, -0.000000, -0.000000 )     0.94110248
  WF centre and spread    3  ( -0.000000,  0.000000, -0.000000 )     0.94112394
  Sum of centres and spreads (  0.000000,  0.000000, -0.000000 )     2.82333438
 
     62    -0.547E-12     0.0000102661        2.8233343763       0.55  <-- CONV
        O_D=      0.0000000 O_OD=      0.0023109 O_TOT=      2.8233344 <-- SPRD
 Delta: O_D=  0.1868624E-13 O_OD= -0.5656825E-12 O_TOT= -0.5471179E-12 <-- DLTA
 ------------------------------------------------------------------------------
 Cycle:     63
  WF centre and spread    1  (  0.000000,  0.000000, -0.000000 )     0.94110796
  WF centre and spread    2  ( -0.000000, -0.000000, -0.000000 )     0.94110248
  WF centre and spread    3  ( -0.000000,  0.000000, -0.000000 )     0.94112394
  Sum of centres and spreads (  0.000000,  0.000000, -0.000000 )     2.82333438
 
     63    -0.916E-12     0.0000102673        2.8233343763       0.56  <-- CONV
        O_D=      0.0000000 O_OD=      0.0023109 O_TOT=      2.8233344 <-- SPRD
 Delta: O_D= -0.7237103E-13 O_OD= -0.8438159E-12 O_TOT= -0.9161560E-12 <-- DLTA
 ------------------------------------------------------------------------------
 Cycle:     64
  WF centre and spread    1  (  0.000000,  0.000000, -0.000000 )     0.94110796
  WF centre and spread    2  ( -0.000000, -0.000000, -0.000000 )     0.94110248
  WF centre and spread    3  ( -0.000000,  0.000000, -0.000000 )     0.94112394
  Sum of centres and spreads (  0.000000,  0.000000, -0.000000 )     2.82333438
 
     64    -0.128E-11     0.0000102649        2.8233343763       0.56  <-- CONV
        O_D=      0.0000000 O_OD=      0.0023109 O_TOT=      2.8233344 <-- SPRD
 Delta: O_D= -0.1630861E-12 O_OD= -0.1121361E-11 O_TOT= -0.1284306E-11 <-- DLTA
 ------------------------------------------------------------------------------
 Cycle:     65
  WF centre and spread    1  (  0.000000,  0.000000, -0.000000 )     0.94110796
  WF centre and spread    2  ( -0.000000, -0.000000, -0.000000 )     0.94110248
  WF centre and spread    3  ( -0.000000,  0.000000, -0.000000 )     0.94112394
  Sum of centres and spreads (  0.000000,  0.000000, -0.000000 )     2.82333438
 
     65    -0.369E-12     0.0000102587        2.8233343763       0.57  <-- CONV
        O_D=      0.0000000 O_OD=      0.0023109 O_TOT=      2.8233344 <-- SPRD
 Delta: O_D= -0.9047949E-13 O_OD= -0.2779465E-12 O_TOT= -0.3685940E-12 <-- DLTA
 ------------------------------------------------------------------------------
 Cycle:     66
  WF centre and spread    1  (  0.000000,  0.000000, -0.000000 )     0.94110796
  WF centre and spread    2  ( -0.000000, -0.000000, -0.000000 )     0.94110248
  WF centre and spread    3  ( -0.000000,  0.000000, -0.000000 )     0.94112394
  Sum of centres and spreads (  0.000000,  0.000000, -0.000000 )     2.82333438
 
     66    -0.736E-12     0.0000102551        2.8233343763       0.57  <-- CONV
        O_D=      0.0000000 O_OD=      0.0023109 O_TOT=      2.8233344 <-- SPRD
 Delta: O_D= -0.1804021E-12 O_OD= -0.5556397E-12 O_TOT= -0.7358558E-12 <-- DLTA
 ------------------------------------------------------------------------------
 Cycle:     67
  WF centre and spread    1  (  0.000000,  0.000000, -0.000000 )     0.94110796
  WF centre and spread    2  ( -0.000000, -0.000000, -0.000000 )     0.94110247
  WF centre and spread    3  ( -0.000000,  0.000000, -0.000000 )     0.94112394
  Sum of centres and spreads (  0.000000,  0.000000, -0.000000 )     2.82333438
 
     67    -0.511E-09     0.0000102477        2.8233343758       0.58  <-- CONV
        O_D=      0.0000000 O_OD=      0.0023109 O_TOT=      2.8233344 <-- SPRD
 Delta: O_D=  0.1725356E-09 O_OD= -0.6836189E-09 O_TOT= -0.5110832E-09 <-- DLTA
 ------------------------------------------------------------------------------
 Cycle:     68
  WF centre and spread    1  (  0.000000,  0.000000, -0.000000 )     0.94110796
  WF centre and spread    2  ( -0.000000, -0.000000, -0.000000 )     0.94110247
  WF centre and spread    3  ( -0.000000,  0.000000, -0.000000 )     0.94112394
  Sum of centres and spreads (  0.000000,  0.000000, -0.000000 )     2.82333438
 
     68    -0.212E-09     0.0000163912        2.8233343756       0.59  <-- CONV
        O_D=      0.0000000 O_OD=      0.0023109 O_TOT=      2.8233344 <-- SPRD
 Delta: O_D=  0.6444362E-09 O_OD= -0.8562146E-09 O_TOT= -0.2117786E-09 <-- DLTA
 ------------------------------------------------------------------------------
 Cycle:     69
  WF centre and spread    1  (  0.000000,  0.000000, -0.000000 )     0.94110796
  WF centre and spread    2  ( -0.000000, -0.000000, -0.000000 )     0.94110247
  WF centre and spread    3  ( -0.000000,  0.000000, -0.000000 )     0.94112394
  Sum of centres and spreads (  0.000000,  0.000000, -0.000000 )     2.82333437
 
     69    -0.113E-08     0.0000292095        2.8233343745       0.60  <-- CONV
        O_D=      0.0000000 O_OD=      0.0023109 O_TOT=      2.8233344 <-- SPRD
 Delta: O_D= -0.8785627E-09 O_OD= -0.2479999E-09 O_TOT= -0.1126562E-08 <-- DLTA
 ------------------------------------------------------------------------------
 Cycle:     70
  WF centre and spread    1  (  0.000000,  0.000000, -0.000000 )     0.94110796
  WF centre and spread    2  ( -0.000000, -0.000000, -0.000000 )     0.94110247
  WF centre and spread    3  ( -0.000000,  0.000000, -0.000000 )     0.94112394
  Sum of centres and spreads (  0.000000,  0.000000, -0.000000 )     2.82333437
 
     70    -0.299E-12     0.0000088731        2.8233343745       0.61  <-- CONV
        O_D=      0.0000000 O_OD=      0.0023109 O_TOT=      2.8233344 <-- SPRD
 Delta: O_D= -0.2354522E-14 O_OD= -0.2960644E-12 O_TOT= -0.2988720E-12 <-- DLTA
 ------------------------------------------------------------------------------
 Cycle:     71
  WF centre and spread    1  (  0.000000,  0.000000, -0.000000 )     0.94110796
  WF centre and spread    2  ( -0.000000, -0.000000, -0.000000 )     0.94110247
  WF centre and spread    3  ( -0.000000,  0.000000, -0.000000 )     0.94112394
  Sum of centres and spreads (  0.000000,  0.000000, -0.000000 )     2.82333437
 
     71    -0.574E-12     0.0000088731        2.8233343745       0.61  <-- CONV
        O_D=      0.0000000 O_OD=      0.0023109 O_TOT=      2.8233344 <-- SPRD
 Delta: O_D= -0.7536638E-14 O_OD= -0.5665125E-12 O_TOT= -0.5737633E-12 <-- DLTA
 ------------------------------------------------------------------------------
 Cycle:     72
  WF centre and spread    1  (  0.000000,  0.000000, -0.000000 )     0.94110796
  WF centre and spread    2  ( -0.000000, -0.000000, -0.000000 )     0.94110247
  WF centre and spread    3  ( -0.000000,  0.000000, -0.000000 )     0.94112394
  Sum of centres and spreads (  0.000000,  0.000000, -0.000000 )     2.82333437
 
     72    -0.850E-12     0.0000088729        2.8233343744       0.62  <-- CONV
        O_D=      0.0000000 O_OD=      0.0023109 O_TOT=      2.8233344 <-- SPRD
 Delta: O_D= -0.1271959E-13 O_OD= -0.8369195E-12 O_TOT= -0.8495427E-12 <-- DLTA
 ------------------------------------------------------------------------------
 Cycle:     73
  WF centre and spread    1  (  0.000000,  0.000000, -0.000000 )     0.94110796
  WF centre and spread    2  ( -0.000000, -0.000000, -0.000000 )     0.94110247
  WF centre and spread    3  ( -0.000000,  0.000000, -0.000000 )     0.94112394
  Sum of centres and spreads (  0.000000,  0.000000, -0.000000 )     2.82333437
 
     73    -0.113E-11     0.0000088726        2.8233343744       0.63  <-- CONV
        O_D=      0.0000000 O_OD=      0.0023109 O_TOT=      2.8233344 <-- SPRD
 Delta: O_D= -0.1789407E-13 O_OD= -0.1107229E-11 O_TOT= -0.1125322E-11 <-- DLTA
 ------------------------------------------------------------------------------
 Cycle:     74
  WF centre and spread    1  (  0.000000,  0.000000, -0.000000 )     0.94110796
  WF centre and spread    2  ( -0.000000, -0.000000, -0.000000 )     0.94110247
  WF centre and spread    3  ( -0.000000,  0.000000, -0.000000 )     0.94112394
  Sum of centres and spreads (  0.000000,  0.000000, -0.000000 )     2.82333437
 
     74    -0.140E-11     0.0000088720        2.8233343744       0.63  <-- CONV
        O_D=      0.0000000 O_OD=      0.0023109 O_TOT=      2.8233344 <-- SPRD
 Delta: O_D= -0.2305077E-13 O_OD= -0.1377452E-11 O_TOT= -0.1400213E-11 <-- DLTA
 ------------------------------------------------------------------------------
 Cycle:     75
  WF centre and spread    1  (  0.000000,  0.000000, -0.000000 )     0.94110796
  WF centre and spread    2  ( -0.000000, -0.000000, -0.000000 )     0.94110247
  WF centre and spread    3  ( -0.000000,  0.000000, -0.000000 )     0.94112394
  Sum of centres and spreads (  0.000000,  0.000000, -0.000000 )     2.82333437
 
     75    -0.276E-12     0.0000088714        2.8233343744       0.64  <-- CONV
        O_D=      0.0000000 O_OD=      0.0023109 O_TOT=      2.8233344 <-- SPRD
 Delta: O_D= -0.5179398E-14 O_OD= -0.2703822E-12 O_TOT= -0.2757794E-12 <-- DLTA
 ------------------------------------------------------------------------------
 Cycle:     76
  WF centre and spread    1  (  0.000000,  0.000000, -0.000000 )     0.94110796
  WF centre and spread    2  ( -0.000000, -0.000000, -0.000000 )     0.94110247
  WF centre and spread    3  ( -0.000000,  0.000000, -0.000000 )     0.94112394
  Sum of centres and spreads (  0.000000,  0.000000, -0.000000 )     2.82333437
 
     76    -0.551E-12     0.0000088712        2.8233343744       0.64  <-- CONV
        O_D=      0.0000000 O_OD=      0.0023109 O_TOT=      2.8233344 <-- SPRD
 Delta: O_D= -0.1034964E-13 O_OD= -0.5407389E-12 O_TOT= -0.5506706E-12 <-- DLTA
 ------------------------------------------------------------------------------
 Cycle:     77
  WF centre and spread    1  (  0.000000,  0.000000, -0.000000 )     0.94110796
  WF centre and spread    2  ( -0.000000, -0.000000, -0.000000 )     0.94110247
  WF centre and spread    3  ( -0.000000,  0.000000, -0.000000 )     0.94112394
  Sum of centres and spreads (  0.000000,  0.000000, -0.000000 )     2.82333437
 
     77    -0.827E-12     0.0000088709        2.8233343744       0.65  <-- CONV
        O_D=      0.0000000 O_OD=      0.0023109 O_TOT=      2.8233344 <-- SPRD
 Delta: O_D= -0.1550144E-13 O_OD= -0.8110470E-12 O_TOT= -0.8268941E-12 <-- DLTA
 ------------------------------------------------------------------------------
 Cycle:     78
  WF centre and spread    1  (  0.000000,  0.000000, -0.000000 )     0.94110796
  WF centre and spread    2  ( -0.000000, -0.000000, -0.000000 )     0.94110247
  WF centre and spread    3  ( -0.000000,  0.000000, -0.000000 )     0.94112394
  Sum of centres and spreads (  0.000000,  0.000000, -0.000000 )     2.82333437
 
     78    -0.110E-11     0.0000088705        2.8233343744       0.65  <-- CONV
        O_D=      0.0000000 O_OD=      0.0023109 O_TOT=      2.8233344 <-- SPRD
 Delta: O_D= -0.2062560E-13 O_OD= -0.1081279E-11 O_TOT= -0.1102229E-11 <-- DLTA
 ------------------------------------------------------------------------------
 Cycle:     79
  WF centre and spread    1  (  0.000000,  0.000000, -0.000000 )     0.94110796
  WF centre and spread    2  ( -0.000000, -0.000000, -0.000000 )     0.94110247
  WF centre and spread    3  ( -0.000000,  0.000000, -0.000000 )     0.94112394
  Sum of centres and spreads (  0.000000,  0.000000, -0.000000 )     2.82333437
 
     79    -0.138E-11     0.0000088699        2.8233343744       0.66  <-- CONV
        O_D=      0.0000000 O_OD=      0.0023109 O_TOT=      2.8233344 <-- SPRD
 Delta: O_D= -0.2571307E-13 O_OD= -0.1351404E-11 O_TOT= -0.1377121E-11 <-- DLTA
 ------------------------------------------------------------------------------
 Cycle:     80
  WF centre and spread    1  (  0.000000,  0.000000, -0.000000 )     0.94110796
  WF centre and spread    2  ( -0.000000, -0.000000, -0.000000 )     0.94110247
  WF centre and spread    3  ( -0.000000,  0.000000, -0.000000 )     0.94112394
  Sum of centres and spreads (  0.000000,  0.000000, -0.000000 )     2.82333437
 
     80    -0.165E-11     0.0000088691        2.8233343744       0.67  <-- CONV
        O_D=      0.0000000 O_OD=      0.0023109 O_TOT=      2.8233344 <-- SPRD
 Delta: O_D= -0.3075499E-13 O_OD= -0.1621402E-11 O_TOT= -0.1652012E-11 <-- DLTA
 ------------------------------------------------------------------------------
 Cycle:     81
  WF centre and spread    1  (  0.000000,  0.000000, -0.000000 )     0.94110796
  WF centre and spread    2  ( -0.000000, -0.000000, -0.000000 )     0.94110247
  WF centre and spread    3  ( -0.000000,  0.000000, -0.000000 )     0.94112394
  Sum of centres and spreads (  0.000000,  0.000000, -0.000000 )     2.82333437
 
     81    -0.275E-12     0.0000088682        2.8233343744       0.67  <-- CONV
        O_D=      0.0000000 O_OD=      0.0023109 O_TOT=      2.8233344 <-- SPRD
 Delta: O_D= -0.5086704E-14 O_OD= -0.2702786E-12 O_TOT= -0.2748912E-12 <-- DLTA
 ------------------------------------------------------------------------------
 Cycle:     82
  WF centre and spread    1  (  0.000000,  0.000000, -0.000000 )     0.94110796
  WF centre and spread    2  ( -0.000000, -0.000000, -0.000000 )     0.94110247
  WF centre and spread    3  ( -0.000000,  0.000000, -0.000000 )     0.94112394
  Sum of centres and spreads (  0.000000,  0.000000, -0.000000 )     2.82333437
 
     82    -0.551E-12     0.0000088681        2.8233343744       0.68  <-- CONV
        O_D=      0.0000000 O_OD=      0.0023109 O_TOT=      2.8233344 <-- SPRD
 Delta: O_D= -0.1016471E-13 O_OD= -0.5405247E-12 O_TOT= -0.5511147E-12 <-- DLTA
 ------------------------------------------------------------------------------
 Cycle:     83
  WF centre and spread    1  (  0.000000,  0.000000, -0.000000 )     0.94110796
  WF centre and spread    2  ( -0.000000, -0.000000, -0.000000 )     0.94110247
  WF centre and spread    3  ( -0.000000,  0.000000, -0.000000 )     0.94112394
  Sum of centres and spreads (  0.000000,  0.000000, -0.000000 )     2.82333437
 
     83    -0.826E-12     0.0000088678        2.8233343744       0.68  <-- CONV
        O_D=      0.0000000 O_OD=      0.0023109 O_TOT=      2.8233344 <-- SPRD
 Delta: O_D= -0.1522519E-13 O_OD= -0.8107295E-12 O_TOT= -0.8260059E-12 <-- DLTA
 ------------------------------------------------------------------------------
 Cycle:     84
  WF centre and spread    1  (  0.000000,  0.000000, -0.000000 )     0.94110796
  WF centre and spread    2  ( -0.000000, -0.000000, -0.000000 )     0.94110247
  WF centre and spread    3  ( -0.000000,  0.000000, -0.000000 )     0.94112394
  Sum of centres and spreads (  0.000000,  0.000000, -0.000000 )     2.82333437
 
     84    -0.110E-11     0.0000088673        2.8233343744       0.69  <-- CONV
        O_D=      0.0000000 O_OD=      0.0023109 O_TOT=      2.8233344 <-- SPRD
 Delta: O_D= -0.2025941E-13 O_OD= -0.1080866E-11 O_TOT= -0.1100897E-11 <-- DLTA
 ------------------------------------------------------------------------------
 Cycle:     85
  WF centre and spread    1  (  0.000000,  0.000000, -0.000000 )     0.94110796
  WF centre and spread    2  ( -0.000000, -0.000000, -0.000000 )     0.94110247
  WF centre and spread    3  ( -0.000000,  0.000000, -0.000000 )     0.94112394
  Sum of centres and spreads (  0.000000,  0.000000, -0.000000 )     2.82333437
 
     85    -0.138E-11     0.0000088667        2.8233343744       0.69  <-- CONV
        O_D=      0.0000000 O_OD=      0.0023109 O_TOT=      2.8233344 <-- SPRD
 Delta: O_D= -0.2525876E-13 O_OD= -0.1350907E-11 O_TOT= -0.1376232E-11 <-- DLTA
 ------------------------------------------------------------------------------
 Cycle:     86
  WF centre and spread    1  (  0.000000,  0.000000, -0.000000 )     0.94110796
  WF centre and spread    2  ( -0.000000, -0.000000, -0.000000 )     0.94110247
  WF centre and spread    3  ( -0.000000,  0.000000, -0.000000 )     0.94112394
  Sum of centres and spreads (  0.000000,  0.000000, -0.000000 )     2.82333437
 
     86    -0.165E-11     0.0000088660        2.8233343744       0.70  <-- CONV
        O_D=      0.0000000 O_OD=      0.0023109 O_TOT=      2.8233344 <-- SPRD
 Delta: O_D= -0.3021484E-13 O_OD= -0.1620799E-11 O_TOT= -0.1651124E-11 <-- DLTA
 ------------------------------------------------------------------------------
 Cycle:     87
  WF centre and spread    1  (  0.000000,  0.000000, -0.000000 )     0.94110796
  WF centre and spread    2  ( -0.000000, -0.000000, -0.000000 )     0.94110247
  WF centre and spread    3  ( -0.000000,  0.000000, -0.000000 )     0.94112394
  Sum of centres and spreads (  0.000000,  0.000000, -0.000000 )     2.82333437
 
     87    -0.275E-12     0.0000088651        2.8233343744       0.70  <-- CONV
        O_D=      0.0000000 O_OD=      0.0023109 O_TOT=      2.8233344 <-- SPRD
 Delta: O_D= -0.4998589E-14 O_OD= -0.2701706E-12 O_TOT= -0.2748912E-12 <-- DLTA
 ------------------------------------------------------------------------------
 Cycle:     88
  WF centre and spread    1  (  0.000000,  0.000000, -0.000000 )     0.94110796
  WF centre and spread    2  ( -0.000000, -0.000000, -0.000000 )     0.94110247
  WF centre and spread    3  ( -0.000000,  0.000000, -0.000000 )     0.94112394
  Sum of centres and spreads (  0.000000,  0.000000, -0.000000 )     2.82333437
 
     88    -0.551E-12     0.0000088650        2.8233343744       0.71  <-- CONV
        O_D=      0.0000000 O_OD=      0.0023109 O_TOT=      2.8233344 <-- SPRD
 Delta: O_D= -0.9988908E-14 O_OD= -0.5403260E-12 O_TOT= -0.5506706E-12 <-- DLTA
 ------------------------------------------------------------------------------
 Cycle:     89
  WF centre and spread    1  (  0.000000,  0.000000, -0.000000 )     0.94110796
  WF centre and spread    2  ( -0.000000, -0.000000, -0.000000 )     0.94110247
  WF centre and spread    3  ( -0.000000,  0.000000, -0.000000 )     0.94112394
  Sum of centres and spreads (  0.000000,  0.000000, -0.000000 )     2.82333437
 
     89    -0.826E-12     0.0000088647        2.8233343744       0.72  <-- CONV
        O_D=      0.0000000 O_OD=      0.0023109 O_TOT=      2.8233344 <-- SPRD
 Delta: O_D= -0.1496257E-13 O_OD= -0.8104377E-12 O_TOT= -0.8255618E-12 <-- DLTA
 ------------------------------------------------------------------------------
 Cycle:     90
  WF centre and spread    1  (  0.000000,  0.000000, -0.000000 )     0.94110796
  WF centre and spread    2  ( -0.000000, -0.000000, -0.000000 )     0.94110247
  WF centre and spread    3  ( -0.000000,  0.000000, -0.000000 )     0.94112394
  Sum of centres and spreads (  0.000000,  0.000000, -0.000000 )     2.82333437
 
     90    -0.110E-11     0.0000088643        2.8233343744       0.72  <-- CONV
        O_D=      0.0000000 O_OD=      0.0023109 O_TOT=      2.8233344 <-- SPRD
 Delta: O_D= -0.1991128E-13 O_OD= -0.1080463E-11 O_TOT= -0.1100009E-11 <-- DLTA
 ------------------------------------------------------------------------------
 Cycle:     91
  WF centre and spread    1  (  0.000000,  0.000000, -0.000000 )     0.94110796
  WF centre and spread    2  ( -0.000000, -0.000000, -0.000000 )     0.94110247
  WF centre and spread    3  ( -0.000000,  0.000000, -0.000000 )     0.94112394
  Sum of centres and spreads (  0.000000,  0.000000, -0.000000 )     2.82333437
 
     91    -0.138E-11     0.0000088637        2.8233343744       0.73  <-- CONV
        O_D=      0.0000000 O_OD=      0.0023109 O_TOT=      2.8233344 <-- SPRD
 Delta: O_D= -0.2482685E-13 O_OD= -0.1350426E-11 O_TOT= -0.1375344E-11 <-- DLTA
 ------------------------------------------------------------------------------
 Cycle:     92
  WF centre and spread    1  (  0.000000,  0.000000, -0.000000 )     0.94110796
  WF centre and spread    2  ( -0.000000, -0.000000, -0.000000 )     0.94110247
  WF centre and spread    3  ( -0.000000,  0.000000, -0.000000 )     0.94112394
  Sum of centres and spreads (  0.000000,  0.000000, -0.000000 )     2.82333437
 
     92    -0.165E-11     0.0000088631        2.8233343744       0.73  <-- CONV
        O_D=      0.0000000 O_OD=      0.0023109 O_TOT=      2.8233344 <-- SPRD
 Delta: O_D= -0.2970129E-13 O_OD= -0.1620219E-11 O_TOT= -0.1649791E-11 <-- DLTA
 ------------------------------------------------------------------------------
 Cycle:     93
  WF centre and spread    1  (  0.000000,  0.000000, -0.000000 )     0.94110796
  WF centre and spread    2  ( -0.000000, -0.000000, -0.000000 )     0.94110247
  WF centre and spread    3  ( -0.000000,  0.000000, -0.000000 )     0.94112394
  Sum of centres and spreads (  0.000000,  0.000000, -0.000000 )     2.82333437
 
     93    -0.275E-12     0.0000088622        2.8233343744       0.74  <-- CONV
        O_D=      0.0000000 O_OD=      0.0023109 O_TOT=      2.8233344 <-- SPRD
 Delta: O_D= -0.4914808E-14 O_OD= -0.2700821E-12 O_TOT= -0.2748912E-12 <-- DLTA
 ------------------------------------------------------------------------------
 Cycle:     94
  WF centre and spread    1  (  0.000000,  0.000000, -0.000000 )     0.94110796
  WF centre and spread    2  ( -0.000000, -0.000000, -0.000000 )     0.94110247
  WF centre and spread    3  ( -0.000000,  0.000000, -0.000000 )     0.94112394
  Sum of centres and spreads (  0.000000,  0.000000, -0.000000 )     2.82333437
 
     94    -0.550E-12     0.0000088621        2.8233343744       0.74  <-- CONV
        O_D=      0.0000000 O_OD=      0.0023109 O_TOT=      2.8233344 <-- SPRD
 Delta: O_D= -0.9821754E-14 O_OD= -0.5401348E-12 O_TOT= -0.5497824E-12 <-- DLTA
 ------------------------------------------------------------------------------
 Cycle:     95
  WF centre and spread    1  (  0.000000,  0.000000, -0.000000 )     0.94110796
  WF centre and spread    2  ( -0.000000, -0.000000, -0.000000 )     0.94110247
  WF centre and spread    3  ( -0.000000,  0.000000, -0.000000 )     0.94112394
  Sum of centres and spreads (  0.000000,  0.000000, -0.000000 )     2.82333437
 
     95    -0.825E-12     0.0000088618        2.8233343744       0.75  <-- CONV
        O_D=      0.0000000 O_OD=      0.0023109 O_TOT=      2.8233344 <-- SPRD
 Delta: O_D= -0.1471287E-13 O_OD= -0.8101484E-12 O_TOT= -0.8251178E-12 <-- DLTA
 ------------------------------------------------------------------------------
 Cycle:     96
  WF centre and spread    1  (  0.000000,  0.000000, -0.000000 )     0.94110796
  WF centre and spread    2  ( -0.000000, -0.000000, -0.000000 )     0.94110247
  WF centre and spread    3  ( -0.000000,  0.000000, -0.000000 )     0.94112394
  Sum of centres and spreads (  0.000000,  0.000000, -0.000000 )     2.82333437
 
     96    -0.110E-11     0.0000088614        2.8233343744       0.76  <-- CONV
        O_D=      0.0000000 O_OD=      0.0023109 O_TOT=      2.8233344 <-- SPRD
 Delta: O_D= -0.1958026E-13 O_OD= -0.1080093E-11 O_TOT= -0.1100009E-11 <-- DLTA
 ------------------------------------------------------------------------------
 Cycle:     97
  WF centre and spread    1  (  0.000000,  0.000000, -0.000000 )     0.94110796
  WF centre and spread    2  ( -0.000000, -0.000000, -0.000000 )     0.94110247
  WF centre and spread    3  ( -0.000000,  0.000000, -0.000000 )     0.94112394
  Sum of centres and spreads (  0.000000,  0.000000, -0.000000 )     2.82333437
 
     97    -0.137E-11     0.0000088609        2.8233343744       0.76  <-- CONV
[...]
  Sum of centres and spreads (  0.000000,  0.000000, -0.000000 )     2.82333435
 
    473    -0.160E-11     0.0000087193        2.8233343483       3.08  <-- CONV
        O_D=      0.0000000 O_OD=      0.0023108 O_TOT=      2.8233343 <-- SPRD
 Delta: O_D= -0.1576146E-13 O_OD= -0.1581109E-11 O_TOT= -0.1596945E-11 <-- DLTA
 ------------------------------------------------------------------------------
 Cycle:    474
  WF centre and spread    1  (  0.000000,  0.000000, -0.000000 )     0.94110795
  WF centre and spread    2  ( -0.000000, -0.000000, -0.000000 )     0.94110246
  WF centre and spread    3  ( -0.000000,  0.000000, -0.000000 )     0.94112394
  Sum of centres and spreads (  0.000000,  0.000000, -0.000000 )     2.82333435
 
    474    -0.266E-12     0.0000087186        2.8233343483       3.09  <-- CONV
        O_D=      0.0000000 O_OD=      0.0023108 O_TOT=      2.8233343 <-- SPRD
 Delta: O_D= -0.2556128E-14 O_OD= -0.2635895E-12 O_TOT= -0.2664535E-12 <-- DLTA
 ------------------------------------------------------------------------------
 Cycle:    475
  WF centre and spread    1  (  0.000000,  0.000000, -0.000000 )     0.94110795
  WF centre and spread    2  ( -0.000000, -0.000000, -0.000000 )     0.94110246
  WF centre and spread    3  ( -0.000000,  0.000000, -0.000000 )     0.94112394
  Sum of centres and spreads (  0.000000,  0.000000, -0.000000 )     2.82333435
 
    475    -0.532E-12     0.0000087185        2.8233343483       3.09  <-- CONV
        O_D=      0.0000000 O_OD=      0.0023108 O_TOT=      2.8233343 <-- SPRD
 Delta: O_D= -0.5097293E-14 O_OD= -0.5271803E-12 O_TOT= -0.5320189E-12 <-- DLTA
 ------------------------------------------------------------------------------
 Cycle:    476
  WF centre and spread    1  (  0.000000,  0.000000, -0.000000 )     0.94110795
  WF centre and spread    2  ( -0.000000, -0.000000, -0.000000 )     0.94110246
  WF centre and spread    3  ( -0.000000,  0.000000, -0.000000 )     0.94112394
  Sum of centres and spreads (  0.000000,  0.000000, -0.000000 )     2.82333435
 
    476    -0.798E-12     0.0000087182        2.8233343483       3.10  <-- CONV
        O_D=      0.0000000 O_OD=      0.0023108 O_TOT=      2.8233343 <-- SPRD
 Delta: O_D= -0.7608552E-14 O_OD= -0.7907321E-12 O_TOT= -0.7984724E-12 <-- DLTA
 ------------------------------------------------------------------------------
 Cycle:    477
  WF centre and spread    1  (  0.000000,  0.000000, -0.000000 )     0.94110795
  WF centre and spread    2  ( -0.000000, -0.000000, -0.000000 )     0.94110246
  WF centre and spread    3  ( -0.000000,  0.000000, -0.000000 )     0.94112394
  Sum of centres and spreads (  0.000000,  0.000000, -0.000000 )     2.82333435
 
    477    -0.106E-11     0.0000087178        2.8233343483       3.11  <-- CONV
        O_D=      0.0000000 O_OD=      0.0023108 O_TOT=      2.8233343 <-- SPRD
 Delta: O_D= -0.1007514E-13 O_OD= -0.1054243E-11 O_TOT= -0.1064482E-11 <-- DLTA
 ------------------------------------------------------------------------------
 Cycle:    478
  WF centre and spread    1  (  0.000000,  0.000000, -0.000000 )     0.94110795
  WF centre and spread    2  ( -0.000000, -0.000000, -0.000000 )     0.94110246
  WF centre and spread    3  ( -0.000000,  0.000000, -0.000000 )     0.94112394
  Sum of centres and spreads (  0.000000,  0.000000, -0.000000 )     2.82333435
 
    478    -0.133E-11     0.0000087174        2.8233343483       3.11  <-- CONV
        O_D=      0.0000000 O_OD=      0.0023108 O_TOT=      2.8233343 <-- SPRD
 Delta: O_D= -0.1248257E-13 O_OD= -0.1317724E-11 O_TOT= -0.1330047E-11 <-- DLTA
 ------------------------------------------------------------------------------
 Cycle:    479
  WF centre and spread    1  (  0.000000,  0.000000, -0.000000 )     0.94110795
  WF centre and spread    2  ( -0.000000, -0.000000, -0.000000 )     0.94110246
  WF centre and spread    3  ( -0.000000,  0.000000, -0.000000 )     0.94112394
  Sum of centres and spreads (  0.000000,  0.000000, -0.000000 )     2.82333435
 
    479    -0.160E-11     0.0000087168        2.8233343483       3.12  <-- CONV
        O_D=      0.0000000 O_OD=      0.0023108 O_TOT=      2.8233343 <-- SPRD
 Delta: O_D= -0.1481671E-13 O_OD= -0.1581138E-11 O_TOT= -0.1596057E-11 <-- DLTA
 ------------------------------------------------------------------------------
 Cycle:    480
  WF centre and spread    1  (  0.000000,  0.000000, -0.000000 )     0.94110795
  WF centre and spread    2  ( -0.000000, -0.000000, -0.000000 )     0.94110246
  WF centre and spread    3  ( -0.000000,  0.000000, -0.000000 )     0.94112394
  Sum of centres and spreads (  0.000000,  0.000000, -0.000000 )     2.82333435
 
    480    -0.266E-12     0.0000087160        2.8233343483       3.12  <-- CONV
        O_D=      0.0000000 O_OD=      0.0023108 O_TOT=      2.8233343 <-- SPRD
 Delta: O_D= -0.2402874E-14 O_OD= -0.2635873E-12 O_TOT= -0.2660094E-12 <-- DLTA
 ------------------------------------------------------------------------------
 Cycle:    481
  WF centre and spread    1  (  0.000000,  0.000000, -0.000000 )     0.94110795
  WF centre and spread    2  ( -0.000000, -0.000000, -0.000000 )     0.94110246
  WF centre and spread    3  ( -0.000000,  0.000000, -0.000000 )     0.94112394
  Sum of centres and spreads (  0.000000,  0.000000, -0.000000 )     2.82333435
 
    481    -0.532E-12     0.0000087159        2.8233343483       3.13  <-- CONV
        O_D=      0.0000000 O_OD=      0.0023108 O_TOT=      2.8233343 <-- SPRD
 Delta: O_D= -0.4791687E-14 O_OD= -0.5271716E-12 O_TOT= -0.5320189E-12 <-- DLTA
 ------------------------------------------------------------------------------
 Cycle:    482
  WF centre and spread    1  (  0.000000,  0.000000, -0.000000 )     0.94110795
  WF centre and spread    2  ( -0.000000, -0.000000, -0.000000 )     0.94110246
  WF centre and spread    3  ( -0.000000,  0.000000, -0.000000 )     0.94112394
  Sum of centres and spreads (  0.000000,  0.000000, -0.000000 )     2.82333435
 
    482    -0.798E-12     0.0000087157        2.8233343483       3.13  <-- CONV
        O_D=      0.0000000 O_OD=      0.0023108 O_TOT=      2.8233343 <-- SPRD
 Delta: O_D= -0.7152400E-14 O_OD= -0.7907273E-12 O_TOT= -0.7975842E-12 <-- DLTA
 ------------------------------------------------------------------------------
 Cycle:    483
  WF centre and spread    1  (  0.000000,  0.000000, -0.000000 )     0.94110795
  WF centre and spread    2  ( -0.000000, -0.000000, -0.000000 )     0.94110246
  WF centre and spread    3  ( -0.000000,  0.000000, -0.000000 )     0.94112394
  Sum of centres and spreads (  0.000000,  0.000000, -0.000000 )     2.82333435
 
    483    -0.106E-11     0.0000087153        2.8233343483       3.14  <-- CONV
        O_D=      0.0000000 O_OD=      0.0023108 O_TOT=      2.8233343 <-- SPRD
 Delta: O_D= -0.9471141E-14 O_OD= -0.1054252E-11 O_TOT= -0.1063594E-11 <-- DLTA
 ------------------------------------------------------------------------------
 Cycle:    484
  WF centre and spread    1  (  0.000000,  0.000000, -0.000000 )     0.94110795
  WF centre and spread    2  ( -0.000000, -0.000000, -0.000000 )     0.94110246
  WF centre and spread    3  ( -0.000000,  0.000000, -0.000000 )     0.94112394
  Sum of centres and spreads (  0.000000,  0.000000, -0.000000 )     2.82333435
 
    484    -0.133E-11     0.0000087149        2.8233343483       3.15  <-- CONV
        O_D=      0.0000000 O_OD=      0.0023108 O_TOT=      2.8233343 <-- SPRD
 Delta: O_D= -0.1173430E-13 O_OD= -0.1317733E-11 O_TOT= -0.1330047E-11 <-- DLTA
 ------------------------------------------------------------------------------
 Cycle:    485
  WF centre and spread    1  (  0.000000,  0.000000, -0.000000 )     0.94110795
  WF centre and spread    2  ( -0.000000, -0.000000, -0.000000 )     0.94110246
  WF centre and spread    3  ( -0.000000,  0.000000, -0.000000 )     0.94112394
  Sum of centres and spreads (  0.000000,  0.000000, -0.000000 )     2.82333435
 
    485    -0.159E-11     0.0000087143        2.8233343483       3.15  <-- CONV
        O_D=      0.0000000 O_OD=      0.0023108 O_TOT=      2.8233343 <-- SPRD
 Delta: O_D= -0.1392859E-13 O_OD= -0.1581149E-11 O_TOT= -0.1594724E-11 <-- DLTA
 ------------------------------------------------------------------------------
 Cycle:    486
  WF centre and spread    1  (  0.000000,  0.000000, -0.000000 )     0.94110795
  WF centre and spread    2  ( -0.000000, -0.000000, -0.000000 )     0.94110246
  WF centre and spread    3  ( -0.000000,  0.000000, -0.000000 )     0.94112394
  Sum of centres and spreads (  0.000000,  0.000000, -0.000000 )     2.82333435
 
    486    -0.266E-12     0.0000087137        2.8233343483       3.16  <-- CONV
        O_D=      0.0000000 O_OD=      0.0023108 O_TOT=      2.8233343 <-- SPRD
 Delta: O_D= -0.2258810E-14 O_OD= -0.2635869E-12 O_TOT= -0.2660094E-12 <-- DLTA
 ------------------------------------------------------------------------------
 Cycle:    487
  WF centre and spread    1  (  0.000000,  0.000000, -0.000000 )     0.94110795
  WF centre and spread    2  ( -0.000000, -0.000000, -0.000000 )     0.94110246
  WF centre and spread    3  ( -0.000000,  0.000000, -0.000000 )     0.94112394
  Sum of centres and spreads (  0.000000,  0.000000, -0.000000 )     2.82333435
 
    487    -0.532E-12     0.0000087135        2.8233343483       3.16  <-- CONV
        O_D=      0.0000000 O_OD=      0.0023108 O_TOT=      2.8233343 <-- SPRD
 Delta: O_D= -0.4504405E-14 O_OD= -0.5271656E-12 O_TOT= -0.5315748E-12 <-- DLTA
 ------------------------------------------------------------------------------
 Cycle:    488
  WF centre and spread    1  (  0.000000,  0.000000, -0.000000 )     0.94110795
  WF centre and spread    2  ( -0.000000, -0.000000, -0.000000 )     0.94110246
  WF centre and spread    3  ( -0.000000,  0.000000, -0.000000 )     0.94112394
  Sum of centres and spreads (  0.000000,  0.000000, -0.000000 )     2.82333435
 
    488    -0.797E-12     0.0000087133        2.8233343483       3.17  <-- CONV
        O_D=      0.0000000 O_OD=      0.0023108 O_TOT=      2.8233343 <-- SPRD
 Delta: O_D= -0.6723595E-14 O_OD= -0.7907277E-12 O_TOT= -0.7971401E-12 <-- DLTA
 ------------------------------------------------------------------------------
 Cycle:    489
  WF centre and spread    1  (  0.000000,  0.000000, -0.000000 )     0.94110795
  WF centre and spread    2  ( -0.000000, -0.000000, -0.000000 )     0.94110246
  WF centre and spread    3  ( -0.000000,  0.000000, -0.000000 )     0.94112394
  Sum of centres and spreads (  0.000000,  0.000000, -0.000000 )     2.82333435
 
    489    -0.106E-11     0.0000087130        2.8233343483       3.17  <-- CONV
        O_D=      0.0000000 O_OD=      0.0023108 O_TOT=      2.8233343 <-- SPRD
 Delta: O_D= -0.8903348E-14 O_OD= -0.1054251E-11 O_TOT= -0.1063150E-11 <-- DLTA
 ------------------------------------------------------------------------------
 Cycle:    490
  WF centre and spread    1  (  0.000000,  0.000000, -0.000000 )     0.94110795
  WF centre and spread    2  ( -0.000000, -0.000000, -0.000000 )     0.94110246
  WF centre and spread    3  ( -0.000000,  0.000000, -0.000000 )     0.94112394
  Sum of centres and spreads (  0.000000,  0.000000, -0.000000 )     2.82333435
 
    490    -0.133E-11     0.0000087126        2.8233343483       3.18  <-- CONV
        O_D=      0.0000000 O_OD=      0.0023108 O_TOT=      2.8233343 <-- SPRD
 Delta: O_D= -0.1103087E-13 O_OD= -0.1317737E-11 O_TOT= -0.1328715E-11 <-- DLTA
 ------------------------------------------------------------------------------
 Cycle:    491
  WF centre and spread    1  (  0.000000,  0.000000, -0.000000 )     0.94110795
  WF centre and spread    2  ( -0.000000, -0.000000, -0.000000 )     0.94110246
  WF centre and spread    3  ( -0.000000,  0.000000, -0.000000 )     0.94112394
  Sum of centres and spreads (  0.000000,  0.000000, -0.000000 )     2.82333435
 
    491    -0.159E-11     0.0000087120        2.8233343483       3.18  <-- CONV
        O_D=      0.0000000 O_OD=      0.0023108 O_TOT=      2.8233343 <-- SPRD
 Delta: O_D= -0.1309369E-13 O_OD= -0.1581162E-11 O_TOT= -0.1594724E-11 <-- DLTA
 ------------------------------------------------------------------------------
 Cycle:    492
  WF centre and spread    1  (  0.000000,  0.000000, -0.000000 )     0.94110795
  WF centre and spread    2  ( -0.000000, -0.000000, -0.000000 )     0.94110246
  WF centre and spread    3  ( -0.000000,  0.000000, -0.000000 )     0.94112394
  Sum of centres and spreads (  0.000000,  0.000000, -0.000000 )     2.82333435
 
    492    -0.265E-12     0.0000087114        2.8233343483       3.19  <-- CONV
        O_D=      0.0000000 O_OD=      0.0023108 O_TOT=      2.8233343 <-- SPRD
 Delta: O_D= -0.2123383E-14 O_OD= -0.2635873E-12 O_TOT= -0.2651213E-12 <-- DLTA
 ------------------------------------------------------------------------------
 Cycle:    493
  WF centre and spread    1  (  0.000000,  0.000000, -0.000000 )     0.94110795
  WF centre and spread    2  ( -0.000000, -0.000000, -0.000000 )     0.94110246
  WF centre and spread    3  ( -0.000000,  0.000000, -0.000000 )     0.94112394
  Sum of centres and spreads (  0.000000,  0.000000, -0.000000 )     2.82333435
 
    493    -0.532E-12     0.0000087113        2.8233343483       3.20  <-- CONV
        O_D=      0.0000000 O_OD=      0.0023108 O_TOT=      2.8233343 <-- SPRD
 Delta: O_D= -0.4234348E-14 O_OD= -0.5271634E-12 O_TOT= -0.5320189E-12 <-- DLTA
 ------------------------------------------------------------------------------
 Cycle:    494
  WF centre and spread    1  (  0.000000,  0.000000, -0.000000 )     0.94110795
  WF centre and spread    2  ( -0.000000, -0.000000, -0.000000 )     0.94110246
  WF centre and spread    3  ( -0.000000,  0.000000, -0.000000 )     0.94112394
  Sum of centres and spreads (  0.000000,  0.000000, -0.000000 )     2.82333435
 
    494    -0.797E-12     0.0000087111        2.8233343482       3.20  <-- CONV
        O_D=      0.0000000 O_OD=      0.0023108 O_TOT=      2.8233343 <-- SPRD
 Delta: O_D= -0.6320500E-14 O_OD= -0.7907282E-12 O_TOT= -0.7966960E-12 <-- DLTA
 ------------------------------------------------------------------------------
 Cycle:    495
  WF centre and spread    1  (  0.000000,  0.000000, -0.000000 )     0.94110795
  WF centre and spread    2  ( -0.000000, -0.000000, -0.000000 )     0.94110246
  WF centre and spread    3  ( -0.000000,  0.000000, -0.000000 )     0.94112394
  Sum of centres and spreads (  0.000000,  0.000000, -0.000000 )     2.82333435
 
    495    -0.106E-11     0.0000087108        2.8233343482       3.21  <-- CONV
        O_D=      0.0000000 O_OD=      0.0023108 O_TOT=      2.8233343 <-- SPRD
 Delta: O_D= -0.8369595E-14 O_OD= -0.1054250E-11 O_TOT= -0.1062705E-11 <-- DLTA
 ------------------------------------------------------------------------------
 Cycle:    496
  WF centre and spread    1  (  0.000000,  0.000000, -0.000000 )     0.94110795
  WF centre and spread    2  ( -0.000000, -0.000000, -0.000000 )     0.94110246
  WF centre and spread    3  ( -0.000000,  0.000000, -0.000000 )     0.94112394
  Sum of centres and spreads (  0.000000,  0.000000, -0.000000 )     2.82333435
 
    496    -0.133E-11     0.0000087104        2.8233343482       3.21  <-- CONV
        O_D=      0.0000000 O_OD=      0.0023108 O_TOT=      2.8233343 <-- SPRD
 Delta: O_D= -0.1036961E-13 O_OD= -0.1317739E-11 O_TOT= -0.1327827E-11 <-- DLTA
 ------------------------------------------------------------------------------
 Cycle:    497
  WF centre and spread    1  (  0.000000,  0.000000, -0.000000 )     0.94110795
  WF centre and spread    2  ( -0.000000, -0.000000, -0.000000 )     0.94110246
  WF centre and spread    3  ( -0.000000,  0.000000, -0.000000 )     0.94112394
  Sum of centres and spreads (  0.000000,  0.000000, -0.000000 )     2.82333435
 
    497    -0.159E-11     0.0000087099        2.8233343482       3.22  <-- CONV
        O_D=      0.0000000 O_OD=      0.0023108 O_TOT=      2.8233343 <-- SPRD
 Delta: O_D= -0.1230883E-13 O_OD= -0.1581178E-11 O_TOT= -0.1593836E-11 <-- DLTA
 ------------------------------------------------------------------------------
 Cycle:    498
  WF centre and spread    1  (  0.000000,  0.000000, -0.000000 )     0.94110795
  WF centre and spread    2  ( -0.000000, -0.000000, -0.000000 )     0.94110246
  WF centre and spread    3  ( -0.000000,  0.000000, -0.000000 )     0.94112394
  Sum of centres and spreads (  0.000000,  0.000000, -0.000000 )     2.82333435
 
    498    -0.266E-12     0.0000087093        2.8233343482       3.22  <-- CONV
        O_D=      0.0000000 O_OD=      0.0023108 O_TOT=      2.8233343 <-- SPRD
 Delta: O_D= -0.1996077E-14 O_OD= -0.2635847E-12 O_TOT= -0.2655653E-12 <-- DLTA
 ------------------------------------------------------------------------------
 Cycle:    499
  WF centre and spread    1  (  0.000000,  0.000000, -0.000000 )     0.94110795
  WF centre and spread    2  ( -0.000000, -0.000000, -0.000000 )     0.94110246
  WF centre and spread    3  ( -0.000000,  0.000000, -0.000000 )     0.94112394
  Sum of centres and spreads (  0.000000,  0.000000, -0.000000 )     2.82333435
 
    499    -0.531E-12     0.0000087092        2.8233343482       3.23  <-- CONV
        O_D=      0.0000000 O_OD=      0.0023108 O_TOT=      2.8233343 <-- SPRD
 Delta: O_D= -0.3980483E-14 O_OD= -0.5271608E-12 O_TOT= -0.5311307E-12 <-- DLTA
 ------------------------------------------------------------------------------
 Cycle:    500
  WF centre and spread    1  (  0.000000,  0.000000, -0.000000 )     0.94110795
  WF centre and spread    2  ( -0.000000, -0.000000, -0.000000 )     0.94110246
  WF centre and spread    3  ( -0.000000,  0.000000, -0.000000 )     0.94112394
  Sum of centres and spreads (  0.000000,  0.000000, -0.000000 )     2.82333435
 
    500    -0.797E-12     0.0000087090        2.8233343482       3.24  <-- CONV
        O_D=      0.0000000 O_OD=      0.0023108 O_TOT=      2.8233343 <-- SPRD
 Delta: O_D= -0.5941573E-14 O_OD= -0.7907277E-12 O_TOT= -0.7966960E-12 <-- DLTA
 ------------------------------------------------------------------------------

 Writing checkpoint file mp-23155.chk... done

 Final State
  WF centre and spread    1  (  0.000000,  0.000000, -0.000000 )     0.94110795
  WF centre and spread    2  ( -0.000000, -0.000000, -0.000000 )     0.94110246
  WF centre and spread    3  ( -0.000000,  0.000000, -0.000000 )     0.94112394
  Sum of centres and spreads (  0.000000,  0.000000, -0.000000 )     2.82333435
 
         Spreads (Ang^2)       Omega I      =     2.821023507
        ================       Omega D      =     0.000000000
                               Omega OD     =     0.002310840
    Final Spread (Ang^2)       Omega Total  =     2.823334348
 ------------------------------------------------------------------------------
 Time for wannierise            3.216 (sec)

 Writing checkpoint file mp-23155.chk... done

 Time for plotting              0.000 (sec)
 Total Execution Time           5.279 (sec)

 *===========================================================================*
 |                             TIMING INFORMATION                            |
 *===========================================================================*
 |    Tag                                                Ncalls      Time (s)|
 |---------------------------------------------------------------------------|
 |kmesh: get                                        :         1         1.663|
 |overlap: allocate                                 :         1         0.002|
 |overlap: read                                     :         1         0.215|
 |wann: main                                        :         1         3.216|
 |plot: main                                        :         1         0.000|
 *---------------------------------------------------------------------------*
 
 All done: wannier90 exiting
