 
             +---------------------------------------------------+
             |                                                   |
             |                   WANNIER90                       |
             |                                                   |
             +---------------------------------------------------+
             |                                                   |
             |        Welcome to the Maximally-Localized         |
             |        Generalized Wannier Functions code         |
             |            http://www.wannier.org                 |
             |                                                   |
             |                                                   |
             |  Wannier90 Developer Group:                       |
             |    Giovanni Pizzi    (EPFL)                       |
             |    Valerio Vitale    (Cambridge)                  |
             |    David Vanderbilt  (Rutgers University)         |
             |    Nicola Marzari    (EPFL)                       |
             |    Ivo Souza         (Universidad del Pais Vasco) |
             |    Arash A. Mostofi  (Imperial College London)    |
             |    Jonathan R. Yates (University of Oxford)       |
             |                                                   |
             |  For the full list of Wannier90 3.x authors,      |
             |  please check the code documentation and the      |
             |  README on the GitHub page of the code            |
             |                                                   |
             |                                                   |
             |  Please cite                                      |
             |                                                   |
             |  [ref] "Wannier90 as a community code:            |
             |        new features and applications",            |
             |        G. Pizzi et al., J. Phys. Cond. Matt. 32,  |
             |        165902 (2020).                             |
             |        http://doi.org/10.1088/1361-648X/ab51ff    |
             |                                                   |
             |  in any publications arising from the use of      |
             |  this code. For the method please cite            |
             |                                                   |
             |  [ref] "Maximally Localized Generalised Wannier   |
             |         Functions for Composite Energy Bands"     |
             |         N. Marzari and D. Vanderbilt              |
             |         Phys. Rev. B 56 12847 (1997)              |
             |                                                   |
             |  [ref] "Maximally Localized Wannier Functions     |
             |         for Entangled Energy Bands"               |
             |         I. Souza, N. Marzari and D. Vanderbilt    |
             |         Phys. Rev. B 65 035109 (2001)             |
             |                                                   |
             |                                                   |
             | Copyright (c) 1996-2020                           |
             |        The Wannier90 Developer Group and          |
             |        individual contributors                    |
             |                                                   |
             |      Release: 3.1.0        5th March    2020      |
             |                                                   |
             | This program is free software; you can            |
             | redistribute it and/or modify it under the terms  |
             | of the GNU General Public License as published by |
             | the Free Software Foundation; either version 2 of |
             | the License, or (at your option) any later version|
             |                                                   |
             | This program is distributed in the hope that it   |
             | will be useful, but WITHOUT ANY WARRANTY; without |
             | even the implied warranty of MERCHANTABILITY or   |
             | FITNESS FOR A PARTICULAR PURPOSE. See the GNU     |
             | General Public License for more details.          |
             |                                                   |
             | You should have received a copy of the GNU General|
             | Public License along with this program; if not,   |
             | write to the Free Software Foundation, Inc.,      |
             | 675 Mass Ave, Cambridge, MA 02139, USA.           |
             |                                                   |
             +---------------------------------------------------+
             |    Execution started on  8Apr2024 at 15:14:31     |
             +---------------------------------------------------+
 
 ******************************************************************************
 * -> Using CODATA 2006 constant values                                       *
 *    (http://physics.nist.gov/cuu/Constants/index.html)                      *
 * -> Using Bohr value from CODATA                                            *
 ******************************************************************************
 

 Running in parallel on  16 CPUs

 
                                    ------
                                    SYSTEM
                                    ------
 
                              Lattice Vectors (Ang)
                    a_1    -2.681580   0.000000   2.681580
                    a_2     0.000000   2.681580   2.681580
                    a_3    -2.681580   2.681580   0.000000
 
                   Unit Cell Volume:      38.56579  (Ang^3)
 
                        Reciprocal-Space Vectors (Ang^-1)
                    b_1    -1.171545  -1.171545   1.171545
                    b_2     1.171545   1.171545   1.171545
                    b_3    -1.171545   1.171545  -1.171545
  
 *----------------------------------------------------------------------------*
 |   Site       Fractional Coordinate          Cartesian Coordinate (Ang)     |
 +----------------------------------------------------------------------------+
 | Ar   1   0.00000   0.00000   0.00000   |    0.00000   0.00000   0.00000    |
 *----------------------------------------------------------------------------*
                                ------------
                                K-POINT GRID
                                ------------
  
             Grid size = 14 x 14 x 14      Total points = 2744
  
  
 *---------------------------------- MAIN ------------------------------------*
 |  Number of Wannier Functions               :                 3             |
 |  Number of Objective Wannier Functions     :                 3             |
 |  Number of input Bloch states              :                 3             |
 |  Output verbosity (1=low, 5=high)          :                 1             |
 |  Timing Level (1=low, 5=high)              :                 1             |
 |  Optimisation (0=memory, 3=speed)          :                 3             |
 |  Length Unit                               :               Ang             |
 |  Post-processing setup (write *.nnkp)      :                 F             |
 |  Using Gamma-only branch of algorithms     :                 F             |
 *----------------------------------------------------------------------------*
 *------------------------------- WANNIERISE ---------------------------------*
 |  Total number of iterations                :               500             |
 |  Number of CG steps before reset           :                 5             |
 |  Trial step length for line search         :             2.000             |
 |  Convergence tolerence                     :         0.100E-09             |
 |  Convergence window                        :                -1             |
 |  Iterations between writing output         :                 1             |
 |  Iterations between backing up to disk     :               100             |
 |  Write r^2_nm to file                      :                 F             |
 |  Write xyz WF centres to file              :                 F             |
 |  Write on-site energies <0n|H|0n> to file  :                 F             |
 |  Use guiding centre to control phases      :                 F             |
 |  Use phases for initial projections        :                 F             |
 *----------------------------------------------------------------------------*
 Time to read parameters        0.231 (sec)

 *---------------------------------- K-MESH ----------------------------------*
 +----------------------------------------------------------------------------+
 |                    Distance to Nearest-Neighbour Shells                    |
 |                    ------------------------------------                    |
 |          Shell             Distance (Ang^-1)          Multiplicity         |
 |          -----             -----------------          ------------         |
 |             1                   0.144941                      8            |
 |             2                   0.167364                      6            |
 |             3                   0.236688                     12            |
 |             4                   0.277541                     24            |
 |             5                   0.289882                      8            |
 |             6                   0.334727                      6            |
 |             7                   0.364761                     24            |
 |             8                   0.374236                     24            |
 |             9                   0.409955                     24            |
 |            10                   0.434823                     32            |
 |            11                   0.473376                     12            |
 |            12                   0.495068                     48            |
 |            13                   0.502091                     30            |
 |            14                   0.529250                     24            |
 |            15                   0.548738                     24            |
 |            16                   0.555082                     24            |
 |            17                   0.579765                      8            |
 |            18                   0.597608                     48            |
 |            19                   0.603438                     24            |
 |            20                   0.626217                     48            |
 |            21                   0.642772                     72            |
 |            22                   0.669455                      6            |
 |            23                   0.684965                     24            |
 |            24                   0.690058                     48            |
 |            25                   0.710064                     36            |
 |            26                   0.724706                     56            |
 |            27                   0.729521                     24            |
 |            28                   0.748473                     24            |
 |            29                   0.762378                     72            |
 |            30                   0.766956                     48            |
 |            31                   0.785005                     24            |
 |            32                   0.798274                     48            |
 |            33                   0.819911                     24            |
 |            34                   0.832624                     72            |
 |            35                   0.836818                     30            |
 |            36                   0.853390                     72            |
 +----------------------------------------------------------------------------+
 | The b-vectors are chosen automatically                                     |
 | The following shells are used:   1                                         |
 +----------------------------------------------------------------------------+
 |                        Shell   # Nearest-Neighbours                        |
 |                        -----   --------------------                        |
 |                          1               8                                 |
 +----------------------------------------------------------------------------+
 | Completeness relation is fully satisfied [Eq. (B1), PRB 56, 12847 (1997)]  |
 +----------------------------------------------------------------------------+
 |                  b_k Vectors (Ang^-1) and Weights (Ang^2)                  |
 |                  ----------------------------------------                  |
 |            No.         b_k(x)      b_k(y)      b_k(z)        w_b           |
 |            ---        --------------------------------     --------        |
 |             1        -0.083682    0.083682   -0.083682    17.850397        |
 |             2         0.083682    0.083682    0.083682    17.850397        |
 |             3        -0.083682   -0.083682    0.083682    17.850397        |
 |             4        -0.083682    0.083682    0.083682    17.850397        |
 |             5         0.083682   -0.083682    0.083682    17.850397        |
 |             6        -0.083682   -0.083682   -0.083682    17.850397        |
 |             7         0.083682    0.083682   -0.083682    17.850397        |
 |             8         0.083682   -0.083682   -0.083682    17.850397        |
 +----------------------------------------------------------------------------+
 |                           b_k Directions (Ang^-1)                          |
 |                           -----------------------                          |
 |            No.           x           y           z                         |
 |            ---        --------------------------------                     |
 |             1        -0.083682    0.083682   -0.083682                     |
 |             2         0.083682    0.083682    0.083682                     |
 |             3        -0.083682   -0.083682    0.083682                     |
 |             4        -0.083682    0.083682    0.083682                     |
 +----------------------------------------------------------------------------+
  
 Time to get kmesh              1.063 (sec)
 *============================================================================*
 |                              MEMORY ESTIMATE                               |
 |         Maximum RAM allocated during each phase of the calculation         |
 *============================================================================*
 |                            Wannierise:           11.12 Mb                  |
 |                          plot_wannier:           11.12 Mb                  |
 *----------------------------------------------------------------------------*
  
 Starting a new Wannier90 calculation ...


 Reading overlaps from mp-23155.mmn    :  Created on  8Apr2024 at 15:14:17

 Reading projections from mp-23155.amn :  Created on  8Apr2024 at 15:14:16  with SCDM

 Time to read overlaps          0.168 (sec)

 Writing checkpoint file mp-23155.chk... done

 
 *------------------------------- WANNIERISE ---------------------------------*
 +--------------------------------------------------------------------+<-- CONV
 | Iter  Delta Spread     RMS Gradient      Spread (Ang^2)      Time  |<-- CONV
 +--------------------------------------------------------------------+<-- CONV
 
 ------------------------------------------------------------------------------
 Initial State
  WF centre and spread    1  (  0.000137, -0.000059, -0.000215 )     0.94834323
  WF centre and spread    2  ( -0.000252, -0.000133,  0.000084 )     0.94790210
  WF centre and spread    3  (  0.000090,  0.000225,  0.000100 )     0.94840599
  Sum of centres and spreads ( -0.000025,  0.000032, -0.000031 )     2.84465132
 
      0     0.284E+01     0.0000000000        2.8446513222       0.00  <-- CONV
        O_D=      0.0099767 O_OD=      0.0136508 O_TOT=      2.8446513 <-- SPRD
 ------------------------------------------------------------------------------
 Cycle:      1
  WF centre and spread    1  (  0.000022, -0.000013, -0.000036 )     0.94217016
  WF centre and spread    2  ( -0.000039, -0.000018,  0.000010 )     0.94215092
  WF centre and spread    3  (  0.000014,  0.000036,  0.000021 )     0.94216245
  Sum of centres and spreads ( -0.000004,  0.000005, -0.000005 )     2.82648353
 
      1    -0.182E-01     0.0210143039        2.8264835299       0.01  <-- CONV
        O_D=      0.0011466 O_OD=      0.0043131 O_TOT=      2.8264835 <-- SPRD
 Delta: O_D= -0.8830143E-02 O_OD= -0.9337649E-02 O_TOT= -0.1816779E-01 <-- DLTA
 ------------------------------------------------------------------------------
 Cycle:      2
  WF centre and spread    1  (  0.000021, -0.000013, -0.000035 )     0.94137092
  WF centre and spread    2  ( -0.000038, -0.000017,  0.000010 )     0.94136398
  WF centre and spread    3  (  0.000013,  0.000035,  0.000020 )     0.94138700
  Sum of centres and spreads ( -0.000004,  0.000005, -0.000005 )     2.82412190
 
      2    -0.236E-02     0.0365431874        2.8241218991       0.02  <-- CONV
        O_D=      0.0003255 O_OD=      0.0027726 O_TOT=      2.8241219 <-- SPRD
 Delta: O_D= -0.8211233E-03 O_OD= -0.1540507E-02 O_TOT= -0.2361631E-02 <-- DLTA
 ------------------------------------------------------------------------------
 Cycle:      3
  WF centre and spread    1  (  0.000020, -0.000013, -0.000033 )     0.94129670
  WF centre and spread    2  ( -0.000036, -0.000017,  0.000009 )     0.94129217
  WF centre and spread    3  (  0.000013,  0.000034,  0.000020 )     0.94131447
  Sum of centres and spreads ( -0.000003,  0.000005, -0.000004 )     2.82390334
 
      3    -0.219E-03     0.0096944605        2.8239033386       0.03  <-- CONV
        O_D=      0.0002446 O_OD=      0.0026349 O_TOT=      2.8239033 <-- SPRD
 Delta: O_D= -0.8084926E-04 O_OD= -0.1377113E-03 O_TOT= -0.2185606E-03 <-- DLTA
 ------------------------------------------------------------------------------
 Cycle:      4
  WF centre and spread    1  (  0.000017, -0.000011, -0.000029 )     0.94124167
  WF centre and spread    2  ( -0.000031, -0.000014,  0.000008 )     0.94124038
  WF centre and spread    3  (  0.000011,  0.000029,  0.000017 )     0.94125937
  Sum of centres and spreads ( -0.000003,  0.000004, -0.000004 )     2.82374142
 
      4    -0.162E-03     0.0053422730        2.8237414227       0.03  <-- CONV
        O_D=      0.0001739 O_OD=      0.0025437 O_TOT=      2.8237414 <-- SPRD
 Delta: O_D= -0.7069416E-04 O_OD= -0.9122171E-04 O_TOT= -0.1619159E-03 <-- DLTA
 ------------------------------------------------------------------------------
 Cycle:      5
  WF centre and spread    1  (  0.000012, -0.000008, -0.000021 )     0.94117780
  WF centre and spread    2  ( -0.000022, -0.000010,  0.000006 )     0.94117936
  WF centre and spread    3  (  0.000008,  0.000021,  0.000012 )     0.94119591
  Sum of centres and spreads ( -0.000002,  0.000003, -0.000003 )     2.82355308
 
      5    -0.188E-03     0.0065223081        2.8235530764       0.04  <-- CONV
        O_D=      0.0000914 O_OD=      0.0024378 O_TOT=      2.8235531 <-- SPRD
 Delta: O_D= -0.8249441E-04 O_OD= -0.1058520E-03 O_TOT= -0.1883464E-03 <-- DLTA
 ------------------------------------------------------------------------------
 Cycle:      6
  WF centre and spread    1  (  0.000009, -0.000006, -0.000016 )     0.94115164
  WF centre and spread    2  ( -0.000017, -0.000008,  0.000004 )     0.94115473
  WF centre and spread    3  (  0.000006,  0.000016,  0.000010 )     0.94117025
  Sum of centres and spreads ( -0.000002,  0.000002, -0.000002 )     2.82347663
 
      6    -0.764E-04     0.0048767852        2.8234766293       0.05  <-- CONV
        O_D=      0.0000586 O_OD=      0.0023942 O_TOT=      2.8234766 <-- SPRD
 Delta: O_D= -0.3284150E-04 O_OD= -0.4360558E-04 O_TOT= -0.7644708E-04 <-- DLTA
 ------------------------------------------------------------------------------
 Cycle:      7
  WF centre and spread    1  (  0.000006, -0.000004, -0.000011 )     0.94113269
  WF centre and spread    2  ( -0.000012, -0.000005,  0.000003 )     0.94113662
  WF centre and spread    3  (  0.000004,  0.000011,  0.000007 )     0.94115190
  Sum of centres and spreads ( -0.000001,  0.000002, -0.000002 )     2.82342121
 
      7    -0.554E-04     0.0034961376        2.8234212059       0.05  <-- CONV
        O_D=      0.0000345 O_OD=      0.0023629 O_TOT=      2.8234212 <-- SPRD
 Delta: O_D= -0.2408724E-04 O_OD= -0.3133616E-04 O_TOT= -0.5542340E-04 <-- DLTA
 ------------------------------------------------------------------------------
 Cycle:      8
  WF centre and spread    1  (  0.000006, -0.000004, -0.000011 )     0.94112388
  WF centre and spread    2  ( -0.000011, -0.000005,  0.000003 )     0.94112813
  WF centre and spread    3  (  0.000004,  0.000011,  0.000006 )     0.94114321
  Sum of centres and spreads ( -0.000001,  0.000002, -0.000001 )     2.82339523
 
      8    -0.260E-04     0.0033537819        2.8233952289       0.06  <-- CONV
        O_D=      0.0000251 O_OD=      0.0023464 O_TOT=      2.8233952 <-- SPRD
 Delta: O_D= -0.9444193E-05 O_OD= -0.1653278E-04 O_TOT= -0.2597697E-04 <-- DLTA
 ------------------------------------------------------------------------------
 Cycle:      9
  WF centre and spread    1  (  0.000005, -0.000003, -0.000009 )     0.94111671
  WF centre and spread    2  ( -0.000009, -0.000004,  0.000002 )     0.94112122
  WF centre and spread    3  (  0.000003,  0.000009,  0.000006 )     0.94113629
  Sum of centres and spreads ( -0.000001,  0.000001, -0.000001 )     2.82337422
 
      9    -0.210E-04     0.0022086380        2.8233742179       0.07  <-- CONV
        O_D=      0.0000166 O_OD=      0.0023338 O_TOT=      2.8233742 <-- SPRD
 Delta: O_D= -0.8452830E-05 O_OD= -0.1255816E-04 O_TOT= -0.2101099E-04 <-- DLTA
 ------------------------------------------------------------------------------
 Cycle:     10
  WF centre and spread    1  (  0.000004, -0.000003, -0.000007 )     0.94111085
  WF centre and spread    2  ( -0.000007, -0.000003,  0.000002 )     0.94111560
  WF centre and spread    3  (  0.000003,  0.000007,  0.000004 )     0.94113078
  Sum of centres and spreads ( -0.000001,  0.000001, -0.000001 )     2.82335724
 
     10    -0.170E-04     0.0019985399        2.8233572374       0.07  <-- CONV
        O_D=      0.0000096 O_OD=      0.0023239 O_TOT=      2.8233572 <-- SPRD
 Delta: O_D= -0.7056501E-05 O_OD= -0.9924001E-05 O_TOT= -0.1698050E-04 <-- DLTA
 ------------------------------------------------------------------------------
 Cycle:     11
  WF centre and spread    1  (  0.000003, -0.000002, -0.000006 )     0.94110811
  WF centre and spread    2  ( -0.000006, -0.000003,  0.000002 )     0.94111304
  WF centre and spread    3  (  0.000002,  0.000006,  0.000004 )     0.94112834
  Sum of centres and spreads ( -0.000000,  0.000001, -0.000001 )     2.82334949
 
     11    -0.774E-05     0.0015884674        2.8233494929       0.08  <-- CONV
        O_D=      0.0000062 O_OD=      0.0023195 O_TOT=      2.8233495 <-- SPRD
 Delta: O_D= -0.3351504E-05 O_OD= -0.4393023E-05 O_TOT= -0.7744527E-05 <-- DLTA
 ------------------------------------------------------------------------------
 Cycle:     12
  WF centre and spread    1  (  0.000003, -0.000002, -0.000005 )     0.94110677
  WF centre and spread    2  ( -0.000005, -0.000002,  0.000001 )     0.94111175
  WF centre and spread    3  (  0.000002,  0.000005,  0.000003 )     0.94112712
  Sum of centres and spreads ( -0.000000,  0.000001, -0.000001 )     2.82334564
 
     12    -0.386E-05     0.0009765364        2.8233456355       0.08  <-- CONV
        O_D=      0.0000045 O_OD=      0.0023173 O_TOT=      2.8233456 <-- SPRD
 Delta: O_D= -0.1709977E-05 O_OD= -0.2147414E-05 O_TOT= -0.3857391E-05 <-- DLTA
 ------------------------------------------------------------------------------
 Cycle:     13
  WF centre and spread    1  (  0.000001, -0.000001, -0.000003 )     0.94110482
  WF centre and spread    2  ( -0.000002, -0.000001,  0.000001 )     0.94110988
  WF centre and spread    3  (  0.000001,  0.000002,  0.000002 )     0.94112542
  Sum of centres and spreads ( -0.000000,  0.000000, -0.000000 )     2.82334011
 
     13    -0.552E-05     0.0009642512        2.8233401141       0.09  <-- CONV
        O_D=      0.0000022 O_OD=      0.0023142 O_TOT=      2.8233401 <-- SPRD
 Delta: O_D= -0.2336504E-05 O_OD= -0.3184857E-05 O_TOT= -0.5521361E-05 <-- DLTA
 ------------------------------------------------------------------------------
 Cycle:     14
  WF centre and spread    1  (  0.000001, -0.000001, -0.000002 )     0.94110403
  WF centre and spread    2  ( -0.000002, -0.000001,  0.000001 )     0.94110912
  WF centre and spread    3  (  0.000001,  0.000002,  0.000002 )     0.94112466
  Sum of centres and spreads ( -0.000000,  0.000000, -0.000000 )     2.82333780
 
     14    -0.231E-05     0.0010741816        2.8233378044       0.09  <-- CONV
        O_D=      0.0000013 O_OD=      0.0023127 O_TOT=      2.8233378 <-- SPRD
 Delta: O_D= -0.8454431E-06 O_OD= -0.1464272E-05 O_TOT= -0.2309715E-05 <-- DLTA
 ------------------------------------------------------------------------------
 Cycle:     15
  WF centre and spread    1  (  0.000001, -0.000001, -0.000002 )     0.94110370
  WF centre and spread    2  ( -0.000002, -0.000001,  0.000001 )     0.94110881
  WF centre and spread    3  (  0.000001,  0.000002,  0.000001 )     0.94112437
  Sum of centres and spreads ( -0.000000,  0.000000, -0.000000 )     2.82333688
 
     15    -0.924E-06     0.0005211315        2.8233368802       0.10  <-- CONV
        O_D=      0.0000009 O_OD=      0.0023121 O_TOT=      2.8233369 <-- SPRD
 Delta: O_D= -0.3704022E-06 O_OD= -0.5538363E-06 O_TOT= -0.9242385E-06 <-- DLTA
 ------------------------------------------------------------------------------
 Cycle:     16
  WF centre and spread    1  (  0.000001, -0.000001, -0.000002 )     0.94110346
  WF centre and spread    2  ( -0.000002, -0.000001,  0.000000 )     0.94110859
  WF centre and spread    3  (  0.000001,  0.000002,  0.000001 )     0.94112416
  Sum of centres and spreads (  0.000000,  0.000000, -0.000000 )     2.82333622
 
     16    -0.663E-06     0.0003950189        2.8233362172       0.10  <-- CONV
        O_D=      0.0000007 O_OD=      0.0023118 O_TOT=      2.8233362 <-- SPRD
 Delta: O_D= -0.2854961E-06 O_OD= -0.3774510E-06 O_TOT= -0.6629471E-06 <-- DLTA
 ------------------------------------------------------------------------------
 Cycle:     17
  WF centre and spread    1  (  0.000001, -0.000000, -0.000001 )     0.94110322
  WF centre and spread    2  ( -0.000001, -0.000001,  0.000000 )     0.94110837
  WF centre and spread    3  (  0.000001,  0.000001,  0.000001 )     0.94112397
  Sum of centres and spreads (  0.000000,  0.000000, -0.000000 )     2.82333556
 
     17    -0.657E-06     0.0003765468        2.8233355603       0.11  <-- CONV
        O_D=      0.0000004 O_OD=      0.0023114 O_TOT=      2.8233356 <-- SPRD
 Delta: O_D= -0.2861792E-06 O_OD= -0.3707146E-06 O_TOT= -0.6568938E-06 <-- DLTA
 ------------------------------------------------------------------------------
 Cycle:     18
  WF centre and spread    1  (  0.000001, -0.000000, -0.000001 )     0.94110309
  WF centre and spread    2  ( -0.000001, -0.000001,  0.000000 )     0.94110825
  WF centre and spread    3  (  0.000000,  0.000001,  0.000001 )     0.94112389
  Sum of centres and spreads (  0.000000,  0.000000, -0.000000 )     2.82333523
 
     18    -0.332E-06     0.0003172143        2.8233352281       0.11  <-- CONV
        O_D=      0.0000002 O_OD=      0.0023112 O_TOT=      2.8233352 <-- SPRD
 Delta: O_D= -0.1419651E-06 O_OD= -0.1902867E-06 O_TOT= -0.3322518E-06 <-- DLTA
 ------------------------------------------------------------------------------
 Cycle:     19
  WF centre and spread    1  (  0.000000, -0.000000, -0.000001 )     0.94110302
  WF centre and spread    2  ( -0.000001, -0.000000,  0.000000 )     0.94110818
  WF centre and spread    3  (  0.000000,  0.000001,  0.000001 )     0.94112386
  Sum of centres and spreads (  0.000000,  0.000000, -0.000000 )     2.82333506
 
     19    -0.171E-06     0.0002121909        2.8233350569       0.12  <-- CONV
        O_D=      0.0000002 O_OD=      0.0023111 O_TOT=      2.8233351 <-- SPRD
 Delta: O_D= -0.7245216E-07 O_OD= -0.9872521E-07 O_TOT= -0.1711774E-06 <-- DLTA
 ------------------------------------------------------------------------------
 Cycle:     20
  WF centre and spread    1  (  0.000000, -0.000000, -0.000001 )     0.94110299
  WF centre and spread    2  ( -0.000001, -0.000000,  0.000000 )     0.94110814
  WF centre and spread    3  (  0.000000,  0.000001,  0.000001 )     0.94112383
  Sum of centres and spreads (  0.000000,  0.000000, -0.000000 )     2.82333495
 
     20    -0.103E-06     0.0002118442        2.8233349536       0.12  <-- CONV
        O_D=      0.0000001 O_OD=      0.0023110 O_TOT=      2.8233350 <-- SPRD
 Delta: O_D= -0.3795569E-07 O_OD= -0.6538840E-07 O_TOT= -0.1033441E-06 <-- DLTA
 ------------------------------------------------------------------------------
 Cycle:     21
  WF centre and spread    1  (  0.000000, -0.000000, -0.000001 )     0.94110295
  WF centre and spread    2  ( -0.000000, -0.000000,  0.000000 )     0.94110809
  WF centre and spread    3  (  0.000000,  0.000001,  0.000001 )     0.94112381
  Sum of centres and spreads (  0.000000,  0.000000, -0.000000 )     2.82333485
 
     21    -0.102E-06     0.0001428488        2.8233348518       0.13  <-- CONV
        O_D=      0.0000001 O_OD=      0.0023110 O_TOT=      2.8233349 <-- SPRD
 Delta: O_D= -0.3987518E-07 O_OD= -0.6189727E-07 O_TOT= -0.1017725E-06 <-- DLTA
 ------------------------------------------------------------------------------
 Cycle:     22
  WF centre and spread    1  (  0.000000,  0.000000, -0.000001 )     0.94110292
  WF centre and spread    2  ( -0.000000, -0.000000,  0.000000 )     0.94110805
  WF centre and spread    3  (  0.000000,  0.000000,  0.000000 )     0.94112380
  Sum of centres and spreads (  0.000000,  0.000000, -0.000000 )     2.82333478
 
     22    -0.751E-07     0.0001442796        2.8233347767       0.13  <-- CONV
        O_D=      0.0000000 O_OD=      0.0023109 O_TOT=      2.8233348 <-- SPRD
 Delta: O_D= -0.3136507E-07 O_OD= -0.4373662E-07 O_TOT= -0.7510169E-07 <-- DLTA
 ------------------------------------------------------------------------------
 Cycle:     23
  WF centre and spread    1  (  0.000000,  0.000000, -0.000001 )     0.94110290
  WF centre and spread    2  ( -0.000000, -0.000000,  0.000000 )     0.94110804
  WF centre and spread    3  (  0.000000,  0.000000,  0.000000 )     0.94112380
  Sum of centres and spreads (  0.000000,  0.000000, -0.000000 )     2.82333474
 
     23    -0.335E-07     0.0000993166        2.8233347432       0.14  <-- CONV
        O_D=      0.0000000 O_OD=      0.0023109 O_TOT=      2.8233347 <-- SPRD
 Delta: O_D= -0.1388738E-07 O_OD= -0.1961585E-07 O_TOT= -0.3350324E-07 <-- DLTA
 ------------------------------------------------------------------------------
 Cycle:     24
  WF centre and spread    1  (  0.000000,  0.000000, -0.000000 )     0.94110289
  WF centre and spread    2  ( -0.000000, -0.000000,  0.000000 )     0.94110802
  WF centre and spread    3  (  0.000000,  0.000000,  0.000000 )     0.94112381
  Sum of centres and spreads (  0.000000,  0.000000, -0.000000 )     2.82333472
 
     24    -0.220E-07     0.0000780668        2.8233347212       0.14  <-- CONV
        O_D=      0.0000000 O_OD=      0.0023109 O_TOT=      2.8233347 <-- SPRD
 Delta: O_D= -0.9126996E-08 O_OD= -0.1287129E-07 O_TOT= -0.2199829E-07 <-- DLTA
 ------------------------------------------------------------------------------
 Cycle:     25
  WF centre and spread    1  (  0.000000,  0.000000, -0.000000 )     0.94110288
  WF centre and spread    2  (  0.000000, -0.000000,  0.000000 )     0.94110801
  WF centre and spread    3  (  0.000000,  0.000000,  0.000000 )     0.94112381
  Sum of centres and spreads (  0.000000,  0.000000, -0.000000 )     2.82333470
 
     25    -0.222E-07     0.0000663476        2.8233346990       0.14  <-- CONV
        O_D=      0.0000000 O_OD=      0.0023109 O_TOT=      2.8233347 <-- SPRD
 Delta: O_D= -0.8286174E-08 O_OD= -0.1390622E-07 O_TOT= -0.2219240E-07 <-- DLTA
 ------------------------------------------------------------------------------
 Cycle:     26
  WF centre and spread    1  (  0.000000,  0.000000, -0.000000 )     0.94110288
  WF centre and spread    2  (  0.000000, -0.000000,  0.000000 )     0.94110800
  WF centre and spread    3  (  0.000000,  0.000000,  0.000000 )     0.94112381
  Sum of centres and spreads (  0.000000,  0.000000, -0.000000 )     2.82333469
 
     26    -0.125E-07     0.0000782025        2.8233346865       0.15  <-- CONV
        O_D=      0.0000000 O_OD=      0.0023109 O_TOT=      2.8233347 <-- SPRD
 Delta: O_D= -0.4416633E-08 O_OD= -0.8054516E-08 O_TOT= -0.1247115E-07 <-- DLTA
 ------------------------------------------------------------------------------
 Cycle:     27
  WF centre and spread    1  (  0.000000,  0.000000, -0.000000 )     0.94110287
  WF centre and spread    2  (  0.000000, -0.000000,  0.000000 )     0.94110800
  WF centre and spread    3  (  0.000000,  0.000000,  0.000000 )     0.94112380
  Sum of centres and spreads (  0.000000,  0.000000, -0.000000 )     2.82333468
 
     27    -0.550E-08     0.0000394431        2.8233346810       0.15  <-- CONV
        O_D=      0.0000000 O_OD=      0.0023109 O_TOT=      2.8233347 <-- SPRD
 Delta: O_D= -0.1970540E-08 O_OD= -0.3524931E-08 O_TOT= -0.5495471E-08 <-- DLTA
 ------------------------------------------------------------------------------
 Cycle:     28
  WF centre and spread    1  ( -0.000000,  0.000000, -0.000000 )     0.94110287
  WF centre and spread    2  (  0.000000, -0.000000,  0.000000 )     0.94110800
  WF centre and spread    3  (  0.000000,  0.000000,  0.000000 )     0.94112380
  Sum of centres and spreads (  0.000000,  0.000000, -0.000000 )     2.82333468
 
     28    -0.446E-08     0.0000275817        2.8233346766       0.16  <-- CONV
        O_D=      0.0000000 O_OD=      0.0023109 O_TOT=      2.8233347 <-- SPRD
 Delta: O_D= -0.1497105E-08 O_OD= -0.2963004E-08 O_TOT= -0.4460108E-08 <-- DLTA
 ------------------------------------------------------------------------------
 Cycle:     29
  WF centre and spread    1  ( -0.000000,  0.000000, -0.000000 )     0.94110287
  WF centre and spread    2  (  0.000000, -0.000000,  0.000000 )     0.94110800
  WF centre and spread    3  (  0.000000,  0.000000,  0.000000 )     0.94112380
  Sum of centres and spreads (  0.000000,  0.000000, -0.000000 )     2.82333468
 
     29    -0.280E-11     0.0000237867        2.8233346766       0.16  <-- CONV
        O_D=      0.0000000 O_OD=      0.0023109 O_TOT=      2.8233347 <-- SPRD
 Delta: O_D= -0.8760213E-12 O_OD= -0.1921376E-11 O_TOT= -0.2797318E-11 <-- DLTA
 ------------------------------------------------------------------------------
 Cycle:     30
  WF centre and spread    1  ( -0.000000,  0.000000, -0.000000 )     0.94110287
  WF centre and spread    2  (  0.000000, -0.000000,  0.000000 )     0.94110800
  WF centre and spread    3  (  0.000000,  0.000000,  0.000000 )     0.94112380
  Sum of centres and spreads (  0.000000,  0.000000, -0.000000 )     2.82333467
 
     30    -0.369E-08     0.0000237791        2.8233346729       0.16  <-- CONV
        O_D=      0.0000000 O_OD=      0.0023109 O_TOT=      2.8233347 <-- SPRD
 Delta: O_D= -0.1027648E-08 O_OD= -0.2658770E-08 O_TOT= -0.3686418E-08 <-- DLTA
 ------------------------------------------------------------------------------
 Cycle:     31
  WF centre and spread    1  ( -0.000000,  0.000000, -0.000000 )     0.94110287
  WF centre and spread    2  (  0.000000, -0.000000,  0.000000 )     0.94110800
  WF centre and spread    3  (  0.000000,  0.000000,  0.000000 )     0.94112381
  Sum of centres and spreads (  0.000000,  0.000000, -0.000000 )     2.82333467
 
     31    -0.149E-08     0.0000306091        2.8233346714       0.17  <-- CONV
        O_D=      0.0000000 O_OD=      0.0023109 O_TOT=      2.8233347 <-- SPRD
 Delta: O_D= -0.8107938E-10 O_OD= -0.1411389E-08 O_TOT= -0.1492468E-08 <-- DLTA
 ------------------------------------------------------------------------------
 Cycle:     32
  WF centre and spread    1  ( -0.000000,  0.000000, -0.000000 )     0.94110287
  WF centre and spread    2  (  0.000000, -0.000000,  0.000000 )     0.94110800
  WF centre and spread    3  (  0.000000,  0.000000,  0.000000 )     0.94112381
  Sum of centres and spreads (  0.000000,  0.000000, -0.000000 )     2.82333467
 
     32    -0.325E-08     0.0000429515        2.8233346681       0.17  <-- CONV
        O_D=      0.0000000 O_OD=      0.0023109 O_TOT=      2.8233347 <-- SPRD
 Delta: O_D= -0.1050744E-08 O_OD= -0.2200742E-08 O_TOT= -0.3251487E-08 <-- DLTA
 ------------------------------------------------------------------------------
 Cycle:     33
  WF centre and spread    1  ( -0.000000,  0.000000, -0.000000 )     0.94110287
  WF centre and spread    2  (  0.000000, -0.000000,  0.000000 )     0.94110800
  WF centre and spread    3  (  0.000000,  0.000000,  0.000000 )     0.94112381
  Sum of centres and spreads (  0.000000,  0.000000, -0.000000 )     2.82333467
 
     33    -0.856E-12     0.0000156863        2.8233346681       0.17  <-- CONV
        O_D=      0.0000000 O_OD=      0.0023109 O_TOT=      2.8233347 <-- SPRD
 Delta: O_D= -0.2105135E-12 O_OD= -0.6453748E-12 O_TOT= -0.8557599E-12 <-- DLTA
 ------------------------------------------------------------------------------
 Cycle:     34
  WF centre and spread    1  ( -0.000000,  0.000000, -0.000000 )     0.94110287
  WF centre and spread    2  (  0.000000, -0.000000,  0.000000 )     0.94110800
  WF centre and spread    3  (  0.000000,  0.000000,  0.000000 )     0.94112381
  Sum of centres and spreads (  0.000000,  0.000000, -0.000000 )     2.82333467
 
     34    -0.172E-11     0.0000156819        2.8233346681       0.17  <-- CONV
        O_D=      0.0000000 O_OD=      0.0023109 O_TOT=      2.8233347 <-- SPRD
 Delta: O_D= -0.4353061E-12 O_OD= -0.1280486E-11 O_TOT= -0.1715961E-11 <-- DLTA
 ------------------------------------------------------------------------------
 Cycle:     35
  WF centre and spread    1  ( -0.000000,  0.000000, -0.000000 )     0.94110287
  WF centre and spread    2  (  0.000000, -0.000000,  0.000000 )     0.94110799
  WF centre and spread    3  (  0.000000,  0.000000,  0.000000 )     0.94112381
  Sum of centres and spreads (  0.000000,  0.000000, -0.000000 )     2.82333467
 
     35    -0.124E-08     0.0000156708        2.8233346669       0.18  <-- CONV
        O_D=      0.0000000 O_OD=      0.0023109 O_TOT=      2.8233347 <-- SPRD
 Delta: O_D= -0.1668618E-09 O_OD= -0.1074527E-08 O_TOT= -0.1241388E-08 <-- DLTA
 ------------------------------------------------------------------------------
 Cycle:     36
  WF centre and spread    1  ( -0.000000,  0.000000, -0.000000 )     0.94110287
  WF centre and spread    2  (  0.000000, -0.000000,  0.000000 )     0.94110799
  WF centre and spread    3  (  0.000000,  0.000000,  0.000000 )     0.94112381
  Sum of centres and spreads (  0.000000,  0.000000, -0.000000 )     2.82333467
 
     36    -0.373E-09     0.0000199290        2.8233346665       0.18  <-- CONV
        O_D=      0.0000000 O_OD=      0.0023109 O_TOT=      2.8233347 <-- SPRD
 Delta: O_D=  0.9890091E-10 O_OD= -0.4722900E-09 O_TOT= -0.3733889E-09 <-- DLTA
 ------------------------------------------------------------------------------
 Cycle:     37
  WF centre and spread    1  ( -0.000000,  0.000000, -0.000000 )     0.94110286
  WF centre and spread    2  (  0.000000, -0.000000, -0.000000 )     0.94110799
  WF centre and spread    3  (  0.000000,  0.000000,  0.000000 )     0.94112381
  Sum of centres and spreads (  0.000000,  0.000000, -0.000000 )     2.82333467
 
     37    -0.750E-09     0.0000281910        2.8233346658       0.18  <-- CONV
        O_D=      0.0000000 O_OD=      0.0023109 O_TOT=      2.8233347 <-- SPRD
 Delta: O_D=  0.2227216E-09 O_OD= -0.9727332E-09 O_TOT= -0.7500116E-09 <-- DLTA
 ------------------------------------------------------------------------------
 Cycle:     38
  WF centre and spread    1  ( -0.000000,  0.000000, -0.000000 )     0.94110286
  WF centre and spread    2  (  0.000000, -0.000000, -0.000000 )     0.94110799
  WF centre and spread    3  (  0.000000,  0.000000,  0.000000 )     0.94112381
  Sum of centres and spreads (  0.000000,  0.000000, -0.000000 )     2.82333466
 
     38    -0.237E-08     0.0000362264        2.8233346634       0.19  <-- CONV
        O_D=      0.0000000 O_OD=      0.0023109 O_TOT=      2.8233347 <-- SPRD
 Delta: O_D= -0.7515181E-09 O_OD= -0.1618148E-08 O_TOT= -0.2369666E-08 <-- DLTA
 ------------------------------------------------------------------------------
 Cycle:     39
  WF centre and spread    1  ( -0.000000,  0.000000, -0.000000 )     0.94110286
  WF centre and spread    2  (  0.000000, -0.000000, -0.000000 )     0.94110799
  WF centre and spread    3  (  0.000000,  0.000000,  0.000000 )     0.94112381
  Sum of centres and spreads (  0.000000,  0.000000, -0.000000 )     2.82333466
 
     39    -0.951E-12     0.0000165914        2.8233346634       0.19  <-- CONV
        O_D=      0.0000000 O_OD=      0.0023109 O_TOT=      2.8233347 <-- SPRD
 Delta: O_D= -0.2465645E-12 O_OD= -0.7041338E-12 O_TOT= -0.9507950E-12 <-- DLTA
 ------------------------------------------------------------------------------
 Cycle:     40
  WF centre and spread    1  ( -0.000000,  0.000000, -0.000000 )     0.94110286
  WF centre and spread    2  (  0.000000, -0.000000, -0.000000 )     0.94110799
  WF centre and spread    3  (  0.000000,  0.000000,  0.000000 )     0.94112381
  Sum of centres and spreads (  0.000000,  0.000000, -0.000000 )     2.82333466
 
     40    -0.902E-09     0.0000165838        2.8233346625       0.19  <-- CONV
        O_D=      0.0000000 O_OD=      0.0023109 O_TOT=      2.8233347 <-- SPRD
 Delta: O_D= -0.1553143E-09 O_OD= -0.7468995E-09 O_TOT= -0.9022139E-09 <-- DLTA
 ------------------------------------------------------------------------------
 Cycle:     41
  WF centre and spread    1  ( -0.000000,  0.000000, -0.000000 )     0.94110286
  WF centre and spread    2  (  0.000000, -0.000000, -0.000000 )     0.94110799
  WF centre and spread    3  (  0.000000,  0.000000,  0.000000 )     0.94112381
  Sum of centres and spreads (  0.000000,  0.000000, -0.000000 )     2.82333466
 
     41    -0.679E-12     0.0000119961        2.8233346625       0.20  <-- CONV
        O_D=      0.0000000 O_OD=      0.0023109 O_TOT=      2.8233347 <-- SPRD
 Delta: O_D= -0.4650716E-13 O_OD= -0.6323019E-12 O_TOT= -0.6785683E-12 <-- DLTA
 ------------------------------------------------------------------------------
 Cycle:     42
  WF centre and spread    1  ( -0.000000,  0.000000, -0.000000 )     0.94110286
  WF centre and spread    2  (  0.000000, -0.000000, -0.000000 )     0.94110799
  WF centre and spread    3  (  0.000000,  0.000000,  0.000000 )     0.94112381
  Sum of centres and spreads (  0.000000,  0.000000, -0.000000 )     2.82333466
 
     42    -0.118E-11     0.0000119967        2.8233346625       0.20  <-- CONV
        O_D=      0.0000000 O_OD=      0.0023109 O_TOT=      2.8233347 <-- SPRD
 Delta: O_D= -0.1679302E-12 O_OD= -0.1014516E-11 O_TOT= -0.1182165E-11 <-- DLTA
 ------------------------------------------------------------------------------
 Cycle:     43
  WF centre and spread    1  ( -0.000000,  0.000000, -0.000000 )     0.94110286
  WF centre and spread    2  (  0.000000, -0.000000, -0.000000 )     0.94110799
  WF centre and spread    3  (  0.000000,  0.000000,  0.000000 )     0.94112381
  Sum of centres and spreads (  0.000000,  0.000000, -0.000000 )     2.82333466
 
     43    -0.168E-11     0.0000119914        2.8233346625       0.20  <-- CONV
        O_D=      0.0000000 O_OD=      0.0023109 O_TOT=      2.8233347 <-- SPRD
 Delta: O_D= -0.2886704E-12 O_OD= -0.1395415E-11 O_TOT= -0.1684430E-11 <-- DLTA
 ------------------------------------------------------------------------------
 Cycle:     44
  WF centre and spread    1  ( -0.000000,  0.000000, -0.000000 )     0.94110286
  WF centre and spread    2  (  0.000000, -0.000000, -0.000000 )     0.94110799
  WF centre and spread    3  (  0.000000,  0.000000,  0.000000 )     0.94112381
  Sum of centres and spreads (  0.000000,  0.000000, -0.000000 )     2.82333466
 
     44    -0.502E-12     0.0000119802        2.8233346625       0.20  <-- CONV
        O_D=      0.0000000 O_OD=      0.0023109 O_TOT=      2.8233347 <-- SPRD
 Delta: O_D= -0.1206922E-12 O_OD= -0.3817185E-12 O_TOT= -0.5022649E-12 <-- DLTA
 ------------------------------------------------------------------------------
 Cycle:     45
  WF centre and spread    1  ( -0.000000,  0.000000, -0.000000 )     0.94110286
  WF centre and spread    2  (  0.000000, -0.000000, -0.000000 )     0.94110799
  WF centre and spread    3  (  0.000000,  0.000000,  0.000000 )     0.94112381
  Sum of centres and spreads (  0.000000,  0.000000, -0.000000 )     2.82333466
 
     45    -0.486E-09     0.0000119744        2.8233346620       0.20  <-- CONV
        O_D=      0.0000000 O_OD=      0.0023109 O_TOT=      2.8233347 <-- SPRD
 Delta: O_D= -0.2166873E-10 O_OD= -0.4642997E-09 O_TOT= -0.4859686E-09 <-- DLTA
 ------------------------------------------------------------------------------
 Cycle:     46
  WF centre and spread    1  ( -0.000000,  0.000000, -0.000000 )     0.94110286
  WF centre and spread    2  (  0.000000, -0.000000, -0.000000 )     0.94110799
  WF centre and spread    3  (  0.000000,  0.000000,  0.000000 )     0.94112381
  Sum of centres and spreads (  0.000000,  0.000000, -0.000000 )     2.82333466
 
     46    -0.781E-12     0.0000123022        2.8233346620       0.21  <-- CONV
        O_D=      0.0000000 O_OD=      0.0023109 O_TOT=      2.8233347 <-- SPRD
 Delta: O_D=  0.4251445E-13 O_OD= -0.8235435E-12 O_TOT= -0.7807088E-12 <-- DLTA
 ------------------------------------------------------------------------------
 Cycle:     47
  WF centre and spread    1  ( -0.000000,  0.000000, -0.000000 )     0.94110286
  WF centre and spread    2  (  0.000000, -0.000000, -0.000000 )     0.94110799
  WF centre and spread    3  (  0.000000,  0.000000,  0.000000 )     0.94112381
  Sum of centres and spreads (  0.000000,  0.000000, -0.000000 )     2.82333466
 
     47    -0.131E-11     0.0000123078        2.8233346620       0.21  <-- CONV
        O_D=      0.0000000 O_OD=      0.0023109 O_TOT=      2.8233347 <-- SPRD
 Delta: O_D= -0.1111009E-12 O_OD= -0.1200811E-11 O_TOT= -0.1311840E-11 <-- DLTA
 ------------------------------------------------------------------------------
 Cycle:     48
  WF centre and spread    1  ( -0.000000,  0.000000, -0.000000 )     0.94110286
  WF centre and spread    2  (  0.000000, -0.000000, -0.000000 )     0.94110799
  WF centre and spread    3  (  0.000000,  0.000000,  0.000000 )     0.94112381
  Sum of centres and spreads (  0.000000,  0.000000, -0.000000 )     2.82333466
 
     48    -0.184E-11     0.0000123062        2.8233346620       0.21  <-- CONV
        O_D=      0.0000000 O_OD=      0.0023109 O_TOT=      2.8233347 <-- SPRD
 Delta: O_D= -0.2644977E-12 O_OD= -0.1576964E-11 O_TOT= -0.1841638E-11 <-- DLTA
 ------------------------------------------------------------------------------
 Cycle:     49
  WF centre and spread    1  ( -0.000000,  0.000000, -0.000000 )     0.94110286
  WF centre and spread    2  (  0.000000, -0.000000, -0.000000 )     0.94110799
  WF centre and spread    3  (  0.000000,  0.000000,  0.000000 )     0.94112381
  Sum of centres and spreads (  0.000000,  0.000000, -0.000000 )     2.82333466
 
     49    -0.237E-11     0.0000122973        2.8233346620       0.21  <-- CONV
        O_D=      0.0000000 O_OD=      0.0023109 O_TOT=      2.8233347 <-- SPRD
 Delta: O_D= -0.4165379E-12 O_OD= -0.1950621E-11 O_TOT= -0.2367440E-11 <-- DLTA
 ------------------------------------------------------------------------------
 Cycle:     50
  WF centre and spread    1  ( -0.000000,  0.000000, -0.000000 )     0.94110286
  WF centre and spread    2  (  0.000000, -0.000000, -0.000000 )     0.94110799
  WF centre and spread    3  (  0.000000,  0.000000,  0.000000 )     0.94112381
  Sum of centres and spreads (  0.000000,  0.000000, -0.000000 )     2.82333466
 
     50    -0.528E-12     0.0000122812        2.8233346620       0.21  <-- CONV
        O_D=      0.0000000 O_OD=      0.0023109 O_TOT=      2.8233347 <-- SPRD
 Delta: O_D= -0.1521505E-12 O_OD= -0.3757845E-12 O_TOT= -0.5280221E-12 <-- DLTA
 ------------------------------------------------------------------------------
 Cycle:     51
  WF centre and spread    1  ( -0.000000,  0.000000, -0.000000 )     0.94110286
  WF centre and spread    2  (  0.000000, -0.000000, -0.000000 )     0.94110799
  WF centre and spread    3  (  0.000000,  0.000000,  0.000000 )     0.94112381
  Sum of centres and spreads (  0.000000,  0.000000, -0.000000 )     2.82333466
 
     51    -0.424E-09     0.0000122740        2.8233346616       0.22  <-- CONV
        O_D=      0.0000000 O_OD=      0.0023109 O_TOT=      2.8233347 <-- SPRD
 Delta: O_D= -0.3552680E-10 O_OD= -0.3880535E-09 O_TOT= -0.4235803E-09 <-- DLTA
 ------------------------------------------------------------------------------
 Cycle:     52
  WF centre and spread    1  ( -0.000000,  0.000000, -0.000000 )     0.94110286
  WF centre and spread    2  (  0.000000, -0.000000, -0.000000 )     0.94110799
  WF centre and spread    3  (  0.000000,  0.000000,  0.000000 )     0.94112381
  Sum of centres and spreads (  0.000000,  0.000000, -0.000000 )     2.82333466
 
     52    -0.659E-12     0.0000112723        2.8233346616       0.22  <-- CONV
        O_D=      0.0000000 O_OD=      0.0023109 O_TOT=      2.8233347 <-- SPRD
 Delta: O_D=  0.5205786E-13 O_OD= -0.7112700E-12 O_TOT= -0.6590284E-12 <-- DLTA
 ------------------------------------------------------------------------------
 Cycle:     53
  WF centre and spread    1  ( -0.000000,  0.000000, -0.000000 )     0.94110286
  WF centre and spread    2  (  0.000000, -0.000000, -0.000000 )     0.94110799
  WF centre and spread    3  (  0.000000,  0.000000,  0.000000 )     0.94112381
  Sum of centres and spreads (  0.000000,  0.000000, -0.000000 )     2.82333466
 
     53    -0.110E-11     0.0000112777        2.8233346616       0.22  <-- CONV
        O_D=      0.0000000 O_OD=      0.0023109 O_TOT=      2.8233347 <-- SPRD
 Delta: O_D= -0.5968811E-13 O_OD= -0.1045322E-11 O_TOT= -0.1104894E-11 <-- DLTA
 ------------------------------------------------------------------------------
 Cycle:     54
  WF centre and spread    1  ( -0.000000,  0.000000, -0.000000 )     0.94110286
  WF centre and spread    2  (  0.000000, -0.000000, -0.000000 )     0.94110799
  WF centre and spread    3  (  0.000000,  0.000000,  0.000000 )     0.94112381
  Sum of centres and spreads (  0.000000,  0.000000, -0.000000 )     2.82333466
 
     54    -0.155E-11     0.0000112779        2.8233346616       0.22  <-- CONV
        O_D=      0.0000000 O_OD=      0.0023109 O_TOT=      2.8233347 <-- SPRD
 Delta: O_D= -0.1714633E-12 O_OD= -0.1378783E-11 O_TOT= -0.1550315E-11 <-- DLTA
 ------------------------------------------------------------------------------
 Cycle:     55
  WF centre and spread    1  ( -0.000000,  0.000000, -0.000000 )     0.94110286
  WF centre and spread    2  (  0.000000, -0.000000, -0.000000 )     0.94110799
  WF centre and spread    3  (  0.000000, -0.000000,  0.000000 )     0.94112381
  Sum of centres and spreads (  0.000000,  0.000000, -0.000000 )     2.82333466
 
     55    -0.211E-08     0.0000112729        2.8233346595       0.23  <-- CONV
        O_D=      0.0000000 O_OD=      0.0023109 O_TOT=      2.8233347 <-- SPRD
 Delta: O_D=  0.2778794E-09 O_OD= -0.2388968E-08 O_TOT= -0.2111088E-08 <-- DLTA
 ------------------------------------------------------------------------------
 Cycle:     56
  WF centre and spread    1  ( -0.000000,  0.000000, -0.000000 )     0.94110286
  WF centre and spread    2  (  0.000000, -0.000000, -0.000000 )     0.94110799
  WF centre and spread    3  (  0.000000, -0.000000,  0.000000 )     0.94112381
  Sum of centres and spreads (  0.000000,  0.000000, -0.000000 )     2.82333466
 
     56    -0.738E-09     0.0000228456        2.8233346587       0.23  <-- CONV
        O_D=      0.0000000 O_OD=      0.0023109 O_TOT=      2.8233347 <-- SPRD
 Delta: O_D= -0.4251213E-09 O_OD= -0.3133121E-09 O_TOT= -0.7384333E-09 <-- DLTA
 ------------------------------------------------------------------------------
 Cycle:     57
  WF centre and spread    1  ( -0.000000,  0.000000, -0.000000 )     0.94110286
  WF centre and spread    2  (  0.000000, -0.000000, -0.000000 )     0.94110799
  WF centre and spread    3  (  0.000000, -0.000000,  0.000000 )     0.94112381
  Sum of centres and spreads (  0.000000,  0.000000, -0.000000 )     2.82333466
 
     57    -0.329E-12     0.0000089813        2.8233346587       0.23  <-- CONV
        O_D=      0.0000000 O_OD=      0.0023109 O_TOT=      2.8233347 <-- SPRD
 Delta: O_D= -0.8384549E-14 O_OD= -0.3205175E-12 O_TOT= -0.3290701E-12 <-- DLTA
 ------------------------------------------------------------------------------
 Cycle:     58
  WF centre and spread    1  ( -0.000000,  0.000000, -0.000000 )     0.94110286
  WF centre and spread    2  (  0.000000, -0.000000, -0.000000 )     0.94110799
  WF centre and spread    3  (  0.000000, -0.000000,  0.000000 )     0.94112381
  Sum of centres and spreads (  0.000000,  0.000000, -0.000000 )     2.82333466
 
     58    -0.611E-12     0.0000089811        2.8233346587       0.23  <-- CONV
        O_D=      0.0000000 O_OD=      0.0023109 O_TOT=      2.8233347 <-- SPRD
 Delta: O_D= -0.1590633E-13 O_OD= -0.5953120E-12 O_TOT= -0.6110668E-12 <-- DLTA
 ------------------------------------------------------------------------------
 Cycle:     59
  WF centre and spread    1  ( -0.000000,  0.000000, -0.000000 )     0.94110286
  WF centre and spread    2  (  0.000000, -0.000000, -0.000000 )     0.94110799
  WF centre and spread    3  (  0.000000, -0.000000,  0.000000 )     0.94112381
  Sum of centres and spreads (  0.000000,  0.000000, -0.000000 )     2.82333466
 
     59    -0.894E-12     0.0000089807        2.8233346587       0.23  <-- CONV
        O_D=      0.0000000 O_OD=      0.0023109 O_TOT=      2.8233347 <-- SPRD
 Delta: O_D= -0.2341668E-13 O_OD= -0.8700367E-12 O_TOT= -0.8935075E-12 <-- DLTA
 ------------------------------------------------------------------------------
 Cycle:     60
  WF centre and spread    1  ( -0.000000,  0.000000, -0.000000 )     0.94110286
  WF centre and spread    2  (  0.000000, -0.000000, -0.000000 )     0.94110799
  WF centre and spread    3  (  0.000000, -0.000000,  0.000000 )     0.94112381
  Sum of centres and spreads (  0.000000,  0.000000, -0.000000 )     2.82333466
 
     60    -0.118E-11     0.0000089801        2.8233346587       0.24  <-- CONV
        O_D=      0.0000000 O_OD=      0.0023109 O_TOT=      2.8233347 <-- SPRD
 Delta: O_D= -0.3090903E-13 O_OD= -0.1144661E-11 O_TOT= -0.1175504E-11 <-- DLTA
 ------------------------------------------------------------------------------
 Cycle:     61
  WF centre and spread    1  ( -0.000000,  0.000000, -0.000000 )     0.94110286
  WF centre and spread    2  (  0.000000, -0.000000, -0.000000 )     0.94110799
  WF centre and spread    3  (  0.000000, -0.000000,  0.000000 )     0.94112381
  Sum of centres and spreads (  0.000000,  0.000000, -0.000000 )     2.82333466
 
     61    -0.146E-11     0.0000089795        2.8233346587       0.24  <-- CONV
        O_D=      0.0000000 O_OD=      0.0023109 O_TOT=      2.8233347 <-- SPRD
 Delta: O_D= -0.3837690E-13 O_OD= -0.1419155E-11 O_TOT= -0.1457945E-11 <-- DLTA
 ------------------------------------------------------------------------------
 Cycle:     62
  WF centre and spread    1  ( -0.000000,  0.000000, -0.000000 )     0.94110286
  WF centre and spread    2  (  0.000000, -0.000000, -0.000000 )     0.94110799
  WF centre and spread    3  (  0.000000, -0.000000,  0.000000 )     0.94112381
  Sum of centres and spreads (  0.000000,  0.000000, -0.000000 )     2.82333466
 
     62    -0.282E-12     0.0000089787        2.8233346587       0.24  <-- CONV
        O_D=      0.0000000 O_OD=      0.0023109 O_TOT=      2.8233347 <-- SPRD
 Delta: O_D= -0.7526533E-14 O_OD= -0.2747329E-12 O_TOT= -0.2819966E-12 <-- DLTA
 ------------------------------------------------------------------------------
 Cycle:     63
  WF centre and spread    1  ( -0.000000,  0.000000, -0.000000 )     0.94110286
  WF centre and spread    2  (  0.000000, -0.000000, -0.000000 )     0.94110799
  WF centre and spread    3  (  0.000000, -0.000000,  0.000000 )     0.94112381
  Sum of centres and spreads (  0.000000,  0.000000, -0.000000 )     2.82333466
 
     63    -0.564E-12     0.0000089785        2.8233346587       0.24  <-- CONV
        O_D=      0.0000000 O_OD=      0.0023109 O_TOT=      2.8233347 <-- SPRD
 Delta: O_D= -0.1504659E-13 O_OD= -0.5494537E-12 O_TOT= -0.5644374E-12 <-- DLTA
 ------------------------------------------------------------------------------
 Cycle:     64
  WF centre and spread    1  ( -0.000000,  0.000000, -0.000000 )     0.94110286
  WF centre and spread    2  (  0.000000, -0.000000, -0.000000 )     0.94110799
  WF centre and spread    3  (  0.000000, -0.000000,  0.000000 )     0.94112381
  Sum of centres and spreads (  0.000000,  0.000000, -0.000000 )     2.82333466
 
     64    -0.846E-12     0.0000089783        2.8233346587       0.24  <-- CONV
        O_D=      0.0000000 O_OD=      0.0023109 O_TOT=      2.8233347 <-- SPRD
 Delta: O_D= -0.2255350E-13 O_OD= -0.8241251E-12 O_TOT= -0.8464340E-12 <-- DLTA
 ------------------------------------------------------------------------------
 Cycle:     65
  WF centre and spread    1  ( -0.000000,  0.000000, -0.000000 )     0.94110286
  WF centre and spread    2  (  0.000000, -0.000000, -0.000000 )     0.94110799
  WF centre and spread    3  (  0.000000, -0.000000,  0.000000 )     0.94112381
  Sum of centres and spreads (  0.000000,  0.000000, -0.000000 )     2.82333466
 
     65    -0.113E-11     0.0000089779        2.8233346587       0.24  <-- CONV
        O_D=      0.0000000 O_OD=      0.0023109 O_TOT=      2.8233347 <-- SPRD
 Delta: O_D= -0.3004065E-13 O_OD= -0.1098724E-11 O_TOT= -0.1128875E-11 <-- DLTA
 ------------------------------------------------------------------------------
 Cycle:     66
  WF centre and spread    1  ( -0.000000,  0.000000, -0.000000 )     0.94110286
  WF centre and spread    2  (  0.000000, -0.000000, -0.000000 )     0.94110799
  WF centre and spread    3  (  0.000000, -0.000000,  0.000000 )     0.94112381
  Sum of centres and spreads (  0.000000,  0.000000, -0.000000 )     2.82333466
 
     66    -0.141E-11     0.0000089773        2.8233346587       0.25  <-- CONV
        O_D=      0.0000000 O_OD=      0.0023109 O_TOT=      2.8233347 <-- SPRD
 Delta: O_D= -0.3750152E-13 O_OD= -0.1373229E-11 O_TOT= -0.1410871E-11 <-- DLTA
 ------------------------------------------------------------------------------
 Cycle:     67
  WF centre and spread    1  ( -0.000000,  0.000000, -0.000000 )     0.94110286
  WF centre and spread    2  (  0.000000, -0.000000, -0.000000 )     0.94110799
  WF centre and spread    3  (  0.000000, -0.000000,  0.000000 )     0.94112381
  Sum of centres and spreads (  0.000000,  0.000000, -0.000000 )     2.82333466
 
     67    -0.169E-11     0.0000089767        2.8233346587       0.25  <-- CONV
        O_D=      0.0000000 O_OD=      0.0023109 O_TOT=      2.8233347 <-- SPRD
 Delta: O_D= -0.4492972E-13 O_OD= -0.1647605E-11 O_TOT= -0.1692868E-11 <-- DLTA
 ------------------------------------------------------------------------------
 Cycle:     68
  WF centre and spread    1  ( -0.000000,  0.000000, -0.000000 )     0.94110286
  WF centre and spread    2  (  0.000000, -0.000000, -0.000000 )     0.94110799
  WF centre and spread    3  (  0.000000, -0.000000,  0.000000 )     0.94112381
  Sum of centres and spreads (  0.000000,  0.000000, -0.000000 )     2.82333466
 
     68    -0.282E-12     0.0000089759        2.8233346587       0.25  <-- CONV
        O_D=      0.0000000 O_OD=      0.0023109 O_TOT=      2.8233347 <-- SPRD
 Delta: O_D= -0.7461796E-14 O_OD= -0.2746293E-12 O_TOT= -0.2815526E-12 <-- DLTA
 ------------------------------------------------------------------------------
 Cycle:     69
  WF centre and spread    1  ( -0.000000,  0.000000, -0.000000 )     0.94110286
  WF centre and spread    2  (  0.000000, -0.000000, -0.000000 )     0.94110799
  WF centre and spread    3  (  0.000000, -0.000000,  0.000000 )     0.94112381
  Sum of centres and spreads (  0.000000,  0.000000, -0.000000 )     2.82333466
 
     69    -0.564E-12     0.0000089758        2.8233346587       0.25  <-- CONV
        O_D=      0.0000000 O_OD=      0.0023109 O_TOT=      2.8233347 <-- SPRD
 Delta: O_D= -0.1491739E-13 O_OD= -0.5492343E-12 O_TOT= -0.5644374E-12 <-- DLTA
 ------------------------------------------------------------------------------
 Cycle:     70
  WF centre and spread    1  ( -0.000000,  0.000000, -0.000000 )     0.94110286
  WF centre and spread    2  (  0.000000, -0.000000, -0.000000 )     0.94110799
  WF centre and spread    3  (  0.000000, -0.000000,  0.000000 )     0.94112381
  Sum of centres and spreads (  0.000000,  0.000000, -0.000000 )     2.82333466
 
     70    -0.846E-12     0.0000089755        2.8233346587       0.25  <-- CONV
        O_D=      0.0000000 O_OD=      0.0023109 O_TOT=      2.8233347 <-- SPRD
 Delta: O_D= -0.2236040E-13 O_OD= -0.8238037E-12 O_TOT= -0.8459899E-12 <-- DLTA
 ------------------------------------------------------------------------------
 Cycle:     71
  WF centre and spread    1  ( -0.000000,  0.000000, -0.000000 )     0.94110286
  WF centre and spread    2  (  0.000000, -0.000000, -0.000000 )     0.94110799
  WF centre and spread    3  (  0.000000, -0.000000,  0.000000 )     0.94112381
  Sum of centres and spreads (  0.000000,  0.000000, -0.000000 )     2.82333466
 
     71    -0.113E-11     0.0000089752        2.8233346587       0.25  <-- CONV
        O_D=      0.0000000 O_OD=      0.0023109 O_TOT=      2.8233347 <-- SPRD
 Delta: O_D= -0.2978451E-13 O_OD= -0.1098302E-11 O_TOT= -0.1127987E-11 <-- DLTA
 ------------------------------------------------------------------------------
 Cycle:     72
  WF centre and spread    1  ( -0.000000,  0.000000, -0.000000 )     0.94110286
  WF centre and spread    2  (  0.000000, -0.000000, -0.000000 )     0.94110799
  WF centre and spread    3  (  0.000000, -0.000000,  0.000000 )     0.94112381
  Sum of centres and spreads (  0.000000,  0.000000, -0.000000 )     2.82333466
 
     72    -0.141E-11     0.0000089746        2.8233346587       0.26  <-- CONV
        O_D=      0.0000000 O_OD=      0.0023109 O_TOT=      2.8233347 <-- SPRD
 Delta: O_D= -0.3718346E-13 O_OD= -0.1372702E-11 O_TOT= -0.1409983E-11 <-- DLTA
 ------------------------------------------------------------------------------
 Cycle:     73
  WF centre and spread    1  ( -0.000000,  0.000000, -0.000000 )     0.94110286
  WF centre and spread    2  (  0.000000, -0.000000, -0.000000 )     0.94110799
  WF centre and spread    3  (  0.000000, -0.000000,  0.000000 )     0.94112381
  Sum of centres and spreads (  0.000000,  0.000000, -0.000000 )     2.82333466
 
     73    -0.169E-11     0.0000089740        2.8233346587       0.26  <-- CONV
        O_D=      0.0000000 O_OD=      0.0023109 O_TOT=      2.8233347 <-- SPRD
 Delta: O_D= -0.4455112E-13 O_OD= -0.1646992E-11 O_TOT= -0.1691536E-11 <-- DLTA
 ------------------------------------------------------------------------------
 Cycle:     74
  WF centre and spread    1  ( -0.000000,  0.000000, -0.000000 )     0.94110286
  WF centre and spread    2  (  0.000000, -0.000000, -0.000000 )     0.94110799
  WF centre and spread    3  (  0.000000, -0.000000,  0.000000 )     0.94112381
  Sum of centres and spreads (  0.000000,  0.000000, -0.000000 )     2.82333466
 
     74    -0.282E-12     0.0000089733        2.8233346587       0.26  <-- CONV
        O_D=      0.0000000 O_OD=      0.0023109 O_TOT=      2.8233347 <-- SPRD
 Delta: O_D= -0.7399799E-14 O_OD= -0.2745243E-12 O_TOT= -0.2819966E-12 <-- DLTA
 ------------------------------------------------------------------------------
 Cycle:     75
  WF centre and spread    1  ( -0.000000,  0.000000, -0.000000 )     0.94110286
  WF centre and spread    2  (  0.000000, -0.000000, -0.000000 )     0.94110799
  WF centre and spread    3  (  0.000000, -0.000000,  0.000000 )     0.94112381
  Sum of centres and spreads (  0.000000,  0.000000, -0.000000 )     2.82333466
 
     75    -0.564E-12     0.0000089732        2.8233346587       0.26  <-- CONV
        O_D=      0.0000000 O_OD=      0.0023109 O_TOT=      2.8233347 <-- SPRD
 Delta: O_D= -0.1479366E-13 O_OD= -0.5490283E-12 O_TOT= -0.5635492E-12 <-- DLTA
 ------------------------------------------------------------------------------
 Cycle:     76
  WF centre and spread    1  ( -0.000000,  0.000000, -0.000000 )     0.94110286
  WF centre and spread    2  (  0.000000, -0.000000, -0.000000 )     0.94110799
  WF centre and spread    3  (  0.000000, -0.000000,  0.000000 )     0.94112381
  Sum of centres and spreads (  0.000000,  0.000000, -0.000000 )     2.82333466
 
     76    -0.846E-12     0.0000089729        2.8233346587       0.26  <-- CONV
        O_D=      0.0000000 O_OD=      0.0023109 O_TOT=      2.8233347 <-- SPRD
 Delta: O_D= -0.2217547E-13 O_OD= -0.8234962E-12 O_TOT= -0.8459899E-12 <-- DLTA
 ------------------------------------------------------------------------------
 Cycle:     77
  WF centre and spread    1  ( -0.000000,  0.000000, -0.000000 )     0.94110286
  WF centre and spread    2  (  0.000000, -0.000000, -0.000000 )     0.94110799
  WF centre and spread    3  (  0.000000, -0.000000,  0.000000 )     0.94112381
  Sum of centres and spreads (  0.000000,  0.000000, -0.000000 )     2.82333466
 
     77    -0.113E-11     0.0000089725        2.8233346587       0.26  <-- CONV
        O_D=      0.0000000 O_OD=      0.0023109 O_TOT=      2.8233347 <-- SPRD
 Delta: O_D= -0.2953918E-13 O_OD= -0.1097892E-11 O_TOT= -0.1127543E-11 <-- DLTA
 ------------------------------------------------------------------------------
 Cycle:     78
  WF centre and spread    1  ( -0.000000,  0.000000, -0.000000 )     0.94110286
  WF centre and spread    2  (  0.000000, -0.000000, -0.000000 )     0.94110799
  WF centre and spread    3  (  0.000000, -0.000000,  0.000000 )     0.94112381
  Sum of centres and spreads (  0.000000,  0.000000, -0.000000 )     2.82333466
 
     78    -0.141E-11     0.0000089721        2.8233346587       0.27  <-- CONV
        O_D=      0.0000000 O_OD=      0.0023109 O_TOT=      2.8233347 <-- SPRD
 Delta: O_D= -0.3687879E-13 O_OD= -0.1372203E-11 O_TOT= -0.1409095E-11 <-- DLTA
 ------------------------------------------------------------------------------
 Cycle:     79
  WF centre and spread    1  ( -0.000000,  0.000000, -0.000000 )     0.94110286
  WF centre and spread    2  (  0.000000, -0.000000, -0.000000 )     0.94110799
  WF centre and spread    3  (  0.000000, -0.000000,  0.000000 )     0.94112381
  Sum of centres and spreads (  0.000000,  0.000000, -0.000000 )     2.82333466
 
     79    -0.169E-11     0.0000089715        2.8233346587       0.27  <-- CONV
        O_D=      0.0000000 O_OD=      0.0023109 O_TOT=      2.8233347 <-- SPRD
 Delta: O_D= -0.4418844E-13 O_OD= -0.1646402E-11 O_TOT= -0.1690204E-11 <-- DLTA
 ------------------------------------------------------------------------------
 Cycle:     80
  WF centre and spread    1  ( -0.000000,  0.000000, -0.000000 )     0.94110286
  WF centre and spread    2  (  0.000000, -0.000000, -0.000000 )     0.94110799
  WF centre and spread    3  (  0.000000, -0.000000,  0.000000 )     0.94112381
  Sum of centres and spreads (  0.000000,  0.000000, -0.000000 )     2.82333466
 
     80    -0.282E-12     0.0000089707        2.8233346587       0.27  <-- CONV
        O_D=      0.0000000 O_OD=      0.0023109 O_TOT=      2.8233347 <-- SPRD
 Delta: O_D= -0.7340399E-14 O_OD= -0.2744233E-12 O_TOT= -0.2819966E-12 <-- DLTA
 ------------------------------------------------------------------------------
 Cycle:     81
  WF centre and spread    1  ( -0.000000,  0.000000, -0.000000 )     0.94110286
  WF centre and spread    2  (  0.000000, -0.000000, -0.000000 )     0.94110799
  WF centre and spread    3  (  0.000000, -0.000000,  0.000000 )     0.94112381
  Sum of centres and spreads (  0.000000,  0.000000, -0.000000 )     2.82333466
 
     81    -0.564E-12     0.0000089706        2.8233346587       0.27  <-- CONV
        O_D=      0.0000000 O_OD=      0.0023109 O_TOT=      2.8233347 <-- SPRD
 Delta: O_D= -0.1467511E-13 O_OD= -0.5488279E-12 O_TOT= -0.5635492E-12 <-- DLTA
 ------------------------------------------------------------------------------
 Cycle:     82
  WF centre and spread    1  ( -0.000000,  0.000000, -0.000000 )     0.94110286
  WF centre and spread    2  (  0.000000, -0.000000, -0.000000 )     0.94110799
  WF centre and spread    3  (  0.000000, -0.000000,  0.000000 )     0.94112381
  Sum of centres and spreads (  0.000000,  0.000000, -0.000000 )     2.82333466
 
     82    -0.846E-12     0.0000089704        2.8233346587       0.27  <-- CONV
        O_D=      0.0000000 O_OD=      0.0023109 O_TOT=      2.8233347 <-- SPRD
 Delta: O_D= -0.2199827E-13 O_OD= -0.8232026E-12 O_TOT= -0.8455459E-12 <-- DLTA
 ------------------------------------------------------------------------------
 Cycle:     83
  WF centre and spread    1  ( -0.000000,  0.000000, -0.000000 )     0.94110286
  WF centre and spread    2  (  0.000000, -0.000000, -0.000000 )     0.94110799
  WF centre and spread    3  (  0.000000, -0.000000,  0.000000 )     0.94112381
  Sum of centres and spreads (  0.000000,  0.000000, -0.000000 )     2.82333466
 
     83    -0.113E-11     0.0000089700        2.8233346587       0.27  <-- CONV
        O_D=      0.0000000 O_OD=      0.0023109 O_TOT=      2.8233347 <-- SPRD
 Delta: O_D= -0.2930409E-13 O_OD= -0.1097502E-11 O_TOT= -0.1126654E-11 <-- DLTA
 ------------------------------------------------------------------------------
 Cycle:     84
  WF centre and spread    1  ( -0.000000,  0.000000, -0.000000 )     0.94110286
  WF centre and spread    2  (  0.000000, -0.000000, -0.000000 )     0.94110799
  WF centre and spread    3  (  0.000000, -0.000000,  0.000000 )     0.94112381
  Sum of centres and spreads (  0.000000,  0.000000, -0.000000 )     2.82333466
 
     84    -0.141E-11     0.0000089696        2.8233346587       0.28  <-- CONV
        O_D=      0.0000000 O_OD=      0.0023109 O_TOT=      2.8233347 <-- SPRD
 Delta: O_D= -0.3658682E-13 O_OD= -0.1371723E-11 O_TOT= -0.1408207E-11 <-- DLTA
 ------------------------------------------------------------------------------
 Cycle:     85
  WF centre and spread    1  ( -0.000000,  0.000000, -0.000000 )     0.94110286
  WF centre and spread    2  (  0.000000, -0.000000, -0.000000 )     0.94110799
  WF centre and spread    3  (  0.000000, -0.000000,  0.000000 )     0.94112381
  Sum of centres and spreads (  0.000000,  0.000000, -0.000000 )     2.82333466
 
     85    -0.169E-11     0.0000089690        2.8233346587       0.28  <-- CONV
        O_D=      0.0000000 O_OD=      0.0023109 O_TOT=      2.8233347 <-- SPRD
 Delta: O_D= -0.4384084E-13 O_OD= -0.1645834E-11 O_TOT= -0.1689759E-11 <-- DLTA
 ------------------------------------------------------------------------------
 Cycle:     86
  WF centre and spread    1  ( -0.000000,  0.000000, -0.000000 )     0.94110286
  WF centre and spread    2  (  0.000000, -0.000000, -0.000000 )     0.94110799
  WF centre and spread    3  (  0.000000, -0.000000,  0.000000 )     0.94112381
  Sum of centres and spreads (  0.000000,  0.000000, -0.000000 )     2.82333466
 
     86    -0.282E-12     0.0000089683        2.8233346587       0.28  <-- CONV
        O_D=      0.0000000 O_OD=      0.0023109 O_TOT=      2.8233347 <-- SPRD
 Delta: O_D= -0.7283457E-14 O_OD= -0.2743322E-12 O_TOT= -0.2815526E-12 <-- DLTA
 ------------------------------------------------------------------------------
 Cycle:     87
  WF centre and spread    1  ( -0.000000,  0.000000, -0.000000 )     0.94110286
  WF centre and spread    2  (  0.000000, -0.000000, -0.000000 )     0.94110799
  WF centre and spread    3  (  0.000000, -0.000000,  0.000000 )     0.94112381
  Sum of centres and spreads (  0.000000,  0.000000, -0.000000 )     2.82333466
 
     87    -0.563E-12     0.0000089682        2.8233346587       0.28  <-- CONV
        O_D=      0.0000000 O_OD=      0.0023109 O_TOT=      2.8233347 <-- SPRD
 Delta: O_D= -0.1456146E-13 O_OD= -0.5486406E-12 O_TOT= -0.5631051E-12 <-- DLTA
 ------------------------------------------------------------------------------
 Cycle:     88
  WF centre and spread    1  ( -0.000000,  0.000000, -0.000000 )     0.94110286
  WF centre and spread    2  (  0.000000, -0.000000, -0.000000 )     0.94110799
  WF centre and spread    3  (  0.000000, -0.000000,  0.000000 )     0.94112381
  Sum of centres and spreads (  0.000000,  0.000000, -0.000000 )     2.82333466
 
     88    -0.845E-12     0.0000089680        2.8233346587       0.28  <-- CONV
        O_D=      0.0000000 O_OD=      0.0023109 O_TOT=      2.8233347 <-- SPRD
 Delta: O_D= -0.2182840E-13 O_OD= -0.8229147E-12 O_TOT= -0.8446577E-12 <-- DLTA
 ------------------------------------------------------------------------------
 Cycle:     89
  WF centre and spread    1  ( -0.000000,  0.000000, -0.000000 )     0.94110286
  WF centre and spread    2  (  0.000000, -0.000000, -0.000000 )     0.94110799
  WF centre and spread    3  (  0.000000, -0.000000,  0.000000 )     0.94112381
  Sum of centres and spreads (  0.000000,  0.000000, -0.000000 )     2.82333466
 
     89    -0.113E-11     0.0000089676        2.8233346587       0.28  <-- CONV
        O_D=      0.0000000 O_OD=      0.0023109 O_TOT=      2.8233347 <-- SPRD
 Delta: O_D= -0.2907870E-13 O_OD= -0.1097134E-11 O_TOT= -0.1126210E-11 <-- DLTA
 ------------------------------------------------------------------------------
 Cycle:     90
  WF centre and spread    1  ( -0.000000,  0.000000, -0.000000 )     0.94110286
  WF centre and spread    2  (  0.000000, -0.000000, -0.000000 )     0.94110799
  WF centre and spread    3  (  0.000000, -0.000000,  0.000000 )     0.94112381
  Sum of centres and spreads (  0.000000,  0.000000, -0.000000 )     2.82333466
 
     90    -0.141E-11     0.0000089672        2.8233346587       0.28  <-- CONV
        O_D=      0.0000000 O_OD=      0.0023109 O_TOT=      2.8233347 <-- SPRD
 Delta: O_D= -0.3630687E-13 O_OD= -0.1371259E-11 O_TOT= -0.1407319E-11 <-- DLTA
 ------------------------------------------------------------------------------
 Cycle:     91
  WF centre and spread    1  ( -0.000000,  0.000000, -0.000000 )     0.94110286
  WF centre and spread    2  (  0.000000, -0.000000, -0.000000 )     0.94110799
  WF centre and spread    3  (  0.000000, -0.000000,  0.000000 )     0.94112381
  Sum of centres and spreads (  0.000000,  0.000000, -0.000000 )     2.82333466
 
     91    -0.169E-11     0.0000089666        2.8233346587       0.29  <-- CONV
        O_D=      0.0000000 O_OD=      0.0023109 O_TOT=      2.8233347 <-- SPRD
 Delta: O_D= -0.4350752E-13 O_OD= -0.1645291E-11 O_TOT= -0.1688871E-11 <-- DLTA
 ------------------------------------------------------------------------------
 Cycle:     92
  WF centre and spread    1  ( -0.000000,  0.000000, -0.000000 )     0.94110286
  WF centre and spread    2  (  0.000000, -0.000000, -0.000000 )     0.94110799
  WF centre and spread    3  (  0.000000, -0.000000,  0.000000 )     0.94112381
  Sum of centres and spreads (  0.000000,  0.000000, -0.000000 )     2.82333466
 
     92    -0.282E-12     0.0000089660        2.8233346587       0.29  <-- CONV
        O_D=      0.0000000 O_OD=      0.0023109 O_TOT=      2.8233347 <-- SPRD
 Delta: O_D= -0.7228844E-14 O_OD= -0.2742359E-12 O_TOT= -0.2819966E-12 <-- DLTA
 ------------------------------------------------------------------------------
 Cycle:     93
  WF centre and spread    1  ( -0.000000,  0.000000, -0.000000 )     0.94110286
  WF centre and spread    2  (  0.000000, -0.000000, -0.000000 )     0.94110799
  WF centre and spread    3  (  0.000000, -0.000000,  0.000000 )     0.94112381
  Sum of centres and spreads (  0.000000,  0.000000, -0.000000 )     2.82333466
 
     93    -0.563E-12     0.0000089659        2.8233346587       0.29  <-- CONV
        O_D=      0.0000000 O_OD=      0.0023109 O_TOT=      2.8233347 <-- SPRD
 Delta: O_D= -0.1445246E-13 O_OD= -0.5484601E-12 O_TOT= -0.5626610E-12 <-- DLTA
 ------------------------------------------------------------------------------
 Cycle:     94
  WF centre and spread    1  ( -0.000000,  0.000000, -0.000000 )     0.94110286
  WF centre and spread    2  (  0.000000, -0.000000, -0.000000 )     0.94110799
  WF centre and spread    3  (  0.000000, -0.000000,  0.000000 )     0.94112381
  Sum of centres and spreads (  0.000000,  0.000000, -0.000000 )     2.82333466
 
     94    -0.844E-12     0.0000089657        2.8233346587       0.29  <-- CONV
        O_D=      0.0000000 O_OD=      0.0023109 O_TOT=      2.8233347 <-- SPRD
 Delta: O_D= -0.2166545E-13 O_OD= -0.8226475E-12 O_TOT= -0.8442136E-12 <-- DLTA
 ------------------------------------------------------------------------------
 Cycle:     95
  WF centre and spread    1  ( -0.000000,  0.000000, -0.000000 )     0.94110286
  WF centre and spread    2  (  0.000000, -0.000000, -0.000000 )     0.94110799
  WF centre and spread    3  (  0.000000, -0.000000,  0.000000 )     0.94112381
  Sum of centres and spreads (  0.000000,  0.000000, -0.000000 )     2.82333466
 
     95    -0.113E-11     0.0000089653        2.8233346587       0.29  <-- CONV
        O_D=      0.0000000 O_OD=      0.0023109 O_TOT=      2.8233347 <-- SPRD
 Delta: O_D= -0.2886250E-13 O_OD= -0.1096772E-11 O_TOT= -0.1125766E-11 <-- DLTA
 ------------------------------------------------------------------------------
 Cycle:     96
  WF centre and spread    1  ( -0.000000,  0.000000, -0.000000 )     0.94110286
  WF centre and spread    2  (  0.000000, -0.000000, -0.000000 )     0.94110799
  WF centre and spread    3  (  0.000000, -0.000000,  0.000000 )     0.94112381
  Sum of centres and spreads (  0.000000,  0.000000, -0.000000 )     2.82333466
 
     96    -0.141E-11     0.0000089649        2.8233346587       0.29  <-- CONV
        O_D=      0.0000000 O_OD=      0.0023109 O_TOT=      2.8233347 <-- SPRD
 Delta: O_D= -0.3603831E-13 O_OD= -0.1370822E-11 O_TOT= -0.1406875E-11 <-- DLTA
 ------------------------------------------------------------------------------
 Cycle:     97
  WF centre and spread    1  ( -0.000000,  0.000000, -0.000000 )     0.94110286
  WF centre and spread    2  (  0.000000, -0.000000, -0.000000 )     0.94110799
  WF centre and spread    3  (  0.000000, -0.000000,  0.000000 )     0.94112381
  Sum of centres and spreads (  0.000000,  0.000000, -0.000000 )     2.82333466
 
     97    -0.169E-11     0.0000089644        2.8233346587       0.30  <-- CONV
[...]
  Sum of centres and spreads (  0.000000,  0.000000, -0.000000 )     2.82333466
 
    473    -0.110E-11     0.0000088469        2.8233346573       1.19  <-- CONV
        O_D=      0.0000000 O_OD=      0.0023109 O_TOT=      2.8233347 <-- SPRD
 Delta: O_D= -0.1724020E-13 O_OD= -0.1078900E-11 O_TOT= -0.1096012E-11 <-- DLTA
 ------------------------------------------------------------------------------
 Cycle:    474
  WF centre and spread    1  ( -0.000000,  0.000000, -0.000000 )     0.94110286
  WF centre and spread    2  (  0.000000, -0.000000, -0.000000 )     0.94110799
  WF centre and spread    3  (  0.000000, -0.000000,  0.000000 )     0.94112381
  Sum of centres and spreads (  0.000000,  0.000000, -0.000000 )     2.82333466
 
    474    -0.137E-11     0.0000088468        2.8233346573       1.19  <-- CONV
        O_D=      0.0000000 O_OD=      0.0023109 O_TOT=      2.8233347 <-- SPRD
 Delta: O_D= -0.2154198E-13 O_OD= -0.1348596E-11 O_TOT= -0.1370015E-11 <-- DLTA
 ------------------------------------------------------------------------------
 Cycle:    475
  WF centre and spread    1  ( -0.000000,  0.000000, -0.000000 )     0.94110286
  WF centre and spread    2  (  0.000000, -0.000000, -0.000000 )     0.94110799
  WF centre and spread    3  (  0.000000, -0.000000,  0.000000 )     0.94112381
  Sum of centres and spreads (  0.000000,  0.000000, -0.000000 )     2.82333466
 
    475    -0.164E-11     0.0000088467        2.8233346573       1.19  <-- CONV
        O_D=      0.0000000 O_OD=      0.0023109 O_TOT=      2.8233347 <-- SPRD
 Delta: O_D= -0.2583826E-13 O_OD= -0.1618272E-11 O_TOT= -0.1644018E-11 <-- DLTA
 ------------------------------------------------------------------------------
 Cycle:    476
  WF centre and spread    1  ( -0.000000,  0.000000, -0.000000 )     0.94110286
  WF centre and spread    2  (  0.000000, -0.000000, -0.000000 )     0.94110799
  WF centre and spread    3  (  0.000000, -0.000000,  0.000000 )     0.94112381
  Sum of centres and spreads (  0.000000,  0.000000, -0.000000 )     2.82333466
 
    476    -0.274E-12     0.0000088466        2.8233346573       1.19  <-- CONV
        O_D=      0.0000000 O_OD=      0.0023109 O_TOT=      2.8233347 <-- SPRD
 Delta: O_D= -0.4301632E-14 O_OD= -0.2697152E-12 O_TOT= -0.2740030E-12 <-- DLTA
 ------------------------------------------------------------------------------
 Cycle:    477
  WF centre and spread    1  ( -0.000000,  0.000000, -0.000000 )     0.94110286
  WF centre and spread    2  (  0.000000, -0.000000, -0.000000 )     0.94110799
  WF centre and spread    3  (  0.000000, -0.000000,  0.000000 )     0.94112381
  Sum of centres and spreads (  0.000000,  0.000000, -0.000000 )     2.82333466
 
    477    -0.548E-12     0.0000088465        2.8233346573       1.20  <-- CONV
        O_D=      0.0000000 O_OD=      0.0023109 O_TOT=      2.8233347 <-- SPRD
 Delta: O_D= -0.8602199E-14 O_OD= -0.5394322E-12 O_TOT= -0.5480061E-12 <-- DLTA
 ------------------------------------------------------------------------------
 Cycle:    478
  WF centre and spread    1  ( -0.000000,  0.000000, -0.000000 )     0.94110286
  WF centre and spread    2  (  0.000000, -0.000000, -0.000000 )     0.94110799
  WF centre and spread    3  (  0.000000, -0.000000,  0.000000 )     0.94112381
  Sum of centres and spreads (  0.000000,  0.000000, -0.000000 )     2.82333466
 
    478    -0.822E-12     0.0000088465        2.8233346573       1.20  <-- CONV
        O_D=      0.0000000 O_OD=      0.0023109 O_TOT=      2.8233347 <-- SPRD
 Delta: O_D= -0.1290061E-13 O_OD= -0.8091427E-12 O_TOT= -0.8220091E-12 <-- DLTA
 ------------------------------------------------------------------------------
 Cycle:    479
  WF centre and spread    1  ( -0.000000,  0.000000, -0.000000 )     0.94110286
  WF centre and spread    2  (  0.000000, -0.000000, -0.000000 )     0.94110799
  WF centre and spread    3  (  0.000000, -0.000000,  0.000000 )     0.94112381
  Sum of centres and spreads (  0.000000,  0.000000, -0.000000 )     2.82333466
 
    479    -0.110E-11     0.0000088464        2.8233346573       1.20  <-- CONV
        O_D=      0.0000000 O_OD=      0.0023109 O_TOT=      2.8233347 <-- SPRD
 Delta: O_D= -0.1719580E-13 O_OD= -0.1078830E-11 O_TOT= -0.1096012E-11 <-- DLTA
 ------------------------------------------------------------------------------
 Cycle:    480
  WF centre and spread    1  ( -0.000000,  0.000000, -0.000000 )     0.94110286
  WF centre and spread    2  (  0.000000, -0.000000, -0.000000 )     0.94110799
  WF centre and spread    3  (  0.000000, -0.000000,  0.000000 )     0.94112381
  Sum of centres and spreads (  0.000000,  0.000000, -0.000000 )     2.82333466
 
    480    -0.137E-11     0.0000088463        2.8233346573       1.20  <-- CONV
        O_D=      0.0000000 O_OD=      0.0023109 O_TOT=      2.8233347 <-- SPRD
 Delta: O_D= -0.2148669E-13 O_OD= -0.1348516E-11 O_TOT= -0.1370459E-11 <-- DLTA
 ------------------------------------------------------------------------------
 Cycle:    481
  WF centre and spread    1  ( -0.000000,  0.000000, -0.000000 )     0.94110286
  WF centre and spread    2  (  0.000000, -0.000000, -0.000000 )     0.94110799
  WF centre and spread    3  (  0.000000, -0.000000,  0.000000 )     0.94112381
  Sum of centres and spreads (  0.000000,  0.000000, -0.000000 )     2.82333466
 
    481    -0.164E-11     0.0000088462        2.8233346573       1.20  <-- CONV
        O_D=      0.0000000 O_OD=      0.0023109 O_TOT=      2.8233347 <-- SPRD
 Delta: O_D= -0.2577221E-13 O_OD= -0.1618178E-11 O_TOT= -0.1644018E-11 <-- DLTA
 ------------------------------------------------------------------------------
 Cycle:    482
  WF centre and spread    1  ( -0.000000,  0.000000, -0.000000 )     0.94110286
  WF centre and spread    2  (  0.000000, -0.000000, -0.000000 )     0.94110799
  WF centre and spread    3  (  0.000000, -0.000000,  0.000000 )     0.94112381
  Sum of centres and spreads (  0.000000,  0.000000, -0.000000 )     2.82333466
 
    482    -0.274E-12     0.0000088461        2.8233346573       1.20  <-- CONV
        O_D=      0.0000000 O_OD=      0.0023109 O_TOT=      2.8233347 <-- SPRD
 Delta: O_D= -0.4290740E-14 O_OD= -0.2696988E-12 O_TOT= -0.2735590E-12 <-- DLTA
 ------------------------------------------------------------------------------
 Cycle:    483
  WF centre and spread    1  ( -0.000000,  0.000000, -0.000000 )     0.94110286
  WF centre and spread    2  (  0.000000, -0.000000, -0.000000 )     0.94110799
  WF centre and spread    3  (  0.000000, -0.000000,  0.000000 )     0.94112381
  Sum of centres and spreads (  0.000000,  0.000000, -0.000000 )     2.82333466
 
    483    -0.548E-12     0.0000088461        2.8233346573       1.21  <-- CONV
        O_D=      0.0000000 O_OD=      0.0023109 O_TOT=      2.8233347 <-- SPRD
 Delta: O_D= -0.8580439E-14 O_OD= -0.5393997E-12 O_TOT= -0.5484502E-12 <-- DLTA
 ------------------------------------------------------------------------------
 Cycle:    484
  WF centre and spread    1  ( -0.000000,  0.000000, -0.000000 )     0.94110286
  WF centre and spread    2  (  0.000000, -0.000000, -0.000000 )     0.94110799
  WF centre and spread    3  (  0.000000, -0.000000,  0.000000 )     0.94112381
  Sum of centres and spreads (  0.000000,  0.000000, -0.000000 )     2.82333466
 
    484    -0.822E-12     0.0000088461        2.8233346573       1.21  <-- CONV
        O_D=      0.0000000 O_OD=      0.0023109 O_TOT=      2.8233347 <-- SPRD
 Delta: O_D= -0.1286804E-13 O_OD= -0.8090885E-12 O_TOT= -0.8220091E-12 <-- DLTA
 ------------------------------------------------------------------------------
 Cycle:    485
  WF centre and spread    1  ( -0.000000,  0.000000, -0.000000 )     0.94110286
  WF centre and spread    2  (  0.000000, -0.000000, -0.000000 )     0.94110799
  WF centre and spread    3  (  0.000000, -0.000000,  0.000000 )     0.94112381
  Sum of centres and spreads (  0.000000,  0.000000, -0.000000 )     2.82333466
 
    485    -0.110E-11     0.0000088460        2.8233346573       1.21  <-- CONV
        O_D=      0.0000000 O_OD=      0.0023109 O_TOT=      2.8233347 <-- SPRD
 Delta: O_D= -0.1715249E-13 O_OD= -0.1078770E-11 O_TOT= -0.1095568E-11 <-- DLTA
 ------------------------------------------------------------------------------
 Cycle:    486
  WF centre and spread    1  ( -0.000000,  0.000000, -0.000000 )     0.94110286
  WF centre and spread    2  (  0.000000, -0.000000, -0.000000 )     0.94110799
  WF centre and spread    3  (  0.000000, -0.000000,  0.000000 )     0.94112381
  Sum of centres and spreads (  0.000000,  0.000000, -0.000000 )     2.82333466
 
    486    -0.137E-11     0.0000088459        2.8233346573       1.21  <-- CONV
        O_D=      0.0000000 O_OD=      0.0023109 O_TOT=      2.8233347 <-- SPRD
 Delta: O_D= -0.2143274E-13 O_OD= -0.1348431E-11 O_TOT= -0.1369571E-11 <-- DLTA
 ------------------------------------------------------------------------------
 Cycle:    487
  WF centre and spread    1  ( -0.000000,  0.000000, -0.000000 )     0.94110286
  WF centre and spread    2  (  0.000000, -0.000000, -0.000000 )     0.94110799
  WF centre and spread    3  (  0.000000, -0.000000,  0.000000 )     0.94112381
  Sum of centres and spreads (  0.000000,  0.000000, -0.000000 )     2.82333466
 
    487    -0.164E-11     0.0000088458        2.8233346573       1.21  <-- CONV
        O_D=      0.0000000 O_OD=      0.0023109 O_TOT=      2.8233347 <-- SPRD
 Delta: O_D= -0.2570776E-13 O_OD= -0.1618079E-11 O_TOT= -0.1644018E-11 <-- DLTA
 ------------------------------------------------------------------------------
 Cycle:    488
  WF centre and spread    1  ( -0.000000,  0.000000, -0.000000 )     0.94110286
  WF centre and spread    2  (  0.000000, -0.000000, -0.000000 )     0.94110799
  WF centre and spread    3  (  0.000000, -0.000000,  0.000000 )     0.94112381
  Sum of centres and spreads (  0.000000,  0.000000, -0.000000 )     2.82333466
 
    488    -0.274E-12     0.0000088457        2.8233346573       1.21  <-- CONV
        O_D=      0.0000000 O_OD=      0.0023109 O_TOT=      2.8233347 <-- SPRD
 Delta: O_D= -0.4280107E-14 O_OD= -0.2696871E-12 O_TOT= -0.2740030E-12 <-- DLTA
 ------------------------------------------------------------------------------
 Cycle:    489
  WF centre and spread    1  ( -0.000000,  0.000000, -0.000000 )     0.94110286
  WF centre and spread    2  (  0.000000, -0.000000, -0.000000 )     0.94110799
  WF centre and spread    3  (  0.000000, -0.000000,  0.000000 )     0.94112381
  Sum of centres and spreads (  0.000000,  0.000000, -0.000000 )     2.82333466
 
    489    -0.548E-12     0.0000088457        2.8233346573       1.22  <-- CONV
        O_D=      0.0000000 O_OD=      0.0023109 O_TOT=      2.8233347 <-- SPRD
 Delta: O_D= -0.8559197E-14 O_OD= -0.5393663E-12 O_TOT= -0.5480061E-12 <-- DLTA
 ------------------------------------------------------------------------------
 Cycle:    490
  WF centre and spread    1  ( -0.000000,  0.000000, -0.000000 )     0.94110286
  WF centre and spread    2  (  0.000000, -0.000000, -0.000000 )     0.94110799
  WF centre and spread    3  (  0.000000, -0.000000,  0.000000 )     0.94112381
  Sum of centres and spreads (  0.000000,  0.000000, -0.000000 )     2.82333466
 
    490    -0.822E-12     0.0000088456        2.8233346573       1.22  <-- CONV
        O_D=      0.0000000 O_OD=      0.0023109 O_TOT=      2.8233347 <-- SPRD
 Delta: O_D= -0.1283624E-13 O_OD= -0.8090460E-12 O_TOT= -0.8215650E-12 <-- DLTA
 ------------------------------------------------------------------------------
 Cycle:    491
  WF centre and spread    1  ( -0.000000,  0.000000, -0.000000 )     0.94110286
  WF centre and spread    2  (  0.000000, -0.000000, -0.000000 )     0.94110799
  WF centre and spread    3  (  0.000000, -0.000000,  0.000000 )     0.94112381
  Sum of centres and spreads (  0.000000,  0.000000, -0.000000 )     2.82333466
 
    491    -0.110E-11     0.0000088456        2.8233346573       1.22  <-- CONV
        O_D=      0.0000000 O_OD=      0.0023109 O_TOT=      2.8233347 <-- SPRD
 Delta: O_D= -0.1711020E-13 O_OD= -0.1078706E-11 O_TOT= -0.1096012E-11 <-- DLTA
 ------------------------------------------------------------------------------
 Cycle:    492
  WF centre and spread    1  ( -0.000000,  0.000000, -0.000000 )     0.94110286
  WF centre and spread    2  (  0.000000, -0.000000, -0.000000 )     0.94110799
  WF centre and spread    3  (  0.000000, -0.000000,  0.000000 )     0.94112381
  Sum of centres and spreads (  0.000000,  0.000000, -0.000000 )     2.82333466
 
    492    -0.137E-11     0.0000088455        2.8233346573       1.22  <-- CONV
        O_D=      0.0000000 O_OD=      0.0023109 O_TOT=      2.8233347 <-- SPRD
 Delta: O_D= -0.2138006E-13 O_OD= -0.1348355E-11 O_TOT= -0.1370015E-11 <-- DLTA
 ------------------------------------------------------------------------------
 Cycle:    493
  WF centre and spread    1  ( -0.000000,  0.000000, -0.000000 )     0.94110286
  WF centre and spread    2  (  0.000000, -0.000000, -0.000000 )     0.94110799
  WF centre and spread    3  (  0.000000, -0.000000,  0.000000 )     0.94112381
  Sum of centres and spreads (  0.000000,  0.000000,  0.000000 )     2.82333466
 
    493    -0.164E-11     0.0000088454        2.8233346573       1.22  <-- CONV
        O_D=      0.0000000 O_OD=      0.0023109 O_TOT=      2.8233347 <-- SPRD
 Delta: O_D= -0.2564482E-13 O_OD= -0.1617989E-11 O_TOT= -0.1643574E-11 <-- DLTA
 ------------------------------------------------------------------------------
 Cycle:    494
  WF centre and spread    1  ( -0.000000,  0.000000, -0.000000 )     0.94110286
  WF centre and spread    2  (  0.000000, -0.000000, -0.000000 )     0.94110799
  WF centre and spread    3  (  0.000000, -0.000000,  0.000000 )     0.94112381
  Sum of centres and spreads (  0.000000,  0.000000,  0.000000 )     2.82333466
 
    494    -0.274E-12     0.0000088453        2.8233346573       1.22  <-- CONV
        O_D=      0.0000000 O_OD=      0.0023109 O_TOT=      2.8233347 <-- SPRD
 Delta: O_D= -0.4269719E-14 O_OD= -0.2696658E-12 O_TOT= -0.2735590E-12 <-- DLTA
 ------------------------------------------------------------------------------
 Cycle:    495
  WF centre and spread    1  ( -0.000000,  0.000000, -0.000000 )     0.94110286
  WF centre and spread    2  (  0.000000, -0.000000, -0.000000 )     0.94110799
  WF centre and spread    3  (  0.000000, -0.000000,  0.000000 )     0.94112381
  Sum of centres and spreads (  0.000000,  0.000000,  0.000000 )     2.82333466
 
    495    -0.548E-12     0.0000088452        2.8233346573       1.22  <-- CONV
        O_D=      0.0000000 O_OD=      0.0023109 O_TOT=      2.8233347 <-- SPRD
 Delta: O_D= -0.8538445E-14 O_OD= -0.5393377E-12 O_TOT= -0.5480061E-12 <-- DLTA
 ------------------------------------------------------------------------------
 Cycle:    496
  WF centre and spread    1  ( -0.000000,  0.000000, -0.000000 )     0.94110286
  WF centre and spread    2  (  0.000000, -0.000000, -0.000000 )     0.94110799
  WF centre and spread    3  (  0.000000, -0.000000,  0.000000 )     0.94112381
  Sum of centres and spreads (  0.000000,  0.000000,  0.000000 )     2.82333466
 
    496    -0.822E-12     0.0000088452        2.8233346573       1.23  <-- CONV
        O_D=      0.0000000 O_OD=      0.0023109 O_TOT=      2.8233347 <-- SPRD
 Delta: O_D= -0.1280517E-13 O_OD= -0.8089922E-12 O_TOT= -0.8215650E-12 <-- DLTA
 ------------------------------------------------------------------------------
 Cycle:    497
  WF centre and spread    1  ( -0.000000,  0.000000, -0.000000 )     0.94110286
  WF centre and spread    2  (  0.000000, -0.000000, -0.000000 )     0.94110799
  WF centre and spread    3  (  0.000000, -0.000000,  0.000000 )     0.94112381
  Sum of centres and spreads (  0.000000,  0.000000,  0.000000 )     2.82333466
 
    497    -0.110E-11     0.0000088451        2.8233346573       1.23  <-- CONV
        O_D=      0.0000000 O_OD=      0.0023109 O_TOT=      2.8233347 <-- SPRD
 Delta: O_D= -0.1706888E-13 O_OD= -0.1078643E-11 O_TOT= -0.1096012E-11 <-- DLTA
 ------------------------------------------------------------------------------
 Cycle:    498
  WF centre and spread    1  ( -0.000000,  0.000000, -0.000000 )     0.94110286
  WF centre and spread    2  (  0.000000, -0.000000, -0.000000 )     0.94110799
  WF centre and spread    3  (  0.000000, -0.000000,  0.000000 )     0.94112381
  Sum of centres and spreads (  0.000000,  0.000000,  0.000000 )     2.82333466
 
    498    -0.137E-11     0.0000088451        2.8233346573       1.23  <-- CONV
        O_D=      0.0000000 O_OD=      0.0023109 O_TOT=      2.8233347 <-- SPRD
 Delta: O_D= -0.2132859E-13 O_OD= -0.1348282E-11 O_TOT= -0.1369571E-11 <-- DLTA
 ------------------------------------------------------------------------------
 Cycle:    499
  WF centre and spread    1  ( -0.000000,  0.000000, -0.000000 )     0.94110286
  WF centre and spread    2  (  0.000000, -0.000000, -0.000000 )     0.94110799
  WF centre and spread    3  (  0.000000, -0.000000,  0.000000 )     0.94112381
  Sum of centres and spreads (  0.000000,  0.000000,  0.000000 )     2.82333466
 
    499    -0.164E-11     0.0000088450        2.8233346573       1.23  <-- CONV
        O_D=      0.0000000 O_OD=      0.0023109 O_TOT=      2.8233347 <-- SPRD
 Delta: O_D= -0.2558330E-13 O_OD= -0.1617894E-11 O_TOT= -0.1643574E-11 <-- DLTA
 ------------------------------------------------------------------------------
 Cycle:    500
  WF centre and spread    1  ( -0.000000,  0.000000, -0.000000 )     0.94110286
  WF centre and spread    2  (  0.000000, -0.000000, -0.000000 )     0.94110799
  WF centre and spread    3  (  0.000000, -0.000000,  0.000000 )     0.94112381
  Sum of centres and spreads (  0.000000,  0.000000,  0.000000 )     2.82333466
 
    500    -0.274E-12     0.0000088449        2.8233346573       1.23  <-- CONV
        O_D=      0.0000000 O_OD=      0.0023109 O_TOT=      2.8233347 <-- SPRD
 Delta: O_D= -0.4259564E-14 O_OD= -0.2696489E-12 O_TOT= -0.2740030E-12 <-- DLTA
 ------------------------------------------------------------------------------

 Writing checkpoint file mp-23155.chk... done

 Final State
  WF centre and spread    1  ( -0.000000,  0.000000, -0.000000 )     0.94110286
  WF centre and spread    2  (  0.000000, -0.000000, -0.000000 )     0.94110799
  WF centre and spread    3  (  0.000000, -0.000000,  0.000000 )     0.94112381
  Sum of centres and spreads (  0.000000,  0.000000,  0.000000 )     2.82333466
 
         Spreads (Ang^2)       Omega I      =     2.821023796
        ================       Omega D      =     0.000000000
                               Omega OD     =     0.002310861
    Final Spread (Ang^2)       Omega Total  =     2.823334657
 ------------------------------------------------------------------------------
 Time for wannierise            0.951 (sec)

 Writing checkpoint file mp-23155.chk... done

 Time for plotting              0.000 (sec)
 Total Execution Time           2.415 (sec)

 *===========================================================================*
 |                             TIMING INFORMATION                            |
 *===========================================================================*
 |    Tag                                                Ncalls      Time (s)|
 |---------------------------------------------------------------------------|
 |kmesh: get                                        :         1         1.063|
 |overlap: allocate                                 :         1         0.001|
 |overlap: read                                     :         1         0.165|
 |wann: main                                        :         1         0.951|
 |plot: main                                        :         1         0.000|
 *---------------------------------------------------------------------------*
 
 All done: wannier90 exiting
