
     Program PWSCF v.7.1 starts on  3Jan2024 at 14:31:27 

     This program is part of the open-source Quantum ESPRESSO suite
     for quantum simulation of materials; please cite
         "P. Giannozzi et al., J. Phys.:Condens. Matter 21 395502 (2009);
         "P. Giannozzi et al., J. Phys.:Condens. Matter 29 465901 (2017);
         "P. Giannozzi et al., J. Chem. Phys. 152 154105 (2020);
          URL http://www.quantum-espresso.org", 
     in publications or presentations arising from this work. More details at
     http://www.quantum-espresso.org/quote

     Parallel version (MPI), running on     8 processors

     MPI processes distributed on     1 nodes
     122147 MiB available memory on the printing compute node when the environment starts
 
     Reading input from pw_mp-23155_nscf_k3000_E65.in
Warning: card &IONS ignored
Warning: card / ignored
Warning: card &CELL ignored
Warning: card / ignored

     Current dimensions of program PWSCF are:
     Max number of different atomic species (ntypx) = 10
     Max number of k-points (npk) =  40000
     Max angular momentum in pseudopotentials (lmaxx) =  4

     Atomic positions and unit cell read from directory:
     out/mp-23155.save/
 
 
     R & G space division:  proc/nbgrp/npool/nimage =       8
     Subspace diagonalization in iterative solution of the eigenvalue problem:
     a serial algorithm will be used

 
     Parallelization info
     --------------------
     sticks:   dense  smooth     PW     G-vecs:    dense   smooth      PW
     Min         115     115     37                 2311     2311     433
     Max         116     116     38                 2313     2313     436
     Sum         925     925    301                18499    18499    3479
 
     Using Slab Decomposition
 


     bravais-lattice index     =            2
     lattice parameter (alat)  =      10.1349  a.u.
     unit-cell volume          =     260.2548 (a.u.)^3
     number of atoms/cell      =            1
     number of atomic types    =            1
     number of electrons       =         8.00
     number of Kohn-Sham states=            8
     kinetic-energy cutoff     =      65.0000  Ry
     charge density cutoff     =     260.0000  Ry
     Exchange-correlation= PBE
                           (   1   4   3   4   0   0   0)

     celldm(1)=  10.134903  celldm(2)=   0.000000  celldm(3)=   0.000000
     celldm(4)=   0.000000  celldm(5)=   0.000000  celldm(6)=   0.000000

     crystal axes: (cart. coord. in units of alat)
               a(1) = (  -0.500000   0.000000   0.500000 )  
               a(2) = (   0.000000   0.500000   0.500000 )  
               a(3) = (  -0.500000   0.500000   0.000000 )  

     reciprocal axes: (cart. coord. in units 2 pi/alat)
               b(1) = ( -1.000000 -1.000000  1.000000 )  
               b(2) = (  1.000000  1.000000  1.000000 )  
               b(3) = ( -1.000000  1.000000 -1.000000 )  


     PseudoPot. # 1 for Ar read from file:
     /usr/scratch4/magr4985/MG/devEb/pseudo/SG15/Ar.upf
     MD5 check sum: 6715cac821e772f23804120e3f599f9d
     Pseudo is Norm-conserving, Zval =  8.0
     Generated using ONCVPSP code by D. R. Hamann
     Using radial grid of  602 points,  4 beta functions with: 
                l(1) =   0
                l(2) =   0
                l(3) =   1
                l(4) =   1

     atomic species   valence    mass     pseudopotential
        Ar             8.00    39.94800     Ar( 1.00)

     No symmetry found



   Cartesian axes

     site n.     atom                  positions (alat units)
         1           Ar  tau(   1) = (   0.0000000   0.0000000   0.0000000  )

     number of k points=  2744  Gaussian smearing, width (Ry)=  0.0005

     Number of k-points >= 100: set verbosity='high' to print them.

     Dense  grid:    18499 G-vectors     FFT dimensions: (  40,  40,  40)

     Estimated max dynamical RAM per process >      97.58 MB

     Estimated total dynamical RAM >     780.61 MB

     The potential is recalculated from file :
     out/mp-23155.save/charge-density

     Starting wfcs are random

     Band Structure Calculation
     Davidson diagonalization with overlap

     ethr =  5.00E-06,  avg # of iterations = 15.6

     total cpu time spent up to now is       60.6 secs

     End of band structure calculation

     Number of k-points >= 100: set verbosity='high' to print the bands.

     the Fermi energy is    -1.8885 ev
     (compare with:    -1.8885 eV, computed in scf)

     Writing all to output data dir out/mp-23155.save/
 
     init_run     :      0.08s CPU      0.10s WALL (       1 calls)
     electrons    :     55.14s CPU     60.20s WALL (       1 calls)

     Called by init_run:
     wfcinit      :      0.00s CPU      0.00s WALL (       1 calls)
     potinit      :      0.01s CPU      0.01s WALL (       1 calls)
     hinit0       :      0.01s CPU      0.02s WALL (       1 calls)

     Called by electrons:
     c_bands      :     55.14s CPU     60.20s WALL (       1 calls)
     v_of_rho     :      0.01s CPU      0.01s WALL (       1 calls)

     Called by c_bands:
     init_us_2    :      0.12s CPU      0.14s WALL (    2744 calls)
     init_us_2:cp :      0.12s CPU      0.13s WALL (    2744 calls)
     cegterg      :     50.64s CPU     53.56s WALL (    3018 calls)

     Called by *egterg:
     cdiaghg      :      4.81s CPU      5.13s WALL (   45654 calls)
     h_psi        :     44.07s CPU     46.64s WALL (   48672 calls)
     g_psi        :      0.45s CPU      0.47s WALL (   42910 calls)

     Called by h_psi:
     h_psi:calbec :      0.92s CPU      0.99s WALL (   48672 calls)
     vloc_psi     :     42.19s CPU     44.63s WALL (   48672 calls)
     add_vuspsi   :      0.52s CPU      0.56s WALL (   48672 calls)

     General routines
     calbec       :      0.80s CPU      0.88s WALL (   48672 calls)
     fft          :      0.00s CPU      0.02s WALL (      10 calls)
     fftw         :     37.75s CPU     39.90s WALL (  551792 calls)
 
     Parallel routines
 
     PWSCF        :     56.86s CPU   1m 5.58s WALL

 
   This run was terminated on:  14:32:32   3Jan2024            

=------------------------------------------------------------------------------=
   JOB DONE.
=------------------------------------------------------------------------------=
