
     Program PWSCF v.7.1 starts on  3Jan2024 at 17:12:44 

     This program is part of the open-source Quantum ESPRESSO suite
     for quantum simulation of materials; please cite
         "P. Giannozzi et al., J. Phys.:Condens. Matter 21 395502 (2009);
         "P. Giannozzi et al., J. Phys.:Condens. Matter 29 465901 (2017);
         "P. Giannozzi et al., J. Chem. Phys. 152 154105 (2020);
          URL http://www.quantum-espresso.org", 
     in publications or presentations arising from this work. More details at
     http://www.quantum-espresso.org/quote

     Parallel version (MPI), running on     8 processors

     MPI processes distributed on     1 nodes
     123402 MiB available memory on the printing compute node when the environment starts
 
     Reading input from pw_mp-23291_emass_k3000_E130.in
Warning: card &IONS ignored
Warning: card / ignored
Warning: card &CELL ignored
Warning: card / ignored

     Current dimensions of program PWSCF are:
     Max number of different atomic species (ntypx) = 10
     Max number of k-points (npk) =  40000
     Max angular momentum in pseudopotentials (lmaxx) =  4

     Atomic positions and unit cell read from directory:
     out/mp-23291.save/
     Atomic positions from file used, from input discarded
 
 
     R & G space division:  proc/nbgrp/npool/nimage =       8
     Subspace diagonalization in iterative solution of the eigenvalue problem:
     a serial algorithm will be used

 
     Parallelization info
     --------------------
     sticks:   dense  smooth     PW     G-vecs:    dense   smooth      PW
     Min         645     645    166                54059    54059    7172
     Max         646     646    167                54062    54062    7177
     Sum        5163    5163   1331               432479   432479   57395
 
     Using Slab Decomposition
 


     bravais-lattice index     =            8
     lattice parameter (alat)  =       8.5945  a.u.
     unit-cell volume          =    2159.3465 (a.u.)^3
     number of atoms/cell      =           12
     number of atomic types    =            2
     number of electrons       =       112.00
     number of Kohn-Sham states=          112
     kinetic-energy cutoff     =     130.0000  Ry
     charge density cutoff     =     520.0000  Ry
     Exchange-correlation= PBE
                           (   1   4   3   4   0   0   0)

     celldm(1)=   8.594524  celldm(2)=   1.686778  celldm(3)=   2.016503
     celldm(4)=   0.000000  celldm(5)=   0.000000  celldm(6)=   0.000000

     crystal axes: (cart. coord. in units of alat)
               a(1) = (   1.000000   0.000000   0.000000 )  
               a(2) = (   0.000000   1.686778   0.000000 )  
               a(3) = (   0.000000   0.000000   2.016503 )  

     reciprocal axes: (cart. coord. in units 2 pi/alat)
               b(1) = (  1.000000  0.000000  0.000000 )  
               b(2) = (  0.000000  0.592846  0.000000 )  
               b(3) = (  0.000000  0.000000  0.495908 )  


     PseudoPot. # 1 for Cl read from file:
     /usr/scratch4/magr4985/MG/devEb/pseudo/SG15/Cl.upf
     MD5 check sum: d09d09b0a9f35bc416b5a5b3d9ab34ee
     Pseudo is Norm-conserving, Zval =  7.0
     Generated using ONCVPSP code by D. R. Hamann
     Using radial grid of  602 points,  4 beta functions with: 
                l(1) =   0
                l(2) =   0
                l(3) =   1
                l(4) =   1

     PseudoPot. # 2 for Pb read from file:
     /usr/scratch4/magr4985/MG/devEb/pseudo/SG15/Pb.upf
     MD5 check sum: 18da7c9819a8d2a15024df9e07e1e14a
     Pseudo is Norm-conserving, Zval = 14.0
     Generated using ONCVPSP code by D. R. Hamann
     Using radial grid of  602 points,  8 beta functions with: 
                l(1) =   0
                l(2) =   0
                l(3) =   1
                l(4) =   1
                l(5) =   2
                l(6) =   2
                l(7) =   3
                l(8) =   3

     atomic species   valence    mass     pseudopotential
        Cl             7.00    35.45300     Cl( 1.00)
        Pb            14.00   207.20000     Pb( 1.00)

      8 Sym. Ops., with inversion, found ( 6 have fractional translation)



   Cartesian axes

     site n.     atom                  positions (alat units)
         1           Pb  tau(   1) = (   0.2500000   0.4447236   1.8339008  )
         2           Pb  tau(   2) = (   0.7500001   1.2420547   0.1826025  )
         3           Pb  tau(   3) = (   0.2500000   1.2881128   1.1908541  )
         4           Pb  tau(   4) = (   0.7500001   0.3986655   0.8256492  )
         5           Cl  tau(   5) = (   0.2500000   0.8143243   0.3178971  )
         6           Cl  tau(   6) = (   0.7500001   0.8724541   1.6986062  )
         7           Cl  tau(   7) = (   0.2500000   1.6577134   0.6903546  )
         8           Cl  tau(   8) = (   0.7500001   0.0290649   1.3261487  )
         9           Cl  tau(   9) = (   0.7500001   1.0820031   0.8522280  )
        10           Cl  tau(  10) = (   0.2500000   0.6047752   1.1642753  )
        11           Cl  tau(  11) = (   0.7500001   0.2386139   0.1560237  )
        12           Cl  tau(  12) = (   0.2500000   1.4481644   1.8604796  )

     number of k points=     7  Gaussian smearing, width (Ry)=  0.0005
                       cart. coord. in units 2pi/alat
        k(    1) = (   0.0000000   0.2470192   0.1859655), wk =   0.2857143
        k(    2) = (   0.0100000   0.2470192   0.1859655), wk =   0.2857143
        k(    3) = (  -0.0100000   0.2470192   0.1859655), wk =   0.2857143
        k(    4) = (   0.0000000   0.2570192   0.1859655), wk =   0.2857143
        k(    5) = (   0.0000000   0.2370192   0.1859655), wk =   0.2857143
        k(    6) = (   0.0000000   0.2470192   0.1959655), wk =   0.2857143
        k(    7) = (   0.0000000   0.2470192   0.1759655), wk =   0.2857143

     Dense  grid:   432479 G-vectors     FFT dimensions: (  64, 108, 128)

     Estimated max dynamical RAM per process >     161.18 MB

     Estimated total dynamical RAM >       1.26 GB

     The potential is recalculated from file :
     out/mp-23291.save/charge-density

     Starting wfcs are random

     Band Structure Calculation
     ParO style diagonalization

     ethr =  5.00E-06,  avg # of iterations = 22.9

     total cpu time spent up to now is       92.1 secs

     End of band structure calculation

          k = 0.0000 0.2470 0.1860 ( 54055 PWs)   bands (ev):

   -10.5198 -10.5188 -10.4912 -10.4911 -10.4405 -10.4379 -10.4370 -10.4350
   -10.4315 -10.4313 -10.4290 -10.4274 -10.4272 -10.4258 -10.4223 -10.4196
   -10.4195 -10.4191 -10.4112 -10.4110  -8.7512  -8.6401  -8.6062  -8.5148
    -7.9952  -7.9567  -7.9378  -7.8993  -1.5782  -1.3866  -1.3703  -1.1239
     2.2636   2.3390   2.4361   2.5315   2.5461   2.7321   2.7793   2.9589
     3.1772   3.2882   3.3889   3.4699   3.8315   3.8715   4.0714   4.0925
     4.1108   4.1409   4.1518   4.2433   4.5783   4.5944   4.6495   4.6989
     8.6790   8.7199   8.9499   9.0593   9.7447   9.7775   9.8922   9.9456
    10.0241  10.0814  10.2154  10.2878  13.6240  13.8670  14.4127  14.6186
    14.8871  14.9210  14.9933  15.1889  15.3484  15.4780  15.5408  15.6539
    15.9457  16.1026  16.5792  16.8599  16.8638  17.0060  17.0940  17.0975
    17.2972  17.2998  17.4531  17.5156  18.5633  18.7510  18.8033  19.1611
    19.2736  19.4603  19.5974  19.6958  19.9861  20.1851  20.1966  20.5401
    20.9527  21.0659  21.3204  21.3594  21.5129  21.5275  21.7600  22.2427

          k = 0.0100 0.2470 0.1860 ( 54054 PWs)   bands (ev):

   -10.5198 -10.5188 -10.4913 -10.4911 -10.4406 -10.4379 -10.4370 -10.4350
   -10.4315 -10.4313 -10.4291 -10.4274 -10.4273 -10.4258 -10.4223 -10.4198
   -10.4193 -10.4191 -10.4112 -10.4111  -8.7509  -8.6398  -8.6059  -8.5146
    -7.9952  -7.9568  -7.9378  -7.8994  -1.5785  -1.3869  -1.3706  -1.1243
     2.2627   2.3374   2.4330   2.5160   2.5609   2.7347   2.7802   2.9596
     3.1783   3.2893   3.3881   3.4694   3.8317   3.8712   4.0711   4.0920
     4.1069   4.1438   4.1524   4.2433   4.5782   4.5941   4.6495   4.6987
     8.6804   8.7208   8.9511   9.0600   9.7413   9.7809   9.8924   9.9451
    10.0197  10.0870  10.2140  10.2901  13.6246  13.8676  14.4121  14.6176
    14.8843  14.9128  14.9998  15.1873  15.3404  15.4802  15.5436  15.6655
    15.9473  16.1033  16.5751  16.8354  16.8826  17.0038  17.0859  17.1110
    17.2964  17.3052  17.4566  17.5197  18.5630  18.7512  18.8026  19.1618
    19.2760  19.4559  19.6037  19.6942  19.9808  20.1868  20.1983  20.5404
    20.9500  21.0636  21.3203  21.3593  21.5054  21.5438  21.7584  22.2371

          k =-0.0100 0.2470 0.1860 ( 54054 PWs)   bands (ev):

   -10.5198 -10.5188 -10.4913 -10.4911 -10.4406 -10.4379 -10.4370 -10.4350
   -10.4315 -10.4313 -10.4291 -10.4274 -10.4273 -10.4258 -10.4223 -10.4198
   -10.4193 -10.4191 -10.4112 -10.4111  -8.7509  -8.6398  -8.6059  -8.5146
    -7.9952  -7.9568  -7.9378  -7.8994  -1.5785  -1.3869  -1.3706  -1.1243
     2.2627   2.3374   2.4330   2.5160   2.5609   2.7347   2.7802   2.9596
     3.1783   3.2893   3.3881   3.4694   3.8317   3.8712   4.0711   4.0920
     4.1069   4.1438   4.1524   4.2433   4.5782   4.5941   4.6495   4.6987
     8.6804   8.7208   8.9511   9.0600   9.7413   9.7809   9.8924   9.9451
    10.0197  10.0870  10.2140  10.2901  13.6246  13.8676  14.4121  14.6176
    14.8843  14.9128  14.9998  15.1873  15.3404  15.4802  15.5436  15.6655
    15.9473  16.1033  16.5751  16.8354  16.8826  17.0038  17.0859  17.1110
    17.2964  17.3052  17.4566  17.5197  18.5630  18.7512  18.8026  19.1618
    19.2760  19.4559  19.6037  19.6942  19.9808  20.1868  20.1983  20.5404
    20.9500  21.0636  21.3203  21.3593  21.5054  21.5438  21.7584  22.2371

          k = 0.0000 0.2570 0.1860 ( 54053 PWs)   bands (ev):

   -10.5197 -10.5188 -10.4916 -10.4915 -10.4401 -10.4379 -10.4369 -10.4351
   -10.4314 -10.4313 -10.4286 -10.4275 -10.4273 -10.4260 -10.4221 -10.4198
   -10.4195 -10.4192 -10.4112 -10.4111  -8.7386  -8.6377  -8.6129  -8.5278
    -7.9905  -7.9599  -7.9326  -7.9019  -1.5578  -1.3926  -1.3595  -1.1504
     2.2767   2.3511   2.4230   2.5252   2.5531   2.7358   2.7687   2.9347
     3.1903   3.2810   3.3934   3.4602   3.8360   3.8679   4.0796   4.0989
     4.1110   4.1467   4.1539   4.2363   4.5830   4.5963   4.6574   4.6973
     8.6799   8.7150   8.9424   9.0330   9.7691   9.7989   9.9040   9.9480
    10.0200  10.0781  10.1912  10.2564  13.6609  13.8624  14.4428  14.6108
    14.8873  14.9095  15.0247  15.2002  15.3490  15.4594  15.5082  15.6190
    15.9841  16.1114  16.6297  16.8629  16.8743  17.0306  17.0617  17.0967
    17.2856  17.3167  17.4240  17.4921  18.5701  18.7120  18.8307  19.1147
    19.3255  19.4989  19.6118  19.6925  19.9736  20.1599  20.1630  20.4682
    20.9566  21.0414  21.3529  21.4443  21.5032  21.5905  21.7864  22.2040

          k = 0.0000 0.2370 0.1860 ( 54050 PWs)   bands (ev):

   -10.5200 -10.5188 -10.4908 -10.4907 -10.4410 -10.4381 -10.4370 -10.4348
   -10.4316 -10.4314 -10.4294 -10.4274 -10.4271 -10.4257 -10.4226 -10.4195
   -10.4194 -10.4191 -10.4112 -10.4110  -8.7634  -8.6483  -8.5931  -8.5017
    -8.0000  -7.9537  -7.9433  -7.8969  -1.5983  -1.4111  -1.3505  -1.0977
     2.2510   2.3248   2.4522   2.5106   2.5673   2.7156   2.8036   2.9834
     3.1642   3.2936   3.3864   3.4795   3.8269   3.8749   4.0623   4.0862
     4.1097   4.1279   4.1562   4.2494   4.5732   4.5917   4.6411   4.6998
     8.6794   8.7249   8.9617   9.0879   9.7205   9.7560   9.8743   9.9304
    10.0409  10.0911  10.2394  10.3192  13.5864  13.8652  14.3832  14.6243
    14.8856  14.9334  14.9627  15.1705  15.3531  15.5048  15.5747  15.6891
    15.9029  16.0877  16.5258  16.8478  16.8563  16.9837  17.0941  17.1353
    17.2789  17.3200  17.4814  17.5393  18.5522  18.7543  18.8171  19.2096
    19.2212  19.4116  19.5856  19.7008  20.0049  20.2206  20.2264  20.6121
    20.9472  21.0953  21.2699  21.2844  21.4554  21.5220  21.7459  22.2571

          k = 0.0000 0.2470 0.1960 ( 54052 PWs)   bands (ev):

   -10.5197 -10.5189 -10.4912 -10.4911 -10.4403 -10.4380 -10.4370 -10.4351
   -10.4315 -10.4313 -10.4286 -10.4274 -10.4273 -10.4256 -10.4226 -10.4200
   -10.4195 -10.4192 -10.4112 -10.4111  -8.7432  -8.6484  -8.6011  -8.5228
    -7.9901  -7.9526  -7.9401  -7.9028  -1.5642  -1.4016  -1.3521  -1.1434
     2.2664   2.3308   2.4405   2.5340   2.5454   2.7159   2.7894   2.9424
     3.1907   3.2859   3.4013   3.4720   3.8431   3.8789   4.0686   4.0922
     4.1038   4.1325   4.1572   4.2351   4.5823   4.6002   4.6488   4.6946
     8.6761   8.7115   8.9531   9.0469   9.7667   9.7858   9.8858   9.9430
    10.0350  10.0927  10.2049  10.2696  13.6580  13.8753  14.4073  14.5866
    14.8674  14.8945  15.0084  15.1787  15.3450  15.4942  15.5087  15.6485
    15.9611  16.0945  16.5988  16.8448  16.8908  17.0303  17.1029  17.1166
    17.2701  17.3330  17.4625  17.4847  18.5636  18.7451  18.8264  19.1529
    19.2698  19.4247  19.6128  19.7088  19.9722  20.1426  20.2197  20.5195
    20.9975  21.0865  21.3296  21.3797  21.5335  21.5419  21.7548  22.2235

          k = 0.0000 0.2470 0.1760 ( 54052 PWs)   bands (ev):

   -10.5199 -10.5188 -10.4913 -10.4911 -10.4408 -10.4378 -10.4370 -10.4348
   -10.4315 -10.4313 -10.4294 -10.4274 -10.4272 -10.4261 -10.4220 -10.4195
   -10.4192 -10.4191 -10.4112 -10.4110  -8.7588  -8.6341  -8.6086  -8.5069
    -8.0003  -7.9616  -7.9349  -7.8960  -1.5918  -1.3906  -1.3693  -1.1049
     2.2613   2.3470   2.4329   2.5182   2.5585   2.7432   2.7748   2.9755
     3.1634   3.2885   3.3770   3.4662   3.8193   3.8626   4.0750   4.0931
     4.1178   4.1462   4.1507   4.2515   4.5747   4.5878   4.6508   4.7027
     8.6829   8.7287   8.9481   9.0717   9.7225   9.7697   9.8965   9.9412
    10.0193  10.0727  10.2243  10.3056  13.5903  13.8537  14.4224  14.6537
    14.9077  14.9493  14.9794  15.1967  15.3558  15.4625  15.5751  15.6564
    15.9306  16.1103  16.5593  16.8405  16.8683  16.9797  17.0819  17.0843
    17.2682  17.3223  17.4426  17.5436  18.5638  18.7252  18.8088  19.1600
    19.2804  19.4996  19.5941  19.6871  19.9917  20.1503  20.2486  20.5592
    20.9050  21.0424  21.3204  21.3411  21.4829  21.5174  21.7688  22.2583

     the Fermi energy is     5.8692 ev
     (compare with:     5.7694 eV, computed in scf)

     Writing all to output data dir out/mp-23291.save/
 
     init_run     :      0.41s CPU      0.45s WALL (       1 calls)
     electrons    :     90.78s CPU     91.50s WALL (       1 calls)

     Called by init_run:
     wfcinit      :      0.00s CPU      0.00s WALL (       1 calls)
     potinit      :      0.08s CPU      0.10s WALL (       1 calls)
     hinit0       :      0.21s CPU      0.23s WALL (       1 calls)

     Called by electrons:
     c_bands      :     90.78s CPU     91.50s WALL (       1 calls)
     v_of_rho     :      0.07s CPU      0.09s WALL (       1 calls)

     Called by c_bands:
     init_us_2    :      0.04s CPU      0.05s WALL (       7 calls)
     init_us_2:cp :      0.04s CPU      0.05s WALL (       7 calls)
     paro_k       :     86.98s CPU     87.63s WALL (       7 calls)

     Called by paro_*:
     h_psi        :     51.30s CPU     51.63s WALL (     427 calls)
     g_psi        :      0.85s CPU      0.88s WALL (   20569 calls)

     Called by h_psi:
     h_psi:calbec :      6.14s CPU      6.16s WALL (     427 calls)
     vloc_psi     :     37.93s CPU     38.18s WALL (     427 calls)
     add_vuspsi   :      6.75s CPU      6.76s WALL (     427 calls)

     General routines
     calbec       :      6.14s CPU      6.16s WALL (     427 calls)
     fft          :      0.03s CPU      0.04s WALL (      10 calls)
     fftw         :     33.00s CPU     33.22s WALL (   35262 calls)
 
     Parallel routines
 
     PWSCF        :   1m31.33s CPU   1m32.11s WALL

 
   This run was terminated on:  17:14:16   3Jan2024            

=------------------------------------------------------------------------------=
   JOB DONE.
=------------------------------------------------------------------------------=
