<?xml version="1.0" encoding="ISO-8859-1"?>
<modeling>
 <generator>
  <i name="program" type="string">vasp </i>
  <i name="version" type="string">5.4.4.18Apr17-6-g9f103f2a35  </i>
  <i name="subversion" type="string">(build Aug 24 2017 11:22:49) complex            parallel </i>
  <i name="platform" type="string">LinuxIFC </i>
  <i name="date" type="string">2023 12 25 </i>
  <i name="time" type="string">13:07:25 </i>
 </generator>
 <incar>
  <i type="string" name="PREC">accurate</i>
  <i type="string" name="ALGO"> Normal</i>
  <i type="int" name="NELM">   100</i>
  <i type="int" name="IBRION">     8</i>
  <i name="EDIFF">      0.00000001</i>
  <i name="SYMPREC">      0.00000001</i>
  <i name="ENCUT">    520.00000000</i>
  <i type="logical" name="LREAL"> F  </i>
  <i type="int" name="ISMEAR">     0</i>
  <i name="SIGMA">      0.01000000</i>
  <i type="logical" name="LWAVE"> F  </i>
  <v type="int" name="KPOINT_BSE">    -1     0     0     0</v>
  <i type="int" name="NELM">   100</i>
  <i type="logical" name="LPEAD"> T  </i>
  <i type="logical" name="LEPSILON"> T  </i>
 </incar>
 <structure name="primitive_cell" >
  <crystal>
   <varray name="basis" >
    <v>      -3.00613930       0.00000000       3.00613930 </v>
    <v>       0.00000000       3.00613930       3.00613930 </v>
    <v>      -3.00613930       3.00613930       0.00000000 </v>
   </varray>
   <i name="volume">     54.33220084 </i>
   <varray name="rec_basis" >
    <v>      -0.16632629      -0.16632629       0.16632629 </v>
    <v>       0.16632629       0.16632629       0.16632629 </v>
    <v>      -0.16632629       0.16632629      -0.16632629 </v>
   </varray>
  </crystal>
  <varray name="positions" >
   <v>       0.00000000       0.00000000       0.00000000 </v>
   <v>       0.49999996      -0.49999996       0.49999996 </v>
  </varray>
 </structure>
 <varray name="primitive_index" >
  <v type="int" >        1 </v>
  <v type="int" >        2 </v>
 </varray>
 <kpoints>
  <generation param="Gamma">
   <v type="int" name="divisions">      12       12       12 </v>
   <v name="usershift">      0.00000000       0.00000000       0.00000000 </v>
   <v name="genvec1">      0.08333333      -0.00000000      -0.00000000 </v>
   <v name="genvec2">     -0.00000000       0.08333333       0.00000000 </v>
   <v name="genvec3">      0.00000000       0.00000000       0.08333333 </v>
   <v name="shift">      0.00000000       0.00000000       0.00000000 </v>
  </generation>
  <varray name="kpointlist" >
   <v>       0.00000000       0.00000000       0.00000000 </v>
   <v>       0.08333333       0.00000000      -0.00000000 </v>
   <v>       0.16666667      -0.00000000       0.00000000 </v>
   <v>       0.25000000       0.00000000       0.00000000 </v>
   <v>       0.33333333      -0.00000000      -0.00000000 </v>
   <v>       0.41666667       0.00000000      -0.00000000 </v>
   <v>       0.50000000       0.00000000       0.00000000 </v>
   <v>       0.08333333       0.08333333      -0.00000000 </v>
   <v>       0.16666667       0.08333333      -0.00000000 </v>
   <v>       0.25000000       0.08333333      -0.00000000 </v>
   <v>       0.33333333       0.08333333       0.00000000 </v>
   <v>       0.41666667       0.08333333      -0.00000000 </v>
   <v>       0.50000000       0.08333333      -0.00000000 </v>
   <v>      -0.41666667       0.08333333      -0.00000000 </v>
   <v>      -0.33333333       0.08333333       0.00000000 </v>
   <v>      -0.25000000       0.08333333       0.00000000 </v>
   <v>      -0.16666667       0.08333333      -0.00000000 </v>
   <v>      -0.08333333       0.08333333      -0.00000000 </v>
   <v>       0.16666667       0.16666667      -0.00000000 </v>
   <v>       0.25000000       0.16666667      -0.00000000 </v>
   <v>       0.33333333       0.16666667      -0.00000000 </v>
   <v>       0.41666667       0.16666667       0.00000000 </v>
   <v>       0.50000000       0.16666667      -0.00000000 </v>
   <v>      -0.41666667       0.16666667      -0.00000000 </v>
   <v>      -0.33333333       0.16666667      -0.00000000 </v>
   <v>      -0.25000000       0.16666667       0.00000000 </v>
   <v>      -0.16666667       0.16666667      -0.00000000 </v>
   <v>       0.25000000       0.25000000      -0.00000000 </v>
   <v>       0.33333333       0.25000000      -0.00000000 </v>
   <v>       0.41666667       0.25000000      -0.00000000 </v>
   <v>       0.50000000       0.25000000      -0.00000000 </v>
   <v>      -0.41666667       0.25000000      -0.00000000 </v>
   <v>      -0.33333333       0.25000000       0.00000000 </v>
   <v>      -0.25000000       0.25000000      -0.00000000 </v>
   <v>       0.33333333       0.33333333      -0.00000000 </v>
   <v>       0.41666667       0.33333333      -0.00000000 </v>
   <v>       0.50000000       0.33333333      -0.00000000 </v>
   <v>      -0.41666667       0.33333333       0.00000000 </v>
   <v>      -0.33333333       0.33333333       0.00000000 </v>
   <v>       0.41666667       0.41666667      -0.00000000 </v>
   <v>       0.50000000       0.41666667      -0.00000000 </v>
   <v>      -0.41666667       0.41666667      -0.00000000 </v>
   <v>       0.50000000       0.50000000      -0.00000000 </v>
   <v>       0.08333333      -0.00000000       0.08333333 </v>
   <v>       0.16666667      -0.00000000       0.08333333 </v>
   <v>       0.25000000       0.00000000       0.08333333 </v>
   <v>       0.33333333       0.00000000       0.08333333 </v>
   <v>       0.41666667      -0.00000000       0.08333333 </v>
   <v>       0.50000000       0.00000000       0.08333333 </v>
   <v>      -0.41666667      -0.00000000       0.08333333 </v>
   <v>      -0.33333333       0.00000000       0.08333333 </v>
   <v>      -0.25000000       0.00000000       0.08333333 </v>
   <v>      -0.16666667       0.00000000       0.08333333 </v>
   <v>      -0.08333333      -0.00000000       0.08333333 </v>
   <v>       0.25000000       0.16666667       0.08333333 </v>
   <v>       0.33333333       0.16666667       0.08333333 </v>
   <v>       0.41666667       0.16666667       0.08333333 </v>
   <v>       0.50000000       0.16666667       0.08333333 </v>
   <v>      -0.41666667       0.16666667       0.08333333 </v>
   <v>       0.16666667       0.25000000       0.08333333 </v>
   <v>       0.33333333       0.25000000       0.08333333 </v>
   <v>       0.41666667       0.25000000       0.08333333 </v>
   <v>       0.50000000       0.25000000       0.08333333 </v>
   <v>      -0.41666667       0.25000000       0.08333333 </v>
   <v>      -0.33333333       0.25000000       0.08333333 </v>
   <v>      -0.25000000       0.25000000       0.08333333 </v>
   <v>      -0.16666667       0.25000000       0.08333333 </v>
   <v>       0.16666667       0.33333333       0.08333333 </v>
   <v>       0.25000000       0.33333333       0.08333333 </v>
   <v>       0.41666667       0.33333333       0.08333333 </v>
   <v>       0.50000000       0.33333333       0.08333333 </v>
   <v>      -0.41666667       0.33333333       0.08333333 </v>
   <v>      -0.33333333       0.33333333       0.08333333 </v>
   <v>      -0.25000000       0.33333333       0.08333333 </v>
   <v>       0.16666667       0.41666667       0.08333333 </v>
   <v>       0.25000000       0.41666667       0.08333333 </v>
   <v>       0.33333333       0.41666667       0.08333333 </v>
   <v>       0.50000000       0.41666667       0.08333333 </v>
   <v>      -0.41666667       0.41666667       0.08333333 </v>
   <v>      -0.33333333       0.41666667       0.08333333 </v>
   <v>       0.16666667       0.50000000       0.08333333 </v>
   <v>       0.25000000       0.50000000       0.08333333 </v>
   <v>       0.33333333       0.50000000       0.08333333 </v>
   <v>       0.41666667       0.50000000       0.08333333 </v>
   <v>      -0.41666667       0.50000000       0.08333333 </v>
   <v>       0.16666667      -0.41666667       0.08333333 </v>
   <v>       0.25000000      -0.41666667       0.08333333 </v>
   <v>       0.33333333      -0.41666667       0.08333333 </v>
   <v>       0.41666667      -0.41666667       0.08333333 </v>
   <v>       0.50000000      -0.41666667       0.08333333 </v>
   <v>       0.16666667      -0.33333333       0.08333333 </v>
   <v>       0.25000000      -0.33333333       0.08333333 </v>
   <v>       0.33333333      -0.33333333       0.08333333 </v>
   <v>       0.41666667      -0.33333333       0.08333333 </v>
   <v>       0.16666667      -0.25000000       0.08333333 </v>
   <v>       0.25000000      -0.25000000       0.08333333 </v>
   <v>       0.33333333      -0.25000000       0.08333333 </v>
   <v>       0.16666667      -0.16666667       0.08333333 </v>
   <v>       0.25000000      -0.16666667       0.08333333 </v>
   <v>       0.16666667      -0.08333333       0.08333333 </v>
   <v>       0.16666667      -0.00000000       0.16666667 </v>
   <v>       0.25000000      -0.00000000       0.16666667 </v>
   <v>       0.33333333      -0.00000000       0.16666667 </v>
   <v>       0.41666667      -0.00000000       0.16666667 </v>
   <v>       0.50000000      -0.00000000       0.16666667 </v>
   <v>      -0.41666667       0.00000000       0.16666667 </v>
   <v>      -0.33333333      -0.00000000       0.16666667 </v>
   <v>      -0.25000000      -0.00000000       0.16666667 </v>
   <v>      -0.16666667       0.00000000       0.16666667 </v>
   <v>       0.50000000       0.33333333       0.16666667 </v>
   <v>      -0.41666667       0.33333333       0.16666667 </v>
   <v>      -0.33333333       0.33333333       0.16666667 </v>
   <v>       0.25000000       0.41666667       0.16666667 </v>
   <v>      -0.41666667       0.41666667       0.16666667 </v>
   <v>      -0.33333333       0.41666667       0.16666667 </v>
   <v>      -0.25000000       0.41666667       0.16666667 </v>
   <v>       0.25000000       0.50000000       0.16666667 </v>
   <v>       0.33333333       0.50000000       0.16666667 </v>
   <v>      -0.33333333       0.50000000       0.16666667 </v>
   <v>       0.25000000      -0.41666667       0.16666667 </v>
   <v>       0.33333333      -0.41666667       0.16666667 </v>
   <v>       0.41666667      -0.41666667       0.16666667 </v>
   <v>       0.25000000      -0.33333333       0.16666667 </v>
   <v>       0.33333333      -0.33333333       0.16666667 </v>
   <v>       0.41666667      -0.33333333       0.16666667 </v>
   <v>       0.50000000      -0.33333333       0.16666667 </v>
   <v>       0.25000000      -0.25000000       0.16666667 </v>
   <v>       0.33333333      -0.25000000       0.16666667 </v>
   <v>       0.41666667      -0.25000000       0.16666667 </v>
   <v>       0.25000000      -0.16666667       0.16666667 </v>
   <v>       0.33333333      -0.16666667       0.16666667 </v>
   <v>       0.25000000      -0.08333333       0.16666667 </v>
   <v>       0.25000000      -0.00000000       0.25000000 </v>
   <v>       0.33333333      -0.00000000       0.25000000 </v>
   <v>       0.41666667      -0.00000000       0.25000000 </v>
   <v>       0.50000000      -0.00000000       0.25000000 </v>
   <v>      -0.41666667       0.00000000       0.25000000 </v>
   <v>      -0.33333333      -0.00000000       0.25000000 </v>
   <v>      -0.25000000      -0.00000000       0.25000000 </v>
   <v>      -0.25000000       0.50000000       0.25000000 </v>
   <v>       0.33333333      -0.41666667       0.25000000 </v>
   <v>       0.33333333      -0.33333333       0.25000000 </v>
   <v>       0.41666667      -0.33333333       0.25000000 </v>
   <v>       0.33333333      -0.25000000       0.25000000 </v>
   <v>       0.41666667      -0.25000000       0.25000000 </v>
   <v>       0.50000000      -0.25000000       0.25000000 </v>
   <v>       0.33333333      -0.16666667       0.25000000 </v>
   <v>       0.41666667      -0.16666667       0.25000000 </v>
   <v>       0.33333333      -0.08333333       0.25000000 </v>
   <v>       0.33333333      -0.00000000       0.33333333 </v>
   <v>       0.41666667      -0.00000000       0.33333333 </v>
   <v>       0.50000000      -0.00000000       0.33333333 </v>
   <v>      -0.41666667       0.00000000       0.33333333 </v>
   <v>      -0.33333333       0.00000000       0.33333333 </v>
   <v>       0.41666667      -0.25000000       0.33333333 </v>
   <v>       0.41666667      -0.16666667       0.33333333 </v>
   <v>       0.50000000      -0.16666667       0.33333333 </v>
   <v>       0.41666667      -0.08333333       0.33333333 </v>
   <v>       0.41666667      -0.00000000       0.41666667 </v>
   <v>       0.50000000      -0.00000000       0.41666667 </v>
   <v>      -0.41666667      -0.00000000       0.41666667 </v>
   <v>       0.50000000      -0.08333333       0.41666667 </v>
   <v>       0.50000000      -0.00000000       0.50000000 </v>
  </varray>
  <varray name="weights" >
   <v>       0.00057870 </v>
   <v>       0.00462963 </v>
   <v>       0.00462963 </v>
   <v>       0.00462963 </v>
   <v>       0.00462963 </v>
   <v>       0.00462963 </v>
   <v>       0.00231481 </v>
   <v>       0.00231481 </v>
   <v>       0.00925926 </v>
   <v>       0.00925926 </v>
   <v>       0.00925926 </v>
   <v>       0.00925926 </v>
   <v>       0.00925926 </v>
   <v>       0.00925926 </v>
   <v>       0.00925926 </v>
   <v>       0.00925926 </v>
   <v>       0.00925926 </v>
   <v>       0.00462963 </v>
   <v>       0.00231481 </v>
   <v>       0.00925926 </v>
   <v>       0.00925926 </v>
   <v>       0.00925926 </v>
   <v>       0.00925926 </v>
   <v>       0.00925926 </v>
   <v>       0.00925926 </v>
   <v>       0.00925926 </v>
   <v>       0.00462963 </v>
   <v>       0.00231481 </v>
   <v>       0.00925926 </v>
   <v>       0.00925926 </v>
   <v>       0.00925926 </v>
   <v>       0.00925926 </v>
   <v>       0.00925926 </v>
   <v>       0.00462963 </v>
   <v>       0.00231481 </v>
   <v>       0.00925926 </v>
   <v>       0.00925926 </v>
   <v>       0.00925926 </v>
   <v>       0.00462963 </v>
   <v>       0.00231481 </v>
   <v>       0.00925926 </v>
   <v>       0.00462963 </v>
   <v>       0.00115741 </v>
   <v>       0.00115741 </v>
   <v>       0.00462963 </v>
   <v>       0.00462963 </v>
   <v>       0.00462963 </v>
   <v>       0.00462963 </v>
   <v>       0.00462963 </v>
   <v>       0.00462963 </v>
   <v>       0.00462963 </v>
   <v>       0.00462963 </v>
   <v>       0.00462963 </v>
   <v>       0.00231481 </v>
   <v>       0.00462963 </v>
   <v>       0.00925926 </v>
   <v>       0.00925926 </v>
   <v>       0.00925926 </v>
   <v>       0.00462963 </v>
   <v>       0.00462963 </v>
   <v>       0.00462963 </v>
   <v>       0.00925926 </v>
   <v>       0.00925926 </v>
   <v>       0.00925926 </v>
   <v>       0.00925926 </v>
   <v>       0.00925926 </v>
   <v>       0.00462963 </v>
   <v>       0.00925926 </v>
   <v>       0.00462963 </v>
   <v>       0.00462963 </v>
   <v>       0.00925926 </v>
   <v>       0.00925926 </v>
   <v>       0.00925926 </v>
   <v>       0.00462963 </v>
   <v>       0.00925926 </v>
   <v>       0.00925926 </v>
   <v>       0.00462963 </v>
   <v>       0.00462963 </v>
   <v>       0.00925926 </v>
   <v>       0.00462963 </v>
   <v>       0.00925926 </v>
   <v>       0.00925926 </v>
   <v>       0.00925926 </v>
   <v>       0.00462963 </v>
   <v>       0.00231481 </v>
   <v>       0.00925926 </v>
   <v>       0.00925926 </v>
   <v>       0.00925926 </v>
   <v>       0.00925926 </v>
   <v>       0.00231481 </v>
   <v>       0.00925926 </v>
   <v>       0.00925926 </v>
   <v>       0.00925926 </v>
   <v>       0.00462963 </v>
   <v>       0.00925926 </v>
   <v>       0.00925926 </v>
   <v>       0.00462963 </v>
   <v>       0.00925926 </v>
   <v>       0.00462963 </v>
   <v>       0.00462963 </v>
   <v>       0.00115741 </v>
   <v>       0.00462963 </v>
   <v>       0.00462963 </v>
   <v>       0.00462963 </v>
   <v>       0.00462963 </v>
   <v>       0.00462963 </v>
   <v>       0.00462963 </v>
   <v>       0.00462963 </v>
   <v>       0.00231481 </v>
   <v>       0.00462963 </v>
   <v>       0.00925926 </v>
   <v>       0.00462963 </v>
   <v>       0.00462963 </v>
   <v>       0.00462963 </v>
   <v>       0.00925926 </v>
   <v>       0.00462963 </v>
   <v>       0.00925926 </v>
   <v>       0.00462963 </v>
   <v>       0.00231481 </v>
   <v>       0.00925926 </v>
   <v>       0.00925926 </v>
   <v>       0.00462963 </v>
   <v>       0.00925926 </v>
   <v>       0.00925926 </v>
   <v>       0.00925926 </v>
   <v>       0.00231481 </v>
   <v>       0.00925926 </v>
   <v>       0.00925926 </v>
   <v>       0.00462963 </v>
   <v>       0.00925926 </v>
   <v>       0.00462963 </v>
   <v>       0.00462963 </v>
   <v>       0.00115741 </v>
   <v>       0.00462963 </v>
   <v>       0.00462963 </v>
   <v>       0.00462963 </v>
   <v>       0.00462963 </v>
   <v>       0.00462963 </v>
   <v>       0.00231481 </v>
   <v>       0.00115741 </v>
   <v>       0.00462963 </v>
   <v>       0.00925926 </v>
   <v>       0.00462963 </v>
   <v>       0.00925926 </v>
   <v>       0.00925926 </v>
   <v>       0.00231481 </v>
   <v>       0.00925926 </v>
   <v>       0.00462963 </v>
   <v>       0.00462963 </v>
   <v>       0.00115741 </v>
   <v>       0.00462963 </v>
   <v>       0.00462963 </v>
   <v>       0.00462963 </v>
   <v>       0.00231481 </v>
   <v>       0.00462963 </v>
   <v>       0.00925926 </v>
   <v>       0.00231481 </v>
   <v>       0.00462963 </v>
   <v>       0.00115741 </v>
   <v>       0.00462963 </v>
   <v>       0.00231481 </v>
   <v>       0.00231481 </v>
   <v>       0.00057870 </v>
  </varray>
 </kpoints>
 <parameters>
  <separator name="general" >
   <i type="string" name="SYSTEM">unknown system</i>
   <i type="logical" name="LCOMPAT"> F  </i>
  </separator>
  <separator name="electronic" >
   <i type="string" name="PREC">accura</i>
   <i name="ENMAX">    520.00000000</i>
   <i name="ENAUG">    613.61400000</i>
   <i name="EDIFF">      0.00000001</i>
   <i type="int" name="IALGO">    38</i>
   <i type="int" name="IWAVPR">    11</i>
   <i type="int" name="NBANDS">    16</i>
   <i name="NELECT">     16.00000000</i>
   <i type="int" name="TURBO">     0</i>
   <i type="int" name="IRESTART">     0</i>
   <i type="int" name="NREBOOT">     0</i>
   <i type="int" name="NMIN">     0</i>
   <i name="EREF">      0.00000000</i>
   <separator name="electronic smearing" >
    <i type="int" name="ISMEAR">     0</i>
    <i name="SIGMA">      0.01000000</i>
    <i name="KSPACING">      0.50000000</i>
    <i type="logical" name="KGAMMA"> T  </i>
   </separator>
   <separator name="electronic projectors" >
    <i type="logical" name="LREAL"> F  </i>
    <v name="ROPT">      0.00000000      0.00000000</v>
    <i type="int" name="LMAXPAW">  -100</i>
    <i type="int" name="LMAXMIX">     2</i>
    <i type="logical" name="NLSPLINE"> F  </i>
   </separator>
   <separator name="electronic startup" >
    <i type="int" name="ISTART">     0</i>
    <i type="int" name="ICHARG">     2</i>
    <i type="int" name="INIWAV">     1</i>
   </separator>
   <separator name="electronic spin" >
    <i type="int" name="ISPIN">     1</i>
    <i type="logical" name="LNONCOLLINEAR"> F  </i>
    <v name="MAGMOM">      1.00000000      1.00000000</v>
    <i name="NUPDOWN">     -1.00000000</i>
    <i type="logical" name="LSORBIT"> F  </i>
    <v name="SAXIS">      0.00000000      0.00000000      1.00000000</v>
    <i type="logical" name="LSPIRAL"> F  </i>
    <v name="QSPIRAL">      0.00000000      0.00000000      0.00000000</v>
    <i type="logical" name="LZEROZ"> F  </i>
   </separator>
   <separator name="electronic exchange-correlation" >
    <i type="logical" name="LASPH"> F  </i>
    <i type="logical" name="LMETAGGA"> F  </i>
   </separator>
   <separator name="electronic convergence" >
    <i type="int" name="NELM">   100</i>
    <i type="int" name="NELMDL">    -5</i>
    <i type="int" name="NELMIN">     2</i>
    <i name="ENINI">    520.00000000</i>
    <separator name="electronic convergence detail" >
     <i type="logical" name="LDIAG"> T  </i>
     <i type="logical" name="LSUBROT"> F  </i>
     <i name="WEIMIN">      0.00100000</i>
     <i name="EBREAK">      0.00000000</i>
     <i name="DEPER">      0.30000000</i>
     <i type="int" name="NRMM">     4</i>
     <i name="TIME">      0.40000000</i>
    </separator>
   </separator>
   <separator name="electronic mixer" >
    <i name="AMIX">      0.40000000</i>
    <i name="BMIX">      1.00000000</i>
    <i name="AMIN">      0.10000000</i>
    <i name="AMIX_MAG">      1.60000000</i>
    <i name="BMIX_MAG">      1.00000000</i>
    <separator name="electronic mixer details" >
     <i type="int" name="IMIX">     4</i>
     <i type="logical" name="MIXFIRST"> F  </i>
     <i type="int" name="MAXMIX">   -45</i>
     <i name="WC">    100.00000000</i>
     <i type="int" name="INIMIX">     1</i>
     <i type="int" name="MIXPRE">     1</i>
     <i type="int" name="MREMOVE">     5</i>
    </separator>
   </separator>
   <separator name="electronic dipolcorrection" >
    <i type="logical" name="LDIPOL"> F  </i>
    <i type="logical" name="LMONO"> F  </i>
    <i type="int" name="IDIPOL">     0</i>
    <i name="EPSILON">      1.00000000</i>
    <v name="DIPOL">   -100.00000000   -100.00000000   -100.00000000</v>
    <i name="EFIELD">      0.00000000</i>
   </separator>
  </separator>
  <separator name="grids" >
   <i type="int" name="NGX">    32</i>
   <i type="int" name="NGY">    32</i>
   <i type="int" name="NGZ">    32</i>
   <i type="int" name="NGXF">    64</i>
   <i type="int" name="NGYF">    64</i>
   <i type="int" name="NGZF">    64</i>
   <i type="logical" name="ADDGRID"> F  </i>
  </separator>
  <separator name="ionic" >
   <i type="int" name="NSW">     1</i>
   <i type="int" name="IBRION">     8</i>
   <i type="int" name="MDALGO">     0</i>
   <i type="int" name="ISIF">     2</i>
   <i name="PSTRESS">      0.00000000</i>
   <i name="EDIFFG">      0.00000010</i>
   <i type="int" name="NFREE">     0</i>
   <i name="POTIM">      0.50000000</i>
   <i name="SMASS">     -3.00000000</i>
   <i name="SCALEE">      1.00000000</i>
  </separator>
  <separator name="ionic md" >
   <i name="TEBEG">      0.00010000</i>
   <i name="TEEND">      0.00010000</i>
   <i type="int" name="NBLOCK">     1</i>
   <i type="int" name="KBLOCK">     1</i>
   <i type="int" name="NPACO">   256</i>
   <i name="APACO">     16.00000000</i>
  </separator>
  <separator name="symmetry" >
   <i type="int" name="ISYM">     2</i>
   <i name="SYMPREC">      0.00000001</i>
  </separator>
  <separator name="dos" >
   <i type="int" name="LORBIT">     0</i>
   <v name="RWIGS">     -1.00000000     -1.00000000</v>
   <i type="int" name="NEDOS">   301</i>
   <i name="EMIN">     10.00000000</i>
   <i name="EMAX">    -10.00000000</i>
   <i name="EFERMI">      0.00000000</i>
  </separator>
  <separator name="writing" >
   <i type="int" name="NWRITE">     2</i>
   <i type="logical" name="LWAVE"> F  </i>
   <i type="logical" name="LDOWNSAMPLE"> F  </i>
   <i type="logical" name="LCHARG"> T  </i>
   <i type="logical" name="LPARD"> F  </i>
   <i type="logical" name="LVTOT"> F  </i>
   <i type="logical" name="LVHAR"> F  </i>
   <i type="logical" name="LELF"> F  </i>
   <i type="logical" name="LOPTICS"> F  </i>
   <v name="STM">      0.00000000      0.00000000      0.00000000      0.00000000      0.00000000      0.00000000      0.00000000</v>
  </separator>
  <separator name="performance" >
   <i type="int" name="NPAR">     8</i>
   <i type="int" name="NSIM">     4</i>
   <i type="int" name="NBLK">    -1</i>
   <i type="logical" name="LPLANE"> T  </i>
   <i type="logical" name="LSCALAPACK"> T  </i>
   <i type="logical" name="LSCAAWARE"> F  </i>
   <i type="logical" name="LSCALU"> F  </i>
   <i type="logical" name="LASYNC"> F  </i>
   <i type="logical" name="LORBITALREAL"> F  </i>
  </separator>
  <separator name="miscellaneous" >
   <i type="int" name="IDIOT">     3</i>
   <i type="int" name="ISPECIAL">     0</i>
   <i type="logical" name="LMUSIC"> F  </i>
   <v name="POMASS">    132.90000000     18.99800000</v>
   <v name="DARWINR">      0.00000000      0.00000000</v>
   <v name="DARWINV">      1.00000000      1.00000000</v>
   <i type="logical" name="LCORR"> T  </i>
  </separator>
  <i type="logical" name="GGA_COMPAT"> T  </i>
  <i type="logical" name="LBERRY"> F  </i>
  <i type="int" name="ICORELEVEL">     0</i>
  <i type="logical" name="LDAU"> F  </i>
  <i type="int" name="I_CONSTRAINED_M">     0</i>
  <separator name="electronic exchange-correlation" >
   <i type="string" name="GGA">--</i>
   <i type="int" name="VOSKOWN">     0</i>
   <i type="logical" name="LHFCALC"> F  </i>
   <i type="string" name="PRECFOCK"></i>
   <i type="logical" name="LSYMGRAD"> F  </i>
   <i type="logical" name="LHFONE"> F  </i>
   <i type="logical" name="LRHFCALC"> F  </i>
   <i type="logical" name="LTHOMAS"> F  </i>
   <i type="logical" name="LMODELHF"> F  </i>
   <i name="ENCUT4O">     -1.00000000</i>
   <i type="int" name="EXXOEP">     0</i>
   <i type="int" name="FOURORBIT">     0</i>
   <i name="AEXX">      0.00000000</i>
   <i name="HFALPHA">      0.00000000</i>
   <i name="MCALPHA">      0.00000000</i>
   <i name="ALDAX">      1.00000000</i>
   <i name="AGGAX">      1.00000000</i>
   <i name="ALDAC">      1.00000000</i>
   <i name="AGGAC">      1.00000000</i>
   <i type="int" name="NKREDX">     1</i>
   <i type="int" name="NKREDY">     1</i>
   <i type="int" name="NKREDZ">     1</i>
   <i type="logical" name="SHIFTRED"> F  </i>
   <i type="logical" name="ODDONLY"> F  </i>
   <i type="logical" name="EVENONLY"> F  </i>
   <i type="int" name="LMAXFOCK">     0</i>
   <i type="int" name="NMAXFOCKAE">     0</i>
   <i type="logical" name="LFOCKAEDFT"> F  </i>
   <i name="HFSCREEN">      0.00000000</i>
   <i name="HFSCREENC">      0.00000000</i>
   <i type="int" name="NBANDSGWLOW">     0</i>
  </separator>
  <separator name="vdW DFT" >
   <i type="logical" name="LUSE_VDW"> F  </i>
   <i name="Zab_VDW">     -0.84910000</i>
   <i name="PARAM1">      0.12340000</i>
   <i name="PARAM2">      1.00000000</i>
   <i name="PARAM3">      0.00000000</i>
  </separator>
  <separator name="model GW" >
   <i type="int" name="MODEL_GW">     0</i>
   <i name="MODEL_EPS0">     16.29966025</i>
   <i name="MODEL_ALPHA">      1.00000000</i>
  </separator>
  <separator name="linear response parameters" >
   <i type="logical" name="LEPSILON"> T  </i>
   <i type="logical" name="LRPA"> F  </i>
   <i type="logical" name="LNABLA"> F  </i>
   <i type="logical" name="LVEL"> F  </i>
   <i type="int" name="KINTER">     0</i>
   <i name="CSHIFT">      0.10000000</i>
   <i name="OMEGAMAX">     -1.00000000</i>
   <i name="DEG_THRESHOLD">      0.00200000</i>
   <i name="RTIME">     -0.10000000</i>
   <i name="WPLASMAI">      0.00000000</i>
   <v name="DFIELD">      0.00000000      0.00000000      0.00000000</v>
   <v name="WPLASMA">      0.00000000      0.00000000      0.00000000      0.00000000      0.00000000      0.00000000      0.00000000      0.00000000      0.00000000</v>
  </separator>
  <separator name="orbital magnetization" >
   <i type="logical" name="NUCIND"> F  </i>
   <v name="MAGPOS">      0.00000000      0.00000000      0.00000000</v>
   <i type="logical" name="LNICSALL"> T  </i>
   <i type="logical" name="ORBITALMAG"> F  </i>
   <i type="logical" name="LMAGBLOCH"> F  </i>
   <i type="logical" name="LCHIMAG"> F  </i>
   <i type="logical" name="LGAUGE"> T  </i>
   <i type="int" name="MAGATOM">     0</i>
   <v name="MAGDIPOL">      0.00000000      0.00000000      0.00000000</v>
   <v name="AVECCONST">      0.00000000      0.00000000      0.00000000</v>
  </separator>
  <separator name="response functions" >
   <i type="logical" name="LADDER"> F  </i>
   <i type="logical" name="LRPAFORCE"> F  </i>
   <i type="logical" name="LFXC"> F  </i>
   <i type="logical" name="LHARTREE"> T  </i>
   <i type="int" name="IBSE">     0</i>
   <v type="int" name="KPOINT">    -1     0     0     0</v>
   <i type="logical" name="LTCTE"> F  </i>
   <i type="logical" name="LTETE"> F  </i>
   <i type="logical" name="LTRIPLET"> F  </i>
   <i type="logical" name="LFXCEPS"> F  </i>
   <i type="logical" name="LFXHEG"> F  </i>
   <i type="int" name="NATURALO">     2</i>
   <i type="logical" name="L2ORDER"> F  </i>
   <i type="logical" name="LMP2LT"> F  </i>
   <i type="logical" name="LUSEW"> F  </i>
   <i name="ENCUTGW">     -2.00000000</i>
   <i name="ENCUTGWSOFT">     -2.00000000</i>
   <i name="ENCUTLF">     -1.00000000</i>
   <i type="int" name="LMAXMP2">    -1</i>
   <i name="SCISSOR">      0.00000000</i>
   <i type="int" name="NOMEGA">     0</i>
   <i type="int" name="NOMEGAR">     0</i>
   <i type="int" name="NBANDSGW">    -1</i>
   <i type="int" name="NBANDSO">    -1</i>
   <i type="int" name="NBANDSV">    -1</i>
   <i type="int" name="NELM">   100</i>
   <i type="int" name="NELMHF">     1</i>
   <i type="int" name="DIM">     3</i>
   <i type="int" name="ANTIRES">     0</i>
   <i name="OMEGAMAX">    -30.00000000</i>
   <i name="OMEGAMIN">    -30.00000000</i>
   <i name="OMEGATL">   -200.00000000</i>
   <i type="int" name="OMEGAGRID">   140</i>
   <i name="CSHIFT">     -0.10000000</i>
   <i type="logical" name="SELFENERGY"> F  </i>
   <i type="logical" name="LSPECTRAL"> F  </i>
   <i type="logical" name="LSPECTRALGW"> F  </i>
   <i type="logical" name="LSINGLES"> F  </i>
   <i type="logical" name="LFERMIGW"> F  </i>
   <i type="logical" name="ODDONLYGW"> F  </i>
   <i type="logical" name="EVENONLYGW"> F  </i>
   <i type="int" name="NKREDLFX">     1</i>
   <i type="int" name="NKREDLFY">     1</i>
   <i type="int" name="NKREDLFZ">     1</i>
   <i type="int" name="MAXMEM">  2800</i>
   <i type="int" name="TELESCOPE">     0</i>
   <i type="int" name="TAUPAR">     1</i>
   <i type="int" name="OMEGAPAR">    -1</i>
   <i name="LAMBDA">      1.00000000</i>
  </separator>
  <separator name="External order field" >
   <i name="OFIELD_KAPPA">      0.00000000</i>
   <v name="OFIELD_K">      0.00000000      0.00000000      0.00000000</v>
   <i name="OFIELD_Q6_NEAR">      0.00000000</i>
   <i name="OFIELD_Q6_FAR">      0.00000000</i>
   <i name="OFIELD_A">      0.00000000</i>
  </separator>
 </parameters>
 <atominfo>
  <atoms>       2 </atoms>
  <types>       2 </types>
  <array name="atoms" >
   <dimension dim="1">ion</dimension>
   <field type="string">element</field>
   <field type="int">atomtype</field>
   <set>
    <rc><c>Cs</c><c>   1</c></rc>
    <rc><c>F </c><c>   2</c></rc>
   </set>
  </array>
  <array name="atomtypes" >
   <dimension dim="1">type</dimension>
   <field type="int">atomspertype</field>
   <field type="string">element</field>
   <field>mass</field>
   <field>valence</field>
   <field type="string">pseudopotential</field>
   <set>
    <rc><c>   1</c><c>Cs</c><c>    132.90000000</c><c>      9.00000000</c><c>  PAW_PBE Cs_sv 08Apr2002               </c></rc>
    <rc><c>   1</c><c>F </c><c>     18.99800000</c><c>      7.00000000</c><c>  PAW_PBE F 08Apr2002                   </c></rc>
   </set>
  </array>
 </atominfo>
 <structure name="initialpos" >
  <crystal>
   <varray name="basis" >
    <v>      -3.00613930       0.00000000       3.00613930 </v>
    <v>       0.00000000       3.00613930       3.00613930 </v>
    <v>      -3.00613930       3.00613930       0.00000000 </v>
   </varray>
   <i name="volume">     54.33220084 </i>
   <varray name="rec_basis" >
    <v>      -0.16632629      -0.16632629       0.16632629 </v>
    <v>       0.16632629       0.16632629       0.16632629 </v>
    <v>      -0.16632629       0.16632629      -0.16632629 </v>
   </varray>
  </crystal>
  <varray name="positions" >
   <v>       0.00000000       0.00000000       0.00000000 </v>
   <v>       0.49999996       0.50000004       0.49999996 </v>
  </varray>
 </structure>
 <calculation>
  <scstep>
   <time name="dav">    1.14    1.14</time>
   <time name="total">    1.17    1.18</time>
   <energy>
    <i name="alphaZ">     66.20822231 </i>
    <i name="ewald">   -878.19592830 </i>
    <i name="hartreedc">   -309.36223039 </i>
    <i name="XCdc">     47.61321099 </i>
    <i name="pawpsdc">    963.90352227 </i>
    <i name="pawaedc">   -962.02189735 </i>
    <i name="eentropy">     -0.00003801 </i>
    <i name="bandstr">    -60.42386144 </i>
    <i name="atom">   1215.29710090 </i>
    <i name="e_fr_energy">     83.01810099 </i>
    <i name="e_wo_entrp">     83.01813900 </i>
    <i name="e_0_energy">     83.01811999 </i>
   </energy>
  </scstep>
  <scstep>
   <time name="dav">    1.40    1.41</time>
   <time name="total">    1.40    1.41</time>
   <energy>
    <i name="e_fr_energy">     -4.84125001 </i>
    <i name="e_wo_entrp">     -4.84125001 </i>
    <i name="e_0_energy">     -4.84125001 </i>
   </energy>
  </scstep>
  <scstep>
   <time name="dav">    1.26    1.27</time>
   <time name="total">    1.26    1.27</time>
   <energy>
    <i name="e_fr_energy">     -9.52625404 </i>
    <i name="e_wo_entrp">     -9.52625404 </i>
    <i name="e_0_energy">     -9.52625404 </i>
   </energy>
  </scstep>
  <scstep>
   <time name="dav">    1.34    1.35</time>
   <time name="total">    1.34    1.35</time>
   <energy>
    <i name="e_fr_energy">     -9.54720830 </i>
    <i name="e_wo_entrp">     -9.54720830 </i>
    <i name="e_0_energy">     -9.54720830 </i>
   </energy>
  </scstep>
  <scstep>
   <time name="dav">    1.24    1.25</time>
   <time name="total">    1.30    1.31</time>
   <energy>
    <i name="e_fr_energy">     -9.54729649 </i>
    <i name="e_wo_entrp">     -9.54729649 </i>
    <i name="e_0_energy">     -9.54729649 </i>
   </energy>
  </scstep>
  <scstep>
   <time name="dav">    1.26    1.27</time>
   <time name="total">    1.34    1.35</time>
   <energy>
    <i name="e_fr_energy">     -8.00235675 </i>
    <i name="e_wo_entrp">     -8.00235675 </i>
    <i name="e_0_energy">     -8.00235675 </i>
   </energy>
  </scstep>
  <scstep>
   <time name="dav">    1.20    1.21</time>
   <time name="total">    1.29    1.30</time>
   <energy>
    <i name="e_fr_energy">     -7.95696892 </i>
    <i name="e_wo_entrp">     -7.95696892 </i>
    <i name="e_0_energy">     -7.95696892 </i>
   </energy>
  </scstep>
  <scstep>
   <time name="dav">    1.26    1.27</time>
   <time name="total">    1.33    1.34</time>
   <energy>
    <i name="e_fr_energy">     -7.93451123 </i>
    <i name="e_wo_entrp">     -7.93451123 </i>
    <i name="e_0_energy">     -7.93451123 </i>
   </energy>
  </scstep>
  <scstep>
   <time name="dav">    1.41    1.42</time>
   <time name="total">    1.48    1.50</time>
   <energy>
    <i name="e_fr_energy">     -7.93433174 </i>
    <i name="e_wo_entrp">     -7.93433174 </i>
    <i name="e_0_energy">     -7.93433174 </i>
   </energy>
  </scstep>
  <scstep>
   <time name="dav">    1.28    1.31</time>
   <time name="total">    1.37    1.40</time>
   <energy>
    <i name="e_fr_energy">     -7.93486258 </i>
    <i name="e_wo_entrp">     -7.93486258 </i>
    <i name="e_0_energy">     -7.93486258 </i>
   </energy>
  </scstep>
  <scstep>
   <time name="dav">    1.28    1.29</time>
   <time name="total">    1.36    1.37</time>
   <energy>
    <i name="e_fr_energy">     -7.93444941 </i>
    <i name="e_wo_entrp">     -7.93444941 </i>
    <i name="e_0_energy">     -7.93444941 </i>
   </energy>
  </scstep>
  <scstep>
   <time name="dav">    1.22    1.23</time>
   <time name="total">    1.31    1.32</time>
   <energy>
    <i name="e_fr_energy">     -7.93446481 </i>
    <i name="e_wo_entrp">     -7.93446481 </i>
    <i name="e_0_energy">     -7.93446481 </i>
   </energy>
  </scstep>
  <scstep>
   <time name="dav">    1.41    1.42</time>
   <time name="total">    1.49    1.50</time>
   <energy>
    <i name="e_fr_energy">     -7.93446833 </i>
    <i name="e_wo_entrp">     -7.93446833 </i>
    <i name="e_0_energy">     -7.93446833 </i>
   </energy>
  </scstep>
  <scstep>
   <time name="dav">    1.35    1.37</time>
   <time name="total">    1.46    1.48</time>
   <energy>
    <i name="e_fr_energy">     -7.93446646 </i>
    <i name="e_wo_entrp">     -7.93446646 </i>
    <i name="e_0_energy">     -7.93446646 </i>
   </energy>
  </scstep>
  <scstep>
   <time name="dav">    1.22    1.24</time>
   <time name="total">    1.31    1.33</time>
   <energy>
    <i name="e_fr_energy">     -7.93446620 </i>
    <i name="e_wo_entrp">     -7.93446620 </i>
    <i name="e_0_energy">     -7.93446620 </i>
   </energy>
  </scstep>
  <scstep>
   <time name="dav">    1.44    1.45</time>
   <time name="total">    1.51    1.52</time>
   <energy>
    <i name="e_fr_energy">     -7.93446617 </i>
    <i name="e_wo_entrp">     -7.93446617 </i>
    <i name="e_0_energy">     -7.93446617 </i>
   </energy>
  </scstep>
  <scstep>
   <time name="dav">    0.89    0.90</time>
   <time name="total">    0.97    0.99</time>
   <energy>
    <i name="e_fr_energy">     -7.93446614 </i>
    <i name="e_wo_entrp">     -7.93446614 </i>
    <i name="e_0_energy">     -7.93446614 </i>
   </energy>
  </scstep>
  <scstep>
   <time name="dav">    0.90    0.91</time>
   <time name="total">    0.92    0.93</time>
   <energy>
    <i name="alphaZ">     66.20822231 </i>
    <i name="ewald">   -878.19592830 </i>
    <i name="hartreedc">   -334.77338021 </i>
    <i name="XCdc">     48.88783283 </i>
    <i name="pawpsdc">   1020.39673669 </i>
    <i name="pawaedc">  -1018.82365754 </i>
    <i name="eentropy">     -0.00000000 </i>
    <i name="bandstr">   -126.93139284 </i>
    <i name="atom">   1215.29710090 </i>
    <i name="e_fr_energy">     -7.93446615 </i>
    <i name="e_wo_entrp">     -7.93446615 </i>
    <i name="e_0_energy">     -7.93446615 </i>
   </energy>
  </scstep>
  <structure>
   <crystal>
    <varray name="basis" >
     <v>      -3.00613930       0.00000000       3.00613930 </v>
     <v>       0.00000000       3.00613930       3.00613930 </v>
     <v>      -3.00613930       3.00613930       0.00000000 </v>
    </varray>
    <i name="volume">     54.33220084 </i>
    <varray name="rec_basis" >
     <v>      -0.16632629      -0.16632629       0.16632629 </v>
     <v>       0.16632629       0.16632629       0.16632629 </v>
     <v>      -0.16632629       0.16632629      -0.16632629 </v>
    </varray>
   </crystal>
   <varray name="positions" >
    <v>       0.00000000       0.00000000       0.00000000 </v>
    <v>       0.49999996       0.50000004       0.49999996 </v>
   </varray>
  </structure>
  <varray name="forces" >
   <v>       0.00000024       0.00000000       0.00000000 </v>
   <v>      -0.00000024      -0.00000000      -0.00000000 </v>
  </varray>
  <varray name="stress" >
   <v>      12.55638554      -0.00000000       0.00000000 </v>
   <v>      -0.00000000      12.55637985       0.00000000 </v>
   <v>       0.00000000      -0.00000000      12.55637985 </v>
  </varray>
  <energy>
   <i name="e_fr_energy">     -7.93446615 </i>
   <i name="e_wo_entrp">     -7.93446615 </i>
   <i name="e_0_energy">     -0.00000000 </i>
  </energy>
  <scstep>
   <time name="total">    1.06    1.07</time>
   <energy>
    <i name="e_fr_energy">     -0.23451678 </i>
    <i name="e_wo_entrp">     -0.23451678 </i>
    <i name="e_0_energy">     -0.23451678 </i>
   </energy>
  </scstep>
  <scstep>
   <time name="total">    0.97    0.97</time>
   <energy>
    <i name="e_fr_energy">     -0.23400021 </i>
    <i name="e_wo_entrp">     -0.23400021 </i>
    <i name="e_0_energy">     -0.23400021 </i>
   </energy>
  </scstep>
  <scstep>
   <time name="total">    0.97    0.98</time>
   <energy>
    <i name="e_fr_energy">     -0.23399469 </i>
    <i name="e_wo_entrp">     -0.23399469 </i>
    <i name="e_0_energy">     -0.23399469 </i>
   </energy>
  </scstep>
  <scstep>
   <time name="total">    0.94    0.95</time>
   <energy>
    <i name="e_fr_energy">     -0.23399469 </i>
    <i name="e_wo_entrp">     -0.23399469 </i>
    <i name="e_0_energy">     -0.23399469 </i>
   </energy>
  </scstep>
  <scstep>
   <time name="total">    1.12    1.12</time>
   <energy>
    <i name="e_fr_energy">     -0.23383087 </i>
    <i name="e_wo_entrp">     -0.23383087 </i>
    <i name="e_0_energy">     -0.23383087 </i>
   </energy>
  </scstep>
  <scstep>
   <time name="total">    0.98    0.98</time>
   <energy>
    <i name="e_fr_energy">     -0.23302281 </i>
    <i name="e_wo_entrp">     -0.23302281 </i>
    <i name="e_0_energy">     -0.23302281 </i>
   </energy>
  </scstep>
  <scstep>
   <time name="total">    0.97    0.98</time>
   <energy>
    <i name="e_fr_energy">     -0.23301493 </i>
    <i name="e_wo_entrp">     -0.23301493 </i>
    <i name="e_0_energy">     -0.23301493 </i>
   </energy>
  </scstep>
  <scstep>
   <time name="total">    0.98    0.99</time>
   <energy>
    <i name="e_fr_energy">     -0.23301492 </i>
    <i name="e_wo_entrp">     -0.23301492 </i>
    <i name="e_0_energy">     -0.23301492 </i>
   </energy>
  </scstep>
  <scstep>
   <time name="total">    0.91    0.91</time>
   <energy>
    <i name="e_fr_energy">     -0.23301492 </i>
    <i name="e_wo_entrp">     -0.23301492 </i>
    <i name="e_0_energy">     -0.23301492 </i>
   </energy>
  </scstep>
  <scstep>
   <time name="total">    1.10    1.10</time>
   <energy>
    <i name="e_fr_energy">     -0.23519820 </i>
    <i name="e_wo_entrp">     -0.23519820 </i>
    <i name="e_0_energy">     -0.23519820 </i>
   </energy>
  </scstep>
  <scstep>
   <time name="total">    0.95    0.96</time>
   <energy>
    <i name="e_fr_energy">     -0.23497900 </i>
    <i name="e_wo_entrp">     -0.23497900 </i>
    <i name="e_0_energy">     -0.23497900 </i>
   </energy>
  </scstep>
  <scstep>
   <time name="total">    0.92    0.93</time>
   <energy>
    <i name="e_fr_energy">     -0.23497581 </i>
    <i name="e_wo_entrp">     -0.23497581 </i>
    <i name="e_0_energy">     -0.23497581 </i>
   </energy>
  </scstep>
  <scstep>
   <time name="total">    0.98    0.98</time>
   <energy>
    <i name="e_fr_energy">     -0.23497583 </i>
    <i name="e_wo_entrp">     -0.23497583 </i>
    <i name="e_0_energy">     -0.23497583 </i>
   </energy>
  </scstep>
  <scstep>
   <time name="total">    0.86    0.87</time>
   <energy>
    <i name="e_fr_energy">     -0.23497583 </i>
    <i name="e_wo_entrp">     -0.23497583 </i>
    <i name="e_0_energy">     -0.23497583 </i>
   </energy>
  </scstep>
  <varray name="epsilon_rpa" >
   <v>       2.55863798      -0.00000000       0.00000000 </v>
   <v>      -0.00000000       2.55864043      -0.00000000 </v>
   <v>       0.00000000      -0.00000000       2.55864043 </v>
  </varray>
  <kpoints>
   <generation param="Gamma">
    <v type="int" name="divisions">      12       12       12 </v>
    <v name="usershift">      0.00000000       0.00000000       0.00000000 </v>
    <v name="genvec1">      0.08333333      -0.00000000      -0.00000000 </v>
    <v name="genvec2">     -0.00000000       0.08333333       0.00000000 </v>
    <v name="genvec3">      0.00000000       0.00000000       0.08333333 </v>
    <v name="shift">      0.00000000       0.00000000       0.00000000 </v>
   </generation>
   <varray name="kpointlist" >
    <v>       0.00000000       0.00000000       0.00000000 </v>
    <v>       0.08333333       0.00000000      -0.00000000 </v>
    <v>       0.16666667      -0.00000000       0.00000000 </v>
    <v>       0.25000000       0.00000000       0.00000000 </v>
    <v>       0.33333333      -0.00000000      -0.00000000 </v>
    <v>       0.41666667       0.00000000      -0.00000000 </v>
    <v>       0.50000000       0.00000000       0.00000000 </v>
    <v>       0.08333333       0.08333333      -0.00000000 </v>
    <v>       0.16666667       0.08333333      -0.00000000 </v>
    <v>       0.25000000       0.08333333      -0.00000000 </v>
    <v>       0.33333333       0.08333333       0.00000000 </v>
    <v>       0.41666667       0.08333333      -0.00000000 </v>
    <v>       0.50000000       0.08333333      -0.00000000 </v>
    <v>      -0.41666667       0.08333333      -0.00000000 </v>
    <v>      -0.33333333       0.08333333       0.00000000 </v>
    <v>      -0.25000000       0.08333333       0.00000000 </v>
    <v>      -0.16666667       0.08333333      -0.00000000 </v>
    <v>      -0.08333333       0.08333333      -0.00000000 </v>
    <v>       0.16666667       0.16666667      -0.00000000 </v>
    <v>       0.25000000       0.16666667      -0.00000000 </v>
    <v>       0.33333333       0.16666667      -0.00000000 </v>
    <v>       0.41666667       0.16666667       0.00000000 </v>
    <v>       0.50000000       0.16666667      -0.00000000 </v>
    <v>      -0.41666667       0.16666667      -0.00000000 </v>
    <v>      -0.33333333       0.16666667      -0.00000000 </v>
    <v>      -0.25000000       0.16666667       0.00000000 </v>
    <v>      -0.16666667       0.16666667      -0.00000000 </v>
    <v>       0.25000000       0.25000000      -0.00000000 </v>
    <v>       0.33333333       0.25000000      -0.00000000 </v>
    <v>       0.41666667       0.25000000      -0.00000000 </v>
    <v>       0.50000000       0.25000000      -0.00000000 </v>
    <v>      -0.41666667       0.25000000      -0.00000000 </v>
    <v>      -0.33333333       0.25000000       0.00000000 </v>
    <v>      -0.25000000       0.25000000      -0.00000000 </v>
    <v>       0.33333333       0.33333333      -0.00000000 </v>
    <v>       0.41666667       0.33333333      -0.00000000 </v>
    <v>       0.50000000       0.33333333      -0.00000000 </v>
    <v>      -0.41666667       0.33333333       0.00000000 </v>
    <v>      -0.33333333       0.33333333       0.00000000 </v>
    <v>       0.41666667       0.41666667      -0.00000000 </v>
    <v>       0.50000000       0.41666667      -0.00000000 </v>
    <v>      -0.41666667       0.41666667      -0.00000000 </v>
    <v>       0.50000000       0.50000000      -0.00000000 </v>
    <v>       0.08333333      -0.00000000       0.08333333 </v>
    <v>       0.16666667      -0.00000000       0.08333333 </v>
    <v>       0.25000000       0.00000000       0.08333333 </v>
    <v>       0.33333333       0.00000000       0.08333333 </v>
    <v>       0.41666667      -0.00000000       0.08333333 </v>
    <v>       0.50000000       0.00000000       0.08333333 </v>
    <v>      -0.41666667      -0.00000000       0.08333333 </v>
    <v>      -0.33333333       0.00000000       0.08333333 </v>
    <v>      -0.25000000       0.00000000       0.08333333 </v>
    <v>      -0.16666667       0.00000000       0.08333333 </v>
    <v>      -0.08333333      -0.00000000       0.08333333 </v>
    <v>       0.25000000       0.16666667       0.08333333 </v>
    <v>       0.33333333       0.16666667       0.08333333 </v>
    <v>       0.41666667       0.16666667       0.08333333 </v>
    <v>       0.50000000       0.16666667       0.08333333 </v>
    <v>      -0.41666667       0.16666667       0.08333333 </v>
    <v>       0.16666667       0.25000000       0.08333333 </v>
    <v>       0.33333333       0.25000000       0.08333333 </v>
    <v>       0.41666667       0.25000000       0.08333333 </v>
    <v>       0.50000000       0.25000000       0.08333333 </v>
    <v>      -0.41666667       0.25000000       0.08333333 </v>
    <v>      -0.33333333       0.25000000       0.08333333 </v>
    <v>      -0.25000000       0.25000000       0.08333333 </v>
    <v>      -0.16666667       0.25000000       0.08333333 </v>
    <v>       0.16666667       0.33333333       0.08333333 </v>
    <v>       0.25000000       0.33333333       0.08333333 </v>
    <v>       0.41666667       0.33333333       0.08333333 </v>
    <v>       0.50000000       0.33333333       0.08333333 </v>
    <v>      -0.41666667       0.33333333       0.08333333 </v>
    <v>      -0.33333333       0.33333333       0.08333333 </v>
    <v>      -0.25000000       0.33333333       0.08333333 </v>
    <v>       0.16666667       0.41666667       0.08333333 </v>
    <v>       0.25000000       0.41666667       0.08333333 </v>
    <v>       0.33333333       0.41666667       0.08333333 </v>
    <v>       0.50000000       0.41666667       0.08333333 </v>
    <v>      -0.41666667       0.41666667       0.08333333 </v>
    <v>      -0.33333333       0.41666667       0.08333333 </v>
    <v>       0.16666667       0.50000000       0.08333333 </v>
    <v>       0.25000000       0.50000000       0.08333333 </v>
    <v>       0.33333333       0.50000000       0.08333333 </v>
    <v>       0.41666667       0.50000000       0.08333333 </v>
    <v>      -0.41666667       0.50000000       0.08333333 </v>
    <v>       0.16666667      -0.41666667       0.08333333 </v>
    <v>       0.25000000      -0.41666667       0.08333333 </v>
    <v>       0.33333333      -0.41666667       0.08333333 </v>
    <v>       0.41666667      -0.41666667       0.08333333 </v>
    <v>       0.50000000      -0.41666667       0.08333333 </v>
    <v>       0.16666667      -0.33333333       0.08333333 </v>
    <v>       0.25000000      -0.33333333       0.08333333 </v>
    <v>       0.33333333      -0.33333333       0.08333333 </v>
    <v>       0.41666667      -0.33333333       0.08333333 </v>
    <v>       0.16666667      -0.25000000       0.08333333 </v>
    <v>       0.25000000      -0.25000000       0.08333333 </v>
    <v>       0.33333333      -0.25000000       0.08333333 </v>
    <v>       0.16666667      -0.16666667       0.08333333 </v>
    <v>       0.25000000      -0.16666667       0.08333333 </v>
    <v>       0.16666667      -0.08333333       0.08333333 </v>
    <v>       0.16666667      -0.00000000       0.16666667 </v>
    <v>       0.25000000      -0.00000000       0.16666667 </v>
    <v>       0.33333333      -0.00000000       0.16666667 </v>
    <v>       0.41666667      -0.00000000       0.16666667 </v>
    <v>       0.50000000      -0.00000000       0.16666667 </v>
    <v>      -0.41666667       0.00000000       0.16666667 </v>
    <v>      -0.33333333      -0.00000000       0.16666667 </v>
    <v>      -0.25000000      -0.00000000       0.16666667 </v>
    <v>      -0.16666667       0.00000000       0.16666667 </v>
    <v>       0.50000000       0.33333333       0.16666667 </v>
    <v>      -0.41666667       0.33333333       0.16666667 </v>
    <v>      -0.33333333       0.33333333       0.16666667 </v>
    <v>       0.25000000       0.41666667       0.16666667 </v>
    <v>      -0.41666667       0.41666667       0.16666667 </v>
    <v>      -0.33333333       0.41666667       0.16666667 </v>
    <v>      -0.25000000       0.41666667       0.16666667 </v>
    <v>       0.25000000       0.50000000       0.16666667 </v>
    <v>       0.33333333       0.50000000       0.16666667 </v>
    <v>      -0.33333333       0.50000000       0.16666667 </v>
    <v>       0.25000000      -0.41666667       0.16666667 </v>
    <v>       0.33333333      -0.41666667       0.16666667 </v>
    <v>       0.41666667      -0.41666667       0.16666667 </v>
    <v>       0.25000000      -0.33333333       0.16666667 </v>
    <v>       0.33333333      -0.33333333       0.16666667 </v>
    <v>       0.41666667      -0.33333333       0.16666667 </v>
    <v>       0.50000000      -0.33333333       0.16666667 </v>
    <v>       0.25000000      -0.25000000       0.16666667 </v>
    <v>       0.33333333      -0.25000000       0.16666667 </v>
    <v>       0.41666667      -0.25000000       0.16666667 </v>
    <v>       0.25000000      -0.16666667       0.16666667 </v>
    <v>       0.33333333      -0.16666667       0.16666667 </v>
    <v>       0.25000000      -0.08333333       0.16666667 </v>
    <v>       0.25000000      -0.00000000       0.25000000 </v>
    <v>       0.33333333      -0.00000000       0.25000000 </v>
    <v>       0.41666667      -0.00000000       0.25000000 </v>
    <v>       0.50000000      -0.00000000       0.25000000 </v>
    <v>      -0.41666667       0.00000000       0.25000000 </v>
    <v>      -0.33333333      -0.00000000       0.25000000 </v>
    <v>      -0.25000000      -0.00000000       0.25000000 </v>
    <v>      -0.25000000       0.50000000       0.25000000 </v>
    <v>       0.33333333      -0.41666667       0.25000000 </v>
    <v>       0.33333333      -0.33333333       0.25000000 </v>
    <v>       0.41666667      -0.33333333       0.25000000 </v>
    <v>       0.33333333      -0.25000000       0.25000000 </v>
    <v>       0.41666667      -0.25000000       0.25000000 </v>
    <v>       0.50000000      -0.25000000       0.25000000 </v>
    <v>       0.33333333      -0.16666667       0.25000000 </v>
    <v>       0.41666667      -0.16666667       0.25000000 </v>
    <v>       0.33333333      -0.08333333       0.25000000 </v>
    <v>       0.33333333      -0.00000000       0.33333333 </v>
    <v>       0.41666667      -0.00000000       0.33333333 </v>
    <v>       0.50000000      -0.00000000       0.33333333 </v>
    <v>      -0.41666667       0.00000000       0.33333333 </v>
    <v>      -0.33333333       0.00000000       0.33333333 </v>
    <v>       0.41666667      -0.25000000       0.33333333 </v>
    <v>       0.41666667      -0.16666667       0.33333333 </v>
    <v>       0.50000000      -0.16666667       0.33333333 </v>
    <v>       0.41666667      -0.08333333       0.33333333 </v>
    <v>       0.41666667      -0.00000000       0.41666667 </v>
    <v>       0.50000000      -0.00000000       0.41666667 </v>
    <v>      -0.41666667      -0.00000000       0.41666667 </v>
    <v>       0.50000000      -0.08333333       0.41666667 </v>
    <v>       0.50000000      -0.00000000       0.50000000 </v>
   </varray>
   <varray name="weights" >
    <v>       0.00057870 </v>
    <v>       0.00462963 </v>
    <v>       0.00462963 </v>
    <v>       0.00462963 </v>
    <v>       0.00462963 </v>
    <v>       0.00462963 </v>
    <v>       0.00231481 </v>
    <v>       0.00231481 </v>
    <v>       0.00925926 </v>
    <v>       0.00925926 </v>
    <v>       0.00925926 </v>
    <v>       0.00925926 </v>
    <v>       0.00925926 </v>
    <v>       0.00925926 </v>
    <v>       0.00925926 </v>
    <v>       0.00925926 </v>
    <v>       0.00925926 </v>
    <v>       0.00462963 </v>
    <v>       0.00231481 </v>
    <v>       0.00925926 </v>
    <v>       0.00925926 </v>
    <v>       0.00925926 </v>
    <v>       0.00925926 </v>
    <v>       0.00925926 </v>
    <v>       0.00925926 </v>
    <v>       0.00925926 </v>
    <v>       0.00462963 </v>
    <v>       0.00231481 </v>
    <v>       0.00925926 </v>
    <v>       0.00925926 </v>
    <v>       0.00925926 </v>
    <v>       0.00925926 </v>
    <v>       0.00925926 </v>
    <v>       0.00462963 </v>
    <v>       0.00231481 </v>
    <v>       0.00925926 </v>
    <v>       0.00925926 </v>
    <v>       0.00925926 </v>
    <v>       0.00462963 </v>
    <v>       0.00231481 </v>
    <v>       0.00925926 </v>
    <v>       0.00462963 </v>
    <v>       0.00115741 </v>
    <v>       0.00115741 </v>
    <v>       0.00462963 </v>
    <v>       0.00462963 </v>
    <v>       0.00462963 </v>
    <v>       0.00462963 </v>
    <v>       0.00462963 </v>
    <v>       0.00462963 </v>
    <v>       0.00462963 </v>
    <v>       0.00462963 </v>
    <v>       0.00462963 </v>
    <v>       0.00231481 </v>
    <v>       0.00462963 </v>
    <v>       0.00925926 </v>
    <v>       0.00925926 </v>
    <v>       0.00925926 </v>
    <v>       0.00462963 </v>
    <v>       0.00462963 </v>
    <v>       0.00462963 </v>
    <v>       0.00925926 </v>
    <v>       0.00925926 </v>
    <v>       0.00925926 </v>
    <v>       0.00925926 </v>
    <v>       0.00925926 </v>
    <v>       0.00462963 </v>
    <v>       0.00925926 </v>
    <v>       0.00462963 </v>
    <v>       0.00462963 </v>
    <v>       0.00925926 </v>
    <v>       0.00925926 </v>
    <v>       0.00925926 </v>
    <v>       0.00462963 </v>
    <v>       0.00925926 </v>
    <v>       0.00925926 </v>
    <v>       0.00462963 </v>
    <v>       0.00462963 </v>
    <v>       0.00925926 </v>
    <v>       0.00462963 </v>
    <v>       0.00925926 </v>
    <v>       0.00925926 </v>
    <v>       0.00925926 </v>
    <v>       0.00462963 </v>
    <v>       0.00231481 </v>
    <v>       0.00925926 </v>
    <v>       0.00925926 </v>
    <v>       0.00925926 </v>
    <v>       0.00925926 </v>
    <v>       0.00231481 </v>
    <v>       0.00925926 </v>
    <v>       0.00925926 </v>
    <v>       0.00925926 </v>
    <v>       0.00462963 </v>
    <v>       0.00925926 </v>
    <v>       0.00925926 </v>
    <v>       0.00462963 </v>
    <v>       0.00925926 </v>
    <v>       0.00462963 </v>
    <v>       0.00462963 </v>
    <v>       0.00115741 </v>
    <v>       0.00462963 </v>
    <v>       0.00462963 </v>
    <v>       0.00462963 </v>
    <v>       0.00462963 </v>
    <v>       0.00462963 </v>
    <v>       0.00462963 </v>
    <v>       0.00462963 </v>
    <v>       0.00231481 </v>
    <v>       0.00462963 </v>
    <v>       0.00925926 </v>
    <v>       0.00462963 </v>
    <v>       0.00462963 </v>
    <v>       0.00462963 </v>
    <v>       0.00925926 </v>
    <v>       0.00462963 </v>
    <v>       0.00925926 </v>
    <v>       0.00462963 </v>
    <v>       0.00231481 </v>
    <v>       0.00925926 </v>
    <v>       0.00925926 </v>
    <v>       0.00462963 </v>
    <v>       0.00925926 </v>
    <v>       0.00925926 </v>
    <v>       0.00925926 </v>
    <v>       0.00231481 </v>
    <v>       0.00925926 </v>
    <v>       0.00925926 </v>
    <v>       0.00462963 </v>
    <v>       0.00925926 </v>
    <v>       0.00462963 </v>
    <v>       0.00462963 </v>
    <v>       0.00115741 </v>
    <v>       0.00462963 </v>
    <v>       0.00462963 </v>
    <v>       0.00462963 </v>
    <v>       0.00462963 </v>
    <v>       0.00462963 </v>
    <v>       0.00231481 </v>
    <v>       0.00115741 </v>
    <v>       0.00462963 </v>
    <v>       0.00925926 </v>
    <v>       0.00462963 </v>
    <v>       0.00925926 </v>
    <v>       0.00925926 </v>
    <v>       0.00231481 </v>
    <v>       0.00925926 </v>
    <v>       0.00462963 </v>
    <v>       0.00462963 </v>
    <v>       0.00115741 </v>
    <v>       0.00462963 </v>
    <v>       0.00462963 </v>
    <v>       0.00462963 </v>
    <v>       0.00231481 </v>
    <v>       0.00462963 </v>
    <v>       0.00925926 </v>
    <v>       0.00231481 </v>
    <v>       0.00462963 </v>
    <v>       0.00115741 </v>
    <v>       0.00462963 </v>
    <v>       0.00231481 </v>
    <v>       0.00231481 </v>
    <v>       0.00057870 </v>
   </varray>
  </kpoints>
  <scstep>
   <time name="total">    1.01    1.01</time>
   <energy>
    <i name="e_fr_energy">     -0.23451678 </i>
    <i name="e_wo_entrp">     -0.23451678 </i>
    <i name="e_0_energy">     -0.23451678 </i>
   </energy>
  </scstep>
  <scstep>
   <time name="total">    1.12    1.12</time>
   <energy>
    <i name="e_fr_energy">     -0.23400021 </i>
    <i name="e_wo_entrp">     -0.23400021 </i>
    <i name="e_0_energy">     -0.23400021 </i>
   </energy>
  </scstep>
  <scstep>
   <time name="total">    1.39    1.40</time>
   <energy>
    <i name="e_fr_energy">     -0.21215014 </i>
    <i name="e_wo_entrp">     -0.21215014 </i>
    <i name="e_0_energy">     -0.21215014 </i>
   </energy>
  </scstep>
  <scstep>
   <time name="total">    1.67    1.68</time>
   <energy>
    <i name="e_fr_energy">     -0.22014421 </i>
    <i name="e_wo_entrp">     -0.22014421 </i>
    <i name="e_0_energy">     -0.22014421 </i>
   </energy>
  </scstep>
  <scstep>
   <time name="total">    1.52    1.53</time>
   <energy>
    <i name="e_fr_energy">     -0.22834114 </i>
    <i name="e_wo_entrp">     -0.22834114 </i>
    <i name="e_0_energy">     -0.22834114 </i>
   </energy>
  </scstep>
  <scstep>
   <time name="total">    1.79    1.79</time>
   <energy>
    <i name="e_fr_energy">     -0.22852940 </i>
    <i name="e_wo_entrp">     -0.22852940 </i>
    <i name="e_0_energy">     -0.22852940 </i>
   </energy>
  </scstep>
  <scstep>
   <time name="total">    1.67    1.67</time>
   <energy>
    <i name="e_fr_energy">     -0.22890414 </i>
    <i name="e_wo_entrp">     -0.22890414 </i>
    <i name="e_0_energy">     -0.22890414 </i>
   </energy>
  </scstep>
  <scstep>
   <time name="total">    1.74    1.75</time>
   <energy>
    <i name="e_fr_energy">     -0.22892219 </i>
    <i name="e_wo_entrp">     -0.22892219 </i>
    <i name="e_0_energy">     -0.22892219 </i>
   </energy>
  </scstep>
  <scstep>
   <time name="total">    1.71    1.73</time>
   <energy>
    <i name="e_fr_energy">     -0.22891671 </i>
    <i name="e_wo_entrp">     -0.22891671 </i>
    <i name="e_0_energy">     -0.22891671 </i>
   </energy>
  </scstep>
  <scstep>
   <time name="total">    1.65    1.66</time>
   <energy>
    <i name="e_fr_energy">     -0.22891482 </i>
    <i name="e_wo_entrp">     -0.22891482 </i>
    <i name="e_0_energy">     -0.22891482 </i>
   </energy>
  </scstep>
  <scstep>
   <time name="total">    1.41    1.43</time>
   <energy>
    <i name="e_fr_energy">     -0.22891478 </i>
    <i name="e_wo_entrp">     -0.22891478 </i>
    <i name="e_0_energy">     -0.22891478 </i>
   </energy>
  </scstep>
  <kpoints>
   <generation param="Gamma">
    <v type="int" name="divisions">      12       12       12 </v>
    <v name="usershift">      0.00000000       0.00000000       0.00000000 </v>
    <v name="genvec1">      0.08333333      -0.00000000      -0.00000000 </v>
    <v name="genvec2">     -0.00000000       0.08333333       0.00000000 </v>
    <v name="genvec3">      0.00000000       0.00000000       0.08333333 </v>
    <v name="shift">      0.00000000       0.00000000       0.00000000 </v>
   </generation>
   <varray name="kpointlist" >
    <v>       0.00000000       0.00000000       0.00000000 </v>
    <v>       0.08333333       0.00000000      -0.00000000 </v>
    <v>       0.16666667      -0.00000000       0.00000000 </v>
    <v>       0.25000000       0.00000000       0.00000000 </v>
    <v>       0.33333333      -0.00000000      -0.00000000 </v>
    <v>       0.41666667       0.00000000      -0.00000000 </v>
    <v>       0.50000000       0.00000000       0.00000000 </v>
    <v>       0.08333333       0.08333333      -0.00000000 </v>
    <v>       0.16666667       0.08333333      -0.00000000 </v>
    <v>       0.25000000       0.08333333      -0.00000000 </v>
    <v>       0.33333333       0.08333333       0.00000000 </v>
    <v>       0.41666667       0.08333333      -0.00000000 </v>
    <v>       0.50000000       0.08333333      -0.00000000 </v>
    <v>      -0.41666667       0.08333333      -0.00000000 </v>
    <v>      -0.33333333       0.08333333       0.00000000 </v>
    <v>      -0.25000000       0.08333333       0.00000000 </v>
    <v>      -0.16666667       0.08333333      -0.00000000 </v>
    <v>      -0.08333333       0.08333333      -0.00000000 </v>
    <v>       0.16666667       0.16666667      -0.00000000 </v>
    <v>       0.25000000       0.16666667      -0.00000000 </v>
    <v>       0.33333333       0.16666667      -0.00000000 </v>
    <v>       0.41666667       0.16666667       0.00000000 </v>
    <v>       0.50000000       0.16666667      -0.00000000 </v>
    <v>      -0.41666667       0.16666667      -0.00000000 </v>
    <v>      -0.33333333       0.16666667      -0.00000000 </v>
    <v>      -0.25000000       0.16666667       0.00000000 </v>
    <v>      -0.16666667       0.16666667      -0.00000000 </v>
    <v>       0.25000000       0.25000000      -0.00000000 </v>
    <v>       0.33333333       0.25000000      -0.00000000 </v>
    <v>       0.41666667       0.25000000      -0.00000000 </v>
    <v>       0.50000000       0.25000000      -0.00000000 </v>
    <v>      -0.41666667       0.25000000      -0.00000000 </v>
    <v>      -0.33333333       0.25000000       0.00000000 </v>
    <v>      -0.25000000       0.25000000      -0.00000000 </v>
    <v>       0.33333333       0.33333333      -0.00000000 </v>
    <v>       0.41666667       0.33333333      -0.00000000 </v>
    <v>       0.50000000       0.33333333      -0.00000000 </v>
    <v>      -0.41666667       0.33333333       0.00000000 </v>
    <v>      -0.33333333       0.33333333       0.00000000 </v>
    <v>       0.41666667       0.41666667      -0.00000000 </v>
    <v>       0.50000000       0.41666667      -0.00000000 </v>
    <v>      -0.41666667       0.41666667      -0.00000000 </v>
    <v>       0.50000000       0.50000000      -0.00000000 </v>
    <v>      -0.00000000      -0.00000000       0.08333333 </v>
    <v>       0.08333333      -0.00000000       0.08333333 </v>
    <v>       0.16666667      -0.00000000       0.08333333 </v>
    <v>       0.25000000       0.00000000       0.08333333 </v>
    <v>       0.33333333       0.00000000       0.08333333 </v>
    <v>       0.41666667      -0.00000000       0.08333333 </v>
    <v>       0.50000000       0.00000000       0.08333333 </v>
    <v>      -0.41666667      -0.00000000       0.08333333 </v>
    <v>      -0.33333333       0.00000000       0.08333333 </v>
    <v>      -0.25000000       0.00000000       0.08333333 </v>
    <v>      -0.16666667       0.00000000       0.08333333 </v>
    <v>      -0.08333333      -0.00000000       0.08333333 </v>
    <v>      -0.00000000       0.08333333       0.08333333 </v>
    <v>       0.16666667       0.08333333       0.08333333 </v>
    <v>       0.25000000       0.08333333       0.08333333 </v>
    <v>       0.33333333       0.08333333       0.08333333 </v>
    <v>       0.41666667       0.08333333       0.08333333 </v>
    <v>       0.50000000       0.08333333       0.08333333 </v>
    <v>      -0.41666667       0.08333333       0.08333333 </v>
    <v>      -0.33333333       0.08333333       0.08333333 </v>
    <v>      -0.25000000       0.08333333       0.08333333 </v>
    <v>      -0.16666667       0.08333333       0.08333333 </v>
    <v>      -0.08333333       0.08333333       0.08333333 </v>
    <v>       0.16666667       0.16666667       0.08333333 </v>
    <v>       0.25000000       0.16666667       0.08333333 </v>
    <v>       0.33333333       0.16666667       0.08333333 </v>
    <v>       0.41666667       0.16666667       0.08333333 </v>
    <v>       0.50000000       0.16666667       0.08333333 </v>
    <v>      -0.41666667       0.16666667       0.08333333 </v>
    <v>      -0.33333333       0.16666667       0.08333333 </v>
    <v>      -0.25000000       0.16666667       0.08333333 </v>
    <v>      -0.16666667       0.16666667       0.08333333 </v>
    <v>      -0.08333333       0.16666667       0.08333333 </v>
    <v>       0.16666667       0.25000000       0.08333333 </v>
    <v>       0.25000000       0.25000000       0.08333333 </v>
    <v>       0.33333333       0.25000000       0.08333333 </v>
    <v>       0.41666667       0.25000000       0.08333333 </v>
    <v>       0.50000000       0.25000000       0.08333333 </v>
    <v>      -0.41666667       0.25000000       0.08333333 </v>
    <v>      -0.33333333       0.25000000       0.08333333 </v>
    <v>      -0.25000000       0.25000000       0.08333333 </v>
    <v>      -0.16666667       0.25000000       0.08333333 </v>
    <v>       0.16666667       0.33333333       0.08333333 </v>
    <v>       0.25000000       0.33333333       0.08333333 </v>
    <v>       0.33333333       0.33333333       0.08333333 </v>
    <v>       0.41666667       0.33333333       0.08333333 </v>
    <v>       0.50000000       0.33333333       0.08333333 </v>
    <v>      -0.41666667       0.33333333       0.08333333 </v>
    <v>      -0.33333333       0.33333333       0.08333333 </v>
    <v>      -0.25000000       0.33333333       0.08333333 </v>
    <v>       0.16666667       0.41666667       0.08333333 </v>
    <v>       0.25000000       0.41666667       0.08333333 </v>
    <v>       0.33333333       0.41666667       0.08333333 </v>
    <v>       0.41666667       0.41666667       0.08333333 </v>
    <v>       0.50000000       0.41666667       0.08333333 </v>
    <v>      -0.41666667       0.41666667       0.08333333 </v>
    <v>      -0.33333333       0.41666667       0.08333333 </v>
    <v>       0.16666667       0.50000000       0.08333333 </v>
    <v>       0.25000000       0.50000000       0.08333333 </v>
    <v>       0.33333333       0.50000000       0.08333333 </v>
    <v>       0.41666667       0.50000000       0.08333333 </v>
    <v>       0.50000000       0.50000000       0.08333333 </v>
    <v>      -0.41666667       0.50000000       0.08333333 </v>
    <v>       0.16666667      -0.41666667       0.08333333 </v>
    <v>       0.25000000      -0.41666667       0.08333333 </v>
    <v>       0.33333333      -0.41666667       0.08333333 </v>
    <v>       0.41666667      -0.41666667       0.08333333 </v>
    <v>       0.50000000      -0.41666667       0.08333333 </v>
    <v>       0.16666667      -0.33333333       0.08333333 </v>
    <v>       0.25000000      -0.33333333       0.08333333 </v>
    <v>       0.33333333      -0.33333333       0.08333333 </v>
    <v>       0.41666667      -0.33333333       0.08333333 </v>
    <v>       0.16666667      -0.25000000       0.08333333 </v>
    <v>       0.25000000      -0.25000000       0.08333333 </v>
    <v>       0.33333333      -0.25000000       0.08333333 </v>
    <v>       0.16666667      -0.16666667       0.08333333 </v>
    <v>       0.25000000      -0.16666667       0.08333333 </v>
    <v>       0.16666667      -0.08333333       0.08333333 </v>
    <v>      -0.00000000       0.00000000       0.16666667 </v>
    <v>       0.08333333      -0.00000000       0.16666667 </v>
    <v>       0.16666667      -0.00000000       0.16666667 </v>
    <v>       0.25000000      -0.00000000       0.16666667 </v>
    <v>       0.33333333      -0.00000000       0.16666667 </v>
    <v>       0.41666667      -0.00000000       0.16666667 </v>
    <v>       0.50000000      -0.00000000       0.16666667 </v>
    <v>      -0.41666667       0.00000000       0.16666667 </v>
    <v>      -0.33333333      -0.00000000       0.16666667 </v>
    <v>      -0.25000000      -0.00000000       0.16666667 </v>
    <v>      -0.16666667       0.00000000       0.16666667 </v>
    <v>      -0.08333333       0.00000000       0.16666667 </v>
    <v>      -0.00000000       0.08333333       0.16666667 </v>
    <v>       0.08333333       0.08333333       0.16666667 </v>
    <v>       0.25000000       0.08333333       0.16666667 </v>
    <v>       0.33333333       0.08333333       0.16666667 </v>
    <v>       0.41666667       0.08333333       0.16666667 </v>
    <v>       0.50000000       0.08333333       0.16666667 </v>
    <v>      -0.41666667       0.08333333       0.16666667 </v>
    <v>      -0.33333333       0.08333333       0.16666667 </v>
    <v>      -0.25000000       0.08333333       0.16666667 </v>
    <v>      -0.16666667       0.08333333       0.16666667 </v>
    <v>      -0.08333333       0.08333333       0.16666667 </v>
    <v>      -0.00000000       0.16666667       0.16666667 </v>
    <v>       0.25000000       0.16666667       0.16666667 </v>
    <v>       0.33333333       0.16666667       0.16666667 </v>
    <v>       0.41666667       0.16666667       0.16666667 </v>
    <v>       0.50000000       0.16666667       0.16666667 </v>
    <v>      -0.41666667       0.16666667       0.16666667 </v>
    <v>      -0.33333333       0.16666667       0.16666667 </v>
    <v>      -0.25000000       0.16666667       0.16666667 </v>
    <v>      -0.16666667       0.16666667       0.16666667 </v>
    <v>      -0.08333333       0.16666667       0.16666667 </v>
    <v>       0.25000000       0.25000000       0.16666667 </v>
    <v>       0.33333333       0.25000000       0.16666667 </v>
    <v>       0.41666667       0.25000000       0.16666667 </v>
    <v>       0.50000000       0.25000000       0.16666667 </v>
    <v>      -0.41666667       0.25000000       0.16666667 </v>
    <v>      -0.33333333       0.25000000       0.16666667 </v>
    <v>      -0.25000000       0.25000000       0.16666667 </v>
    <v>      -0.16666667       0.25000000       0.16666667 </v>
    <v>      -0.08333333       0.25000000       0.16666667 </v>
    <v>       0.25000000       0.33333333       0.16666667 </v>
    <v>       0.33333333       0.33333333       0.16666667 </v>
    <v>       0.41666667       0.33333333       0.16666667 </v>
    <v>       0.50000000       0.33333333       0.16666667 </v>
    <v>      -0.41666667       0.33333333       0.16666667 </v>
    <v>      -0.33333333       0.33333333       0.16666667 </v>
    <v>      -0.25000000       0.33333333       0.16666667 </v>
    <v>      -0.16666667       0.33333333       0.16666667 </v>
    <v>       0.25000000       0.41666667       0.16666667 </v>
    <v>       0.33333333       0.41666667       0.16666667 </v>
    <v>       0.41666667       0.41666667       0.16666667 </v>
    <v>       0.50000000       0.41666667       0.16666667 </v>
    <v>      -0.41666667       0.41666667       0.16666667 </v>
    <v>      -0.33333333       0.41666667       0.16666667 </v>
    <v>      -0.25000000       0.41666667       0.16666667 </v>
    <v>       0.25000000       0.50000000       0.16666667 </v>
    <v>       0.33333333       0.50000000       0.16666667 </v>
    <v>       0.41666667       0.50000000       0.16666667 </v>
    <v>       0.50000000       0.50000000       0.16666667 </v>
    <v>      -0.41666667       0.50000000       0.16666667 </v>
    <v>      -0.33333333       0.50000000       0.16666667 </v>
    <v>       0.25000000      -0.41666667       0.16666667 </v>
    <v>       0.33333333      -0.41666667       0.16666667 </v>
    <v>       0.41666667      -0.41666667       0.16666667 </v>
    <v>       0.50000000      -0.41666667       0.16666667 </v>
    <v>      -0.41666667      -0.41666667       0.16666667 </v>
    <v>       0.25000000      -0.33333333       0.16666667 </v>
    <v>       0.33333333      -0.33333333       0.16666667 </v>
    <v>       0.41666667      -0.33333333       0.16666667 </v>
    <v>       0.50000000      -0.33333333       0.16666667 </v>
    <v>       0.25000000      -0.25000000       0.16666667 </v>
    <v>       0.33333333      -0.25000000       0.16666667 </v>
    <v>       0.41666667      -0.25000000       0.16666667 </v>
    <v>       0.25000000      -0.16666667       0.16666667 </v>
    <v>       0.33333333      -0.16666667       0.16666667 </v>
    <v>       0.25000000      -0.08333333       0.16666667 </v>
    <v>      -0.00000000      -0.00000000       0.25000000 </v>
    <v>       0.08333333      -0.00000000       0.25000000 </v>
    <v>       0.16666667      -0.00000000       0.25000000 </v>
    <v>       0.25000000      -0.00000000       0.25000000 </v>
    <v>       0.33333333      -0.00000000       0.25000000 </v>
    <v>       0.41666667      -0.00000000       0.25000000 </v>
    <v>       0.50000000      -0.00000000       0.25000000 </v>
    <v>      -0.41666667       0.00000000       0.25000000 </v>
    <v>      -0.33333333      -0.00000000       0.25000000 </v>
    <v>      -0.25000000      -0.00000000       0.25000000 </v>
    <v>      -0.16666667       0.00000000       0.25000000 </v>
    <v>      -0.08333333       0.00000000       0.25000000 </v>
    <v>      -0.00000000       0.08333333       0.25000000 </v>
    <v>       0.08333333       0.08333333       0.25000000 </v>
    <v>       0.16666667       0.08333333       0.25000000 </v>
    <v>       0.33333333       0.08333333       0.25000000 </v>
    <v>       0.41666667       0.08333333       0.25000000 </v>
    <v>       0.50000000       0.08333333       0.25000000 </v>
    <v>      -0.41666667       0.08333333       0.25000000 </v>
    <v>      -0.33333333       0.08333333       0.25000000 </v>
    <v>      -0.25000000       0.08333333       0.25000000 </v>
    <v>      -0.16666667       0.08333333       0.25000000 </v>
    <v>      -0.08333333       0.08333333       0.25000000 </v>
    <v>      -0.00000000       0.16666667       0.25000000 </v>
    <v>       0.08333333       0.16666667       0.25000000 </v>
    <v>       0.33333333       0.16666667       0.25000000 </v>
    <v>       0.41666667       0.16666667       0.25000000 </v>
    <v>       0.50000000       0.16666667       0.25000000 </v>
    <v>      -0.41666667       0.16666667       0.25000000 </v>
    <v>      -0.33333333       0.16666667       0.25000000 </v>
    <v>      -0.25000000       0.16666667       0.25000000 </v>
    <v>      -0.16666667       0.16666667       0.25000000 </v>
    <v>      -0.08333333       0.16666667       0.25000000 </v>
    <v>      -0.00000000       0.25000000       0.25000000 </v>
    <v>       0.33333333       0.25000000       0.25000000 </v>
    <v>       0.41666667       0.25000000       0.25000000 </v>
    <v>       0.50000000       0.25000000       0.25000000 </v>
    <v>      -0.41666667       0.25000000       0.25000000 </v>
    <v>      -0.33333333       0.25000000       0.25000000 </v>
    <v>      -0.25000000       0.25000000       0.25000000 </v>
    <v>      -0.16666667       0.25000000       0.25000000 </v>
    <v>      -0.08333333       0.25000000       0.25000000 </v>
    <v>       0.33333333       0.33333333       0.25000000 </v>
    <v>       0.41666667       0.33333333       0.25000000 </v>
    <v>       0.50000000       0.33333333       0.25000000 </v>
    <v>      -0.41666667       0.33333333       0.25000000 </v>
    <v>      -0.33333333       0.33333333       0.25000000 </v>
    <v>      -0.25000000       0.33333333       0.25000000 </v>
    <v>      -0.16666667       0.33333333       0.25000000 </v>
    <v>      -0.08333333       0.33333333       0.25000000 </v>
    <v>       0.33333333       0.41666667       0.25000000 </v>
    <v>       0.41666667       0.41666667       0.25000000 </v>
    <v>       0.50000000       0.41666667       0.25000000 </v>
    <v>      -0.41666667       0.41666667       0.25000000 </v>
    <v>      -0.33333333       0.41666667       0.25000000 </v>
    <v>      -0.25000000       0.41666667       0.25000000 </v>
    <v>      -0.16666667       0.41666667       0.25000000 </v>
    <v>       0.33333333       0.50000000       0.25000000 </v>
    <v>       0.41666667       0.50000000       0.25000000 </v>
    <v>       0.50000000       0.50000000       0.25000000 </v>
    <v>      -0.41666667       0.50000000       0.25000000 </v>
    <v>      -0.33333333       0.50000000       0.25000000 </v>
    <v>      -0.25000000       0.50000000       0.25000000 </v>
    <v>       0.33333333      -0.41666667       0.25000000 </v>
    <v>       0.41666667      -0.41666667       0.25000000 </v>
    <v>       0.50000000      -0.41666667       0.25000000 </v>
    <v>      -0.41666667      -0.41666667       0.25000000 </v>
    <v>      -0.33333333      -0.41666667       0.25000000 </v>
    <v>       0.33333333      -0.33333333       0.25000000 </v>
    <v>       0.41666667      -0.33333333       0.25000000 </v>
    <v>       0.50000000      -0.33333333       0.25000000 </v>
    <v>      -0.41666667      -0.33333333       0.25000000 </v>
    <v>       0.33333333      -0.25000000       0.25000000 </v>
    <v>       0.41666667      -0.25000000       0.25000000 </v>
    <v>       0.50000000      -0.25000000       0.25000000 </v>
    <v>       0.33333333      -0.16666667       0.25000000 </v>
    <v>       0.41666667      -0.16666667       0.25000000 </v>
    <v>       0.33333333      -0.08333333       0.25000000 </v>
    <v>      -0.00000000       0.00000000       0.33333333 </v>
    <v>       0.08333333       0.00000000       0.33333333 </v>
    <v>       0.16666667      -0.00000000       0.33333333 </v>
    <v>       0.25000000      -0.00000000       0.33333333 </v>
    <v>       0.33333333      -0.00000000       0.33333333 </v>
    <v>       0.41666667      -0.00000000       0.33333333 </v>
    <v>       0.50000000      -0.00000000       0.33333333 </v>
    <v>      -0.41666667       0.00000000       0.33333333 </v>
    <v>      -0.33333333       0.00000000       0.33333333 </v>
    <v>      -0.25000000      -0.00000000       0.33333333 </v>
    <v>      -0.16666667      -0.00000000       0.33333333 </v>
[...]
       <r>   10.2123    0.0000 </r>
       <r>   11.4743    0.0000 </r>
       <r>   12.5628    0.0000 </r>
       <r>   12.8832    0.0000 </r>
       <r>   13.6905    0.0000 </r>
      </set>
      <set comment="kpoint 158">
       <r>  -20.0718    1.0000 </r>
       <r>  -19.4087    1.0000 </r>
       <r>   -7.1013    1.0000 </r>
       <r>   -6.5278    1.0000 </r>
       <r>   -6.4123    1.0000 </r>
       <r>   -1.3834    1.0000 </r>
       <r>   -1.2335    1.0000 </r>
       <r>   -1.1996    1.0000 </r>
       <r>    5.0456    0.0000 </r>
       <r>    6.8980    0.0000 </r>
       <r>    8.7930    0.0000 </r>
       <r>   10.4675    0.0000 </r>
       <r>   10.8283    0.0000 </r>
       <r>   11.6912    0.0000 </r>
       <r>   13.3908    0.0000 </r>
       <r>   14.5339    0.0000 </r>
      </set>
      <set comment="kpoint 159">
       <r>  -20.0881    1.0000 </r>
       <r>  -19.3897    1.0000 </r>
       <r>   -7.1388    1.0000 </r>
       <r>   -6.4717    1.0000 </r>
       <r>   -6.4717    1.0000 </r>
       <r>   -1.2419    1.0000 </r>
       <r>   -1.2419    1.0000 </r>
       <r>   -1.1848    1.0000 </r>
       <r>    4.8190    0.0000 </r>
       <r>    6.6739    0.0000 </r>
       <r>    9.4958    0.0000 </r>
       <r>   10.6359    0.0000 </r>
       <r>   10.8496    0.0000 </r>
       <r>   10.8496    0.0000 </r>
       <r>   14.5638    0.0000 </r>
       <r>   14.5639    0.0000 </r>
      </set>
      <set comment="kpoint 160">
       <r>  -20.0643    1.0000 </r>
       <r>  -19.4048    1.0000 </r>
       <r>   -7.2060    1.0000 </r>
       <r>   -6.5115    1.0000 </r>
       <r>   -6.4768    1.0000 </r>
       <r>   -1.2707    1.0000 </r>
       <r>   -1.2624    1.0000 </r>
       <r>   -1.0908    1.0000 </r>
       <r>    4.8594    0.0000 </r>
       <r>    6.7599    0.0000 </r>
       <r>    9.3267    0.0000 </r>
       <r>   10.6371    0.0000 </r>
       <r>   11.2542    0.0000 </r>
       <r>   11.7374    0.0000 </r>
       <r>   13.2394    0.0000 </r>
       <r>   14.1765    0.0000 </r>
      </set>
      <set comment="kpoint 161">
       <r>  -20.0395    1.0000 </r>
       <r>  -19.4319    1.0000 </r>
       <r>   -7.1691    1.0000 </r>
       <r>   -6.5619    1.0000 </r>
       <r>   -6.4302    1.0000 </r>
       <r>   -1.3727    1.0000 </r>
       <r>   -1.3460    1.0000 </r>
       <r>   -1.0764    1.0000 </r>
       <r>    5.1551    0.0000 </r>
       <r>    7.0766    0.0000 </r>
       <r>    8.6996    0.0000 </r>
       <r>   10.5732    0.0000 </r>
       <r>   10.9643    0.0000 </r>
       <r>   12.3036    0.0000 </r>
       <r>   12.8477    0.0000 </r>
       <r>   14.5476    0.0000 </r>
      </set>
      <set comment="kpoint 162">
       <r>  -20.0522    1.0000 </r>
       <r>  -19.4148    1.0000 </r>
       <r>   -7.2134    1.0000 </r>
       <r>   -6.5609    1.0000 </r>
       <r>   -6.4447    1.0000 </r>
       <r>   -1.3670    1.0000 </r>
       <r>   -1.2184    1.0000 </r>
       <r>   -1.0616    1.0000 </r>
       <r>    4.9516    0.0000 </r>
       <r>    6.8472    0.0000 </r>
       <r>    9.0703    0.0000 </r>
       <r>   10.6509    0.0000 </r>
       <r>   11.4645    0.0000 </r>
       <r>   12.0792    0.0000 </r>
       <r>   12.9472    0.0000 </r>
       <r>   13.8274    0.0000 </r>
      </set>
      <set comment="kpoint 163">
       <r>  -20.0664    1.0000 </r>
       <r>  -19.3967    1.0000 </r>
       <r>   -7.2583    1.0000 </r>
       <r>   -6.5036    1.0000 </r>
       <r>   -6.5036    1.0000 </r>
       <r>   -1.2269    1.0000 </r>
       <r>   -1.2269    1.0000 </r>
       <r>   -1.0470    1.0000 </r>
       <r>    4.7201    0.0000 </r>
       <r>    6.6256    0.0000 </r>
       <r>    9.8407    0.0000 </r>
       <r>   10.8029    0.0000 </r>
       <r>   11.4596    0.0000 </r>
       <r>   11.4596    0.0000 </r>
       <r>   13.8696    0.0000 </r>
       <r>   13.8697    0.0000 </r>
      </set>
     </set>
    </set>
   </array>
  </eigenvalues>
  <separator name="orbital magnetization" >
   <v name="MAGDIPOLOUT">      0.00000000      0.00000000      0.00000000</v>
  </separator>
  <dos>
   <i name="efermi">     -0.93312628 </i>
   <total>
    <array>
     <dimension dim="1">gridpoints</dimension>
     <dimension dim="2">spin</dimension>
     <field>energy</field>
     <field>total</field>
     <field>integrated</field>
     <set>
      <set comment="spin 1">
       <r>   -22.3471     0.0000     0.0000 </r>
       <r>   -22.2083     0.0000     0.0000 </r>
       <r>   -22.0695     0.0000     0.0000 </r>
       <r>   -21.9307     0.0000     0.0000 </r>
       <r>   -21.7918     0.0000     0.0000 </r>
       <r>   -21.6530     0.0000     0.0000 </r>
       <r>   -21.5142     0.0000     0.0000 </r>
       <r>   -21.3753     0.0000     0.0000 </r>
       <r>   -21.2365     0.0000     0.0000 </r>
       <r>   -21.0977     0.0000     0.0000 </r>
       <r>   -20.9589     0.0000     0.0000 </r>
       <r>   -20.8200     0.0000     0.0000 </r>
       <r>   -20.6812     0.0000     0.0000 </r>
       <r>   -20.5424     0.0000     0.0000 </r>
       <r>   -20.4036     0.1520     0.0211 </r>
       <r>   -20.2647     0.8767     0.1969 </r>
       <r>   -20.1259     2.1625     0.6278 </r>
       <r>   -19.9871     7.3746     1.9995 </r>
       <r>   -19.8483     0.0000     2.0000 </r>
       <r>   -19.7094     0.0000     2.0000 </r>
       <r>   -19.5706     0.0000     2.0000 </r>
       <r>   -19.4318     7.5119     3.1030 </r>
       <r>   -19.2929     1.6875     3.8164 </r>
       <r>   -19.1541     0.4909     3.9999 </r>
       <r>   -19.0153     0.0000     4.0000 </r>
       <r>   -18.8765     0.0000     4.0000 </r>
       <r>   -18.7376     0.0000     4.0000 </r>
       <r>   -18.5988     0.0000     4.0000 </r>
       <r>   -18.4600     0.0000     4.0000 </r>
       <r>   -18.3212     0.0000     4.0000 </r>
       <r>   -18.1823     0.0000     4.0000 </r>
       <r>   -18.0435     0.0000     4.0000 </r>
       <r>   -17.9047     0.0000     4.0000 </r>
       <r>   -17.7659     0.0000     4.0000 </r>
       <r>   -17.6270     0.0000     4.0000 </r>
       <r>   -17.4882     0.0000     4.0000 </r>
       <r>   -17.3494     0.0000     4.0000 </r>
       <r>   -17.2105     0.0000     4.0000 </r>
       <r>   -17.0717     0.0000     4.0000 </r>
       <r>   -16.9329     0.0000     4.0000 </r>
       <r>   -16.7941     0.0000     4.0000 </r>
       <r>   -16.6552     0.0000     4.0000 </r>
       <r>   -16.5164     0.0000     4.0000 </r>
       <r>   -16.3776     0.0000     4.0000 </r>
       <r>   -16.2388     0.0000     4.0000 </r>
       <r>   -16.0999     0.0000     4.0000 </r>
       <r>   -15.9611     0.0000     4.0000 </r>
       <r>   -15.8223     0.0000     4.0000 </r>
       <r>   -15.6835     0.0000     4.0000 </r>
       <r>   -15.5446     0.0000     4.0000 </r>
       <r>   -15.4058     0.0000     4.0000 </r>
       <r>   -15.2670     0.0000     4.0000 </r>
       <r>   -15.1281     0.0000     4.0000 </r>
       <r>   -14.9893     0.0000     4.0000 </r>
       <r>   -14.8505     0.0000     4.0000 </r>
       <r>   -14.7117     0.0000     4.0000 </r>
       <r>   -14.5728     0.0000     4.0000 </r>
       <r>   -14.4340     0.0000     4.0000 </r>
       <r>   -14.2952     0.0000     4.0000 </r>
       <r>   -14.1564     0.0000     4.0000 </r>
       <r>   -14.0175     0.0000     4.0000 </r>
       <r>   -13.8787     0.0000     4.0000 </r>
       <r>   -13.7399     0.0000     4.0000 </r>
       <r>   -13.6011     0.0000     4.0000 </r>
       <r>   -13.4622     0.0000     4.0000 </r>
       <r>   -13.3234     0.0000     4.0000 </r>
       <r>   -13.1846     0.0000     4.0000 </r>
       <r>   -13.0457     0.0000     4.0000 </r>
       <r>   -12.9069     0.0000     4.0000 </r>
       <r>   -12.7681     0.0000     4.0000 </r>
       <r>   -12.6293     0.0000     4.0000 </r>
       <r>   -12.4904     0.0000     4.0000 </r>
       <r>   -12.3516     0.0000     4.0000 </r>
       <r>   -12.2128     0.0000     4.0000 </r>
       <r>   -12.0740     0.0000     4.0000 </r>
       <r>   -11.9351     0.0000     4.0000 </r>
       <r>   -11.7963     0.0000     4.0000 </r>
       <r>   -11.6575     0.0000     4.0000 </r>
       <r>   -11.5187     0.0000     4.0000 </r>
       <r>   -11.3798     0.0000     4.0000 </r>
       <r>   -11.2410     0.0000     4.0000 </r>
       <r>   -11.1022     0.0000     4.0000 </r>
       <r>   -10.9633     0.0000     4.0000 </r>
       <r>   -10.8245     0.0000     4.0000 </r>
       <r>   -10.6857     0.0000     4.0000 </r>
       <r>   -10.5469     0.0000     4.0000 </r>
       <r>   -10.4080     0.0000     4.0000 </r>
       <r>   -10.2692     0.0000     4.0000 </r>
       <r>   -10.1304     0.0000     4.0000 </r>
       <r>    -9.9916     0.0000     4.0000 </r>
       <r>    -9.8527     0.0000     4.0000 </r>
       <r>    -9.7139     0.0000     4.0000 </r>
       <r>    -9.5751     0.0000     4.0000 </r>
       <r>    -9.4363     0.0000     4.0000 </r>
       <r>    -9.2974     0.0000     4.0000 </r>
       <r>    -9.1586     0.0000     4.0000 </r>
       <r>    -9.0198     0.0000     4.0000 </r>
       <r>    -8.8809     0.0000     4.0000 </r>
       <r>    -8.7421     0.0000     4.0000 </r>
       <r>    -8.6033     0.0000     4.0000 </r>
       <r>    -8.4645     0.0000     4.0000 </r>
       <r>    -8.3256     0.0000     4.0000 </r>
       <r>    -8.1868     0.0000     4.0000 </r>
       <r>    -8.0480     0.0000     4.0000 </r>
       <r>    -7.9092     0.0000     4.0000 </r>
       <r>    -7.7703     0.0000     4.0000 </r>
       <r>    -7.6315     0.0000     4.0000 </r>
       <r>    -7.4927     0.0000     4.0000 </r>
       <r>    -7.3539     0.0000     4.0000 </r>
       <r>    -7.2150     0.0864     4.0120 </r>
       <r>    -7.0762     0.7635     4.1650 </r>
       <r>    -6.9374     1.3742     4.4373 </r>
       <r>    -6.7986     3.6211     5.1381 </r>
       <r>    -6.6597     2.7322     5.7856 </r>
       <r>    -6.5209     3.2252     6.4466 </r>
       <r>    -6.3821     2.8736     7.1686 </r>
       <r>    -6.2432     5.2711     8.1010 </r>
       <r>    -6.1044     4.2408     9.1964 </r>
       <r>    -5.9656     2.6884     9.9971 </r>
       <r>    -5.8268     0.0000    10.0000 </r>
       <r>    -5.6879     0.0000    10.0000 </r>
       <r>    -5.5491     0.0000    10.0000 </r>
       <r>    -5.4103     0.0000    10.0000 </r>
       <r>    -5.2715     0.0000    10.0000 </r>
       <r>    -5.1326     0.0000    10.0000 </r>
       <r>    -4.9938     0.0000    10.0000 </r>
       <r>    -4.8550     0.0000    10.0000 </r>
       <r>    -4.7162     0.0000    10.0000 </r>
       <r>    -4.5773     0.0000    10.0000 </r>
       <r>    -4.4385     0.0000    10.0000 </r>
       <r>    -4.2997     0.0000    10.0000 </r>
       <r>    -4.1608     0.0000    10.0000 </r>
       <r>    -4.0220     0.0000    10.0000 </r>
       <r>    -3.8832     0.0000    10.0000 </r>
       <r>    -3.7444     0.0000    10.0000 </r>
       <r>    -3.6055     0.0000    10.0000 </r>
       <r>    -3.4667     0.0000    10.0000 </r>
       <r>    -3.3279     0.0000    10.0000 </r>
       <r>    -3.1891     0.0000    10.0000 </r>
       <r>    -3.0502     0.0000    10.0000 </r>
       <r>    -2.9114     0.0000    10.0000 </r>
       <r>    -2.7726     0.0000    10.0000 </r>
       <r>    -2.6338     0.0000    10.0000 </r>
       <r>    -2.4949     0.0000    10.0000 </r>
       <r>    -2.3561     0.0000    10.0000 </r>
       <r>    -2.2173     0.0000    10.0000 </r>
       <r>    -2.0784     0.0000    10.0000 </r>
       <r>    -1.9396     0.0000    10.0000 </r>
       <r>    -1.8008     3.7330    10.5321 </r>
       <r>    -1.6620     4.9544    12.0235 </r>
       <r>    -1.5231     3.5432    12.9988 </r>
       <r>    -1.3843     4.5154    14.0783 </r>
       <r>    -1.2455     4.6303    15.2921 </r>
       <r>    -1.1067     1.6325    15.9246 </r>
       <r>    -0.9678     0.0250    16.0000 </r>
       <r>    -0.8290     0.0000    16.0000 </r>
       <r>    -0.6902     0.0000    16.0000 </r>
       <r>    -0.5514     0.0000    16.0000 </r>
       <r>    -0.4125     0.0000    16.0000 </r>
       <r>    -0.2737     0.0000    16.0000 </r>
       <r>    -0.1349     0.0000    16.0000 </r>
       <r>     0.0040     0.0000    16.0000 </r>
       <r>     0.1428     0.0000    16.0000 </r>
       <r>     0.2816     0.0000    16.0000 </r>
       <r>     0.4204     0.0000    16.0000 </r>
       <r>     0.5593     0.0000    16.0000 </r>
       <r>     0.6981     0.0000    16.0000 </r>
       <r>     0.8369     0.0000    16.0000 </r>
       <r>     0.9757     0.0000    16.0000 </r>
       <r>     1.1146     0.0000    16.0000 </r>
       <r>     1.2534     0.0000    16.0000 </r>
       <r>     1.3922     0.0000    16.0000 </r>
       <r>     1.5310     0.0000    16.0000 </r>
       <r>     1.6699     0.0000    16.0000 </r>
       <r>     1.8087     0.0000    16.0000 </r>
       <r>     1.9475     0.0000    16.0000 </r>
       <r>     2.0864     0.0000    16.0000 </r>
       <r>     2.2252     0.0000    16.0000 </r>
       <r>     2.3640     0.0000    16.0000 </r>
       <r>     2.5028     0.0000    16.0000 </r>
       <r>     2.6417     0.0000    16.0000 </r>
       <r>     2.7805     0.0000    16.0000 </r>
       <r>     2.9193     0.0000    16.0000 </r>
       <r>     3.0581     0.0000    16.0000 </r>
       <r>     3.1970     0.0000    16.0000 </r>
       <r>     3.3358     0.0000    16.0000 </r>
       <r>     3.4746     0.0000    16.0000 </r>
       <r>     3.6134     0.0000    16.0000 </r>
       <r>     3.7523     0.0000    16.0000 </r>
       <r>     3.8911     0.0000    16.0000 </r>
       <r>     4.0299     0.0000    16.0000 </r>
       <r>     4.1688     0.0000    16.0000 </r>
       <r>     4.3076     0.0000    16.0000 </r>
       <r>     4.4464     0.0083    16.0012 </r>
       <r>     4.5852     0.0031    16.0016 </r>
       <r>     4.7241     0.0678    16.0198 </r>
       <r>     4.8629     0.1879    16.0469 </r>
       <r>     5.0017     0.1000    16.0833 </r>
       <r>     5.1405     0.1187    16.1831 </r>
       <r>     5.2794     0.2055    16.2253 </r>
       <r>     5.4182     0.1009    16.3288 </r>
       <r>     5.5570     0.3139    16.4973 </r>
       <r>     5.6958     0.5639    16.6176 </r>
       <r>     5.8347     1.2005    17.0625 </r>
       <r>     5.9735     0.5462    17.3883 </r>
       <r>     6.1123     1.2913    17.6237 </r>
       <r>     6.2512     2.0460    17.9368 </r>
       <r>     6.3900     0.4352    18.0257 </r>
       <r>     6.5288     0.4031    18.1740 </r>
       <r>     6.6676     1.1349    18.3937 </r>
       <r>     6.8065     1.3568    18.6154 </r>
       <r>     6.9453     0.7922    18.7477 </r>
       <r>     7.0841     1.0714    18.9902 </r>
       <r>     7.2229     2.3345    19.3866 </r>
       <r>     7.3618     0.5533    19.5467 </r>
       <r>     7.5006     0.5846    19.6900 </r>
       <r>     7.6394     1.2018    20.0025 </r>
       <r>     7.7782     0.8356    20.2086 </r>
       <r>     7.9171     0.8307    20.4903 </r>
       <r>     8.0559     1.2405    20.7787 </r>
       <r>     8.1947     1.4129    21.0850 </r>
       <r>     8.3335     1.1783    21.5664 </r>
       <r>     8.4724     1.7873    22.0537 </r>
       <r>     8.6112     0.9271    22.2954 </r>
       <r>     8.7500     0.8755    22.5382 </r>
       <r>     8.8889     0.1334    22.6713 </r>
       <r>     9.0277     0.5878    22.8547 </r>
       <r>     9.1665     1.4657    23.0738 </r>
       <r>     9.3053     0.7372    23.2783 </r>
       <r>     9.4442     0.2498    23.4837 </r>
       <r>     9.5830     1.0791    23.6961 </r>
       <r>     9.7218     1.2859    23.9054 </r>
       <r>     9.8606     2.1662    24.2544 </r>
       <r>     9.9995     0.8854    24.3995 </r>
       <r>    10.1383     0.7949    24.8314 </r>
       <r>    10.2771     1.4835    25.1215 </r>
       <r>    10.4159     0.6192    25.2075 </r>
       <r>    10.5548     0.1791    25.3408 </r>
       <r>    10.6936     1.3849    25.6055 </r>
       <r>    10.8324     0.9137    25.9220 </r>
       <r>    10.9713     1.4385    26.2622 </r>
       <r>    11.1101     0.4007    26.5116 </r>
       <r>    11.2489     0.2550    26.6303 </r>
       <r>    11.3877     0.1995    26.7071 </r>
       <r>    11.5266     0.7670    26.8275 </r>
       <r>    11.6654     0.1985    26.8644 </r>
       <r>    11.8042     0.5853    27.0917 </r>
       <r>    11.9430     1.3968    27.3710 </r>
       <r>    12.0819     1.1149    27.5819 </r>
       <r>    12.2207     0.2056    27.7195 </r>
       <r>    12.3595     1.1040    27.8998 </r>
       <r>    12.4983     0.2323    27.9871 </r>
       <r>    12.6372     0.9004    28.1238 </r>
       <r>    12.7760     0.0022    28.1797 </r>
       <r>    12.9148     0.2001    28.2905 </r>
       <r>    13.0537     0.9049    28.4925 </r>
       <r>    13.1925     1.7018    28.7837 </r>
       <r>    13.3313     0.8004    29.0475 </r>
       <r>    13.4701     0.3099    29.1183 </r>
       <r>    13.6090     0.0667    29.2095 </r>
       <r>    13.7478     0.5125    29.3084 </r>
       <r>    13.8866     0.4041    29.3721 </r>
       <r>    14.0254     0.4165    29.5196 </r>
       <r>    14.1643     0.7310    29.6513 </r>
       <r>    14.3031     1.9966    30.0631 </r>
       <r>    14.4419     0.5640    30.1697 </r>
       <r>    14.5807     1.1504    30.3622 </r>
       <r>    14.7196     0.2616    30.4125 </r>
       <r>    14.8584     0.4002    30.6215 </r>
       <r>    14.9972     1.8554    30.9624 </r>
       <r>    15.1361     0.4002    31.1076 </r>
       <r>    15.2749     0.7999    31.2742 </r>
       <r>    15.4137     0.4002    31.3299 </r>
       <r>    15.5525     0.9004    31.5104 </r>
       <r>    15.6914     0.0000    31.5521 </r>
       <r>    15.8302     0.2015    31.6356 </r>
       <r>    15.9690     0.3001    31.7049 </r>
       <r>    16.1078     0.6455    31.7945 </r>
       <r>    16.2467     0.3016    31.8671 </r>
       <r>    16.3855     0.2001    31.8993 </r>
       <r>    16.5243     0.2998    31.9409 </r>
       <r>    16.6631     0.0962    31.9543 </r>
       <r>    16.8020     0.0000    31.9780 </r>
       <r>    16.9408     0.0157    31.9871 </r>
       <r>    17.0796     0.0000    31.9931 </r>
       <r>    17.2185     0.0000    31.9931 </r>
       <r>    17.3573     0.0000    31.9931 </r>
       <r>    17.4961     0.0000    32.0000 </r>
       <r>    17.6349     0.0000    32.0000 </r>
       <r>    17.7738     0.0000    32.0000 </r>
       <r>    17.9126     0.0000    32.0000 </r>
       <r>    18.0514     0.0000    32.0000 </r>
       <r>    18.1902     0.0000    32.0000 </r>
       <r>    18.3291     0.0000    32.0000 </r>
       <r>    18.4679     0.0000    32.0000 </r>
       <r>    18.6067     0.0000    32.0000 </r>
       <r>    18.7455     0.0000    32.0000 </r>
       <r>    18.8844     0.0000    32.0000 </r>
       <r>    19.0232     0.0000    32.0000 </r>
       <r>    19.1620     0.0000    32.0000 </r>
       <r>    19.3009     0.0000    32.0000 </r>
      </set>
     </set>
    </array>
   </total>
  </dos>
 </calculation>
 <structure name="finalpos" >
  <crystal>
   <varray name="basis" >
    <v>      -3.00613930       0.00000000       3.00613930 </v>
    <v>       0.00000000       3.00613930       3.00613930 </v>
    <v>      -3.00613930       3.00613930       0.00000000 </v>
   </varray>
   <i name="volume">     54.33220084 </i>
   <varray name="rec_basis" >
    <v>      -0.16632629      -0.16632629       0.16632629 </v>
    <v>       0.16632629       0.16632629       0.16632629 </v>
    <v>      -0.16632629       0.16632629      -0.16632629 </v>
   </varray>
  </crystal>
  <varray name="positions" >
   <v>       0.00000000       0.00000000       0.00000000 </v>
   <v>       0.49999996       0.50000004       0.49999996 </v>
  </varray>
 </structure>
</modeling>
