 
             +---------------------------------------------------+
             |                                                   |
             |                   WANNIER90                       |
             |                                                   |
             +---------------------------------------------------+
             |                                                   |
             |        Welcome to the Maximally-Localized         |
             |        Generalized Wannier Functions code         |
             |            http://www.wannier.org                 |
             |                                                   |
             |                                                   |
             |  Wannier90 Developer Group:                       |
             |    Giovanni Pizzi    (EPFL)                       |
             |    Valerio Vitale    (Cambridge)                  |
             |    David Vanderbilt  (Rutgers University)         |
             |    Nicola Marzari    (EPFL)                       |
             |    Ivo Souza         (Universidad del Pais Vasco) |
             |    Arash A. Mostofi  (Imperial College London)    |
             |    Jonathan R. Yates (University of Oxford)       |
             |                                                   |
             |  For the full list of Wannier90 3.x authors,      |
             |  please check the code documentation and the      |
             |  README on the GitHub page of the code            |
             |                                                   |
             |                                                   |
             |  Please cite                                      |
             |                                                   |
             |  [ref] "Wannier90 as a community code:            |
             |        new features and applications",            |
             |        G. Pizzi et al., J. Phys. Cond. Matt. 32,  |
             |        165902 (2020).                             |
             |        http://doi.org/10.1088/1361-648X/ab51ff    |
             |                                                   |
             |  in any publications arising from the use of      |
             |  this code. For the method please cite            |
             |                                                   |
             |  [ref] "Maximally Localized Generalised Wannier   |
             |         Functions for Composite Energy Bands"     |
             |         N. Marzari and D. Vanderbilt              |
             |         Phys. Rev. B 56 12847 (1997)              |
             |                                                   |
             |  [ref] "Maximally Localized Wannier Functions     |
             |         for Entangled Energy Bands"               |
             |         I. Souza, N. Marzari and D. Vanderbilt    |
             |         Phys. Rev. B 65 035109 (2001)             |
             |                                                   |
             |                                                   |
             | Copyright (c) 1996-2020                           |
             |        The Wannier90 Developer Group and          |
             |        individual contributors                    |
             |                                                   |
             |      Release: 3.1.0        5th March    2020      |
             |                                                   |
             | This program is free software; you can            |
             | redistribute it and/or modify it under the terms  |
             | of the GNU General Public License as published by |
             | the Free Software Foundation; either version 2 of |
             | the License, or (at your option) any later version|
             |                                                   |
             | This program is distributed in the hope that it   |
             | will be useful, but WITHOUT ANY WARRANTY; without |
             | even the implied warranty of MERCHANTABILITY or   |
             | FITNESS FOR A PARTICULAR PURPOSE. See the GNU     |
             | General Public License for more details.          |
             |                                                   |
             | You should have received a copy of the GNU General|
             | Public License along with this program; if not,   |
             | write to the Free Software Foundation, Inc.,      |
             | 675 Mass Ave, Cambridge, MA 02139, USA.           |
             |                                                   |
             +---------------------------------------------------+
             |    Execution started on  3Jan2024 at 14:38:39     |
             +---------------------------------------------------+
 
 ******************************************************************************
 * -> Using CODATA 2006 constant values                                       *
 *    (http://physics.nist.gov/cuu/Constants/index.html)                      *
 * -> Using Bohr value from CODATA                                            *
 ******************************************************************************
 

 Running in parallel on   8 CPUs

 
                                    ------
                                    SYSTEM
                                    ------
 
                              Lattice Vectors (Ang)
                    a_1    -3.542435   0.000000   3.542435
                    a_2     0.000000   3.542435   3.542435
                    a_3    -3.542435   3.542435   0.000000
 
                   Unit Cell Volume:      88.90694  (Ang^3)
 
                        Reciprocal-Space Vectors (Ang^-1)
                    b_1    -0.886846  -0.886846   0.886846
                    b_2     0.886846   0.886846   0.886846
                    b_3    -0.886846   0.886846  -0.886846
  
 *----------------------------------------------------------------------------*
 |   Site       Fractional Coordinate          Cartesian Coordinate (Ang)     |
 +----------------------------------------------------------------------------+
 | K    1   0.00000   0.00000   0.00000   |    0.00000   0.00000   0.00000    |
 | I    1   0.50000   0.50000   0.50000   |   -3.54243   3.54243   3.54243    |
 *----------------------------------------------------------------------------*
                                ------------
                                K-POINT GRID
                                ------------
  
             Grid size = 12 x 12 x 12      Total points = 1728
  
  
 *---------------------------------- MAIN ------------------------------------*
 |  Number of Wannier Functions               :                 3             |
 |  Number of Objective Wannier Functions     :                 3             |
 |  Number of input Bloch states              :                 3             |
 |  Output verbosity (1=low, 5=high)          :                 1             |
 |  Timing Level (1=low, 5=high)              :                 1             |
 |  Optimisation (0=memory, 3=speed)          :                 3             |
 |  Length Unit                               :               Ang             |
 |  Post-processing setup (write *.nnkp)      :                 F             |
 |  Using Gamma-only branch of algorithms     :                 F             |
 *----------------------------------------------------------------------------*
 *------------------------------- WANNIERISE ---------------------------------*
 |  Total number of iterations                :               500             |
 |  Number of CG steps before reset           :                 5             |
 |  Trial step length for line search         :             2.000             |
 |  Convergence tolerence                     :         0.100E-09             |
 |  Convergence window                        :                -1             |
 |  Iterations between writing output         :                 1             |
 |  Iterations between backing up to disk     :               100             |
 |  Write r^2_nm to file                      :                 F             |
 |  Write xyz WF centres to file              :                 F             |
 |  Write on-site energies <0n|H|0n> to file  :                 F             |
 |  Use guiding centre to control phases      :                 F             |
 |  Use phases for initial projections        :                 F             |
 *----------------------------------------------------------------------------*
 Time to read parameters        0.100 (sec)

 *---------------------------------- K-MESH ----------------------------------*
 +----------------------------------------------------------------------------+
 |                    Distance to Nearest-Neighbour Shells                    |
 |                    ------------------------------------                    |
 |          Shell             Distance (Ang^-1)          Multiplicity         |
 |          -----             -----------------          ------------         |
 |             1                   0.128005                      8            |
 |             2                   0.147808                      6            |
 |             3                   0.209031                     12            |
 |             4                   0.245111                     24            |
 |             5                   0.256010                      8            |
 |             6                   0.295615                      6            |
 |             7                   0.322139                     24            |
 |             8                   0.330508                     24            |
 |             9                   0.362053                     24            |
 |            10                   0.384015                     32            |
 |            11                   0.418063                     12            |
 |            12                   0.437221                     48            |
 |            13                   0.443423                     30            |
 |            14                   0.467409                     24            |
 |            15                   0.484620                     24            |
 |            16                   0.490222                     24            |
 |            17                   0.512021                      8            |
 |            18                   0.527779                     48            |
 |            19                   0.532928                     24            |
 |            20                   0.553045                     48            |
 |            21                   0.567666                     72            |
 |            22                   0.591230                      6            |
 |            23                   0.604929                     24            |
 |            24                   0.609426                     48            |
 |            25                   0.627094                     36            |
 |            26                   0.640026                     56            |
 |            27                   0.644278                     24            |
 |            28                   0.661016                     24            |
 |            29                   0.673296                     72            |
 |            30                   0.677339                     48            |
 |            31                   0.693279                     24            |
 |            32                   0.704997                     48            |
 |            33                   0.724106                     24            |
 |            34                   0.735333                     72            |
 |            35                   0.739038                     30            |
 |            36                   0.753674                     72            |
 +----------------------------------------------------------------------------+
 | The b-vectors are chosen automatically                                     |
 | The following shells are used:   1                                         |
 +----------------------------------------------------------------------------+
 |                        Shell   # Nearest-Neighbours                        |
 |                        -----   --------------------                        |
 |                          1               8                                 |
 +----------------------------------------------------------------------------+
 | Completeness relation is fully satisfied [Eq. (B1), PRB 56, 12847 (1997)]  |
 +----------------------------------------------------------------------------+
 |                  b_k Vectors (Ang^-1) and Weights (Ang^2)                  |
 |                  ----------------------------------------                  |
 |            No.         b_k(x)      b_k(y)      b_k(z)        w_b           |
 |            ---        --------------------------------     --------        |
 |             1        -0.073904    0.073904   -0.073904    22.886352        |
 |             2         0.073904    0.073904    0.073904    22.886352        |
 |             3        -0.073904   -0.073904    0.073904    22.886352        |
 |             4        -0.073904    0.073904    0.073904    22.886352        |
 |             5         0.073904   -0.073904    0.073904    22.886352        |
 |             6        -0.073904   -0.073904   -0.073904    22.886352        |
 |             7         0.073904    0.073904   -0.073904    22.886352        |
 |             8         0.073904   -0.073904   -0.073904    22.886352        |
 +----------------------------------------------------------------------------+
 |                           b_k Directions (Ang^-1)                          |
 |                           -----------------------                          |
 |            No.           x           y           z                         |
 |            ---        --------------------------------                     |
 |             1        -0.073904    0.073904   -0.073904                     |
 |             2         0.073904    0.073904    0.073904                     |
 |             3        -0.073904   -0.073904    0.073904                     |
 |             4        -0.073904    0.073904    0.073904                     |
 +----------------------------------------------------------------------------+
  
 Time to get kmesh              1.068 (sec)
 *============================================================================*
 |                              MEMORY ESTIMATE                               |
 |         Maximum RAM allocated during each phase of the calculation         |
 *============================================================================*
 |                            Wannierise:            7.00 Mb                  |
 |                          plot_wannier:            7.00 Mb                  |
 *----------------------------------------------------------------------------*
  
 Starting a new Wannier90 calculation ...


 Reading overlaps from mp-22898.mmn    :  Created on  3Jan2024 at 14:38:25

 Reading projections from mp-22898.amn :  Created on  3Jan2024 at 14:38:24  with SCDM

 Time to read overlaps          0.144 (sec)

 Writing checkpoint file mp-22898.chk... done

 
 *------------------------------- WANNIERISE ---------------------------------*
 +--------------------------------------------------------------------+<-- CONV
 | Iter  Delta Spread     RMS Gradient      Spread (Ang^2)      Time  |<-- CONV
 +--------------------------------------------------------------------+<-- CONV
 
 ------------------------------------------------------------------------------
 Initial State
  WF centre and spread    1  ( -0.000476, -0.000232,  3.543267 )     2.40532402
  WF centre and spread    2  (  3.543459, -0.000386, -0.000136 )     2.40446999
  WF centre and spread    3  ( -0.000388,  3.543266, -0.000493 )     2.40516868
  Sum of centres and spreads (  3.542595,  3.542648,  3.542638 )     7.21496270
 
      0     0.721E+01     0.0000000000        7.2149657131       0.00  <-- CONV
        O_D=      0.0412326 O_OD=      0.0557715 O_TOT=      7.2149657 <-- SPRD
 ------------------------------------------------------------------------------
 Cycle:      1
  WF centre and spread    1  ( -0.000087, -0.000052,  3.542592 )     2.38003152
  WF centre and spread    2  (  3.542616, -0.000069, -0.000033 )     2.37998878
  WF centre and spread    3  ( -0.000064,  3.542590, -0.000091 )     2.38014292
  Sum of centres and spreads (  3.542465,  3.542469,  3.542468 )     7.14016322
 
      1    -0.748E-01     0.0726192621        7.1401662323       0.01  <-- CONV
        O_D=      0.0043525 O_OD=      0.0178520 O_TOT=      7.1401662 <-- SPRD
 Delta: O_D= -0.3688004E-01 O_OD= -0.3791944E-01 O_TOT= -0.7479948E-01 <-- DLTA
 ------------------------------------------------------------------------------
 Cycle:      2
  WF centre and spread    1  ( -0.000044, -0.000029,  3.542518 )     2.37790147
  WF centre and spread    2  (  3.542527, -0.000035, -0.000019 )     2.37790883
  WF centre and spread    3  ( -0.000031,  3.542517, -0.000047 )     2.37801833
  Sum of centres and spreads (  3.542452,  3.542453,  3.542452 )     7.13382863
 
      2    -0.633E-02     0.0406140494        7.1338316444       0.01  <-- CONV
        O_D=      0.0014555 O_OD=      0.0144145 O_TOT=      7.1338316 <-- SPRD
 Delta: O_D= -0.2897082E-02 O_OD= -0.3437506E-02 O_TOT= -0.6334588E-02 <-- DLTA
 ------------------------------------------------------------------------------
 Cycle:      3
  WF centre and spread    1  ( -0.000028, -0.000019,  3.542490 )     2.37729124
  WF centre and spread    2  (  3.542495, -0.000023, -0.000013 )     2.37731530
  WF centre and spread    3  ( -0.000019,  3.542489, -0.000030 )     2.37741891
  Sum of centres and spreads (  3.542447,  3.542447,  3.542447 )     7.13202545
 
      3    -0.180E-02     0.0365845409        7.1320284632       0.02  <-- CONV
        O_D=      0.0007230 O_OD=      0.0133438 O_TOT=      7.1320285 <-- SPRD
 Delta: O_D= -0.7324404E-03 O_OD= -0.1070741E-02 O_TOT= -0.1803181E-02 <-- DLTA
 ------------------------------------------------------------------------------
 Cycle:      4
  WF centre and spread    1  ( -0.000015, -0.000010,  3.542466 )     2.37691752
  WF centre and spread    2  (  3.542468, -0.000012, -0.000007 )     2.37694857
  WF centre and spread    3  ( -0.000010,  3.542465, -0.000017 )     2.37705305
  Sum of centres and spreads (  3.542442,  3.542442,  3.542442 )     7.13091914
 
      4    -0.111E-02     0.0241178584        7.1309221508       0.03  <-- CONV
        O_D=      0.0002844 O_OD=      0.0126761 O_TOT=      7.1309222 <-- SPRD
 Delta: O_D= -0.4386116E-03 O_OD= -0.6677008E-03 O_TOT= -0.1106312E-02 <-- DLTA
 ------------------------------------------------------------------------------
 Cycle:      5
  WF centre and spread    1  ( -0.000008, -0.000006,  3.542452 )     2.37676637
  WF centre and spread    2  (  3.542453, -0.000007, -0.000004 )     2.37679874
  WF centre and spread    3  ( -0.000005,  3.542452, -0.000009 )     2.37690473
  Sum of centres and spreads (  3.542440,  3.542439,  3.542439 )     7.13046984
 
      5    -0.449E-03     0.0168078747        7.1304728564       0.03  <-- CONV
        O_D=      0.0001203 O_OD=      0.0123910 O_TOT=      7.1304729 <-- SPRD
 Delta: O_D= -0.1641577E-03 O_OD= -0.2851367E-03 O_TOT= -0.4492944E-03 <-- DLTA
 ------------------------------------------------------------------------------
 Cycle:      6
  WF centre and spread    1  ( -0.000004, -0.000003,  3.542444 )     2.37669835
  WF centre and spread    2  (  3.542444, -0.000004, -0.000002 )     2.37673036
  WF centre and spread    3  ( -0.000002,  3.542444, -0.000005 )     2.37683823
  Sum of centres and spreads (  3.542438,  3.542437,  3.542437 )     7.13026694
 
      6    -0.203E-03     0.0110915401        7.1302699534       0.04  <-- CONV
        O_D=      0.0000433 O_OD=      0.0122650 O_TOT=      7.1302700 <-- SPRD
 Delta: O_D= -0.7691837E-04 O_OD= -0.1259846E-03 O_TOT= -0.2029030E-03 <-- DLTA
 ------------------------------------------------------------------------------
 Cycle:      7
  WF centre and spread    1  ( -0.000003, -0.000003,  3.542444 )     2.37667953
  WF centre and spread    2  (  3.542443, -0.000003, -0.000002 )     2.37671126
  WF centre and spread    3  ( -0.000002,  3.542443, -0.000004 )     2.37681960
  Sum of centres and spreads (  3.542438,  3.542437,  3.542437 )     7.13021039
 
      7    -0.566E-04     0.0071980860        7.1302134006       0.05  <-- CONV
        O_D=      0.0000205 O_OD=      0.0122313 O_TOT=      7.1302134 <-- SPRD
 Delta: O_D= -0.2288709E-04 O_OD= -0.3366566E-04 O_TOT= -0.5655275E-04 <-- DLTA
 ------------------------------------------------------------------------------
 Cycle:      8
  WF centre and spread    1  ( -0.000003, -0.000002,  3.542442 )     2.37666961
  WF centre and spread    2  (  3.542441, -0.000003, -0.000002 )     2.37670071
  WF centre and spread    3  ( -0.000001,  3.542442, -0.000004 )     2.37680980
  Sum of centres and spreads (  3.542437,  3.542437,  3.542437 )     7.13018012
 
      8    -0.303E-04     0.0042402266        7.1301831364       0.05  <-- CONV
        O_D=      0.0000077 O_OD=      0.0122137 O_TOT=      7.1301831 <-- SPRD
 Delta: O_D= -0.1270066E-04 O_OD= -0.1756361E-04 O_TOT= -0.3026428E-04 <-- DLTA
 ------------------------------------------------------------------------------
 Cycle:      9
  WF centre and spread    1  ( -0.000002, -0.000002,  3.542441 )     2.37666547
  WF centre and spread    2  (  3.542440, -0.000002, -0.000002 )     2.37669611
  WF centre and spread    3  ( -0.000001,  3.542441, -0.000003 )     2.37680573
  Sum of centres and spreads (  3.542437,  3.542436,  3.542436 )     7.13016731
 
      9    -0.128E-04     0.0028350453        7.1301703204       0.06  <-- CONV
        O_D=      0.0000029 O_OD=      0.0122057 O_TOT=      7.1301703 <-- SPRD
 Delta: O_D= -0.4816050E-05 O_OD= -0.7999953E-05 O_TOT= -0.1281600E-04 <-- DLTA
 ------------------------------------------------------------------------------
 Cycle:     10
  WF centre and spread    1  ( -0.000001, -0.000001,  3.542440 )     2.37666394
  WF centre and spread    2  (  3.542439, -0.000002, -0.000001 )     2.37669434
  WF centre and spread    3  ( -0.000001,  3.542439, -0.000002 )     2.37680425
  Sum of centres and spreads (  3.542437,  3.542436,  3.542436 )     7.13016254
 
     10    -0.477E-05     0.0017433323        7.1301655471       0.07  <-- CONV
        O_D=      0.0000013 O_OD=      0.0122026 O_TOT=      7.1301655 <-- SPRD
 Delta: O_D= -0.1675240E-05 O_OD= -0.3098056E-05 O_TOT= -0.4773296E-05 <-- DLTA
 ------------------------------------------------------------------------------
 Cycle:     11
  WF centre and spread    1  ( -0.000001, -0.000001,  3.542439 )     2.37666310
  WF centre and spread    2  (  3.542437, -0.000001, -0.000001 )     2.37669332
  WF centre and spread    3  ( -0.000000,  3.542439, -0.000002 )     2.37680346
  Sum of centres and spreads (  3.542436,  3.542436,  3.542436 )     7.13015988
 
     11    -0.266E-05     0.0012547328        7.1301628917       0.07  <-- CONV
        O_D=      0.0000005 O_OD=      0.0122008 O_TOT=      7.1301629 <-- SPRD
 Delta: O_D= -0.7903513E-06 O_OD= -0.1865032E-05 O_TOT= -0.2655383E-05 <-- DLTA
 ------------------------------------------------------------------------------
 Cycle:     12
  WF centre and spread    1  ( -0.000001, -0.000001,  3.542438 )     2.37666286
  WF centre and spread    2  (  3.542437, -0.000001, -0.000001 )     2.37669305
  WF centre and spread    3  (  0.000000,  3.542438, -0.000002 )     2.37680323
  Sum of centres and spreads (  3.542436,  3.542436,  3.542436 )     7.13015914
 
     12    -0.741E-06     0.0006629740        7.1301621504       0.08  <-- CONV
        O_D=      0.0000003 O_OD=      0.0122002 O_TOT=      7.1301622 <-- SPRD
 Delta: O_D= -0.2025917E-06 O_OD= -0.5386921E-06 O_TOT= -0.7412838E-06 <-- DLTA
 ------------------------------------------------------------------------------
 Cycle:     13
  WF centre and spread    1  ( -0.000000, -0.000001,  3.542438 )     2.37666275
  WF centre and spread    2  (  3.542437, -0.000001, -0.000001 )     2.37669294
  WF centre and spread    3  (  0.000000,  3.542438, -0.000001 )     2.37680312
  Sum of centres and spreads (  3.542436,  3.542436,  3.542436 )     7.13015881
 
     13    -0.329E-06     0.0005526980        7.1301618214       0.09  <-- CONV
        O_D=      0.0000001 O_OD=      0.0122000 O_TOT=      7.1301618 <-- SPRD
 Delta: O_D= -0.1186041E-06 O_OD= -0.2103593E-06 O_TOT= -0.3289634E-06 <-- DLTA
 ------------------------------------------------------------------------------
 Cycle:     14
  WF centre and spread    1  ( -0.000000, -0.000001,  3.542438 )     2.37666264
  WF centre and spread    2  (  3.542436, -0.000001, -0.000001 )     2.37669283
  WF centre and spread    3  (  0.000000,  3.542437, -0.000001 )     2.37680302
  Sum of centres and spreads (  3.542436,  3.542436,  3.542436 )     7.13015848
 
     14    -0.326E-06     0.0003763226        7.1301614950       0.09  <-- CONV
        O_D=      0.0000001 O_OD=      0.0121998 O_TOT=      7.1301615 <-- SPRD
 Delta: O_D= -0.8342217E-07 O_OD= -0.2429664E-06 O_TOT= -0.3263885E-06 <-- DLTA
 ------------------------------------------------------------------------------
 Cycle:     15
  WF centre and spread    1  (  0.000000, -0.000001,  3.542437 )     2.37666257
  WF centre and spread    2  (  3.542436, -0.000001, -0.000001 )     2.37669278
  WF centre and spread    3  (  0.000000,  3.542437, -0.000001 )     2.37680297
  Sum of centres and spreads (  3.542436,  3.542436,  3.542436 )     7.13015832
 
     15    -0.167E-06     0.0003087174        7.1301613277       0.10  <-- CONV
        O_D=      0.0000000 O_OD=      0.0121996 O_TOT=      7.1301613 <-- SPRD
 Delta: O_D= -0.2182430E-07 O_OD= -0.1455310E-06 O_TOT= -0.1673553E-06 <-- DLTA
 ------------------------------------------------------------------------------
 Cycle:     16
  WF centre and spread    1  (  0.000000, -0.000000,  3.542437 )     2.37666252
  WF centre and spread    2  (  3.542435, -0.000001, -0.000001 )     2.37669274
  WF centre and spread    3  (  0.000001,  3.542437, -0.000001 )     2.37680293
  Sum of centres and spreads (  3.542436,  3.542436,  3.542436 )     7.13015819
 
     16    -0.124E-06     0.0002489867        7.1301612034       0.11  <-- CONV
        O_D=      0.0000000 O_OD=      0.0121995 O_TOT=      7.1301612 <-- SPRD
 Delta: O_D= -0.8083567E-08 O_OD= -0.1161666E-06 O_TOT= -0.1242502E-06 <-- DLTA
 ------------------------------------------------------------------------------
 Cycle:     17
  WF centre and spread    1  (  0.000001, -0.000000,  3.542436 )     2.37666247
  WF centre and spread    2  (  3.542435, -0.000000, -0.000001 )     2.37669270
  WF centre and spread    3  (  0.000001,  3.542436, -0.000000 )     2.37680291
  Sum of centres and spreads (  3.542436,  3.542435,  3.542435 )     7.13015809
 
     17    -0.102E-06     0.0002145137        7.1301611017       0.12  <-- CONV
        O_D=      0.0000000 O_OD=      0.0121994 O_TOT=      7.1301611 <-- SPRD
 Delta: O_D= -0.4730917E-08 O_OD= -0.9700960E-07 O_TOT= -0.1017405E-06 <-- DLTA
 ------------------------------------------------------------------------------
 Cycle:     18
  WF centre and spread    1  (  0.000001,  0.000000,  3.542436 )     2.37666244
  WF centre and spread    2  (  3.542434, -0.000000, -0.000000 )     2.37669268
  WF centre and spread    3  (  0.000001,  3.542435, -0.000000 )     2.37680291
  Sum of centres and spreads (  3.542436,  3.542435,  3.542435 )     7.13015802
 
     18    -0.695E-07     0.0001870859        7.1301610322       0.12  <-- CONV
        O_D=      0.0000000 O_OD=      0.0121994 O_TOT=      7.1301610 <-- SPRD
 Delta: O_D= -0.7062701E-08 O_OD= -0.6242806E-07 O_TOT= -0.6949076E-07 <-- DLTA
 ------------------------------------------------------------------------------
 Cycle:     19
  WF centre and spread    1  (  0.000001,  0.000000,  3.542436 )     2.37666242
  WF centre and spread    2  (  3.542434, -0.000000, -0.000000 )     2.37669266
  WF centre and spread    3  (  0.000001,  3.542435, -0.000000 )     2.37680290
  Sum of centres and spreads (  3.542436,  3.542435,  3.542435 )     7.13015798
 
     19    -0.391E-07     0.0001940530        7.1301609931       0.13  <-- CONV
        O_D=      0.0000000 O_OD=      0.0121993 O_TOT=      7.1301610 <-- SPRD
 Delta: O_D= -0.1244726E-07 O_OD= -0.2664347E-07 O_TOT= -0.3909073E-07 <-- DLTA
 ------------------------------------------------------------------------------
 Cycle:     20
  WF centre and spread    1  (  0.000001,  0.000000,  3.542436 )     2.37666241
  WF centre and spread    2  (  3.542434, -0.000000, -0.000000 )     2.37669265
  WF centre and spread    3  (  0.000001,  3.542435, -0.000000 )     2.37680289
  Sum of centres and spreads (  3.542436,  3.542435,  3.542435 )     7.13015795
 
     20    -0.322E-07     0.0001205348        7.1301609609       0.14  <-- CONV
        O_D=      0.0000000 O_OD=      0.0121993 O_TOT=      7.1301610 <-- SPRD
 Delta: O_D= -0.4199711E-08 O_OD= -0.2799071E-07 O_TOT= -0.3219042E-07 <-- DLTA
 ------------------------------------------------------------------------------
 Cycle:     21
  WF centre and spread    1  (  0.000001,  0.000000,  3.542436 )     2.37666239
  WF centre and spread    2  (  3.542434, -0.000000, -0.000000 )     2.37669263
  WF centre and spread    3  (  0.000001,  3.542435, -0.000000 )     2.37680289
  Sum of centres and spreads (  3.542436,  3.542435,  3.542435 )     7.13015791
 
     21    -0.423E-07     0.0001086410        7.1301609186       0.14  <-- CONV
        O_D=      0.0000000 O_OD=      0.0121993 O_TOT=      7.1301609 <-- SPRD
 Delta: O_D=  0.6678257E-08 O_OD= -0.4896167E-07 O_TOT= -0.4228341E-07 <-- DLTA
 ------------------------------------------------------------------------------
 Cycle:     22
  WF centre and spread    1  (  0.000001,  0.000000,  3.542436 )     2.37666234
  WF centre and spread    2  (  3.542434, -0.000000, -0.000000 )     2.37669261
  WF centre and spread    3  (  0.000001,  3.542435,  0.000000 )     2.37680289
  Sum of centres and spreads (  3.542436,  3.542435,  3.542435 )     7.13015784
 
     22    -0.711E-07     0.0001602563        7.1301608475       0.15  <-- CONV
        O_D=      0.0000000 O_OD=      0.0121992 O_TOT=      7.1301608 <-- SPRD
 Delta: O_D=  0.2012722E-07 O_OD= -0.9123040E-07 O_TOT= -0.7110318E-07 <-- DLTA
 ------------------------------------------------------------------------------
 Cycle:     23
  WF centre and spread    1  (  0.000001,  0.000000,  3.542436 )     2.37666225
  WF centre and spread    2  (  3.542434, -0.000000, -0.000000 )     2.37669257
  WF centre and spread    3  (  0.000001,  3.542435,  0.000000 )     2.37680288
  Sum of centres and spreads (  3.542436,  3.542435,  3.542435 )     7.13015770
 
     23    -0.136E-06     0.0001982198        7.1301607118       0.16  <-- CONV
        O_D=      0.0000001 O_OD=      0.0121990 O_TOT=      7.1301607 <-- SPRD
 Delta: O_D=  0.4275518E-07 O_OD= -0.1785335E-06 O_TOT= -0.1357783E-06 <-- DLTA
 ------------------------------------------------------------------------------
 Cycle:     24
  WF centre and spread    1  (  0.000001,  0.000000,  3.542436 )     2.37666215
  WF centre and spread    2  (  3.542434, -0.000000, -0.000000 )     2.37669252
  WF centre and spread    3  (  0.000001,  3.542435,  0.000000 )     2.37680288
  Sum of centres and spreads (  3.542436,  3.542435,  3.542435 )     7.13015755
 
     24    -0.154E-06     0.0002586031        7.1301605577       0.16  <-- CONV
        O_D=      0.0000001 O_OD=      0.0121988 O_TOT=      7.1301606 <-- SPRD
 Delta: O_D=  0.5335211E-07 O_OD= -0.2074392E-06 O_TOT= -0.1540871E-06 <-- DLTA
 ------------------------------------------------------------------------------
 Cycle:     25
  WF centre and spread    1  (  0.000001,  0.000000,  3.542436 )     2.37666210
  WF centre and spread    2  (  3.542434, -0.000000, -0.000000 )     2.37669246
  WF centre and spread    3  (  0.000001,  3.542435,  0.000000 )     2.37680283
  Sum of centres and spreads (  3.542436,  3.542435,  3.542435 )     7.13015739
 
     25    -0.159E-06     0.0003642899        7.1301603990       0.17  <-- CONV
        O_D=      0.0000001 O_OD=      0.0121987 O_TOT=      7.1301604 <-- SPRD
 Delta: O_D= -0.5504121E-07 O_OD= -0.1036459E-06 O_TOT= -0.1586871E-06 <-- DLTA
 ------------------------------------------------------------------------------
 Cycle:     26
  WF centre and spread    1  (  0.000001,  0.000000,  3.542436 )     2.37666205
  WF centre and spread    2  (  3.542434, -0.000000, -0.000000 )     2.37669240
  WF centre and spread    3  (  0.000001,  3.542435,  0.000000 )     2.37680279
  Sum of centres and spreads (  3.542436,  3.542435,  3.542435 )     7.13015724
 
     26    -0.148E-06     0.0002552109        7.1301602511       0.18  <-- CONV
        O_D=      0.0000000 O_OD=      0.0121986 O_TOT=      7.1301603 <-- SPRD
 Delta: O_D= -0.3923058E-07 O_OD= -0.1086995E-06 O_TOT= -0.1479301E-06 <-- DLTA
 ------------------------------------------------------------------------------
 Cycle:     27
  WF centre and spread    1  (  0.000001,  0.000000,  3.542436 )     2.37666202
  WF centre and spread    2  (  3.542434, -0.000000, -0.000000 )     2.37669235
  WF centre and spread    3  (  0.000001,  3.542435,  0.000000 )     2.37680278
  Sum of centres and spreads (  3.542436,  3.542435,  3.542435 )     7.13015715
 
     27    -0.911E-07     0.0002212872        7.1301601600       0.18  <-- CONV
        O_D=      0.0000000 O_OD=      0.0121985 O_TOT=      7.1301602 <-- SPRD
 Delta: O_D= -0.1793146E-07 O_OD= -0.7313631E-07 O_TOT= -0.9106776E-07 <-- DLTA
 ------------------------------------------------------------------------------
 Cycle:     28
  WF centre and spread    1  (  0.000001,  0.000000,  3.542436 )     2.37666200
  WF centre and spread    2  (  3.542434, -0.000000, -0.000000 )     2.37669232
  WF centre and spread    3  (  0.000001,  3.542435,  0.000000 )     2.37680277
  Sum of centres and spreads (  3.542436,  3.542435,  3.542435 )     7.13015710
 
     28    -0.516E-07     0.0001720811        7.1301601084       0.19  <-- CONV
        O_D=      0.0000000 O_OD=      0.0121985 O_TOT=      7.1301601 <-- SPRD
 Delta: O_D= -0.7075764E-08 O_OD= -0.4447447E-07 O_TOT= -0.5155023E-07 <-- DLTA
 ------------------------------------------------------------------------------
 Cycle:     29
  WF centre and spread    1  (  0.000001,  0.000000,  3.542436 )     2.37666198
  WF centre and spread    2  (  3.542434, -0.000000, -0.000000 )     2.37669230
  WF centre and spread    3  (  0.000001,  3.542435,  0.000000 )     2.37680278
  Sum of centres and spreads (  3.542436,  3.542435,  3.542435 )     7.13015705
 
     29    -0.420E-07     0.0001249244        7.1301600665       0.20  <-- CONV
        O_D=      0.0000000 O_OD=      0.0121984 O_TOT=      7.1301601 <-- SPRD
 Delta: O_D=  0.3596450E-08 O_OD= -0.4558778E-07 O_TOT= -0.4199133E-07 <-- DLTA
 ------------------------------------------------------------------------------
 Cycle:     30
  WF centre and spread    1  (  0.000001,  0.000000,  3.542436 )     2.37666196
  WF centre and spread    2  (  3.542434, -0.000000, -0.000000 )     2.37669226
  WF centre and spread    3  (  0.000001,  3.542435, -0.000000 )     2.37680279
  Sum of centres and spreads (  3.542436,  3.542435,  3.542435 )     7.13015701
 
     30    -0.460E-07     0.0001273596        7.1301600205       0.20  <-- CONV
        O_D=      0.0000000 O_OD=      0.0121983 O_TOT=      7.1301600 <-- SPRD
 Delta: O_D=  0.1791781E-07 O_OD= -0.6388785E-07 O_TOT= -0.4597004E-07 <-- DLTA
 ------------------------------------------------------------------------------
 Cycle:     31
  WF centre and spread    1  (  0.000001,  0.000000,  3.542436 )     2.37666195
  WF centre and spread    2  (  3.542434, -0.000000, -0.000000 )     2.37669225
  WF centre and spread    3  (  0.000001,  3.542435, -0.000000 )     2.37680277
  Sum of centres and spreads (  3.542436,  3.542435,  3.542435 )     7.13015697
 
     31    -0.419E-07     0.0002220696        7.1301599786       0.21  <-- CONV
        O_D=      0.0000000 O_OD=      0.0121983 O_TOT=      7.1301600 <-- SPRD
 Delta: O_D= -0.1861881E-07 O_OD= -0.2326567E-07 O_TOT= -0.4188447E-07 <-- DLTA
 ------------------------------------------------------------------------------
 Cycle:     32
  WF centre and spread    1  (  0.000001,  0.000000,  3.542436 )     2.37666193
  WF centre and spread    2  (  3.542434, -0.000000, -0.000000 )     2.37669224
  WF centre and spread    3  (  0.000001,  3.542435, -0.000000 )     2.37680276
  Sum of centres and spreads (  3.542436,  3.542435,  3.542435 )     7.13015693
 
     32    -0.397E-07     0.0001185796        7.1301599389       0.22  <-- CONV
        O_D=      0.0000000 O_OD=      0.0121983 O_TOT=      7.1301599 <-- SPRD
 Delta: O_D= -0.2944098E-08 O_OD= -0.3679549E-07 O_TOT= -0.3973958E-07 <-- DLTA
 ------------------------------------------------------------------------------
 Cycle:     33
  WF centre and spread    1  (  0.000001,  0.000000,  3.542436 )     2.37666190
  WF centre and spread    2  (  3.542434, -0.000000, -0.000000 )     2.37669223
  WF centre and spread    3  (  0.000001,  3.542435, -0.000000 )     2.37680275
  Sum of centres and spreads (  3.542436,  3.542435,  3.542435 )     7.13015688
 
     33    -0.438E-07     0.0001330856        7.1301598951       0.22  <-- CONV
        O_D=      0.0000000 O_OD=      0.0121982 O_TOT=      7.1301599 <-- SPRD
 Delta: O_D=  0.6790144E-08 O_OD= -0.5054717E-07 O_TOT= -0.4375702E-07 <-- DLTA
 ------------------------------------------------------------------------------
 Cycle:     34
  WF centre and spread    1  (  0.000001,  0.000000,  3.542436 )     2.37666185
  WF centre and spread    2  (  3.542434, -0.000000, -0.000000 )     2.37669222
  WF centre and spread    3  (  0.000001,  3.542435, -0.000000 )     2.37680273
  Sum of centres and spreads (  3.542436,  3.542435,  3.542435 )     7.13015680
 
     34    -0.823E-07     0.0001708830        7.1301598128       0.23  <-- CONV
        O_D=      0.0000000 O_OD=      0.0121981 O_TOT=      7.1301598 <-- SPRD
 Delta: O_D=  0.1243428E-07 O_OD= -0.9473482E-07 O_TOT= -0.8230054E-07 <-- DLTA
 ------------------------------------------------------------------------------
 Cycle:     35
  WF centre and spread    1  (  0.000001,  0.000000,  3.542436 )     2.37666179
  WF centre and spread    2  (  3.542434, -0.000000, -0.000000 )     2.37669220
  WF centre and spread    3  (  0.000001,  3.542435,  0.000000 )     2.37680272
  Sum of centres and spreads (  3.542436,  3.542435,  3.542435 )     7.13015671
 
     35    -0.918E-07     0.0002009316        7.1301597210       0.24  <-- CONV
        O_D=      0.0000000 O_OD=      0.0121980 O_TOT=      7.1301597 <-- SPRD
 Delta: O_D=  0.1611155E-07 O_OD= -0.1078934E-06 O_TOT= -0.9178187E-07 <-- DLTA
 ------------------------------------------------------------------------------
 Cycle:     36
  WF centre and spread    1  (  0.000001,  0.000000,  3.542436 )     2.37666172
  WF centre and spread    2  (  3.542434, -0.000000, -0.000000 )     2.37669217
  WF centre and spread    3  (  0.000001,  3.542435,  0.000000 )     2.37680271
  Sum of centres and spreads (  3.542436,  3.542435,  3.542435 )     7.13015660
 
     36    -0.107E-06     0.0001971470        7.1301596140       0.24  <-- CONV
        O_D=      0.0000001 O_OD=      0.0121979 O_TOT=      7.1301596 <-- SPRD
 Delta: O_D=  0.2891039E-07 O_OD= -0.1358843E-06 O_TOT= -0.1069739E-06 <-- DLTA
 ------------------------------------------------------------------------------
 Cycle:     37
  WF centre and spread    1  (  0.000001,  0.000000,  3.542436 )     2.37666169
  WF centre and spread    2  (  3.542434, -0.000000, -0.000000 )     2.37669212
  WF centre and spread    3  (  0.000001,  3.542435,  0.000000 )     2.37680269
  Sum of centres and spreads (  3.542436,  3.542435,  3.542435 )     7.13015650
 
     37    -0.105E-06     0.0002948805        7.1301595090       0.25  <-- CONV
        O_D=      0.0000000 O_OD=      0.0121978 O_TOT=      7.1301595 <-- SPRD
 Delta: O_D= -0.3238461E-07 O_OD= -0.7263175E-07 O_TOT= -0.1050164E-06 <-- DLTA
 ------------------------------------------------------------------------------
 Cycle:     38
  WF centre and spread    1  (  0.000001,  0.000000,  3.542436 )     2.37666166
  WF centre and spread    2  (  3.542434, -0.000000, -0.000000 )     2.37669207
  WF centre and spread    3  (  0.000001,  3.542435,  0.000000 )     2.37680268
  Sum of centres and spreads (  3.542436,  3.542435,  3.542435 )     7.13015641
 
     38    -0.831E-07     0.0001980634        7.1301594260       0.26  <-- CONV
        O_D=      0.0000000 O_OD=      0.0121978 O_TOT=      7.1301594 <-- SPRD
 Delta: O_D= -0.1694139E-07 O_OD= -0.6612846E-07 O_TOT= -0.8306985E-07 <-- DLTA
 ------------------------------------------------------------------------------
 Cycle:     39
  WF centre and spread    1  (  0.000001,  0.000000,  3.542436 )     2.37666164
  WF centre and spread    2  (  3.542434, -0.000000, -0.000000 )     2.37669202
  WF centre and spread    3  (  0.000001,  3.542435,  0.000000 )     2.37680268
  Sum of centres and spreads (  3.542436,  3.542435,  3.542435 )     7.13015633
 
     39    -0.817E-07     0.0001834312        7.1301593442       0.26  <-- CONV
        O_D=      0.0000000 O_OD=      0.0121977 O_TOT=      7.1301593 <-- SPRD
 Delta: O_D= -0.1044297E-07 O_OD= -0.7129221E-07 O_TOT= -0.8173518E-07 <-- DLTA
 ------------------------------------------------------------------------------
 Cycle:     40
  WF centre and spread    1  (  0.000001,  0.000000,  3.542436 )     2.37666162
  WF centre and spread    2  (  3.542434, -0.000000, -0.000000 )     2.37669198
  WF centre and spread    3  (  0.000001,  3.542435,  0.000000 )     2.37680268
  Sum of centres and spreads (  3.542436,  3.542435,  3.542435 )     7.13015628
 
     40    -0.496E-07     0.0001701501        7.1301592946       0.27  <-- CONV
        O_D=      0.0000000 O_OD=      0.0121976 O_TOT=      7.1301593 <-- SPRD
 Delta: O_D= -0.4567833E-08 O_OD= -0.4505323E-07 O_TOT= -0.4962107E-07 <-- DLTA
 ------------------------------------------------------------------------------
 Cycle:     41
  WF centre and spread    1  (  0.000001,  0.000000,  3.542436 )     2.37666160
  WF centre and spread    2  (  3.542434, -0.000000, -0.000000 )     2.37669196
  WF centre and spread    3  (  0.000001,  3.542435,  0.000000 )     2.37680268
  Sum of centres and spreads (  3.542436,  3.542435,  3.542435 )     7.13015624
 
     41    -0.412E-07     0.0001298979        7.1301592534       0.28  <-- CONV
        O_D=      0.0000000 O_OD=      0.0121976 O_TOT=      7.1301593 <-- SPRD
 Delta: O_D=  0.3918400E-08 O_OD= -0.4512692E-07 O_TOT= -0.4120852E-07 <-- DLTA
 ------------------------------------------------------------------------------
 Cycle:     42
  WF centre and spread    1  (  0.000001,  0.000000,  3.542436 )     2.37666158
  WF centre and spread    2  (  3.542434, -0.000000, -0.000000 )     2.37669194
  WF centre and spread    3  (  0.000001,  3.542435,  0.000000 )     2.37680268
  Sum of centres and spreads (  3.542436,  3.542435,  3.542435 )     7.13015621
 
     42    -0.353E-07     0.0001259583        7.1301592181       0.28  <-- CONV
        O_D=      0.0000000 O_OD=      0.0121976 O_TOT=      7.1301592 <-- SPRD
 Delta: O_D=  0.1198022E-07 O_OD= -0.4729956E-07 O_TOT= -0.3531934E-07 <-- DLTA
 ------------------------------------------------------------------------------
 Cycle:     43
  WF centre and spread    1  (  0.000001,  0.000000,  3.542436 )     2.37666157
  WF centre and spread    2  (  3.542434, -0.000000, -0.000000 )     2.37669193
  WF centre and spread    3  (  0.000001,  3.542435,  0.000000 )     2.37680267
  Sum of centres and spreads (  3.542436,  3.542435,  3.542435 )     7.13015617
 
     43    -0.377E-07     0.0001920497        7.1301591804       0.29  <-- CONV
        O_D=      0.0000000 O_OD=      0.0121975 O_TOT=      7.1301592 <-- SPRD
 Delta: O_D= -0.1193548E-07 O_OD= -0.2577383E-07 O_TOT= -0.3770932E-07 <-- DLTA
 ------------------------------------------------------------------------------
 Cycle:     44
  WF centre and spread    1  (  0.000001,  0.000000,  3.542436 )     2.37666155
  WF centre and spread    2  (  3.542434, -0.000000, -0.000000 )     2.37669192
  WF centre and spread    3  (  0.000001,  3.542435,  0.000000 )     2.37680266
  Sum of centres and spreads (  3.542436,  3.542435,  3.542435 )     7.13015613
 
     44    -0.419E-07     0.0001264758        7.1301591385       0.30  <-- CONV
        O_D=      0.0000000 O_OD=      0.0121975 O_TOT=      7.1301591 <-- SPRD
 Delta: O_D= -0.3965149E-08 O_OD= -0.3793842E-07 O_TOT= -0.4190357E-07 <-- DLTA
 ------------------------------------------------------------------------------
 Cycle:     45
  WF centre and spread    1  (  0.000001,  0.000000,  3.542436 )     2.37666152
  WF centre and spread    2  (  3.542434, -0.000000, -0.000000 )     2.37669191
  WF centre and spread    3  (  0.000001,  3.542435, -0.000000 )     2.37680265
  Sum of centres and spreads (  3.542436,  3.542435,  3.542435 )     7.13015608
 
     45    -0.468E-07     0.0001303595        7.1301590917       0.30  <-- CONV
        O_D=      0.0000000 O_OD=      0.0121974 O_TOT=      7.1301591 <-- SPRD
 Delta: O_D=  0.3322400E-08 O_OD= -0.5011866E-07 O_TOT= -0.4679626E-07 <-- DLTA
 ------------------------------------------------------------------------------
 Cycle:     46
  WF centre and spread    1  (  0.000001,  0.000000,  3.542436 )     2.37666147
  WF centre and spread    2  (  3.542434, -0.000000, -0.000000 )     2.37669190
  WF centre and spread    3  (  0.000001,  3.542435, -0.000000 )     2.37680263
  Sum of centres and spreads (  3.542436,  3.542435,  3.542435 )     7.13015600
 
     46    -0.775E-07     0.0001550260        7.1301590142       0.31  <-- CONV
        O_D=      0.0000000 O_OD=      0.0121974 O_TOT=      7.1301590 <-- SPRD
 Delta: O_D=  0.9622447E-08 O_OD= -0.8712163E-07 O_TOT= -0.7749919E-07 <-- DLTA
 ------------------------------------------------------------------------------
 Cycle:     47
  WF centre and spread    1  (  0.000001,  0.000000,  3.542436 )     2.37666142
  WF centre and spread    2  (  3.542434, -0.000000, -0.000000 )     2.37669189
  WF centre and spread    3  (  0.000001,  3.542435, -0.000000 )     2.37680261
  Sum of centres and spreads (  3.542436,  3.542435,  3.542435 )     7.13015593
 
     47    -0.750E-07     0.0001830600        7.1301589392       0.32  <-- CONV
        O_D=      0.0000000 O_OD=      0.0121973 O_TOT=      7.1301589 <-- SPRD
 Delta: O_D=  0.1463639E-07 O_OD= -0.8959714E-07 O_TOT= -0.7496075E-07 <-- DLTA
 ------------------------------------------------------------------------------
 Cycle:     48
  WF centre and spread    1  (  0.000001,  0.000000,  3.542436 )     2.37666136
  WF centre and spread    2  (  3.542434, -0.000000, -0.000000 )     2.37669186
  WF centre and spread    3  (  0.000001,  3.542435, -0.000000 )     2.37680261
  Sum of centres and spreads (  3.542436,  3.542435,  3.542435 )     7.13015583
 
     48    -0.937E-07     0.0001846042        7.1301588455       0.32  <-- CONV
        O_D=      0.0000001 O_OD=      0.0121971 O_TOT=      7.1301588 <-- SPRD
 Delta: O_D=  0.2631364E-07 O_OD= -0.1200099E-06 O_TOT= -0.9369628E-07 <-- DLTA
 ------------------------------------------------------------------------------
 Cycle:     49
  WF centre and spread    1  (  0.000001,  0.000000,  3.542436 )     2.37666133
  WF centre and spread    2  (  3.542434, -0.000000, -0.000000 )     2.37669182
  WF centre and spread    3  (  0.000001,  3.542435, -0.000000 )     2.37680259
  Sum of centres and spreads (  3.542436,  3.542435,  3.542435 )     7.13015574
 
     49    -0.901E-07     0.0002716473        7.1301587555       0.33  <-- CONV
        O_D=      0.0000000 O_OD=      0.0121971 O_TOT=      7.1301588 <-- SPRD
 Delta: O_D= -0.2717861E-07 O_OD= -0.6287351E-07 O_TOT= -0.9005212E-07 <-- DLTA
 ------------------------------------------------------------------------------
 Cycle:     50
  WF centre and spread    1  (  0.000001,  0.000000,  3.542436 )     2.37666131
  WF centre and spread    2  (  3.542434, -0.000000, -0.000000 )     2.37669178
  WF centre and spread    3  (  0.000001,  3.542435, -0.000000 )     2.37680258
  Sum of centres and spreads (  3.542436,  3.542435,  3.542435 )     7.13015567
 
     50    -0.751E-07     0.0001867074        7.1301586804       0.34  <-- CONV
        O_D=      0.0000000 O_OD=      0.0121970 O_TOT=      7.1301587 <-- SPRD
 Delta: O_D= -0.1428947E-07 O_OD= -0.6078589E-07 O_TOT= -0.7507536E-07 <-- DLTA
 ------------------------------------------------------------------------------
 Cycle:     51
  WF centre and spread    1  (  0.000001,  0.000000,  3.542436 )     2.37666129
  WF centre and spread    2  (  3.542434, -0.000000, -0.000000 )     2.37669172
  WF centre and spread    3  (  0.000001,  3.542435, -0.000000 )     2.37680258
  Sum of centres and spreads (  3.542436,  3.542435,  3.542435 )     7.13015559
 
     51    -0.798E-07     0.0001800191        7.1301586006       0.34  <-- CONV
        O_D=      0.0000000 O_OD=      0.0121969 O_TOT=      7.1301586 <-- SPRD
 Delta: O_D= -0.8892752E-08 O_OD= -0.7092760E-07 O_TOT= -0.7982035E-07 <-- DLTA
 ------------------------------------------------------------------------------
 Cycle:     52
  WF centre and spread    1  (  0.000001,  0.000000,  3.542436 )     2.37666127
  WF centre and spread    2  (  3.542434, -0.000000, -0.000000 )     2.37669169
  WF centre and spread    3  (  0.000001,  3.542435,  0.000000 )     2.37680258
  Sum of centres and spreads (  3.542436,  3.542435,  3.542435 )     7.13015554
 
     52    -0.464E-07     0.0001616120        7.1301585541       0.35  <-- CONV
        O_D=      0.0000000 O_OD=      0.0121969 O_TOT=      7.1301586 <-- SPRD
 Delta: O_D= -0.3262929E-08 O_OD= -0.4316307E-07 O_TOT= -0.4642600E-07 <-- DLTA
 ------------------------------------------------------------------------------
 Cycle:     53
  WF centre and spread    1  (  0.000001,  0.000000,  3.542436 )     2.37666125
  WF centre and spread    2  (  3.542434, -0.000000, -0.000000 )     2.37669166
  WF centre and spread    3  (  0.000001,  3.542435,  0.000000 )     2.37680259
  Sum of centres and spreads (  3.542436,  3.542435,  3.542435 )     7.13015550
 
     53    -0.423E-07     0.0001312263        7.1301585118       0.36  <-- CONV
        O_D=      0.0000000 O_OD=      0.0121969 O_TOT=      7.1301585 <-- SPRD
 Delta: O_D=  0.5909933E-08 O_OD= -0.4821956E-07 O_TOT= -0.4230963E-07 <-- DLTA
 ------------------------------------------------------------------------------
 Cycle:     54
  WF centre and spread    1  (  0.000001,  0.000000,  3.542436 )     2.37666123
  WF centre and spread    2  (  3.542434, -0.000000, -0.000000 )     2.37669164
  WF centre and spread    3  (  0.000001,  3.542435,  0.000000 )     2.37680259
  Sum of centres and spreads (  3.542436,  3.542435,  3.542435 )     7.13015546
 
     54    -0.388E-07     0.0001347771        7.1301584730       0.36  <-- CONV
        O_D=      0.0000000 O_OD=      0.0121968 O_TOT=      7.1301585 <-- SPRD
 Delta: O_D=  0.1344651E-07 O_OD= -0.5224452E-07 O_TOT= -0.3879801E-07 <-- DLTA
 ------------------------------------------------------------------------------
 Cycle:     55
  WF centre and spread    1  (  0.000001,  0.000000,  3.542436 )     2.37666122
  WF centre and spread    2  (  3.542434, -0.000000, -0.000000 )     2.37669163
  WF centre and spread    3  (  0.000001,  3.542435,  0.000000 )     2.37680258
  Sum of centres and spreads (  3.542436,  3.542435,  3.542435 )     7.13015542
 
     55    -0.414E-07     0.0001992450        7.1301584316       0.37  <-- CONV
        O_D=      0.0000000 O_OD=      0.0121968 O_TOT=      7.1301584 <-- SPRD
 Delta: O_D= -0.1335634E-07 O_OD= -0.2804009E-07 O_TOT= -0.4139643E-07 <-- DLTA
 ------------------------------------------------------------------------------
 Cycle:     56
  WF centre and spread    1  (  0.000001,  0.000000,  3.542436 )     2.37666120
  WF centre and spread    2  (  3.542434, -0.000000, -0.000000 )     2.37669162
  WF centre and spread    3  (  0.000001,  3.542435,  0.000000 )     2.37680256
  Sum of centres and spreads (  3.542436,  3.542435,  3.542435 )     7.13015538
 
     56    -0.445E-07     0.0001343026        7.1301583871       0.38  <-- CONV
        O_D=      0.0000000 O_OD=      0.0121967 O_TOT=      7.1301584 <-- SPRD
 Delta: O_D= -0.5879974E-08 O_OD= -0.3864687E-07 O_TOT= -0.4452685E-07 <-- DLTA
 ------------------------------------------------------------------------------
 Cycle:     57
  WF centre and spread    1  (  0.000001,  0.000000,  3.542436 )     2.37666117
  WF centre and spread    2  (  3.542434, -0.000000, -0.000000 )     2.37669161
  WF centre and spread    3  (  0.000001,  3.542435,  0.000000 )     2.37680255
  Sum of centres and spreads (  3.542436,  3.542435,  3.542435 )     7.13015533
 
     57    -0.463E-07     0.0001289110        7.1301583408       0.39  <-- CONV
        O_D=      0.0000000 O_OD=      0.0121967 O_TOT=      7.1301583 <-- SPRD
 Delta: O_D=  0.1362657E-08 O_OD= -0.4765157E-07 O_TOT= -0.4628891E-07 <-- DLTA
 ------------------------------------------------------------------------------
 Cycle:     58
  WF centre and spread    1  (  0.000001,  0.000000,  3.542436 )     2.37666112
  WF centre and spread    2  (  3.542434, -0.000000, -0.000000 )     2.37669161
  WF centre and spread    3  (  0.000001,  3.542435, -0.000000 )     2.37680253
  Sum of centres and spreads (  3.542436,  3.542435,  3.542435 )     7.13015526
 
     58    -0.729E-07     0.0001464648        7.1301582680       0.39  <-- CONV
        O_D=      0.0000000 O_OD=      0.0121966 O_TOT=      7.1301583 <-- SPRD
 Delta: O_D=  0.7273632E-08 O_OD= -0.8013550E-07 O_TOT= -0.7286187E-07 <-- DLTA
 ------------------------------------------------------------------------------
 Cycle:     59
  WF centre and spread    1  (  0.000001,  0.000000,  3.542436 )     2.37666108
  WF centre and spread    2  (  3.542434, -0.000000, -0.000000 )     2.37669160
  WF centre and spread    3  (  0.000001,  3.542435, -0.000000 )     2.37680252
  Sum of centres and spreads (  3.542436,  3.542435,  3.542435 )     7.13015519
 
     59    -0.683E-07     0.0001747421        7.1301581996       0.40  <-- CONV
        O_D=      0.0000000 O_OD=      0.0121965 O_TOT=      7.1301582 <-- SPRD
 Delta: O_D=  0.1448671E-07 O_OD= -0.8279636E-07 O_TOT= -0.6830965E-07 <-- DLTA
 ------------------------------------------------------------------------------
 Cycle:     60
  WF centre and spread    1  (  0.000001,  0.000000,  3.542436 )     2.37666102
  WF centre and spread    2  (  3.542434, -0.000000, -0.000000 )     2.37669157
  WF centre and spread    3  (  0.000001,  3.542435, -0.000000 )     2.37680251
  Sum of centres and spreads (  3.542436,  3.542435,  3.542435 )     7.13015511
 
     60    -0.817E-07     0.0001794695        7.1301581179       0.41  <-- CONV
        O_D=      0.0000001 O_OD=      0.0121964 O_TOT=      7.1301581 <-- SPRD
 Delta: O_D=  0.2583815E-07 O_OD= -0.1075593E-06 O_TOT= -0.8172113E-07 <-- DLTA
 ------------------------------------------------------------------------------
 Cycle:     61
  WF centre and spread    1  (  0.000001,  0.000000,  3.542436 )     2.37666100
  WF centre and spread    2  (  3.542434, -0.000000, -0.000000 )     2.37669153
  WF centre and spread    3  (  0.000001,  3.542435, -0.000000 )     2.37680249
  Sum of centres and spreads (  3.542436,  3.542435,  3.542435 )     7.13015502
 
     61    -0.830E-07     0.0002574840        7.1301580349       0.41  <-- CONV
        O_D=      0.0000000 O_OD=      0.0121964 O_TOT=      7.1301580 <-- SPRD
 Delta: O_D= -0.2490194E-07 O_OD= -0.5812662E-07 O_TOT= -0.8302856E-07 <-- DLTA
 ------------------------------------------------------------------------------
 Cycle:     62
  WF centre and spread    1  (  0.000001,  0.000000,  3.542436 )     2.37666097
  WF centre and spread    2  (  3.542434, -0.000000, -0.000000 )     2.37669149
  WF centre and spread    3  (  0.000001,  3.542435, -0.000000 )     2.37680249
  Sum of centres and spreads (  3.542436,  3.542435,  3.542435 )     7.13015495
 
     62    -0.738E-07     0.0001791647        7.1301579611       0.42  <-- CONV
        O_D=      0.0000000 O_OD=      0.0121963 O_TOT=      7.1301580 <-- SPRD
 Delta: O_D= -0.1326372E-07 O_OD= -0.6057849E-07 O_TOT= -0.7384221E-07 <-- DLTA
 ------------------------------------------------------------------------------
 Cycle:     63
  WF centre and spread    1  (  0.000001,  0.000000,  3.542436 )     2.37666095
  WF centre and spread    2  (  3.542434, -0.000000, -0.000000 )     2.37669143
  WF centre and spread    3  (  0.000001,  3.542435, -0.000000 )     2.37680249
  Sum of centres and spreads (  3.542436,  3.542435,  3.542435 )     7.13015487
 
     63    -0.772E-07     0.0001828900        7.1301578839       0.43  <-- CONV
        O_D=      0.0000000 O_OD=      0.0121962 O_TOT=      7.1301579 <-- SPRD
 Delta: O_D= -0.8666807E-08 O_OD= -0.6852476E-07 O_TOT= -0.7719157E-07 <-- DLTA
 ------------------------------------------------------------------------------
 Cycle:     64
  WF centre and spread    1  (  0.000001,  0.000000,  3.542436 )     2.37666094
  WF centre and spread    2  (  3.542434, -0.000000, -0.000000 )     2.37669140
  WF centre and spread    3  (  0.000001,  3.542435,  0.000000 )     2.37680249
  Sum of centres and spreads (  3.542436,  3.542435,  3.542435 )     7.13015483
 
     64    -0.454E-07     0.0001512303        7.1301578384       0.43  <-- CONV
        O_D=      0.0000000 O_OD=      0.0121962 O_TOT=      7.1301578 <-- SPRD
 Delta: O_D= -0.2785887E-08 O_OD= -0.4266262E-07 O_TOT= -0.4544851E-07 <-- DLTA
 ------------------------------------------------------------------------------
 Cycle:     65
  WF centre and spread    1  (  0.000001,  0.000000,  3.542436 )     2.37666091
  WF centre and spread    2  (  3.542434, -0.000000, -0.000000 )     2.37669138
  WF centre and spread    3  (  0.000001,  3.542435,  0.000000 )     2.37680249
  Sum of centres and spreads (  3.542436,  3.542435,  3.542435 )     7.13015478
 
     65    -0.433E-07     0.0001291621        7.1301577951       0.44  <-- CONV
        O_D=      0.0000000 O_OD=      0.0121961 O_TOT=      7.1301578 <-- SPRD
 Delta: O_D=  0.8671471E-08 O_OD= -0.5195108E-07 O_TOT= -0.4327961E-07 <-- DLTA
 ------------------------------------------------------------------------------
 Cycle:     66
  WF centre and spread    1  (  0.000001,  0.000000,  3.542436 )     2.37666089
  WF centre and spread    2  (  3.542434, -0.000000, -0.000000 )     2.37669135
  WF centre and spread    3  (  0.000001,  3.542435,  0.000000 )     2.37680250
  Sum of centres and spreads (  3.542436,  3.542435,  3.542435 )     7.13015474
 
     66    -0.423E-07     0.0001424993        7.1301577529       0.45  <-- CONV
        O_D=      0.0000000 O_OD=      0.0121961 O_TOT=      7.1301578 <-- SPRD
 Delta: O_D=  0.1517934E-07 O_OD= -0.5744027E-07 O_TOT= -0.4226093E-07 <-- DLTA
 ------------------------------------------------------------------------------
 Cycle:     67
  WF centre and spread    1  (  0.000001,  0.000000,  3.542436 )     2.37666087
  WF centre and spread    2  (  3.542434, -0.000000, -0.000000 )     2.37669134
  WF centre and spread    3  (  0.000001,  3.542435,  0.000000 )     2.37680248
  Sum of centres and spreads (  3.542436,  3.542435,  3.542435 )     7.13015470
 
     67    -0.456E-07     0.0002039966        7.1301577072       0.45  <-- CONV
        O_D=      0.0000000 O_OD=      0.0121960 O_TOT=      7.1301577 <-- SPRD
 Delta: O_D= -0.1473456E-07 O_OD= -0.3091137E-07 O_TOT= -0.4564593E-07 <-- DLTA
 ------------------------------------------------------------------------------
 Cycle:     68
  WF centre and spread    1  (  0.000001,  0.000000,  3.542436 )     2.37666085
  WF centre and spread    2  (  3.542434, -0.000000, -0.000000 )     2.37669133
  WF centre and spread    3  (  0.000001,  3.542435,  0.000000 )     2.37680247
  Sum of centres and spreads (  3.542436,  3.542435,  3.542435 )     7.13015465
 
     68    -0.466E-07     0.0001441463        7.1301576606       0.46  <-- CONV
        O_D=      0.0000000 O_OD=      0.0121960 O_TOT=      7.1301577 <-- SPRD
 Delta: O_D= -0.8180365E-08 O_OD= -0.3841085E-07 O_TOT= -0.4659122E-07 <-- DLTA
 ------------------------------------------------------------------------------
 Cycle:     69
  WF centre and spread    1  (  0.000001,  0.000000,  3.542436 )     2.37666083
  WF centre and spread    2  (  3.542434, -0.000000, -0.000000 )     2.37669132
  WF centre and spread    3  (  0.000001,  3.542435,  0.000000 )     2.37680245
  Sum of centres and spreads (  3.542436,  3.542435,  3.542435 )     7.13015460
 
     69    -0.450E-07     0.0001259466        7.1301576156       0.47  <-- CONV
        O_D=      0.0000000 O_OD=      0.0121960 O_TOT=      7.1301576 <-- SPRD
 Delta: O_D=  0.4539891E-08 O_OD= -0.4953589E-07 O_TOT= -0.4499600E-07 <-- DLTA
 ------------------------------------------------------------------------------
 Cycle:     70
  WF centre and spread    1  (  0.000001,  0.000000,  3.542436 )     2.37666078
  WF centre and spread    2  (  3.542434, -0.000000, -0.000000 )     2.37669132
  WF centre and spread    3  (  0.000001,  3.542435, -0.000000 )     2.37680243
  Sum of centres and spreads (  3.542436,  3.542435,  3.542435 )     7.13015453
 
     70    -0.716E-07     0.0001678021        7.1301575441       0.47  <-- CONV
        O_D=      0.0000000 O_OD=      0.0121959 O_TOT=      7.1301575 <-- SPRD
 Delta: O_D=  0.7500145E-08 O_OD= -0.7906696E-07 O_TOT= -0.7156682E-07 <-- DLTA
 ------------------------------------------------------------------------------
 Cycle:     71
  WF centre and spread    1  (  0.000001,  0.000000,  3.542436 )     2.37666073
  WF centre and spread    2  (  3.542434, -0.000000, -0.000000 )     2.37669131
  WF centre and spread    3  (  0.000001,  3.542435, -0.000000 )     2.37680242
  Sum of centres and spreads (  3.542436,  3.542435,  3.542435 )     7.13015447
 
     71    -0.665E-07     0.0001785937        7.1301574776       0.48  <-- CONV
        O_D=      0.0000000 O_OD=      0.0121958 O_TOT=      7.1301575 <-- SPRD
 Delta: O_D=  0.9615090E-08 O_OD= -0.7609477E-07 O_TOT= -0.6647968E-07 <-- DLTA
 ------------------------------------------------------------------------------
 Cycle:     72
  WF centre and spread    1  (  0.000001,  0.000000,  3.542436 )     2.37666069
  WF centre and spread    2  (  3.542434, -0.000000, -0.000000 )     2.37669128
  WF centre and spread    3  (  0.000001,  3.542435, -0.000000 )     2.37680242
  Sum of centres and spreads (  3.542436,  3.542435,  3.542435 )     7.13015439
 
     72    -0.772E-07     0.0001644729        7.1301574004       0.49  <-- CONV
        O_D=      0.0000001 O_OD=      0.0121957 O_TOT=      7.1301574 <-- SPRD
 Delta: O_D=  0.2376417E-07 O_OD= -0.1009360E-06 O_TOT= -0.7717183E-07 <-- DLTA
 ------------------------------------------------------------------------------
 Cycle:     73
  WF centre and spread    1  (  0.000001,  0.000000,  3.542436 )     2.37666066
  WF centre and spread    2  (  3.542434, -0.000000, -0.000000 )     2.37669125
  WF centre and spread    3  (  0.000001,  3.542435, -0.000000 )     2.37680240
  Sum of centres and spreads (  3.542436,  3.542435,  3.542435 )     7.13015431
 
     73    -0.811E-07     0.0002580961        7.1301573193       0.49  <-- CONV
        O_D=      0.0000000 O_OD=      0.0121956 O_TOT=      7.1301573 <-- SPRD
 Delta: O_D= -0.2492451E-07 O_OD= -0.5617626E-07 O_TOT= -0.8110077E-07 <-- DLTA
 ------------------------------------------------------------------------------
 Cycle:     74
  WF centre and spread    1  (  0.000001,  0.000000,  3.542436 )     2.37666064
  WF centre and spread    2  (  3.542434, -0.000000, -0.000000 )     2.37669120
  WF centre and spread    3  (  0.000001,  3.542435, -0.000000 )     2.37680239
  Sum of centres and spreads (  3.542436,  3.542435,  3.542435 )     7.13015424
 
     74    -0.682E-07     0.0001663465        7.1301572511       0.50  <-- CONV
        O_D=      0.0000000 O_OD=      0.0121956 O_TOT=      7.1301573 <-- SPRD
 Delta: O_D= -0.1164414E-07 O_OD= -0.5652880E-07 O_TOT= -0.6817294E-07 <-- DLTA
 ------------------------------------------------------------------------------
 Cycle:     75
  WF centre and spread    1  (  0.000001,  0.000000,  3.542436 )     2.37666062
  WF centre and spread    2  (  3.542434, -0.000000, -0.000000 )     2.37669115
  WF centre and spread    3  (  0.000001,  3.542435, -0.000000 )     2.37680240
  Sum of centres and spreads (  3.542436,  3.542435,  3.542435 )     7.13015417
 
     75    -0.733E-07     0.0001749358        7.1301571779       0.51  <-- CONV
        O_D=      0.0000000 O_OD=      0.0121955 O_TOT=      7.1301572 <-- SPRD
 Delta: O_D= -0.7238903E-08 O_OD= -0.6601580E-07 O_TOT= -0.7325471E-07 <-- DLTA
 ------------------------------------------------------------------------------
 Cycle:     76
  WF centre and spread    1  (  0.000001,  0.000000,  3.542436 )     2.37666060
  WF centre and spread    2  (  3.542434, -0.000000, -0.000000 )     2.37669112
  WF centre and spread    3  (  0.000001,  3.542435,  0.000000 )     2.37680240
  Sum of centres and spreads (  3.542436,  3.542435,  3.542435 )     7.13015412
 
     76    -0.454E-07     0.0001555055        7.1301571325       0.51  <-- CONV
        O_D=      0.0000000 O_OD=      0.0121955 O_TOT=      7.1301571 <-- SPRD
 Delta: O_D= -0.2460042E-08 O_OD= -0.4294574E-07 O_TOT= -0.4540578E-07 <-- DLTA
 ------------------------------------------------------------------------------
 Cycle:     77
  WF centre and spread    1  (  0.000001,  0.000000,  3.542436 )     2.37666058
  WF centre and spread    2  (  3.542434, -0.000000, -0.000000 )     2.37669109
  WF centre and spread    3  (  0.000001,  3.542435,  0.000000 )     2.37680240
  Sum of centres and spreads (  3.542436,  3.542435,  3.542435 )     7.13015407
 
     77    -0.512E-07     0.0001261137        7.1301570813       0.52  <-- CONV
        O_D=      0.0000000 O_OD=      0.0121954 O_TOT=      7.1301571 <-- SPRD
 Delta: O_D=  0.7393793E-08 O_OD= -0.5857151E-07 O_TOT= -0.5117772E-07 <-- DLTA
 ------------------------------------------------------------------------------
 Cycle:     78
  WF centre and spread    1  (  0.000001,  0.000000,  3.542436 )     2.37666054
  WF centre and spread    2  (  3.542434, -0.000000, -0.000000 )     2.37669107
  WF centre and spread    3  (  0.000001,  3.542435,  0.000000 )     2.37680240
  Sum of centres and spreads (  3.542436,  3.542435,  3.542435 )     7.13015401
 
     78    -0.634E-07     0.0001294861        7.1301570179       0.53  <-- CONV
        O_D=      0.0000000 O_OD=      0.0121953 O_TOT=      7.1301570 <-- SPRD
 Delta: O_D=  0.2639184E-07 O_OD= -0.8982894E-07 O_TOT= -0.6343709E-07 <-- DLTA
 ------------------------------------------------------------------------------
 Cycle:     79
  WF centre and spread    1  (  0.000001,  0.000000,  3.542436 )     2.37666052
  WF centre and spread    2  (  3.542434, -0.000000, -0.000000 )     2.37669104
  WF centre and spread    3  (  0.000001,  3.542435,  0.000000 )     2.37680239
  Sum of centres and spreads (  3.542436,  3.542435,  3.542435 )     7.13015395
 
     79    -0.558E-07     0.0002642093        7.1301569621       0.53  <-- CONV
        O_D=      0.0000000 O_OD=      0.0121953 O_TOT=      7.1301570 <-- SPRD
 Delta: O_D= -0.2622000E-07 O_OD= -0.2956112E-07 O_TOT= -0.5578112E-07 <-- DLTA
 ------------------------------------------------------------------------------
 Cycle:     80
  WF centre and spread    1  (  0.000001,  0.000000,  3.542436 )     2.37666050
  WF centre and spread    2  (  3.542434, -0.000000, -0.000000 )     2.37669103
  WF centre and spread    3  (  0.000001,  3.542435,  0.000000 )     2.37680237
  Sum of centres and spreads (  3.542436,  3.542435,  3.542435 )     7.13015390
 
     80    -0.511E-07     0.0001284783        7.1301569110       0.54  <-- CONV
        O_D=      0.0000000 O_OD=      0.0121953 O_TOT=      7.1301569 <-- SPRD
 Delta: O_D= -0.7120468E-08 O_OD= -0.4396203E-07 O_TOT= -0.5108249E-07 <-- DLTA
 ------------------------------------------------------------------------------
 Cycle:     81
  WF centre and spread    1  (  0.000001,  0.000000,  3.542436 )     2.37666047
  WF centre and spread    2  (  3.542434, -0.000000, -0.000000 )     2.37669103
  WF centre and spread    3  (  0.000001,  3.542435,  0.000000 )     2.37680236
  Sum of centres and spreads (  3.542436,  3.542435,  3.542435 )     7.13015386
 
     81    -0.436E-07     0.0001326444        7.1301568674       0.55  <-- CONV
        O_D=      0.0000000 O_OD=      0.0121952 O_TOT=      7.1301569 <-- SPRD
 Delta: O_D=  0.5078094E-09 O_OD= -0.4410791E-07 O_TOT= -0.4360010E-07 <-- DLTA
 ------------------------------------------------------------------------------
 Cycle:     82
  WF centre and spread    1  (  0.000001,  0.000000,  3.542436 )     2.37666043
  WF centre and spread    2  (  3.542434, -0.000000, -0.000000 )     2.37669102
  WF centre and spread    3  (  0.000001,  3.542435, -0.000000 )     2.37680234
  Sum of centres and spreads (  3.542436,  3.542435,  3.542435 )     7.13015378
 
     82    -0.714E-07     0.0001440277        7.1301567960       0.55  <-- CONV
        O_D=      0.0000000 O_OD=      0.0121951 O_TOT=      7.1301568 <-- SPRD
 Delta: O_D=  0.5761093E-08 O_OD= -0.7711857E-07 O_TOT= -0.7135748E-07 <-- DLTA
 ------------------------------------------------------------------------------
 Cycle:     83
  WF centre and spread    1  (  0.000001,  0.000000,  3.542436 )     2.37666038
  WF centre and spread    2  (  3.542434, -0.000000, -0.000000 )     2.37669101
  WF centre and spread    3  (  0.000001,  3.542435, -0.000000 )     2.37680232
  Sum of centres and spreads (  3.542436,  3.542435,  3.542435 )     7.13015372
 
     83    -0.627E-07     0.0001808314        7.1301567334       0.56  <-- CONV
        O_D=      0.0000000 O_OD=      0.0121951 O_TOT=      7.1301567 <-- SPRD
 Delta: O_D=  0.1169387E-07 O_OD= -0.7438156E-07 O_TOT= -0.6268769E-07 <-- DLTA
 ------------------------------------------------------------------------------
 Cycle:     84
  WF centre and spread    1  (  0.000001,  0.000000,  3.542436 )     2.37666033
  WF centre and spread    2  (  3.542434, -0.000000, -0.000001 )     2.37669099
  WF centre and spread    3  (  0.000001,  3.542435, -0.000000 )     2.37680232
  Sum of centres and spreads (  3.542436,  3.542435,  3.542435 )     7.13015364
 
     84    -0.830E-07     0.0001653930        7.1301566503       0.57  <-- CONV
        O_D=      0.0000001 O_OD=      0.0121950 O_TOT=      7.1301567 <-- SPRD
 Delta: O_D=  0.2326880E-07 O_OD= -0.1063035E-06 O_TOT= -0.8303471E-07 <-- DLTA
 ------------------------------------------------------------------------------
 Cycle:     85
  WF centre and spread    1  (  0.000001,  0.000000,  3.542436 )     2.37666030
  WF centre and spread    2  (  3.542434, -0.000000, -0.000000 )     2.37669095
  WF centre and spread    3  (  0.000001,  3.542435, -0.000000 )     2.37680230
  Sum of centres and spreads (  3.542436,  3.542435,  3.542435 )     7.13015355
 
     85    -0.854E-07     0.0002460010        7.1301565649       0.58  <-- CONV
        O_D=      0.0000000 O_OD=      0.0121949 O_TOT=      7.1301566 <-- SPRD
 Delta: O_D= -0.2308027E-07 O_OD= -0.6234800E-07 O_TOT= -0.8542827E-07 <-- DLTA
 ------------------------------------------------------------------------------
 Cycle:     86
  WF centre and spread    1  (  0.000001,  0.000000,  3.542436 )     2.37666028
  WF centre and spread    2  (  3.542434, -0.000000, -0.000000 )     2.37669091
  WF centre and spread    3  (  0.000001,  3.542435, -0.000000 )     2.37680230
  Sum of centres and spreads (  3.542436,  3.542435,  3.542435 )     7.13015349
 
     86    -0.660E-07     0.0001701030        7.1301564989       0.58  <-- CONV
        O_D=      0.0000000 O_OD=      0.0121948 O_TOT=      7.1301565 <-- SPRD
 Delta: O_D= -0.1177956E-07 O_OD= -0.5425109E-07 O_TOT= -0.6603065E-07 <-- DLTA
 ------------------------------------------------------------------------------
 Cycle:     87
  WF centre and spread    1  (  0.000001,  0.000000,  3.542436 )     2.37666026
  WF centre and spread    2  (  3.542434, -0.000000, -0.000000 )     2.37669085
  WF centre and spread    3  (  0.000001,  3.542435,  0.000000 )     2.37680230
  Sum of centres and spreads (  3.542436,  3.542435,  3.542435 )     7.13015341
 
     87    -0.777E-07     0.0001858644        7.1301564212       0.59  <-- CONV
        O_D=      0.0000000 O_OD=      0.0121948 O_TOT=      7.1301564 <-- SPRD
 Delta: O_D= -0.5914209E-08 O_OD= -0.7177026E-07 O_TOT= -0.7768447E-07 <-- DLTA
 ------------------------------------------------------------------------------
 Cycle:     88
  WF centre and spread    1  (  0.000001,  0.000000,  3.542436 )     2.37666025
  WF centre and spread    2  (  3.542434, -0.000000, -0.000000 )     2.37669082
  WF centre and spread    3  (  0.000001,  3.542435,  0.000000 )     2.37680230
  Sum of centres and spreads (  3.542436,  3.542435,  3.542435 )     7.13015337
 
     88    -0.415E-07     0.0001536071        7.1301563797       0.60  <-- CONV
        O_D=      0.0000000 O_OD=      0.0121947 O_TOT=      7.1301564 <-- SPRD
 Delta: O_D= -0.1434959E-08 O_OD= -0.4006103E-07 O_TOT= -0.4149599E-07 <-- DLTA
 ------------------------------------------------------------------------------
 Cycle:     89
  WF centre and spread    1  (  0.000001,  0.000000,  3.542436 )     2.37666022
  WF centre and spread    2  (  3.542434, -0.000000, -0.000000 )     2.37669079
  WF centre and spread    3  (  0.000001,  3.542435,  0.000000 )     2.37680230
  Sum of centres and spreads (  3.542436,  3.542435,  3.542435 )     7.13015332
 
     89    -0.508E-07     0.0001287362        7.1301563288       0.60  <-- CONV
        O_D=      0.0000000 O_OD=      0.0121947 O_TOT=      7.1301563 <-- SPRD
 Delta: O_D=  0.8847072E-08 O_OD= -0.5969415E-07 O_TOT= -0.5084708E-07 <-- DLTA
 ------------------------------------------------------------------------------
 Cycle:     90
  WF centre and spread    1  (  0.000001,  0.000000,  3.542436 )     2.37666017
  WF centre and spread    2  (  3.542434, -0.000000, -0.000000 )     2.37669077
  WF centre and spread    3  (  0.000001,  3.542435,  0.000000 )     2.37680230
  Sum of centres and spreads (  3.542436,  3.542435,  3.542435 )     7.13015324
 
     90    -0.762E-07     0.0001321421        7.1301562526       0.61  <-- CONV
        O_D=      0.0000001 O_OD=      0.0121946 O_TOT=      7.1301563 <-- SPRD
 Delta: O_D=  0.3961252E-07 O_OD= -0.1158242E-06 O_TOT= -0.7621166E-07 <-- DLTA
 ------------------------------------------------------------------------------
 Cycle:     91
  WF centre and spread    1  (  0.000001,  0.000000,  3.542436 )     2.37666015
  WF centre and spread    2  (  3.542434, -0.000000, -0.000000 )     2.37669073
  WF centre and spread    3  (  0.000001,  3.542435,  0.000000 )     2.37680228
  Sum of centres and spreads (  3.542436,  3.542435,  3.542435 )     7.13015317
 
     91    -0.719E-07     0.0003074090        7.1301561807       0.62  <-- CONV
        O_D=      0.0000000 O_OD=      0.0121945 O_TOT=      7.1301562 <-- SPRD
 Delta: O_D= -0.3874549E-07 O_OD= -0.3316114E-07 O_TOT= -0.7190663E-07 <-- DLTA
 ------------------------------------------------------------------------------
 Cycle:     92
  WF centre and spread    1  (  0.000001,  0.000000,  3.542436 )     2.37666013
  WF centre and spread    2  (  3.542434, -0.000000, -0.000000 )     2.37669072
  WF centre and spread    3  (  0.000001,  3.542435,  0.000000 )     2.37680227
  Sum of centres and spreads (  3.542436,  3.542435,  3.542435 )     7.13015312
 
     92    -0.536E-07     0.0001345380        7.1301561272       0.62  <-- CONV
        O_D=      0.0000000 O_OD=      0.0121945 O_TOT=      7.1301561 <-- SPRD
 Delta: O_D= -0.9378124E-08 O_OD= -0.4418547E-07 O_TOT= -0.5356360E-07 <-- DLTA
 ------------------------------------------------------------------------------
 Cycle:     93
  WF centre and spread    1  (  0.000001,  0.000000,  3.542436 )     2.37666011
  WF centre and spread    2  (  3.542434, -0.000000, -0.000000 )     2.37669071
  WF centre and spread    3  (  0.000001,  3.542435,  0.000000 )     2.37680226
  Sum of centres and spreads (  3.542436,  3.542435,  3.542435 )     7.13015308
 
     93    -0.380E-07     0.0001301228        7.1301560891       0.63  <-- CONV
        O_D=      0.0000000 O_OD=      0.0121944 O_TOT=      7.1301561 <-- SPRD
 Delta: O_D=  0.8172186E-10 O_OD= -0.3811442E-07 O_TOT= -0.3803270E-07 <-- DLTA
 ------------------------------------------------------------------------------
 Cycle:     94
  WF centre and spread    1  (  0.000001,  0.000000,  3.542436 )     2.37666006
  WF centre and spread    2  (  3.542434, -0.000000, -0.000000 )     2.37669071
  WF centre and spread    3  (  0.000001,  3.542435, -0.000000 )     2.37680223
  Sum of centres and spreads (  3.542436,  3.542435,  3.542435 )     7.13015300
 
     94    -0.779E-07     0.0001392243        7.1301560112       0.64  <-- CONV
        O_D=      0.0000000 O_OD=      0.0121944 O_TOT=      7.1301560 <-- SPRD
 Delta: O_D=  0.3387514E-08 O_OD= -0.8132095E-07 O_TOT= -0.7793343E-07 <-- DLTA
 ------------------------------------------------------------------------------
 Cycle:     95
  WF centre and spread    1  (  0.000001,  0.000000,  3.542436 )     2.37666002
  WF centre and spread    2  (  3.542434, -0.000000, -0.000000 )     2.37669070
  WF centre and spread    3  (  0.000001,  3.542435, -0.000000 )     2.37680222
  Sum of centres and spreads (  3.542436,  3.542435,  3.542435 )     7.13015294
 
     95    -0.596E-07     0.0001698249        7.1301559516       0.64  <-- CONV
        O_D=      0.0000000 O_OD=      0.0121943 O_TOT=      7.1301560 <-- SPRD
 Delta: O_D=  0.8410388E-08 O_OD= -0.6797089E-07 O_TOT= -0.5956050E-07 <-- DLTA
 ------------------------------------------------------------------------------
 Cycle:     96
  WF centre and spread    1  (  0.000001,  0.000000,  3.542436 )     2.37665996
  WF centre and spread    2  (  3.542434, -0.000000, -0.000000 )     2.37669067
  WF centre and spread    3  (  0.000001,  3.542435, -0.000000 )     2.37680222
  Sum of centres and spreads (  3.542436,  3.542435,  3.542435 )     7.13015286
 
     96    -0.844E-07     0.0001513647        7.1301558673       0.65  <-- CONV
        O_D=      0.0000000 O_OD=      0.0121942 O_TOT=      7.1301559 <-- SPRD
 Delta: O_D=  0.2189913E-07 O_OD= -0.1062648E-06 O_TOT= -0.8436562E-07 <-- DLTA
 ------------------------------------------------------------------------------
 Cycle:     97
  WF centre and spread    1  (  0.000001,  0.000000,  3.542436 )     2.37665994
  WF centre and spread    2  (  3.542434, -0.000000, -0.000000 )     2.37669064
  WF centre and spread    3  (  0.000001,  3.542435, -0.000000 )     2.37680220
  Sum of centres and spreads (  3.542436,  3.542435,  3.542435 )     7.13015277
 
[...]
  Sum of centres and spreads (  3.542436,  3.542435,  3.542435 )     7.13012702
 
    473    -0.543E-07     0.0001440567        7.1301300273       3.22  <-- CONV
        O_D=      0.0000000 O_OD=      0.0121684 O_TOT=      7.1301300 <-- SPRD
 Delta: O_D=  0.4124545E-08 O_OD= -0.5837941E-07 O_TOT= -0.5425487E-07 <-- DLTA
 ------------------------------------------------------------------------------
 Cycle:    474
  WF centre and spread    1  (  0.000001,  0.000000,  3.542436 )     2.37664776
  WF centre and spread    2  (  3.542434, -0.000000, -0.000000 )     2.37668030
  WF centre and spread    3  (  0.000001,  3.542435,  0.000000 )     2.37679886
  Sum of centres and spreads (  3.542436,  3.542435,  3.542435 )     7.13012692
 
    474    -0.920E-07     0.0001686904        7.1301299353       3.22  <-- CONV
        O_D=      0.0000000 O_OD=      0.0121683 O_TOT=      7.1301299 <-- SPRD
 Delta: O_D=  0.2287909E-07 O_OD= -0.1148322E-06 O_TOT= -0.9195313E-07 <-- DLTA
 ------------------------------------------------------------------------------
 Cycle:    475
  WF centre and spread    1  (  0.000001,  0.000000,  3.542436 )     2.37664772
  WF centre and spread    2  (  3.542434, -0.000000, -0.000000 )     2.37668027
  WF centre and spread    3  (  0.000001,  3.542435,  0.000000 )     2.37679883
  Sum of centres and spreads (  3.542436,  3.542435,  3.542435 )     7.13012683
 
    475    -0.948E-07     0.0003071819        7.1301298405       3.23  <-- CONV
        O_D=      0.0000000 O_OD=      0.0121682 O_TOT=      7.1301298 <-- SPRD
 Delta: O_D= -0.2283740E-07 O_OD= -0.7196472E-07 O_TOT= -0.9480213E-07 <-- DLTA
 ------------------------------------------------------------------------------
 Cycle:    476
  WF centre and spread    1  (  0.000001,  0.000000,  3.542436 )     2.37664770
  WF centre and spread    2  (  3.542434, -0.000000, -0.000000 )     2.37668027
  WF centre and spread    3  (  0.000001,  3.542435,  0.000000 )     2.37679881
  Sum of centres and spreads (  3.542436,  3.542435,  3.542435 )     7.13012677
 
    476    -0.551E-07     0.0001667409        7.1301297854       3.24  <-- CONV
        O_D=      0.0000000 O_OD=      0.0121681 O_TOT=      7.1301298 <-- SPRD
 Delta: O_D= -0.4481833E-08 O_OD= -0.5065542E-07 O_TOT= -0.5513725E-07 <-- DLTA
 ------------------------------------------------------------------------------
 Cycle:    477
  WF centre and spread    1  (  0.000001,  0.000000,  3.542436 )     2.37664767
  WF centre and spread    2  (  3.542434, -0.000000, -0.000000 )     2.37668027
  WF centre and spread    3  (  0.000001,  3.542435,  0.000000 )     2.37679878
  Sum of centres and spreads (  3.542436,  3.542435,  3.542435 )     7.13012672
 
    477    -0.526E-07     0.0001415399        7.1301297328       3.24  <-- CONV
        O_D=      0.0000000 O_OD=      0.0121681 O_TOT=      7.1301297 <-- SPRD
 Delta: O_D= -0.2855523E-08 O_OD= -0.4969606E-07 O_TOT= -0.5255158E-07 <-- DLTA
 ------------------------------------------------------------------------------
 Cycle:    478
  WF centre and spread    1  (  0.000001,  0.000000,  3.542436 )     2.37664763
  WF centre and spread    2  (  3.542434, -0.000000, -0.000001 )     2.37668027
  WF centre and spread    3  (  0.000001,  3.542435, -0.000000 )     2.37679876
  Sum of centres and spreads (  3.542436,  3.542435,  3.542435 )     7.13012666
 
    478    -0.588E-07     0.0001515708        7.1301296740       3.25  <-- CONV
        O_D=      0.0000000 O_OD=      0.0121680 O_TOT=      7.1301297 <-- SPRD
 Delta: O_D=  0.3692683E-08 O_OD= -0.6249721E-07 O_TOT= -0.5880453E-07 <-- DLTA
 ------------------------------------------------------------------------------
 Cycle:    479
  WF centre and spread    1  (  0.000001,  0.000000,  3.542436 )     2.37664758
  WF centre and spread    2  (  3.542434, -0.000000, -0.000001 )     2.37668026
  WF centre and spread    3  (  0.000001,  3.542435, -0.000000 )     2.37679875
  Sum of centres and spreads (  3.542436,  3.542435,  3.542435 )     7.13012659
 
    479    -0.697E-07     0.0001698630        7.1301296043       3.26  <-- CONV
        O_D=      0.0000000 O_OD=      0.0121679 O_TOT=      7.1301296 <-- SPRD
 Delta: O_D=  0.6793751E-08 O_OD= -0.7653006E-07 O_TOT= -0.6973631E-07 <-- DLTA
 ------------------------------------------------------------------------------
 Cycle:    480
  WF centre and spread    1  (  0.000001,  0.000000,  3.542436 )     2.37664755
  WF centre and spread    2  (  3.542434, -0.000000, -0.000001 )     2.37668025
  WF centre and spread    3  (  0.000001,  3.542435, -0.000000 )     2.37679875
  Sum of centres and spreads (  3.542436,  3.542435,  3.542435 )     7.13012655
 
    480    -0.459E-07     0.0001678395        7.1301295583       3.26  <-- CONV
        O_D=      0.0000000 O_OD=      0.0121679 O_TOT=      7.1301296 <-- SPRD
 Delta: O_D=  0.2569335E-08 O_OD= -0.4849407E-07 O_TOT= -0.4592474E-07 <-- DLTA
 ------------------------------------------------------------------------------
 Cycle:    481
  WF centre and spread    1  (  0.000001,  0.000000,  3.542436 )     2.37664754
  WF centre and spread    2  (  3.542434, -0.000000, -0.000001 )     2.37668023
  WF centre and spread    3  (  0.000001,  3.542435, -0.000000 )     2.37679874
  Sum of centres and spreads (  3.542436,  3.542435,  3.542435 )     7.13012650
 
    481    -0.473E-07     0.0001722568        7.1301295111       3.27  <-- CONV
        O_D=      0.0000000 O_OD=      0.0121679 O_TOT=      7.1301295 <-- SPRD
 Delta: O_D= -0.1522927E-08 O_OD= -0.4573397E-07 O_TOT= -0.4725690E-07 <-- DLTA
 ------------------------------------------------------------------------------
 Cycle:    482
  WF centre and spread    1  (  0.000001,  0.000000,  3.542436 )     2.37664752
  WF centre and spread    2  (  3.542434, -0.000000, -0.000001 )     2.37668018
  WF centre and spread    3  (  0.000001,  3.542435, -0.000000 )     2.37679873
  Sum of centres and spreads (  3.542436,  3.542435,  3.542435 )     7.13012642
 
    482    -0.745E-07     0.0001702992        7.1301294366       3.28  <-- CONV
        O_D=      0.0000000 O_OD=      0.0121678 O_TOT=      7.1301294 <-- SPRD
 Delta: O_D= -0.7304364E-08 O_OD= -0.6717179E-07 O_TOT= -0.7447616E-07 <-- DLTA
 ------------------------------------------------------------------------------
 Cycle:    483
  WF centre and spread    1  (  0.000001,  0.000000,  3.542436 )     2.37664750
  WF centre and spread    2  (  3.542434, -0.000000, -0.000000 )     2.37668013
  WF centre and spread    3  (  0.000001,  3.542435,  0.000000 )     2.37679874
  Sum of centres and spreads (  3.542436,  3.542435,  3.542435 )     7.13012637
 
    483    -0.597E-07     0.0001718194        7.1301293769       3.28  <-- CONV
        O_D=      0.0000000 O_OD=      0.0121677 O_TOT=      7.1301294 <-- SPRD
 Delta: O_D= -0.4430695E-08 O_OD= -0.5531718E-07 O_TOT= -0.5974787E-07 <-- DLTA
 ------------------------------------------------------------------------------
 Cycle:    484
  WF centre and spread    1  (  0.000001,  0.000000,  3.542436 )     2.37664748
  WF centre and spread    2  (  3.542434, -0.000000, -0.000000 )     2.37668009
  WF centre and spread    3  (  0.000001,  3.542435,  0.000000 )     2.37679875
  Sum of centres and spreads (  3.542436,  3.542435,  3.542435 )     7.13012632
 
    484    -0.492E-07     0.0001485984        7.1301293277       3.29  <-- CONV
        O_D=      0.0000000 O_OD=      0.0121677 O_TOT=      7.1301293 <-- SPRD
 Delta: O_D=  0.2854263E-08 O_OD= -0.5204225E-07 O_TOT= -0.4918799E-07 <-- DLTA
 ------------------------------------------------------------------------------
 Cycle:    485
  WF centre and spread    1  (  0.000001,  0.000000,  3.542436 )     2.37664746
  WF centre and spread    2  (  3.542434, -0.000000, -0.000000 )     2.37668005
  WF centre and spread    3  (  0.000001,  3.542435,  0.000000 )     2.37679875
  Sum of centres and spreads (  3.542436,  3.542435,  3.542435 )     7.13012626
 
    485    -0.549E-07     0.0001405910        7.1301292728       3.30  <-- CONV
        O_D=      0.0000000 O_OD=      0.0121676 O_TOT=      7.1301293 <-- SPRD
 Delta: O_D=  0.3802666E-08 O_OD= -0.5869262E-07 O_TOT= -0.5488996E-07 <-- DLTA
 ------------------------------------------------------------------------------
 Cycle:    486
  WF centre and spread    1  (  0.000001,  0.000000,  3.542436 )     2.37664740
  WF centre and spread    2  (  3.542434, -0.000000, -0.000000 )     2.37668000
  WF centre and spread    3  (  0.000001,  3.542435,  0.000000 )     2.37679876
  Sum of centres and spreads (  3.542436,  3.542435,  3.542435 )     7.13012617
 
    486    -0.948E-07     0.0001656271        7.1301291780       3.30  <-- CONV
        O_D=      0.0000000 O_OD=      0.0121675 O_TOT=      7.1301292 <-- SPRD
 Delta: O_D=  0.2242710E-07 O_OD= -0.1172064E-06 O_TOT= -0.9477935E-07 <-- DLTA
 ------------------------------------------------------------------------------
 Cycle:    487
  WF centre and spread    1  (  0.000001,  0.000000,  3.542436 )     2.37664737
  WF centre and spread    2  (  3.542434, -0.000000, -0.000000 )     2.37667998
  WF centre and spread    3  (  0.000001,  3.542435,  0.000000 )     2.37679873
  Sum of centres and spreads (  3.542436,  3.542435,  3.542435 )     7.13012607
 
    487    -0.915E-07     0.0003021445        7.1301290865       3.31  <-- CONV
        O_D=      0.0000000 O_OD=      0.0121674 O_TOT=      7.1301291 <-- SPRD
 Delta: O_D= -0.2246277E-07 O_OD= -0.6904531E-07 O_TOT= -0.9150808E-07 <-- DLTA
 ------------------------------------------------------------------------------
 Cycle:    488
  WF centre and spread    1  (  0.000001,  0.000000,  3.542436 )     2.37664734
  WF centre and spread    2  (  3.542434, -0.000000, -0.000000 )     2.37667997
  WF centre and spread    3  (  0.000001,  3.542435,  0.000000 )     2.37679871
  Sum of centres and spreads (  3.542436,  3.542435,  3.542435 )     7.13012602
 
    488    -0.534E-07     0.0001633182        7.1301290331       3.32  <-- CONV
        O_D=      0.0000000 O_OD=      0.0121674 O_TOT=      7.1301290 <-- SPRD
 Delta: O_D= -0.3982129E-08 O_OD= -0.4945566E-07 O_TOT= -0.5343779E-07 <-- DLTA
 ------------------------------------------------------------------------------
 Cycle:    489
  WF centre and spread    1  (  0.000001,  0.000000,  3.542436 )     2.37664731
  WF centre and spread    2  (  3.542434, -0.000000, -0.000000 )     2.37667997
  WF centre and spread    3  (  0.000001,  3.542435,  0.000000 )     2.37679868
  Sum of centres and spreads (  3.542436,  3.542435,  3.542435 )     7.13012597
 
    489    -0.509E-07     0.0001400782        7.1301289821       3.32  <-- CONV
        O_D=      0.0000000 O_OD=      0.0121673 O_TOT=      7.1301290 <-- SPRD
 Delta: O_D= -0.2970833E-08 O_OD= -0.4794019E-07 O_TOT= -0.5091102E-07 <-- DLTA
 ------------------------------------------------------------------------------
 Cycle:    490
  WF centre and spread    1  (  0.000001,  0.000000,  3.542436 )     2.37664727
  WF centre and spread    2  (  3.542434, -0.000000, -0.000001 )     2.37667997
  WF centre and spread    3  (  0.000001,  3.542435, -0.000000 )     2.37679866
  Sum of centres and spreads (  3.542436,  3.542435,  3.542435 )     7.13012591
 
    490    -0.600E-07     0.0001474271        7.1301289221       3.33  <-- CONV
        O_D=      0.0000000 O_OD=      0.0121673 O_TOT=      7.1301289 <-- SPRD
 Delta: O_D=  0.3849067E-08 O_OD= -0.6389895E-07 O_TOT= -0.6004988E-07 <-- DLTA
 ------------------------------------------------------------------------------
 Cycle:    491
  WF centre and spread    1  (  0.000001,  0.000000,  3.542436 )     2.37664723
  WF centre and spread    2  (  3.542434, -0.000000, -0.000001 )     2.37667996
  WF centre and spread    3  (  0.000001,  3.542435, -0.000000 )     2.37679865
  Sum of centres and spreads (  3.542436,  3.542435,  3.542435 )     7.13012584
 
    491    -0.731E-07     0.0001664147        7.1301288490       3.34  <-- CONV
        O_D=      0.0000000 O_OD=      0.0121672 O_TOT=      7.1301288 <-- SPRD
 Delta: O_D=  0.7987822E-08 O_OD= -0.8112042E-07 O_TOT= -0.7313260E-07 <-- DLTA
 ------------------------------------------------------------------------------
 Cycle:    492
  WF centre and spread    1  (  0.000001,  0.000000,  3.542436 )     2.37664720
  WF centre and spread    2  (  3.542434, -0.000000, -0.000001 )     2.37667995
  WF centre and spread    3  (  0.000001,  3.542435, -0.000000 )     2.37679865
  Sum of centres and spreads (  3.542436,  3.542435,  3.542435 )     7.13012579
 
    492    -0.478E-07     0.0001739364        7.1301288011       3.34  <-- CONV
        O_D=      0.0000000 O_OD=      0.0121671 O_TOT=      7.1301288 <-- SPRD
 Delta: O_D=  0.1440554E-08 O_OD= -0.4926475E-07 O_TOT= -0.4782419E-07 <-- DLTA
 ------------------------------------------------------------------------------
 Cycle:    493
  WF centre and spread    1  (  0.000001,  0.000000,  3.542436 )     2.37664718
  WF centre and spread    2  (  3.542434, -0.000000, -0.000001 )     2.37667993
  WF centre and spread    3  (  0.000001,  3.542435, -0.000000 )     2.37679864
  Sum of centres and spreads (  3.542436,  3.542435,  3.542435 )     7.13012574
 
    493    -0.501E-07     0.0001714495        7.1301287510       3.35  <-- CONV
        O_D=      0.0000000 O_OD=      0.0121671 O_TOT=      7.1301288 <-- SPRD
 Delta: O_D=  0.1591101E-09 O_OD= -0.5025550E-07 O_TOT= -0.5009639E-07 <-- DLTA
 ------------------------------------------------------------------------------
 Cycle:    494
  WF centre and spread    1  (  0.000001,  0.000000,  3.542436 )     2.37664716
  WF centre and spread    2  (  3.542434, -0.000000, -0.000001 )     2.37667988
  WF centre and spread    3  (  0.000001,  3.542435, -0.000000 )     2.37679863
  Sum of centres and spreads (  3.542436,  3.542435,  3.542435 )     7.13012567
 
    494    -0.723E-07     0.0001782469        7.1301286788       3.36  <-- CONV
        O_D=      0.0000000 O_OD=      0.0121670 O_TOT=      7.1301287 <-- SPRD
 Delta: O_D= -0.8457670E-08 O_OD= -0.6380290E-07 O_TOT= -0.7226057E-07 <-- DLTA
 ------------------------------------------------------------------------------
 Cycle:    495
  WF centre and spread    1  (  0.000001,  0.000000,  3.542436 )     2.37664714
  WF centre and spread    2  (  3.542434, -0.000000, -0.000000 )     2.37667983
  WF centre and spread    3  (  0.000001,  3.542435,  0.000000 )     2.37679864
  Sum of centres and spreads (  3.542436,  3.542435,  3.542435 )     7.13012561
 
    495    -0.599E-07     0.0001744669        7.1301286189       3.36  <-- CONV
        O_D=      0.0000000 O_OD=      0.0121670 O_TOT=      7.1301286 <-- SPRD
 Delta: O_D= -0.5027114E-08 O_OD= -0.5490601E-07 O_TOT= -0.5993313E-07 <-- DLTA
 ------------------------------------------------------------------------------
 Cycle:    496
  WF centre and spread    1  (  0.000001,  0.000000,  3.542436 )     2.37664712
  WF centre and spread    2  (  3.542434, -0.000000, -0.000000 )     2.37667979
  WF centre and spread    3  (  0.000001,  3.542435,  0.000000 )     2.37679865
  Sum of centres and spreads (  3.542436,  3.542435,  3.542435 )     7.13012556
 
    496    -0.514E-07     0.0001489709        7.1301285675       3.37  <-- CONV
        O_D=      0.0000000 O_OD=      0.0121669 O_TOT=      7.1301286 <-- SPRD
 Delta: O_D=  0.3846114E-08 O_OD= -0.5522113E-07 O_TOT= -0.5137502E-07 <-- DLTA
 ------------------------------------------------------------------------------
 Cycle:    497
  WF centre and spread    1  (  0.000001,  0.000000,  3.542436 )     2.37664710
  WF centre and spread    2  (  3.542434, -0.000000, -0.000000 )     2.37667975
  WF centre and spread    3  (  0.000001,  3.542435,  0.000000 )     2.37679865
  Sum of centres and spreads (  3.542436,  3.542435,  3.542435 )     7.13012550
 
    497    -0.522E-07     0.0001457438        7.1301285153       3.38  <-- CONV
        O_D=      0.0000000 O_OD=      0.0121669 O_TOT=      7.1301285 <-- SPRD
 Delta: O_D=  0.1863798E-08 O_OD= -0.5408887E-07 O_TOT= -0.5222507E-07 <-- DLTA
 ------------------------------------------------------------------------------
 Cycle:    498
  WF centre and spread    1  (  0.000001,  0.000000,  3.542436 )     2.37664705
  WF centre and spread    2  (  3.542434, -0.000000, -0.000000 )     2.37667970
  WF centre and spread    3  (  0.000001,  3.542435,  0.000000 )     2.37679866
  Sum of centres and spreads (  3.542436,  3.542435,  3.542435 )     7.13012541
 
    498    -0.967E-07     0.0001588194        7.1301284186       3.39  <-- CONV
        O_D=      0.0000000 O_OD=      0.0121667 O_TOT=      7.1301284 <-- SPRD
 Delta: O_D=  0.2468169E-07 O_OD= -0.1213449E-06 O_TOT= -0.9666321E-07 <-- DLTA
 ------------------------------------------------------------------------------
 Cycle:    499
  WF centre and spread    1  (  0.000001,  0.000000,  3.542436 )     2.37664701
  WF centre and spread    2  (  3.542434, -0.000000, -0.000000 )     2.37667968
  WF centre and spread    3  (  0.000001,  3.542435,  0.000000 )     2.37679863
  Sum of centres and spreads (  3.542436,  3.542435,  3.542435 )     7.13012531
 
    499    -0.928E-07     0.0003094087        7.1301283258       3.39  <-- CONV
        O_D=      0.0000000 O_OD=      0.0121667 O_TOT=      7.1301283 <-- SPRD
 Delta: O_D= -0.2490803E-07 O_OD= -0.6786110E-07 O_TOT= -0.9276913E-07 <-- DLTA
 ------------------------------------------------------------------------------
 Cycle:    500
  WF centre and spread    1  (  0.000001,  0.000000,  3.542436 )     2.37664699
  WF centre and spread    2  (  3.542434, -0.000000, -0.000000 )     2.37667967
  WF centre and spread    3  (  0.000001,  3.542435,  0.000000 )     2.37679861
  Sum of centres and spreads (  3.542436,  3.542435,  3.542435 )     7.13012526
 
    500    -0.504E-07     0.0001569822        7.1301282754       3.40  <-- CONV
        O_D=      0.0000000 O_OD=      0.0121666 O_TOT=      7.1301283 <-- SPRD
 Delta: O_D= -0.3244051E-08 O_OD= -0.4719715E-07 O_TOT= -0.5044120E-07 <-- DLTA
 ------------------------------------------------------------------------------

 Writing checkpoint file mp-22898.chk... done

 Final State
  WF centre and spread    1  (  0.000001,  0.000000,  3.542436 )     2.37664699
  WF centre and spread    2  (  3.542434, -0.000000, -0.000000 )     2.37667967
  WF centre and spread    3  (  0.000001,  3.542435,  0.000000 )     2.37679861
  Sum of centres and spreads (  3.542436,  3.542435,  3.542435 )     7.13012526
 
         Spreads (Ang^2)       Omega I      =     7.117961642
        ================       Omega D      =     0.000000008
                               Omega OD     =     0.012166626
    Final Spread (Ang^2)       Omega Total  =     7.130128275
 ------------------------------------------------------------------------------
 Time for wannierise            3.396 (sec)

 Writing checkpoint file mp-22898.chk... done

 Time for plotting              0.000 (sec)
 Total Execution Time           4.710 (sec)

 *===========================================================================*
 |                             TIMING INFORMATION                            |
 *===========================================================================*
 |    Tag                                                Ncalls      Time (s)|
 |---------------------------------------------------------------------------|
 |kmesh: get                                        :         1         1.068|
 |overlap: allocate                                 :         1         0.002|
 |overlap: read                                     :         1         0.141|
 |wann: main                                        :         1         3.396|
 |plot: main                                        :         1         0.000|
 *---------------------------------------------------------------------------*
 
 All done: wannier90 exiting
