
     Program PWSCF v.7.1 starts on  3Jan2024 at 14:30:24 

     This program is part of the open-source Quantum ESPRESSO suite
     for quantum simulation of materials; please cite
         "P. Giannozzi et al., J. Phys.:Condens. Matter 21 395502 (2009);
         "P. Giannozzi et al., J. Phys.:Condens. Matter 29 465901 (2017);
         "P. Giannozzi et al., J. Chem. Phys. 152 154105 (2020);
          URL http://www.quantum-espresso.org", 
     in publications or presentations arising from this work. More details at
     http://www.quantum-espresso.org/quote

     Parallel version (MPI), running on     8 processors

     MPI processes distributed on     1 nodes
     120001 MiB available memory on the printing compute node when the environment starts
 
     Reading input from pw_mp-8062_nscf_k3000_E130.in
Warning: card &IONS ignored
Warning: card / ignored
Warning: card &CELL ignored
Warning: card / ignored

     Current dimensions of program PWSCF are:
     Max number of different atomic species (ntypx) = 10
     Max number of k-points (npk) =  40000
     Max angular momentum in pseudopotentials (lmaxx) =  4

     Atomic positions and unit cell read from directory:
     out/mp-8062.save/
     Atomic positions from file used, from input discarded
 
 
     R & G space division:  proc/nbgrp/npool/nimage =       8
     Subspace diagonalization in iterative solution of the eigenvalue problem:
     a serial algorithm will be used

 
     Parallelization info
     --------------------
     sticks:   dense  smooth     PW     G-vecs:    dense   smooth      PW
     Min         151     151     45                 3491     3491     558
     Max         152     152     46                 3494     3494     560
     Sum        1213    1213    361                27941    27941    4477
 
     Using Slab Decomposition
 


     bravais-lattice index     =            2
     lattice parameter (alat)  =       8.2279  a.u.
     unit-cell volume          =     139.2515 (a.u.)^3
     number of atoms/cell      =            2
     number of atomic types    =            2
     number of electrons       =         8.00
     number of Kohn-Sham states=            8
     kinetic-energy cutoff     =     130.0000  Ry
     charge density cutoff     =     520.0000  Ry
     Exchange-correlation= PBE
                           (   1   4   3   4   0   0   0)

     celldm(1)=   8.227854  celldm(2)=   0.000000  celldm(3)=   0.000000
     celldm(4)=   0.000000  celldm(5)=   0.000000  celldm(6)=   0.000000

     crystal axes: (cart. coord. in units of alat)
               a(1) = (  -0.500000   0.000000   0.500000 )  
               a(2) = (   0.000000   0.500000   0.500000 )  
               a(3) = (  -0.500000   0.500000   0.000000 )  

     reciprocal axes: (cart. coord. in units 2 pi/alat)
               b(1) = ( -1.000000 -1.000000  1.000000 )  
               b(2) = (  1.000000  1.000000  1.000000 )  
               b(3) = ( -1.000000  1.000000 -1.000000 )  


     PseudoPot. # 1 for C  read from file:
     /usr/scratch4/magr4985/MG/devEb/pseudo/SG15/C.upf
     MD5 check sum: 3d2597e5eef38528f7293c089e88409c
     Pseudo is Norm-conserving, Zval =  4.0
     Generated using ONCVPSP code by D. R. Hamann
     Using radial grid of  602 points,  4 beta functions with: 
                l(1) =   0
                l(2) =   0
                l(3) =   1
                l(4) =   1

     PseudoPot. # 2 for Si read from file:
     /usr/scratch4/magr4985/MG/devEb/pseudo/SG15/Si.upf
     MD5 check sum: 748503c2319b9684642f75d0fea367ab
     Pseudo is Norm-conserving, Zval =  4.0
     Generated using ONCVPSP code by D. R. Hamann
     Using radial grid of  602 points,  4 beta functions with: 
                l(1) =   0
                l(2) =   0
                l(3) =   1
                l(4) =   1

     atomic species   valence    mass     pseudopotential
        C              4.00    12.01070     C ( 1.00)
        Si             4.00    28.08550     Si( 1.00)

     24 Sym. Ops. (no inversion) found



   Cartesian axes

     site n.     atom                  positions (alat units)
         1           Si  tau(   1) = (  -0.2500000   0.2500000   0.2500001  )
         2           C   tau(   2) = (   0.0000000   0.0000000   0.0000000  )

     number of k points=    72  Gaussian smearing, width (Ry)=  0.0005
                       cart. coord. in units 2pi/alat
        k(    1) = (   0.0000000   0.0000000   0.0000000), wk =   0.0011574
        k(    2) = (  -0.0833333   0.0833333  -0.0833333), wk =   0.0092593
        k(    3) = (  -0.1666667   0.1666667  -0.1666667), wk =   0.0092593
        k(    4) = (  -0.2500000   0.2500000  -0.2500000), wk =   0.0092593
        k(    5) = (  -0.3333333   0.3333333  -0.3333333), wk =   0.0092593
        k(    6) = (  -0.4166667   0.4166667  -0.4166667), wk =   0.0092593
        k(    7) = (   0.5000000  -0.5000000   0.5000000), wk =   0.0046296
        k(    8) = (   0.0000000   0.1666667   0.0000000), wk =   0.0069444
        k(    9) = (  -0.0833333   0.2500000  -0.0833333), wk =   0.0277778
        k(   10) = (  -0.1666667   0.3333333  -0.1666667), wk =   0.0277778
        k(   11) = (  -0.2500000   0.4166667  -0.2500000), wk =   0.0277778
        k(   12) = (  -0.3333333   0.5000000  -0.3333333), wk =   0.0277778
        k(   13) = (   0.5833333  -0.4166667   0.5833333), wk =   0.0277778
        k(   14) = (   0.5000000  -0.3333333   0.5000000), wk =   0.0277778
        k(   15) = (   0.4166667  -0.2500000   0.4166667), wk =   0.0277778
        k(   16) = (   0.3333333  -0.1666667   0.3333333), wk =   0.0277778
        k(   17) = (   0.2500000  -0.0833333   0.2500000), wk =   0.0277778
        k(   18) = (   0.1666667  -0.0000000   0.1666667), wk =   0.0138889
        k(   19) = (   0.0000000   0.3333333   0.0000000), wk =   0.0069444
        k(   20) = (  -0.0833333   0.4166667  -0.0833333), wk =   0.0277778
        k(   21) = (  -0.1666667   0.5000000  -0.1666667), wk =   0.0277778
        k(   22) = (  -0.2500000   0.5833333  -0.2500000), wk =   0.0277778
        k(   23) = (   0.6666667  -0.3333333   0.6666667), wk =   0.0277778
        k(   24) = (   0.5833333  -0.2500000   0.5833333), wk =   0.0277778
        k(   25) = (   0.5000000  -0.1666667   0.5000000), wk =   0.0277778
        k(   26) = (   0.4166667  -0.0833333   0.4166667), wk =   0.0277778
        k(   27) = (   0.3333333   0.0000000   0.3333333), wk =   0.0138889
        k(   28) = (   0.0000000   0.5000000   0.0000000), wk =   0.0069444
        k(   29) = (  -0.0833333   0.5833333  -0.0833333), wk =   0.0277778
        k(   30) = (  -0.1666667   0.6666667  -0.1666667), wk =   0.0277778
        k(   31) = (   0.7500000  -0.2500000   0.7500000), wk =   0.0277778
        k(   32) = (   0.6666667  -0.1666667   0.6666667), wk =   0.0277778
        k(   33) = (   0.5833333  -0.0833333   0.5833333), wk =   0.0277778
        k(   34) = (   0.5000000   0.0000000   0.5000000), wk =   0.0138889
        k(   35) = (   0.0000000   0.6666667   0.0000000), wk =   0.0069444
        k(   36) = (  -0.0833333   0.7500000  -0.0833333), wk =   0.0277778
        k(   37) = (   0.8333333  -0.1666667   0.8333333), wk =   0.0277778
        k(   38) = (   0.7500000  -0.0833333   0.7500000), wk =   0.0277778
        k(   39) = (   0.6666667  -0.0000000   0.6666667), wk =   0.0138889
        k(   40) = (   0.0000000   0.8333333   0.0000000), wk =   0.0069444
        k(   41) = (   0.9166667  -0.0833333   0.9166667), wk =   0.0277778
        k(   42) = (   0.8333333   0.0000000   0.8333333), wk =   0.0138889
        k(   43) = (   0.0000000  -1.0000000   0.0000000), wk =   0.0034722
        k(   44) = (  -0.1666667   0.3333333   0.0000000), wk =   0.0277778
        k(   45) = (  -0.2500000   0.4166667  -0.0833333), wk =   0.0555556
        k(   46) = (  -0.3333333   0.5000000  -0.1666667), wk =   0.0555556
        k(   47) = (   0.5833333  -0.4166667   0.7500000), wk =   0.0555556
        k(   48) = (   0.5000000  -0.3333333   0.6666667), wk =   0.0277778
        k(   49) = (  -0.1666667   0.5000000   0.0000000), wk =   0.0277778
        k(   50) = (  -0.2500000   0.5833333  -0.0833333), wk =   0.0555556
        k(   51) = (   0.6666667  -0.3333333   0.8333333), wk =   0.0555556
        k(   52) = (   0.5833333  -0.2500000   0.7500000), wk =   0.0555556
        k(   53) = (   0.5000000  -0.1666667   0.6666667), wk =   0.0555556
        k(   54) = (   0.4166667  -0.0833333   0.5833333), wk =   0.0555556
        k(   55) = (   0.3333333   0.0000000   0.5000000), wk =   0.0277778
        k(   56) = (  -0.1666667   0.6666667   0.0000000), wk =   0.0277778
        k(   57) = (   0.7500000  -0.2500000   0.9166667), wk =   0.0555556
        k(   58) = (   0.6666667  -0.1666667   0.8333333), wk =   0.0555556
        k(   59) = (   0.5833333  -0.0833333   0.7500000), wk =   0.0555556
        k(   60) = (   0.5000000   0.0000000   0.6666667), wk =   0.0277778
        k(   61) = (   0.8333333  -0.1666667   1.0000000), wk =   0.0277778
        k(   62) = (   0.7500000  -0.0833333   0.9166667), wk =   0.0555556
        k(   63) = (   0.6666667  -0.0000000   0.8333333), wk =   0.0277778
        k(   64) = (  -0.1666667  -1.0000000  -0.0000000), wk =   0.0138889
        k(   65) = (   0.6666667  -0.3333333   1.0000000), wk =   0.0277778
        k(   66) = (   0.5833333  -0.2500000   0.9166667), wk =   0.0555556
        k(   67) = (   0.5000000  -0.1666667   0.8333333), wk =   0.0277778
        k(   68) = (   0.6666667  -0.1666667   1.0000000), wk =   0.0277778
        k(   69) = (   0.5833333  -0.0833333   0.9166667), wk =   0.0555556
        k(   70) = (   0.5000000   0.0000000   0.8333333), wk =   0.0277778
        k(   71) = (  -0.3333333  -1.0000000   0.0000000), wk =   0.0138889
        k(   72) = (  -0.5000000  -1.0000000   0.0000000), wk =   0.0069444

     Dense  grid:    27941 G-vectors     FFT dimensions: (  45,  45,  45)

     Estimated max dynamical RAM per process >       6.65 MB

     Estimated total dynamical RAM >      53.19 MB

     The potential is recalculated from file :
     out/mp-8062.save/charge-density

     Starting wfcs are random

     Band Structure Calculation
     Davidson diagonalization with overlap

     ethr =  5.00E-06,  avg # of iterations = 20.2

     total cpu time spent up to now is        3.6 secs

     End of band structure calculation

          k = 0.0000 0.0000 0.0000 (  3479 PWs)   bands (ev):

    -5.8973   9.4819   9.4819   9.4819  15.7691  16.8745  16.8745  16.8745

          k =-0.0833 0.0833-0.0833 (  3500 PWs)   bands (ev):

    -5.7613   8.7633   9.3889   9.3889  16.0118  17.0121  17.0487  17.0487

          k =-0.1667 0.1667-0.1667 (  3509 PWs)   bands (ev):

    -5.3573   7.1310   9.1585   9.1585  15.8884  17.3860  17.3860  17.8759

          k =-0.2500 0.2500-0.2500 (  3497 PWs)   bands (ev):

    -4.6998   5.2163   8.8870   8.8870  15.5298  17.4599  17.4599  18.8609

          k =-0.3333 0.3333-0.3333 (  3488 PWs)   bands (ev):

    -3.8277   3.3361   8.6528   8.6528  15.2215  17.1863  17.1863  19.4174

          k =-0.4167 0.4167-0.4167 (  3489 PWs)   bands (ev):

    -2.8670   1.7360   8.4998   8.4998  15.0291  16.8840  16.8840  19.5493

          k = 0.5000-0.5000 0.5000 (  3498 PWs)   bands (ev):

    -2.3219   0.9726   8.4471   8.4471  14.9649  16.7643  16.7643  19.5483

          k = 0.0000 0.1667 0.0000 (  3503 PWs)   bands (ev):

    -5.7160   8.9441   9.1476   9.1477  16.1127  16.5246  17.3705  17.3705

          k =-0.0833 0.2500-0.0833 (  3508 PWs)   bands (ev):

    -5.4011   7.6772   8.8145   9.0603  15.9313  16.7736  17.8731  17.9463

          k =-0.1667 0.3333-0.1667 (  3501 PWs)   bands (ev):

    -4.8273   5.8853   8.5018   8.8200  15.6569  17.1151  18.1404  18.3474

          k =-0.2500 0.4167-0.2500 (  3492 PWs)   bands (ev):

    -4.0227   4.0121   8.2836   8.4854  15.3773  16.9438  17.9402  19.0502

          k =-0.3333 0.5000-0.3333 (  3493 PWs)   bands (ev):

    -3.0703   2.3098   8.1606   8.1948  15.1969  16.6093  17.5334  19.7796

          k = 0.5833-0.4167 0.5833 (  3490 PWs)   bands (ev):

    -2.2929   1.1788   7.9111   8.2425  15.1701  16.4416  17.2073  20.0977

          k = 0.5000-0.3333 0.5000 (  3485 PWs)   bands (ev):

    -2.4884   1.4465   7.7779   8.4140  15.2901  16.5233  17.0869  20.0943

          k = 0.4167-0.2500 0.4167 (  3487 PWs)   bands (ev):

    -3.3946   2.8443   7.7864   8.6798  15.5138  16.8622  17.1812  19.7586

          k = 0.3333-0.1667 0.3333 (  3497 PWs)   bands (ev):

    -4.3142   4.6287   7.9492   8.9916  15.8161  17.3026  17.3627  19.0410

          k = 0.2500-0.0833 0.2500 (  3504 PWs)   bands (ev):

    -5.0467   6.4810   8.2689   9.2761  16.1737  17.2591  17.3367  18.3991

          k = 0.1667-0.0000 0.1667 (  3519 PWs)   bands (ev):

    -5.5359   8.0260   8.7851   9.4355  16.3196  16.7942  17.0936  17.8608

          k = 0.0000 0.3333 0.0000 (  3515 PWs)   bands (ev):

    -5.1768   7.7013   8.3897   8.3897  15.0950  16.8624  18.5912  18.5913

          k =-0.0833 0.4167-0.0833 (  3501 PWs)   bands (ev):

    -4.6916   6.4145   8.0132   8.1288  14.6491  16.7501  18.7428  19.1519

          k =-0.1667 0.5000-0.1667 (  3494 PWs)   bands (ev):

    -3.9670   4.7338   7.7052   7.7623  14.4420  17.0915  18.5253  19.1921

          k =-0.2500 0.5833-0.2500 (  3493 PWs)   bands (ev):

    -3.0616   3.0631   7.1905   7.6732  14.3036  17.4247  18.8259  19.0200

          k = 0.6667-0.3333 0.6667 (  3497 PWs)   bands (ev):

    -2.1798   1.7401   6.7345   7.7544  14.3554  17.3427  18.3904  20.1545

          k = 0.5833-0.2500 0.5833 (  3484 PWs)   bands (ev):

    -1.9987   1.5004   6.4221   7.9922  14.6617  17.2524  18.0744  20.6785

          k = 0.5000-0.1667 0.5000 (  3486 PWs)   bands (ev):

    -2.7551   2.5833   6.3079   8.3499  15.2095  17.2620  17.9263  20.1353

          k = 0.4167-0.0833 0.4167 (  3486 PWs)   bands (ev):

    -3.6884   4.1533   6.4579   8.7599  15.9158  17.3462  17.8565  19.0855

          k = 0.3333 0.0000 0.3333 (  3491 PWs)   bands (ev):

    -4.4805   5.6011   7.0728   9.1141  16.5556  17.1273  17.6312  18.4530

          k = 0.0000 0.5000 0.0000 (  3511 PWs)   bands (ev):

    -4.2970   6.1585   7.5726   7.5726  13.5933  15.8525  20.1200  20.1200

          k =-0.0833 0.5833-0.0833 (  3490 PWs)   bands (ev):

    -3.6606   5.0480   7.0743   7.2673  13.1542  15.6048  20.2135  20.5934

          k =-0.1667 0.6667-0.1667 (  3486 PWs)   bands (ev):

    -2.8276   3.7001   6.3043   7.1393  13.1087  16.2674  20.0254  20.4495

          k = 0.7500-0.2500 0.7500 (  3488 PWs)   bands (ev):

    -1.9387   2.4507   5.5556   7.2017  13.2404  17.4705  20.0167  20.0294

          k = 0.6667-0.1667 0.6667 (  3496 PWs)   bands (ev):

    -1.4796   1.8856   5.0156   7.4462  13.5980  18.3225  19.5574  20.5339

          k = 0.5833-0.0833 0.5833 (  3488 PWs)   bands (ev):

    -1.9811   2.5414   4.7926   7.8409  14.2096  18.5150  19.1247  20.3546

          k = 0.5000 0.0000 0.5000 (  3487 PWs)   bands (ev):

    -2.8670   3.5721   5.1725   8.3189  15.0429  18.2798  18.5793  19.3714

          k = 0.0000 0.6667 0.0000 (  3463 PWs)   bands (ev):

    -3.1173   4.4530   6.9026   6.9026  12.1609  14.7256  21.6759  21.6759

          k =-0.0833 0.7500-0.0833 (  3481 PWs)   bands (ev):

    -2.3776   3.5159   6.2607   6.7188  11.9626  14.7478  21.8009  22.0143

          k = 0.8333-0.1667 0.8333 (  3473 PWs)   bands (ev):

    -1.5580   2.6632   5.1701   6.7350  12.2391  15.7253  21.6246  21.7362

          k = 0.7500-0.0833 0.7500 (  3477 PWs)   bands (ev):

    -1.0176   2.2404   4.2034   6.9490  12.6856  17.2975  21.1559  21.4868

          k = 0.6667-0.0000 0.6667 (  3498 PWs)   bands (ev):

    -1.2537   2.4756   3.8766   7.3366  13.3358  18.6670  20.3068  21.0530

          k = 0.0000 0.8333 0.0000 (  3475 PWs)   bands (ev):

    -1.7569   2.7338   6.4742   6.4742  11.1968  14.0560  22.9831  22.9831

          k = 0.9167-0.0833 0.9167 (  3472 PWs)   bands (ev):

    -1.1095   2.0780   5.8466   6.4319  11.3414  14.3260  23.0641  23.0790

          k = 0.8333 0.0000 0.8333 (  3464 PWs)   bands (ev):

    -0.7966   1.9833   4.7652   6.5958  11.9478  15.5429  22.4154  22.7671

          k = 0.0000-1.0000 0.0000 (  3490 PWs)   bands (ev):

    -0.8653   1.7109   6.3276   6.3276  10.8673  13.8367  23.5470  23.5470

          k =-0.1667 0.3333 0.0000 (  3508 PWs)   bands (ev):

    -5.0010   6.7996   7.9743   8.9665  15.6771  17.0201  18.2140  18.2830

          k =-0.2500 0.4167-0.0833 (  3493 PWs)   bands (ev):

    -4.3508   5.2791   7.3834   8.7189  15.5362  17.2620  18.0998  18.5754

          k =-0.3333 0.5000-0.1667 (  3491 PWs)   bands (ev):

    -3.4911   3.5526   7.0985   8.3587  15.3227  16.9030  18.3886  19.0657

          k = 0.5833-0.4167 0.7500 (  3491 PWs)   bands (ev):

    -2.5504   2.0292   6.9872   8.0457  15.1625  16.5118  18.2237  20.1115

          k = 0.5000-0.3333 0.6667 (  3492 PWs)   bands (ev):

    -2.0231   1.2994   6.9665   7.9182  15.1098  16.3613  18.1467  20.5660

          k =-0.1667 0.5000 0.0000 (  3489 PWs)   bands (ev):

    -4.1301   5.5352   7.1116   7.9739  14.2301  16.4642  18.8428  19.8882

          k =-0.2500 0.5833-0.0833 (  3489 PWs)   bands (ev):

    -3.3478   4.2037   6.4846   7.6083  14.1641  16.8649  18.5450  20.1981

          k = 0.6667-0.3333 0.8333 (  3485 PWs)   bands (ev):

    -2.4339   2.7698   6.0811   7.3016  14.1833  17.3932  18.7646  20.1409

          k = 0.5833-0.2500 0.7500 (  3485 PWs)   bands (ev):

    -1.7122   1.7835   5.7558   7.2733  14.3508  17.2593  19.5191  20.3730

          k = 0.5000-0.1667 0.6667 (  3486 PWs)   bands (ev):

    -1.9005   2.0384   5.5524   7.5183  14.6957  17.1153  19.5335  20.3177

          k = 0.4167-0.0833 0.5833 (  3481 PWs)   bands (ev):

    -2.7560   3.2501   5.5940   7.9392  15.1511  17.1620  18.9101  19.6421

          k = 0.3333 0.0000 0.5000 (  3487 PWs)   bands (ev):

    -3.6402   4.5055   6.1417   8.4029  15.5126  17.3365  17.9960  19.2376

          k =-0.1667 0.6667 0.0000 (  3482 PWs)   bands (ev):

    -2.9684   4.1947   6.4119   6.9113  12.8796  15.4576  20.2068  21.5806

          k = 0.7500-0.2500 0.9167 (  3474 PWs)   bands (ev):

    -2.1245   3.1997   5.5902   6.5978  13.0978  16.1818  19.8309  21.8493

          k = 0.6667-0.1667 0.8333 (  3477 PWs)   bands (ev):

    -1.3551   2.3546   4.7891   6.6229  13.4307  17.4648  19.5860  21.6265

          k = 0.5833-0.0833 0.7500 (  3486 PWs)   bands (ev):

    -1.2452   2.2831   4.3020   6.9132  13.9003  18.1763  19.9662  20.9173

          k = 0.5000 0.0000 0.6667 (  3484 PWs)   bands (ev):

    -1.9114   2.8960   4.4568   7.3897  14.5218  17.9226  19.4309  20.4771

          k = 0.8333-0.1667 1.0000 (  3469 PWs)   bands (ev):

    -1.6469   2.7494   5.9756   6.1626  12.0071  14.8439  21.6349  22.9931

          k = 0.7500-0.0833 0.9167 (  3474 PWs)   bands (ev):

    -0.9849   2.2473   4.9323   6.1336  12.5598  15.8260  21.1719  22.8832

          k = 0.6667-0.0000 0.8333 (  3477 PWs)   bands (ev):

    -0.8222   2.2926   4.0469   6.4218  13.1808  17.3980  20.5135  21.7469

          k =-0.1667-1.0000-0.0000 (  3470 PWs)   bands (ev):

    -0.8116   1.8542   5.8580   5.8771  11.7154  14.6410  22.5118  23.5900

          k = 0.6667-0.3333 1.0000 (  3486 PWs)   bands (ev):

    -2.5414   3.5592   5.4112   7.0901  14.3996  17.2624  18.1218  21.1924

          k = 0.5833-0.2500 0.9167 (  3484 PWs)   bands (ev):

    -1.6881   2.6592   4.9052   6.5923  14.5703  17.5511  18.6520  21.3662

          k = 0.5000-0.1667 0.8333 (  3478 PWs)   bands (ev):

    -1.2365   2.1386   4.7978   6.3917  14.6131  17.4262  19.8237  20.7831

          k = 0.6667-0.1667 1.0000 (  3480 PWs)   bands (ev):

    -1.3570   2.7159   5.0036   5.7924  13.7147  16.7727  19.3500  22.4179

          k = 0.5833-0.0833 0.9167 (  3474 PWs)   bands (ev):

    -0.8454   2.4309   4.3778   5.5826  14.2625  17.8896  19.1824  20.9124

          k = 0.5000 0.0000 0.8333 (  3475 PWs)   bands (ev):

    -1.0202   2.5575   4.1854   5.9348  14.5995  18.0819  19.1844  20.5575

          k =-0.3333-1.0000 0.0000 (  3472 PWs)   bands (ev):

    -0.6965   2.2235   5.0014   5.1348  13.4899  16.6053  20.3653  21.7104

          k =-0.5000-1.0000 0.0000 (  3448 PWs)   bands (ev):

    -0.6345   2.4925   4.5161   4.8301  14.6909  18.9736  18.9927  19.2736

     the Fermi energy is    10.6971 ev
     (compare with:    10.7012 eV, computed in scf)

     Writing all to output data dir out/mp-8062.save/
 
     init_run     :      0.05s CPU      0.08s WALL (       1 calls)
     electrons    :      3.27s CPU      3.41s WALL (       1 calls)

     Called by init_run:
     wfcinit      :      0.00s CPU      0.00s WALL (       1 calls)
     potinit      :      0.02s CPU      0.02s WALL (       1 calls)
     hinit0       :      0.01s CPU      0.02s WALL (       1 calls)

     Called by electrons:
     c_bands      :      3.27s CPU      3.39s WALL (       1 calls)
     v_of_rho     :      0.01s CPU      0.01s WALL (       1 calls)

     Called by c_bands:
     init_us_2    :      0.01s CPU      0.01s WALL (      72 calls)
     init_us_2:cp :      0.01s CPU      0.01s WALL (      72 calls)
     cegterg      :      3.04s CPU      3.15s WALL (     100 calls)

     Called by *egterg:
     cdiaghg      :      0.17s CPU      0.18s WALL (    1529 calls)
     h_psi        :      2.79s CPU      2.89s WALL (    1629 calls)
     g_psi        :      0.02s CPU      0.02s WALL (    1457 calls)

     Called by h_psi:
     h_psi:calbec :      0.07s CPU      0.08s WALL (    1629 calls)
     vloc_psi     :      2.66s CPU      2.76s WALL (    1629 calls)
     add_vuspsi   :      0.04s CPU      0.04s WALL (    1629 calls)

     General routines
     calbec       :      0.07s CPU      0.07s WALL (    1629 calls)
     fft          :      0.01s CPU      0.02s WALL (      10 calls)
     fftw         :      2.42s CPU      2.50s WALL (   19024 calls)
 
     Parallel routines
 
     PWSCF        :      3.53s CPU      3.82s WALL

 
   This run was terminated on:  14:30:28   3Jan2024            

=------------------------------------------------------------------------------=
   JOB DONE.
=------------------------------------------------------------------------------=
