 vasp.5.4.4.18Apr17-6-g9f103f2a35 (build Aug 24 2017 11:22:49) complex          
  
 executed on             LinuxIFC date 2023.12.25  13:07:34
 running on    8 total cores
 distrk:  each k-point on    8 cores,    1 groups
 distr:  one band on NCORES_PER_BAND=   1 cores,    8 groups


--------------------------------------------------------------------------------------------------------


 INCAR:
 POTCAR:    PAW_PBE Ca_sv 06Sep2000               
 POTCAR:    PAW_PBE O 08Apr2002                   

 ----------------------------------------------------------------------------- 
|                                                                             |
|           W    W    AA    RRRRR   N    N  II  N    N   GGGG   !!!           |
|           W    W   A  A   R    R  NN   N  II  NN   N  G    G  !!!           |
|           W    W  A    A  R    R  N N  N  II  N N  N  G       !!!           |
|           W WW W  AAAAAA  RRRRR   N  N N  II  N  N N  G  GGG   !            |
|           WW  WW  A    A  R   R   N   NN  II  N   NN  G    G                |
|           W    W  A    A  R    R  N    N  II  N    N   GGGG   !!!           |
|                                                                             |
|      For optimal performance we recommend to set                            |
|        NCORE= 4 - approx SQRT( number of cores)                             |
|      NCORE specifies how many cores store one orbital (NPAR=cpu/NCORE).     |
|      This setting can  greatly improve the performance of VASP for DFT.     |
|      The default,   NCORE=1            might be grossly inefficient         |
|      on modern multi-core architectures or massively parallel machines.     |
|      Do your own testing !!!!                                               |
|      Unfortunately you need to use the default for GW and RPA calculations. |
|      (for HF NCORE is supported but not extensively tested yet)             |
|                                                                             |
 ----------------------------------------------------------------------------- 

 POTCAR:    PAW_PBE Ca_sv 06Sep2000               
   VRHFIN =Ca: 3s3p4s                                                           
   LEXCH  = PE                                                                  
   EATOM  =  1006.0909 eV,   73.9456 Ry                                         
                                                                                
   TITEL  = PAW_PBE Ca_sv 06Sep2000                                             
   LULTRA =        F    use ultrasoft PP ?                                      
   IUNSCR =        1    unscreen: 0-lin 1-nonlin 2-no                           
   RPACOR =    2.000    partial core radius                                     
   POMASS =   40.078; ZVAL   =   10.000    mass and valenz                      
   RCORE  =    2.300    outmost cutoff radius                                   
   RWIGS  =    2.500; RWIGS  =    1.323    wigner-seitz radius (au A)           
   ENMAX  =  266.622; ENMIN  =  199.967 eV                                      
   RCLOC  =    1.808    cutoff for local pot                                    
   LCOR   =        T    correct aug charges                                     
   LPAW   =        T    paw PP                                                  
   EAUG   =  420.852                                                            
   RMAX   =    2.359    core radius for proj-oper                               
   RAUG   =    1.300    factor for augmentation sphere                          
   RDEP   =    2.392    radius for radial grids                                 
   RDEPT  =    1.987    core radius for aug-charge                              
                                                                                
   Atomic configuration                                                         
    7 entries                                                                   
     n  l   j            E        occ.                                          
     1  0  0.50     -3949.1705   2.0000                                         
     2  0  0.50      -414.3434   2.0000                                         
     2  1  1.50      -334.7047   6.0000                                         
     3  0  0.50       -47.0896   2.0000                                         
     4  0  0.50        -3.7663   2.0000                                         
     3  1  1.50       -28.0061   6.0000                                         
     3  2  1.50        -4.0817   0.0000                                         
   Description                                                                  
     l       E           TYP  RCUT    TYP  RCUT                                 
     0    -47.0896403     23  2.300                                             
     0     -3.7663320     23  2.300                                             
     1    -28.0060855     23  2.300                                             
     1      6.8029130     23  2.300                                             
     2     -4.0817478     23  2.300                                             
     2      0.4464412     23  2.300                                             
  local pseudopotential read in
  partial core-charges read in
  partial kinetic energy density read in
  atomic valenz-charges read in
  non local Contribution for L=           0  read in
    real space projection operators read in
  non local Contribution for L=           0  read in
    real space projection operators read in
  non local Contribution for L=           1  read in
    real space projection operators read in
  non local Contribution for L=           1  read in
    real space projection operators read in
  non local Contribution for L=           2  read in
    real space projection operators read in
  non local Contribution for L=           2  read in
    real space projection operators read in
    PAW grid and wavefunctions read in
 
   number of l-projection  operators is LMAX  =           6
   number of lm-projection operators is LMMAX =          18
 
 POTCAR:    PAW_PBE O 08Apr2002                   
   VRHFIN =O: s2p4                                                              
   LEXCH  = PE                                                                  
   EATOM  =   432.3788 eV,   31.7789 Ry                                         
                                                                                
   TITEL  = PAW_PBE O 08Apr2002                                                 
   LULTRA =        F    use ultrasoft PP ?                                      
   IUNSCR =        1    unscreen: 0-lin 1-nonlin 2-no                           
   RPACOR =    1.200    partial core radius                                     
   POMASS =   16.000; ZVAL   =    6.000    mass and valenz                      
   RCORE  =    1.520    outmost cutoff radius                                   
   RWIGS  =    1.550; RWIGS  =    0.820    wigner-seitz radius (au A)           
   ENMAX  =  400.000; ENMIN  =  300.000 eV                                      
   ICORE  =        2    local potential                                         
   LCOR   =        T    correct aug charges                                     
   LPAW   =        T    paw PP                                                  
   EAUG   =  605.392                                                            
   DEXC   =    0.000                                                            
   RMAX   =    1.553    core radius for proj-oper                               
   RAUG   =    1.300    factor for augmentation sphere                          
   RDEP   =    1.550    radius for radial grids                                 
   RDEPT  =    1.329    core radius for aug-charge                              
                                                                                
   Atomic configuration                                                         
    4 entries                                                                   
     n  l   j            E        occ.                                          
     1  0  0.50      -514.6923   2.0000                                         
     2  0  0.50       -23.9615   2.0000                                         
     2  1  0.50        -9.0305   4.0000                                         
     3  2  1.50        -9.5241   0.0000                                         
   Description                                                                  
     l       E           TYP  RCUT    TYP  RCUT                                 
     0    -23.9615318     23  1.200                                             
     0     -9.5240782     23  1.200                                             
     1     -9.0304911     23  1.520                                             
     1      8.1634956     23  1.520                                             
     2     -9.5240782      7  1.500                                             
  local pseudopotential read in
  partial core-charges read in
  partial kinetic energy density read in
  kinetic energy density of atom read in
  atomic valenz-charges read in
  non local Contribution for L=           0  read in
    real space projection operators read in
  non local Contribution for L=           0  read in
    real space projection operators read in
  non local Contribution for L=           1  read in
    real space projection operators read in
  non local Contribution for L=           1  read in
    real space projection operators read in
    PAW grid and wavefunctions read in
 
   number of l-projection  operators is LMAX  =           4
   number of lm-projection operators is LMMAX =           8
 
  PAW_PBE Ca_sv 06Sep2000               :
 energy of atom  1       EATOM=-1006.0909
 kinetic energy error for atom=    0.0022 (will be added to EATOM!!)
  PAW_PBE O 08Apr2002                   :
 energy of atom  2       EATOM= -432.3788
 kinetic energy error for atom=    0.0208 (will be added to EATOM!!)
 
 
 POSCAR: Ca1 O1                                  
  positions in direct lattice
  No initial velocities read in
 exchange correlation table for  LEXCH =        8
   RHO(1)=    0.500       N(1)  =     2000
   RHO(2)=  100.500       N(2)  =     4000
 


--------------------------------------------------------------------------------------------------------


 ion  position               nearest neighbor table
   1  0.000  0.000  0.000-   2 2.40   2 2.40   2 2.40   2 2.40   2 2.40   2 2.40
   2  0.500  0.500  0.500-   1 2.40   1 2.40   1 2.40   1 2.40   1 2.40   1 2.40
 
  LATTYP: Found a face centered cubic cell.
 ALAT       =     4.8071110228
  
  Lattice vectors:
  
 A1 = (  -2.4035555114,   0.0000000000,   2.4035555114)
 A2 = (   0.0000000000,   2.4035555114,   2.4035555114)
 A3 = (  -2.4035555114,   2.4035555114,   0.0000000000)


Analysis of symmetry for initial positions (statically):
=====================================================================
 Subroutine PRICEL returns:
 Original cell was already a primitive cell.
 

 Routine SETGRP: Setting up the symmetry group for a 
 face centered cubic supercell.


 Subroutine GETGRP returns: Found  8 space group operations
 (whereof  8 operations were pure point group operations)
 out of a pool of 48 trial point group operations.


The static configuration has the point symmetry C_4v.


Analysis of symmetry for dynamics (positions and initial velocities):
=====================================================================
 Subroutine PRICEL returns:
 Original cell was already a primitive cell.
 

 Routine SETGRP: Setting up the symmetry group for a 
 face centered cubic supercell.


 Subroutine GETGRP returns: Found  8 space group operations
 (whereof  8 operations were pure point group operations)
 out of a pool of 48 trial point group operations.


The dynamic configuration has the point symmetry C_4v.


 Subroutine INISYM returns: Found  8 space group operations
 (whereof  8 operations are pure point group operations),
 and found     1 'primitive' translations

 
 
 KPOINTS: pymatgen with grid density = 3000 / numb

Automatic generation of k-mesh.
Space group operators:
 irot       det(A)        alpha          n_x          n_y          n_z        tau_x        tau_y        tau_z
    1     1.000000     0.000000     1.000000     0.000000     0.000000     0.000000     0.000000     0.000000
    2     1.000000    90.000000    -1.000000    -0.000000     0.000000     0.000000     0.000000     0.000000
    3    -1.000000   180.000000     0.000000     0.000000     1.000000     0.000000     0.000000     0.000000
    4    -1.000000   180.000000     0.000000     0.707107     0.707107     0.000000     0.000000     0.000000
    5    -1.000000   180.000000     0.000000    -1.000000    -0.000000     0.000000     0.000000     0.000000
    6     1.000000    90.000000     1.000000     0.000000    -0.000000     0.000000     0.000000     0.000000
    7     1.000000   180.000000     1.000000     0.000000     0.000000     0.000000     0.000000     0.000000
    8    -1.000000   180.000000     0.000000    -0.707107     0.707107     0.000000     0.000000     0.000000
 
 Subroutine IBZKPT returns following result:
 ===========================================
 
 Found    163 irreducible k-points:
 
 Following reciprocal coordinates:
            Coordinates               Weight
  0.000000  0.000000  0.000000      1.000000
  0.083333  0.000000  0.000000      8.000000
  0.166667  0.000000  0.000000      8.000000
  0.250000 -0.000000  0.000000      8.000000
  0.333333 -0.000000 -0.000000      8.000000
  0.416667 -0.000000 -0.000000      8.000000
  0.500000 -0.000000  0.000000      4.000000
  0.083333  0.083333  0.000000      4.000000
  0.166667  0.083333 -0.000000     16.000000
  0.250000  0.083333  0.000000     16.000000
  0.333333  0.083333  0.000000     16.000000
  0.416667  0.083333  0.000000     16.000000
  0.500000  0.083333 -0.000000     16.000000
 -0.416667  0.083333 -0.000000     16.000000
 -0.333333  0.083333  0.000000     16.000000
 -0.250000  0.083333  0.000000     16.000000
 -0.166667  0.083333 -0.000000     16.000000
 -0.083333  0.083333 -0.000000      8.000000
  0.166667  0.166667  0.000000      4.000000
  0.250000  0.166667  0.000000     16.000000
  0.333333  0.166667  0.000000     16.000000
  0.416667  0.166667 -0.000000     16.000000
  0.500000  0.166667 -0.000000     16.000000
 -0.416667  0.166667  0.000000     16.000000
 -0.333333  0.166667 -0.000000     16.000000
 -0.250000  0.166667  0.000000     16.000000
 -0.166667  0.166667 -0.000000      8.000000
  0.250000  0.250000  0.000000      4.000000
  0.333333  0.250000  0.000000     16.000000
  0.416667  0.250000  0.000000     16.000000
  0.500000  0.250000  0.000000     16.000000
 -0.416667  0.250000 -0.000000     16.000000
 -0.333333  0.250000 -0.000000     16.000000
 -0.250000  0.250000  0.000000      8.000000
  0.333333  0.333333  0.000000      4.000000
  0.416667  0.333333  0.000000     16.000000
  0.500000  0.333333  0.000000     16.000000
 -0.416667  0.333333 -0.000000     16.000000
 -0.333333  0.333333  0.000000      8.000000
  0.416667  0.416667  0.000000      4.000000
  0.500000  0.416667  0.000000     16.000000
 -0.416667  0.416667  0.000000      8.000000
  0.500000  0.500000  0.000000      2.000000
  0.083333  0.000000  0.083333      2.000000
  0.166667 -0.000000  0.083333      8.000000
  0.250000  0.000000  0.083333      8.000000
  0.333333  0.000000  0.083333      8.000000
  0.416667  0.000000  0.083333      8.000000
  0.500000 -0.000000  0.083333      8.000000
 -0.416667 -0.000000  0.083333      8.000000
 -0.333333 -0.000000  0.083333      8.000000
 -0.250000  0.000000  0.083333      8.000000
 -0.166667 -0.000000  0.083333      8.000000
 -0.083333 -0.000000  0.083333      4.000000
  0.250000  0.166667  0.083333      8.000000
  0.333333  0.166667  0.083333     16.000000
  0.416667  0.166667  0.083333     16.000000
  0.500000  0.166667  0.083333     16.000000
 -0.416667  0.166667  0.083333      8.000000
  0.166667  0.250000  0.083333      8.000000
  0.333333  0.250000  0.083333      8.000000
  0.416667  0.250000  0.083333     16.000000
  0.500000  0.250000  0.083333     16.000000
 -0.416667  0.250000  0.083333     16.000000
 -0.333333  0.250000  0.083333     16.000000
 -0.250000  0.250000  0.083333     16.000000
 -0.166667  0.250000  0.083333      8.000000
  0.166667  0.333333  0.083333     16.000000
  0.250000  0.333333  0.083333      8.000000
  0.416667  0.333333  0.083333      8.000000
  0.500000  0.333333  0.083333     16.000000
 -0.416667  0.333333  0.083333     16.000000
 -0.333333  0.333333  0.083333     16.000000
 -0.250000  0.333333  0.083333      8.000000
  0.166667  0.416667  0.083333     16.000000
  0.250000  0.416667  0.083333     16.000000
  0.333333  0.416667  0.083333      8.000000
  0.500000  0.416667  0.083333      8.000000
 -0.416667  0.416667  0.083333     16.000000
 -0.333333  0.416667  0.083333      8.000000
  0.166667  0.500000  0.083333     16.000000
  0.250000  0.500000  0.083333     16.000000
  0.333333  0.500000  0.083333     16.000000
  0.416667  0.500000  0.083333      8.000000
 -0.416667  0.500000  0.083333      4.000000
  0.166667 -0.416667  0.083333     16.000000
  0.250000 -0.416667  0.083333     16.000000
  0.333333 -0.416667  0.083333     16.000000
  0.416667 -0.416667  0.083333     16.000000
  0.500000 -0.416667  0.083333      4.000000
  0.166667 -0.333333  0.083333     16.000000
  0.250000 -0.333333  0.083333     16.000000
  0.333333 -0.333333  0.083333     16.000000
  0.416667 -0.333333  0.083333      8.000000
  0.166667 -0.250000  0.083333     16.000000
  0.250000 -0.250000  0.083333     16.000000
  0.333333 -0.250000  0.083333      8.000000
  0.166667 -0.166667  0.083333     16.000000
  0.250000 -0.166667  0.083333      8.000000
  0.166667 -0.083333  0.083333      8.000000
  0.166667  0.000000  0.166667      2.000000
  0.250000  0.000000  0.166667      8.000000
  0.333333  0.000000  0.166667      8.000000
  0.416667 -0.000000  0.166667      8.000000
  0.500000 -0.000000  0.166667      8.000000
 -0.416667  0.000000  0.166667      8.000000
 -0.333333 -0.000000  0.166667      8.000000
 -0.250000  0.000000  0.166667      8.000000
 -0.166667 -0.000000  0.166667      4.000000
  0.500000  0.333333  0.166667      8.000000
 -0.416667  0.333333  0.166667     16.000000
 -0.333333  0.333333  0.166667      8.000000
  0.250000  0.416667  0.166667      8.000000
 -0.416667  0.416667  0.166667      8.000000
 -0.333333  0.416667  0.166667     16.000000
 -0.250000  0.416667  0.166667      8.000000
  0.250000  0.500000  0.166667     16.000000
  0.333333  0.500000  0.166667      8.000000
 -0.333333  0.500000  0.166667      4.000000
  0.250000 -0.416667  0.166667     16.000000
  0.333333 -0.416667  0.166667     16.000000
  0.416667 -0.416667  0.166667      8.000000
  0.250000 -0.333333  0.166667     16.000000
  0.333333 -0.333333  0.166667     16.000000
  0.416667 -0.333333  0.166667     16.000000
  0.500000 -0.333333  0.166667      4.000000
  0.250000 -0.250000  0.166667     16.000000
  0.333333 -0.250000  0.166667     16.000000
  0.416667 -0.250000  0.166667      8.000000
  0.250000 -0.166667  0.166667     16.000000
  0.333333 -0.166667  0.166667      8.000000
  0.250000 -0.083333  0.166667      8.000000
  0.250000  0.000000  0.250000      2.000000
  0.333333  0.000000  0.250000      8.000000
  0.416667  0.000000  0.250000      8.000000
  0.500000  0.000000  0.250000      8.000000
 -0.416667 -0.000000  0.250000      8.000000
 -0.333333  0.000000  0.250000      8.000000
 -0.250000  0.000000  0.250000      4.000000
 -0.250000  0.500000  0.250000      2.000000
  0.333333 -0.416667  0.250000      8.000000
  0.333333 -0.333333  0.250000     16.000000
  0.416667 -0.333333  0.250000      8.000000
  0.333333 -0.250000  0.250000     16.000000
  0.416667 -0.250000  0.250000     16.000000
  0.500000 -0.250000  0.250000      4.000000
  0.333333 -0.166667  0.250000     16.000000
  0.416667 -0.166667  0.250000      8.000000
  0.333333 -0.083333  0.250000      8.000000
  0.333333  0.000000  0.333333      2.000000
  0.416667  0.000000  0.333333      8.000000
  0.500000  0.000000  0.333333      8.000000
 -0.416667  0.000000  0.333333      8.000000
 -0.333333  0.000000  0.333333      4.000000
  0.416667 -0.250000  0.333333      8.000000
  0.416667 -0.166667  0.333333     16.000000
  0.500000 -0.166667  0.333333      4.000000
  0.416667 -0.083333  0.333333      8.000000
  0.416667  0.000000  0.416667      2.000000
  0.500000  0.000000  0.416667      8.000000
 -0.416667  0.000000  0.416667      4.000000
  0.500000 -0.083333  0.416667      4.000000
  0.500000  0.000000  0.500000      1.000000
 
 Following cartesian coordinates:
            Coordinates               Weight
  0.000000  0.000000  0.000000      1.000000
 -0.017335 -0.017335  0.017335      8.000000
 -0.034671 -0.034671  0.034671      8.000000
 -0.052006 -0.052006  0.052006      8.000000
 -0.069342 -0.069342  0.069342      8.000000
 -0.086677 -0.086677  0.086677      8.000000
 -0.104013 -0.104013  0.104013      4.000000
  0.000000  0.000000  0.034671      4.000000
 -0.017335 -0.017335  0.052006     16.000000
 -0.034671 -0.034671  0.069342     16.000000
 -0.052006 -0.052006  0.086677     16.000000
 -0.069342 -0.069342  0.104013     16.000000
 -0.086677 -0.086677  0.121348     16.000000
  0.104013  0.104013 -0.069342     16.000000
  0.086677  0.086677 -0.052006     16.000000
  0.069342  0.069342 -0.034671     16.000000
  0.052006  0.052006 -0.017335     16.000000
  0.034671  0.034671  0.000000      8.000000
 -0.000000 -0.000000  0.069342      4.000000
 -0.017335 -0.017335  0.086677     16.000000
 -0.034671 -0.034671  0.104013     16.000000
 -0.052006 -0.052006  0.121348     16.000000
 -0.069342 -0.069342  0.138683     16.000000
  0.121348  0.121348 -0.052006     16.000000
  0.104013  0.104013 -0.034671     16.000000
  0.086677  0.086677 -0.017335     16.000000
  0.069342  0.069342  0.000000      8.000000
 -0.000000  0.000000  0.104013      4.000000
 -0.017335 -0.017335  0.121348     16.000000
 -0.034671 -0.034671  0.138683     16.000000
 -0.052006 -0.052006  0.156019     16.000000
  0.138683  0.138683 -0.034671     16.000000
  0.121348  0.121348 -0.017335     16.000000
  0.104013  0.104013  0.000000      8.000000
  0.000000  0.000000  0.138683      4.000000
 -0.017335 -0.017335  0.156019     16.000000
 -0.034671 -0.034671  0.173354     16.000000
  0.156019  0.156019 -0.017335     16.000000
  0.138683  0.138683 -0.000000      8.000000
  0.000000  0.000000  0.173354      4.000000
 -0.017335 -0.017335  0.190690     16.000000
  0.173354  0.173354  0.000000      8.000000
 -0.000000  0.000000  0.208025      2.000000
 -0.034671  0.000000  0.000000      2.000000
 -0.052006 -0.017335  0.017335      8.000000
 -0.069342 -0.034671  0.034671      8.000000
 -0.086677 -0.052006  0.052006      8.000000
 -0.104013 -0.069342  0.069342      8.000000
 -0.121348 -0.086677  0.086677      8.000000
  0.069342  0.104013 -0.104013      8.000000
  0.052006  0.086677 -0.086677      8.000000
  0.034671  0.069342 -0.069342      8.000000
  0.017335  0.052006 -0.052006      8.000000
  0.000000  0.034671 -0.034671      4.000000
 -0.034671 -0.000000  0.069342      8.000000
 -0.052006 -0.017335  0.086677     16.000000
 -0.069342 -0.034671  0.104013     16.000000
 -0.086677 -0.052006  0.121348     16.000000
  0.104013  0.138683 -0.069342      8.000000
  0.000000  0.034671  0.069342      8.000000
 -0.034671  0.000000  0.104013      8.000000
 -0.052006 -0.017335  0.121348     16.000000
 -0.069342 -0.034671  0.138683     16.000000
  0.121348  0.156019 -0.052006     16.000000
  0.104013  0.138683 -0.034671     16.000000
  0.086677  0.121348 -0.017335     16.000000
  0.069342  0.104013  0.000000      8.000000
  0.017335  0.052006  0.086677     16.000000
 -0.000000  0.034671  0.104013      8.000000
 -0.034671 -0.000000  0.138683      8.000000
 -0.052006 -0.017335  0.156019     16.000000
  0.138683  0.173354 -0.034671     16.000000
  0.121348  0.156019 -0.017335     16.000000
  0.104013  0.138683  0.000000      8.000000
  0.034671  0.069342  0.104013     16.000000
  0.017335  0.052006  0.121348     16.000000
  0.000000  0.034671  0.138683      8.000000
 -0.034671  0.000000  0.173354      8.000000
  0.156019  0.190690 -0.017335     16.000000
  0.138683  0.173354  0.000000      8.000000
  0.052006  0.086677  0.121348     16.000000
  0.034671  0.069342  0.138683     16.000000
  0.017335  0.052006  0.156019     16.000000
 -0.000000  0.034671  0.173354      8.000000
  0.173354  0.208025  0.000000      4.000000
 -0.138683 -0.104013 -0.069342     16.000000
 -0.156019 -0.121348 -0.052006     16.000000
 -0.173354 -0.138683 -0.034671     16.000000
 -0.190690 -0.156019 -0.017335     16.000000
 -0.208025 -0.173354  0.000000      4.000000
 -0.121348 -0.086677 -0.052006     16.000000
 -0.138683 -0.104013 -0.034671     16.000000
 -0.156019 -0.121348 -0.017335     16.000000
 -0.173354 -0.138683  0.000000      8.000000
 -0.104013 -0.069342 -0.034671     16.000000
 -0.121348 -0.086677 -0.017335     16.000000
 -0.138683 -0.104013  0.000000      8.000000
 -0.086677 -0.052006 -0.017335     16.000000
 -0.104013 -0.069342 -0.000000      8.000000
 -0.069342 -0.034671  0.000000      8.000000
 -0.069342  0.000000 -0.000000      2.000000
 -0.086677 -0.017335  0.017335      8.000000
 -0.104013 -0.034671  0.034671      8.000000
 -0.121348 -0.052006  0.052006      8.000000
 -0.138683 -0.069342  0.069342      8.000000
  0.052006  0.121348 -0.121348      8.000000
  0.034671  0.104013 -0.104013      8.000000
  0.017335  0.086677 -0.086677      8.000000
 -0.000000  0.069342 -0.069342      4.000000
 -0.069342  0.000000  0.138683      8.000000
  0.121348  0.190690 -0.052006     16.000000
  0.104013  0.173354 -0.034671      8.000000
  0.000000  0.069342  0.104013      8.000000
  0.138683  0.208025 -0.034671      8.000000
  0.121348  0.190690 -0.017335     16.000000
  0.104013  0.173354  0.000000      8.000000
  0.017335  0.086677  0.121348     16.000000
  0.000000  0.069342  0.138683      8.000000
  0.138683  0.208025  0.000000      4.000000
 -0.173354 -0.104013 -0.069342     16.000000
 -0.190690 -0.121348 -0.052006     16.000000
 -0.208025 -0.138683 -0.034671      8.000000
 -0.156019 -0.086677 -0.052006     16.000000
 -0.173354 -0.104013 -0.034671     16.000000
 -0.190690 -0.121348 -0.017335     16.000000
 -0.208025 -0.138683  0.000000      4.000000
 -0.138683 -0.069342 -0.034671     16.000000
 -0.156019 -0.086677 -0.017335     16.000000
 -0.173354 -0.104013  0.000000      8.000000
 -0.121348 -0.052006 -0.017335     16.000000
 -0.138683 -0.069342 -0.000000      8.000000
 -0.104013 -0.034671  0.000000      8.000000
 -0.104013  0.000000  0.000000      2.000000
 -0.121348 -0.017335  0.017335      8.000000
 -0.138683 -0.034671  0.034671      8.000000
 -0.156019 -0.052006  0.052006      8.000000
  0.034671  0.138683 -0.138683      8.000000
  0.017335  0.121348 -0.121348      8.000000
  0.000000  0.104013 -0.104013      4.000000
  0.104013  0.208025  0.000000      2.000000
 -0.208025 -0.104013 -0.069342      8.000000
 -0.190690 -0.086677 -0.052006     16.000000
 -0.208025 -0.104013 -0.034671      8.000000
 -0.173354 -0.069342 -0.034671     16.000000
 -0.190690 -0.086677 -0.017335     16.000000
 -0.208025 -0.104013 -0.000000      4.000000
 -0.156019 -0.052006 -0.017335     16.000000
 -0.173354 -0.069342  0.000000      8.000000
 -0.138683 -0.034671  0.000000      8.000000
 -0.138683 -0.000000  0.000000      2.000000
 -0.156019 -0.017335  0.017335      8.000000
 -0.173354 -0.034671  0.034671      8.000000
  0.017335  0.156019 -0.156019      8.000000
  0.000000  0.138683 -0.138683      4.000000
 -0.208025 -0.069342 -0.034671      8.000000
 -0.190690 -0.052006 -0.017335     16.000000
 -0.208025 -0.069342  0.000000      4.000000
 -0.173354 -0.034671  0.000000      8.000000
 -0.173354  0.000000  0.000000      2.000000
 -0.190690 -0.017335  0.017335      8.000000
 -0.000000  0.173354 -0.173354      4.000000
 -0.208025 -0.034671  0.000000      4.000000
 -0.208025  0.000000  0.000000      1.000000
 
 
 Subroutine IBZKPT_HF returns following result:
 ==============================================
 
 Found   1728 k-points in 1st BZ
 the following   1728 k-points will be used (e.g. in the exchange kernel)
 Following reciprocal coordinates:   # in IRBZ
  0.000000  0.000000  0.000000    0.00057870   1 t-inv F
  0.083333  0.000000  0.000000    0.00057870   2 t-inv F
  0.166667  0.000000  0.000000    0.00057870   3 t-inv F
  0.250000 -0.000000  0.000000    0.00057870   4 t-inv F
  0.333333 -0.000000 -0.000000    0.00057870   5 t-inv F
  0.416667 -0.000000 -0.000000    0.00057870   6 t-inv F
  0.500000 -0.000000  0.000000    0.00057870   7 t-inv F
  0.083333  0.083333  0.000000    0.00057870   8 t-inv F
  0.166667  0.083333 -0.000000    0.00057870   9 t-inv F
  0.250000  0.083333  0.000000    0.00057870  10 t-inv F
  0.333333  0.083333  0.000000    0.00057870  11 t-inv F
  0.416667  0.083333  0.000000    0.00057870  12 t-inv F
  0.500000  0.083333 -0.000000    0.00057870  13 t-inv F
 -0.416667  0.083333 -0.000000    0.00057870  14 t-inv F
 -0.333333  0.083333  0.000000    0.00057870  15 t-inv F
 -0.250000  0.083333  0.000000    0.00057870  16 t-inv F
 -0.166667  0.083333 -0.000000    0.00057870  17 t-inv F
 -0.083333  0.083333 -0.000000    0.00057870  18 t-inv F
  0.166667  0.166667  0.000000    0.00057870  19 t-inv F
  0.250000  0.166667  0.000000    0.00057870  20 t-inv F
  0.333333  0.166667  0.000000    0.00057870  21 t-inv F
  0.416667  0.166667 -0.000000    0.00057870  22 t-inv F
  0.500000  0.166667 -0.000000    0.00057870  23 t-inv F
 -0.416667  0.166667  0.000000    0.00057870  24 t-inv F
 -0.333333  0.166667 -0.000000    0.00057870  25 t-inv F
 -0.250000  0.166667  0.000000    0.00057870  26 t-inv F
 -0.166667  0.166667 -0.000000    0.00057870  27 t-inv F
  0.250000  0.250000  0.000000    0.00057870  28 t-inv F
  0.333333  0.250000  0.000000    0.00057870  29 t-inv F
  0.416667  0.250000  0.000000    0.00057870  30 t-inv F
  0.500000  0.250000  0.000000    0.00057870  31 t-inv F
 -0.416667  0.250000 -0.000000    0.00057870  32 t-inv F
 -0.333333  0.250000 -0.000000    0.00057870  33 t-inv F
 -0.250000  0.250000  0.000000    0.00057870  34 t-inv F
  0.333333  0.333333  0.000000    0.00057870  35 t-inv F
  0.416667  0.333333  0.000000    0.00057870  36 t-inv F
  0.500000  0.333333  0.000000    0.00057870  37 t-inv F
 -0.416667  0.333333 -0.000000    0.00057870  38 t-inv F
 -0.333333  0.333333  0.000000    0.00057870  39 t-inv F
  0.416667  0.416667  0.000000    0.00057870  40 t-inv F
  0.500000  0.416667  0.000000    0.00057870  41 t-inv F
 -0.416667  0.416667  0.000000    0.00057870  42 t-inv F
  0.500000  0.500000  0.000000    0.00057870  43 t-inv F
  0.083333  0.000000  0.083333    0.00057870  44 t-inv F
  0.166667 -0.000000  0.083333    0.00057870  45 t-inv F
  0.250000  0.000000  0.083333    0.00057870  46 t-inv F
  0.333333  0.000000  0.083333    0.00057870  47 t-inv F
  0.416667  0.000000  0.083333    0.00057870  48 t-inv F
  0.500000 -0.000000  0.083333    0.00057870  49 t-inv F
 -0.416667 -0.000000  0.083333    0.00057870  50 t-inv F
 -0.333333 -0.000000  0.083333    0.00057870  51 t-inv F
 -0.250000  0.000000  0.083333    0.00057870  52 t-inv F
 -0.166667 -0.000000  0.083333    0.00057870  53 t-inv F
 -0.083333 -0.000000  0.083333    0.00057870  54 t-inv F
  0.250000  0.166667  0.083333    0.00057870  55 t-inv F
  0.333333  0.166667  0.083333    0.00057870  56 t-inv F
  0.416667  0.166667  0.083333    0.00057870  57 t-inv F
  0.500000  0.166667  0.083333    0.00057870  58 t-inv F
 -0.416667  0.166667  0.083333    0.00057870  59 t-inv F
  0.166667  0.250000  0.083333    0.00057870  60 t-inv F
  0.333333  0.250000  0.083333    0.00057870  61 t-inv F
  0.416667  0.250000  0.083333    0.00057870  62 t-inv F
  0.500000  0.250000  0.083333    0.00057870  63 t-inv F
 -0.416667  0.250000  0.083333    0.00057870  64 t-inv F
 -0.333333  0.250000  0.083333    0.00057870  65 t-inv F
 -0.250000  0.250000  0.083333    0.00057870  66 t-inv F
 -0.166667  0.250000  0.083333    0.00057870  67 t-inv F
  0.166667  0.333333  0.083333    0.00057870  68 t-inv F
  0.250000  0.333333  0.083333    0.00057870  69 t-inv F
  0.416667  0.333333  0.083333    0.00057870  70 t-inv F
  0.500000  0.333333  0.083333    0.00057870  71 t-inv F
 -0.416667  0.333333  0.083333    0.00057870  72 t-inv F
 -0.333333  0.333333  0.083333    0.00057870  73 t-inv F
 -0.250000  0.333333  0.083333    0.00057870  74 t-inv F
  0.166667  0.416667  0.083333    0.00057870  75 t-inv F
  0.250000  0.416667  0.083333    0.00057870  76 t-inv F
  0.333333  0.416667  0.083333    0.00057870  77 t-inv F
  0.500000  0.416667  0.083333    0.00057870  78 t-inv F
 -0.416667  0.416667  0.083333    0.00057870  79 t-inv F
 -0.333333  0.416667  0.083333    0.00057870  80 t-inv F
  0.166667  0.500000  0.083333    0.00057870  81 t-inv F
  0.250000  0.500000  0.083333    0.00057870  82 t-inv F
  0.333333  0.500000  0.083333    0.00057870  83 t-inv F
  0.416667  0.500000  0.083333    0.00057870  84 t-inv F
 -0.416667  0.500000  0.083333    0.00057870  85 t-inv F
  0.166667 -0.416667  0.083333    0.00057870  86 t-inv F
  0.250000 -0.416667  0.083333    0.00057870  87 t-inv F
  0.333333 -0.416667  0.083333    0.00057870  88 t-inv F
  0.416667 -0.416667  0.083333    0.00057870  89 t-inv F
  0.500000 -0.416667  0.083333    0.00057870  90 t-inv F
  0.166667 -0.333333  0.083333    0.00057870  91 t-inv F
  0.250000 -0.333333  0.083333    0.00057870  92 t-inv F
  0.333333 -0.333333  0.083333    0.00057870  93 t-inv F
  0.416667 -0.333333  0.083333    0.00057870  94 t-inv F
  0.166667 -0.250000  0.083333    0.00057870  95 t-inv F
  0.250000 -0.250000  0.083333    0.00057870  96 t-inv F
  0.333333 -0.250000  0.083333    0.00057870  97 t-inv F
  0.166667 -0.166667  0.083333    0.00057870  98 t-inv F
  0.250000 -0.166667  0.083333    0.00057870  99 t-inv F
  0.166667 -0.083333  0.083333    0.00057870 100 t-inv F
  0.166667  0.000000  0.166667    0.00057870 101 t-inv F
  0.250000  0.000000  0.166667    0.00057870 102 t-inv F
  0.333333  0.000000  0.166667    0.00057870 103 t-inv F
  0.416667 -0.000000  0.166667    0.00057870 104 t-inv F
  0.500000 -0.000000  0.166667    0.00057870 105 t-inv F
 -0.416667  0.000000  0.166667    0.00057870 106 t-inv F
 -0.333333 -0.000000  0.166667    0.00057870 107 t-inv F
 -0.250000  0.000000  0.166667    0.00057870 108 t-inv F
 -0.166667 -0.000000  0.166667    0.00057870 109 t-inv F
  0.500000  0.333333  0.166667    0.00057870 110 t-inv F
 -0.416667  0.333333  0.166667    0.00057870 111 t-inv F
 -0.333333  0.333333  0.166667    0.00057870 112 t-inv F
  0.250000  0.416667  0.166667    0.00057870 113 t-inv F
 -0.416667  0.416667  0.166667    0.00057870 114 t-inv F
 -0.333333  0.416667  0.166667    0.00057870 115 t-inv F
 -0.250000  0.416667  0.166667    0.00057870 116 t-inv F
  0.250000  0.500000  0.166667    0.00057870 117 t-inv F
  0.333333  0.500000  0.166667    0.00057870 118 t-inv F
 -0.333333  0.500000  0.166667    0.00057870 119 t-inv F
  0.250000 -0.416667  0.166667    0.00057870 120 t-inv F
  0.333333 -0.416667  0.166667    0.00057870 121 t-inv F
  0.416667 -0.416667  0.166667    0.00057870 122 t-inv F
  0.250000 -0.333333  0.166667    0.00057870 123 t-inv F
  0.333333 -0.333333  0.166667    0.00057870 124 t-inv F
  0.416667 -0.333333  0.166667    0.00057870 125 t-inv F
  0.500000 -0.333333  0.166667    0.00057870 126 t-inv F
  0.250000 -0.250000  0.166667    0.00057870 127 t-inv F
  0.333333 -0.250000  0.166667    0.00057870 128 t-inv F
  0.416667 -0.250000  0.166667    0.00057870 129 t-inv F
  0.250000 -0.166667  0.166667    0.00057870 130 t-inv F
  0.333333 -0.166667  0.166667    0.00057870 131 t-inv F
  0.250000 -0.083333  0.166667    0.00057870 132 t-inv F
  0.250000  0.000000  0.250000    0.00057870 133 t-inv F
  0.333333  0.000000  0.250000    0.00057870 134 t-inv F
  0.416667  0.000000  0.250000    0.00057870 135 t-inv F
  0.500000  0.000000  0.250000    0.00057870 136 t-inv F
 -0.416667 -0.000000  0.250000    0.00057870 137 t-inv F
 -0.333333  0.000000  0.250000    0.00057870 138 t-inv F
 -0.250000  0.000000  0.250000    0.00057870 139 t-inv F
 -0.250000  0.500000  0.250000    0.00057870 140 t-inv F
  0.333333 -0.416667  0.250000    0.00057870 141 t-inv F
  0.333333 -0.333333  0.250000    0.00057870 142 t-inv F
  0.416667 -0.333333  0.250000    0.00057870 143 t-inv F
  0.333333 -0.250000  0.250000    0.00057870 144 t-inv F
  0.416667 -0.250000  0.250000    0.00057870 145 t-inv F
  0.500000 -0.250000  0.250000    0.00057870 146 t-inv F
  0.333333 -0.166667  0.250000    0.00057870 147 t-inv F
  0.416667 -0.166667  0.250000    0.00057870 148 t-inv F
  0.333333 -0.083333  0.250000    0.00057870 149 t-inv F
  0.333333  0.000000  0.333333    0.00057870 150 t-inv F
  0.416667  0.000000  0.333333    0.00057870 151 t-inv F
  0.500000  0.000000  0.333333    0.00057870 152 t-inv F
 -0.416667  0.000000  0.333333    0.00057870 153 t-inv F
 -0.333333  0.000000  0.333333    0.00057870 154 t-inv F
  0.416667 -0.250000  0.333333    0.00057870 155 t-inv F
  0.416667 -0.166667  0.333333    0.00057870 156 t-inv F
  0.500000 -0.166667  0.333333    0.00057870 157 t-inv F
  0.416667 -0.083333  0.333333    0.00057870 158 t-inv F
  0.416667  0.000000  0.416667    0.00057870 159 t-inv F
  0.500000  0.000000  0.416667    0.00057870 160 t-inv F
 -0.416667  0.000000  0.416667    0.00057870 161 t-inv F
  0.500000 -0.083333  0.416667    0.00057870 162 t-inv F
  0.500000  0.000000  0.500000    0.00057870 163 t-inv F
  0.000000 -0.083333  0.000000    0.00057870   2 t-inv F
  0.083333  0.083333  0.083333    0.00057870   2 t-inv F
  0.000000 -0.000000  0.083333    0.00057870   2 t-inv F
  0.000000 -0.166667  0.000000    0.00057870   3 t-inv F
  0.166667  0.166667  0.166667    0.00057870   3 t-inv F
  0.000000 -0.000000  0.166667    0.00057870   3 t-inv F
  0.000000 -0.250000  0.000000    0.00057870   4 t-inv F
  0.250000  0.250000  0.250000    0.00057870   4 t-inv F
  0.000000  0.000000  0.250000    0.00057870   4 t-inv F
 -0.000000 -0.333333  0.000000    0.00057870   5 t-inv F
  0.333333  0.333333  0.333333    0.00057870   5 t-inv F
  0.000000  0.000000  0.333333    0.00057870   5 t-inv F
 -0.000000 -0.416667  0.000000    0.00057870   6 t-inv F
  0.416667  0.416667  0.416667    0.00057870   6 t-inv F
  0.000000  0.000000  0.416667    0.00057870   6 t-inv F
  0.000000 -0.500000  0.000000    0.00057870   7 t-inv F
  0.500000  0.500000  0.500000    0.00057870   7 t-inv F
  0.000000  0.000000  0.500000    0.00057870   7 t-inv F
  0.000000 -0.083333 -0.083333    0.00057870   8 t-inv F
 -0.083333 -0.083333  0.000000    0.00057870   8 t-inv F
  0.000000  0.083333  0.083333    0.00057870   8 t-inv F
 -0.000000 -0.166667 -0.083333    0.00057870   9 t-inv F
 -0.083333 -0.166667 -0.000000    0.00057870   9 t-inv F
  0.083333 -0.083333 -0.083333    0.00057870   9 t-inv F
  0.166667  0.166667  0.083333    0.00057870   9 t-inv F
  0.083333  0.166667  0.166667    0.00057870   9 t-inv F
 -0.083333 -0.083333  0.083333    0.00057870   9 t-inv F
 -0.000000  0.083333  0.166667    0.00057870   9 t-inv F
  0.000000 -0.250000 -0.083333    0.00057870  10 t-inv F
 -0.083333 -0.250000  0.000000    0.00057870  10 t-inv F
  0.166667 -0.083333 -0.083333    0.00057870  10 t-inv F
  0.250000  0.250000  0.166667    0.00057870  10 t-inv F
  0.166667  0.250000  0.250000    0.00057870  10 t-inv F
 -0.083333 -0.083333  0.166667    0.00057870  10 t-inv F
  0.000000  0.083333  0.250000    0.00057870  10 t-inv F
  0.000000 -0.333333 -0.083333    0.00057870  11 t-inv F
 -0.083333 -0.333333  0.000000    0.00057870  11 t-inv F
  0.250000 -0.083333 -0.083333    0.00057870  11 t-inv F
  0.333333  0.333333  0.250000    0.00057870  11 t-inv F
  0.250000  0.333333  0.333333    0.00057870  11 t-inv F
 -0.083333 -0.083333  0.250000    0.00057870  11 t-inv F
  0.000000  0.083333  0.333333    0.00057870  11 t-inv F
  0.000000 -0.416667 -0.083333    0.00057870  12 t-inv F
 -0.083333 -0.416667  0.000000    0.00057870  12 t-inv F
  0.333333 -0.083333 -0.083333    0.00057870  12 t-inv F
  0.416667  0.416667  0.333333    0.00057870  12 t-inv F
  0.333333  0.416667  0.416667    0.00057870  12 t-inv F
 -0.083333 -0.083333  0.333333    0.00057870  12 t-inv F
  0.000000  0.083333  0.416667    0.00057870  12 t-inv F
 -0.000000 -0.500000 -0.083333    0.00057870  13 t-inv F
 -0.083333 -0.500000 -0.000000    0.00057870  13 t-inv F
  0.416667 -0.083333 -0.083333    0.00057870  13 t-inv F
  0.500000  0.500000  0.416667    0.00057870  13 t-inv F
  0.416667  0.500000  0.500000    0.00057870  13 t-inv F
 -0.083333 -0.083333  0.416667    0.00057870  13 t-inv F
 -0.000000  0.083333  0.500000    0.00057870  13 t-inv F
 -0.000000  0.416667 -0.083333    0.00057870  14 t-inv F
 -0.083333  0.416667 -0.000000    0.00057870  14 t-inv F
 -0.500000 -0.083333 -0.083333    0.00057870  14 t-inv F
 -0.416667 -0.416667 -0.500000    0.00057870  14 t-inv F
 -0.500000 -0.416667 -0.416667    0.00057870  14 t-inv F
 -0.083333 -0.083333 -0.500000    0.00057870  14 t-inv F
 -0.000000  0.083333 -0.416667    0.00057870  14 t-inv F
  0.000000  0.333333 -0.083333    0.00057870  15 t-inv F
 -0.083333  0.333333  0.000000    0.00057870  15 t-inv F
 -0.416667 -0.083333 -0.083333    0.00057870  15 t-inv F
 -0.333333 -0.333333 -0.416667    0.00057870  15 t-inv F
 -0.416667 -0.333333 -0.333333    0.00057870  15 t-inv F
 -0.083333 -0.083333 -0.416667    0.00057870  15 t-inv F
  0.000000  0.083333 -0.333333    0.00057870  15 t-inv F
  0.000000  0.250000 -0.083333    0.00057870  16 t-inv F
 -0.083333  0.250000  0.000000    0.00057870  16 t-inv F
 -0.333333 -0.083333 -0.083333    0.00057870  16 t-inv F
 -0.250000 -0.250000 -0.333333    0.00057870  16 t-inv F
 -0.333333 -0.250000 -0.250000    0.00057870  16 t-inv F
 -0.083333 -0.083333 -0.333333    0.00057870  16 t-inv F
  0.000000  0.083333 -0.250000    0.00057870  16 t-inv F
 -0.000000  0.166667 -0.083333    0.00057870  17 t-inv F
 -0.083333  0.166667 -0.000000    0.00057870  17 t-inv F
 -0.250000 -0.083333 -0.083333    0.00057870  17 t-inv F
 -0.166667 -0.166667 -0.250000    0.00057870  17 t-inv F
 -0.250000 -0.166667 -0.166667    0.00057870  17 t-inv F
 -0.083333 -0.083333 -0.250000    0.00057870  17 t-inv F
 -0.000000  0.083333 -0.166667    0.00057870  17 t-inv F
 -0.000000  0.083333 -0.083333    0.00057870  18 t-inv F
 -0.166667 -0.083333 -0.083333    0.00057870  18 t-inv F
 -0.083333 -0.083333 -0.166667    0.00057870  18 t-inv F
  0.000000 -0.166667 -0.166667    0.00057870  19 t-inv F
 -0.166667 -0.166667  0.000000    0.00057870  19 t-inv F
  0.000000  0.166667  0.166667    0.00057870  19 t-inv F
  0.000000 -0.250000 -0.166667    0.00057870  20 t-inv F
 -0.166667 -0.250000  0.000000    0.00057870  20 t-inv F
  0.083333 -0.166667 -0.166667    0.00057870  20 t-inv F
  0.250000  0.250000  0.083333    0.00057870  20 t-inv F
  0.083333  0.250000  0.250000    0.00057870  20 t-inv F
 -0.166667 -0.166667  0.083333    0.00057870  20 t-inv F
  0.000000  0.166667  0.250000    0.00057870  20 t-inv F
  0.000000 -0.333333 -0.166667    0.00057870  21 t-inv F
 -0.166667 -0.333333  0.000000    0.00057870  21 t-inv F
  0.166667 -0.166667 -0.166667    0.00057870  21 t-inv F
  0.333333  0.333333  0.166667    0.00057870  21 t-inv F
  0.166667  0.333333  0.333333    0.00057870  21 t-inv F
 -0.166667 -0.166667  0.166667    0.00057870  21 t-inv F
  0.000000  0.166667  0.333333    0.00057870  21 t-inv F
 -0.000000 -0.416667 -0.166667    0.00057870  22 t-inv F
 -0.166667 -0.416667 -0.000000    0.00057870  22 t-inv F
  0.250000 -0.166667 -0.166667    0.00057870  22 t-inv F
  0.416667  0.416667  0.250000    0.00057870  22 t-inv F
  0.250000  0.416667  0.416667    0.00057870  22 t-inv F
 -0.166667 -0.166667  0.250000    0.00057870  22 t-inv F
 -0.000000  0.166667  0.416667    0.00057870  22 t-inv F
 -0.000000 -0.500000 -0.166667    0.00057870  23 t-inv F
 -0.166667 -0.500000 -0.000000    0.00057870  23 t-inv F
  0.333333 -0.166667 -0.166667    0.00057870  23 t-inv F
  0.500000  0.500000  0.333333    0.00057870  23 t-inv F
  0.333333  0.500000  0.500000    0.00057870  23 t-inv F
 -0.166667 -0.166667  0.333333    0.00057870  23 t-inv F
 -0.000000  0.166667  0.500000    0.00057870  23 t-inv F
  0.000000  0.416667 -0.166667    0.00057870  24 t-inv F
 -0.166667  0.416667  0.000000    0.00057870  24 t-inv F
 -0.583333 -0.166667 -0.166667    0.00057870  24 t-inv F
 -0.416667 -0.416667 -0.583333    0.00057870  24 t-inv F
 -0.583333 -0.416667 -0.416667    0.00057870  24 t-inv F
 -0.166667 -0.166667 -0.583333    0.00057870  24 t-inv F
  0.000000  0.166667 -0.416667    0.00057870  24 t-inv F
 -0.000000  0.333333 -0.166667    0.00057870  25 t-inv F
 -0.166667  0.333333 -0.000000    0.00057870  25 t-inv F
 -0.500000 -0.166667 -0.166667    0.00057870  25 t-inv F
 -0.333333 -0.333333 -0.500000    0.00057870  25 t-inv F
 -0.500000 -0.333333 -0.333333    0.00057870  25 t-inv F
 -0.166667 -0.166667 -0.500000    0.00057870  25 t-inv F
 -0.000000  0.166667 -0.333333    0.00057870  25 t-inv F
  0.000000  0.250000 -0.166667    0.00057870  26 t-inv F
 -0.166667  0.250000  0.000000    0.00057870  26 t-inv F
 -0.416667 -0.166667 -0.166667    0.00057870  26 t-inv F
 -0.250000 -0.250000 -0.416667    0.00057870  26 t-inv F
 -0.416667 -0.250000 -0.250000    0.00057870  26 t-inv F
 -0.166667 -0.166667 -0.416667    0.00057870  26 t-inv F
  0.000000  0.166667 -0.250000    0.00057870  26 t-inv F
 -0.000000  0.166667 -0.166667    0.00057870  27 t-inv F
 -0.333333 -0.166667 -0.166667    0.00057870  27 t-inv F
 -0.166667 -0.166667 -0.333333    0.00057870  27 t-inv F
  0.000000 -0.250000 -0.250000    0.00057870  28 t-inv F
 -0.250000 -0.250000  0.000000    0.00057870  28 t-inv F
  0.000000  0.250000  0.250000    0.00057870  28 t-inv F
  0.000000 -0.333333 -0.250000    0.00057870  29 t-inv F
 -0.250000 -0.333333  0.000000    0.00057870  29 t-inv F
  0.083333 -0.250000 -0.250000    0.00057870  29 t-inv F
  0.333333  0.333333  0.083333    0.00057870  29 t-inv F
  0.083333  0.333333  0.333333    0.00057870  29 t-inv F
 -0.250000 -0.250000  0.083333    0.00057870  29 t-inv F
  0.000000  0.250000  0.333333    0.00057870  29 t-inv F
  0.000000 -0.416667 -0.250000    0.00057870  30 t-inv F
 -0.250000 -0.416667  0.000000    0.00057870  30 t-inv F
  0.166667 -0.250000 -0.250000    0.00057870  30 t-inv F
  0.416667  0.416667  0.166667    0.00057870  30 t-inv F
  0.166667  0.416667  0.416667    0.00057870  30 t-inv F
 -0.250000 -0.250000  0.166667    0.00057870  30 t-inv F
  0.000000  0.250000  0.416667    0.00057870  30 t-inv F
  0.000000 -0.500000 -0.250000    0.00057870  31 t-inv F
 -0.250000 -0.500000  0.000000    0.00057870  31 t-inv F
  0.250000 -0.250000 -0.250000    0.00057870  31 t-inv F
  0.500000  0.500000  0.250000    0.00057870  31 t-inv F
  0.250000  0.500000  0.500000    0.00057870  31 t-inv F
 -0.250000 -0.250000  0.250000    0.00057870  31 t-inv F
  0.000000  0.250000  0.500000    0.00057870  31 t-inv F
 -0.000000  0.416667 -0.250000    0.00057870  32 t-inv F
 -0.250000  0.416667 -0.000000    0.00057870  32 t-inv F
 -0.666667 -0.250000 -0.250000    0.00057870  32 t-inv F
 -0.416667 -0.416667 -0.666667    0.00057870  32 t-inv F
 -0.666667 -0.416667 -0.416667    0.00057870  32 t-inv F
 -0.250000 -0.250000 -0.666667    0.00057870  32 t-inv F
 -0.000000  0.250000 -0.416667    0.00057870  32 t-inv F
 -0.000000  0.333333 -0.250000    0.00057870  33 t-inv F
 -0.250000  0.333333 -0.000000    0.00057870  33 t-inv F
 -0.583333 -0.250000 -0.250000    0.00057870  33 t-inv F
 -0.333333 -0.333333 -0.583333    0.00057870  33 t-inv F
 -0.583333 -0.333333 -0.333333    0.00057870  33 t-inv F
 -0.250000 -0.250000 -0.583333    0.00057870  33 t-inv F
 -0.000000  0.250000 -0.333333    0.00057870  33 t-inv F
  0.000000  0.250000 -0.250000    0.00057870  34 t-inv F
 -0.500000 -0.250000 -0.250000    0.00057870  34 t-inv F
 -0.250000 -0.250000 -0.500000    0.00057870  34 t-inv F
  0.000000 -0.333333 -0.333333    0.00057870  35 t-inv F
 -0.333333 -0.333333  0.000000    0.00057870  35 t-inv F
 -0.000000  0.333333  0.333333    0.00057870  35 t-inv F
  0.000000 -0.416667 -0.333333    0.00057870  36 t-inv F
 -0.333333 -0.416667  0.000000    0.00057870  36 t-inv F
  0.083333 -0.333333 -0.333333    0.00057870  36 t-inv F
  0.416667  0.416667  0.083333    0.00057870  36 t-inv F
  0.083333  0.416667  0.416667    0.00057870  36 t-inv F
 -0.333333 -0.333333  0.083333    0.00057870  36 t-inv F
  0.000000  0.333333  0.416667    0.00057870  36 t-inv F
  0.000000 -0.500000 -0.333333    0.00057870  37 t-inv F
 -0.333333 -0.500000  0.000000    0.00057870  37 t-inv F
  0.166667 -0.333333 -0.333333    0.00057870  37 t-inv F
  0.500000  0.500000  0.166667    0.00057870  37 t-inv F
  0.166667  0.500000  0.500000    0.00057870  37 t-inv F
 -0.333333 -0.333333  0.166667    0.00057870  37 t-inv F
  0.000000  0.333333  0.500000    0.00057870  37 t-inv F
 -0.000000  0.416667 -0.333333    0.00057870  38 t-inv F
 -0.333333  0.416667 -0.000000    0.00057870  38 t-inv F
 -0.750000 -0.333333 -0.333333    0.00057870  38 t-inv F
 -0.416667 -0.416667 -0.750000    0.00057870  38 t-inv F
 -0.750000 -0.416667 -0.416667    0.00057870  38 t-inv F
 -0.333333 -0.333333 -0.750000    0.00057870  38 t-inv F
 -0.000000  0.333333 -0.416667    0.00057870  38 t-inv F
  0.000000  0.333333 -0.333333    0.00057870  39 t-inv F
 -0.666667 -0.333333 -0.333333    0.00057870  39 t-inv F
 -0.333333 -0.333333 -0.666667    0.00057870  39 t-inv F
  0.000000 -0.416667 -0.416667    0.00057870  40 t-inv F
 -0.416667 -0.416667  0.000000    0.00057870  40 t-inv F
  0.000000  0.416667  0.416667    0.00057870  40 t-inv F
  0.000000 -0.500000 -0.416667    0.00057870  41 t-inv F
 -0.416667 -0.500000  0.000000    0.00057870  41 t-inv F
  0.083333 -0.416667 -0.416667    0.00057870  41 t-inv F
  0.500000  0.500000  0.083333    0.00057870  41 t-inv F
  0.083333  0.500000  0.500000    0.00057870  41 t-inv F
 -0.416667 -0.416667  0.083333    0.00057870  41 t-inv F
  0.000000  0.416667  0.500000    0.00057870  41 t-inv F
  0.000000  0.416667 -0.416667    0.00057870  42 t-inv F
 -0.833333 -0.416667 -0.416667    0.00057870  42 t-inv F
 -0.416667 -0.416667 -0.833333    0.00057870  42 t-inv F
  0.000000 -0.500000 -0.500000    0.00057870  43 t-inv F
  0.083333 -0.083333  0.083333    0.00057870  45 t-inv F
  0.166667  0.083333  0.166667    0.00057870  45 t-inv F
  0.083333  0.000000  0.166667    0.00057870  45 t-inv F
  0.083333 -0.166667  0.083333    0.00057870  46 t-inv F
  0.250000  0.166667  0.250000    0.00057870  46 t-inv F
  0.083333 -0.000000  0.250000    0.00057870  46 t-inv F
  0.083333 -0.250000  0.083333    0.00057870  47 t-inv F
  0.333333  0.250000  0.333333    0.00057870  47 t-inv F
  0.083333 -0.000000  0.333333    0.00057870  47 t-inv F
  0.083333 -0.333333  0.083333    0.00057870  48 t-inv F
  0.416667  0.333333  0.416667    0.00057870  48 t-inv F
  0.083333 -0.000000  0.416667    0.00057870  48 t-inv F
  0.083333 -0.416667  0.083333    0.00057870  49 t-inv F
  0.500000  0.416667  0.500000    0.00057870  49 t-inv F
  0.083333  0.000000  0.500000    0.00057870  49 t-inv F
  0.083333  0.500000  0.083333    0.00057870  50 t-inv F
 -0.416667 -0.500000 -0.416667    0.00057870  50 t-inv F
  0.083333  0.000000 -0.416667    0.00057870  50 t-inv F
  0.083333  0.416667  0.083333    0.00057870  51 t-inv F
 -0.333333 -0.416667 -0.333333    0.00057870  51 t-inv F
  0.083333  0.000000 -0.333333    0.00057870  51 t-inv F
  0.083333  0.333333  0.083333    0.00057870  52 t-inv F
 -0.250000 -0.333333 -0.250000    0.00057870  52 t-inv F
  0.083333 -0.000000 -0.250000    0.00057870  52 t-inv F
  0.083333  0.250000  0.083333    0.00057870  53 t-inv F
 -0.166667 -0.250000 -0.166667    0.00057870  53 t-inv F
  0.083333  0.000000 -0.166667    0.00057870  53 t-inv F
  0.083333  0.166667  0.083333    0.00057870  54 t-inv F
 -0.083333 -0.166667 -0.083333    0.00057870  54 t-inv F
  0.083333  0.000000 -0.083333    0.00057870  54 t-inv F
  0.083333 -0.166667 -0.083333    0.00057870  55 t-inv F
 -0.083333 -0.166667  0.083333    0.00057870  55 t-inv F
  0.083333  0.166667  0.250000    0.00057870  55 t-inv F
  0.083333 -0.250000 -0.083333    0.00057870  56 t-inv F
 -0.083333 -0.250000  0.083333    0.00057870  56 t-inv F
  0.166667 -0.166667 -0.083333    0.00057870  56 t-inv F
  0.333333  0.250000  0.166667    0.00057870  56 t-inv F
  0.166667  0.250000  0.333333    0.00057870  56 t-inv F
 -0.083333 -0.166667  0.166667    0.00057870  56 t-inv F
  0.083333  0.166667  0.333333    0.00057870  56 t-inv F
  0.083333 -0.333333 -0.083333    0.00057870  57 t-inv F
 -0.083333 -0.333333  0.083333    0.00057870  57 t-inv F
  0.250000 -0.166667 -0.083333    0.00057870  57 t-inv F
  0.416667  0.333333  0.250000    0.00057870  57 t-inv F
  0.250000  0.333333  0.416667    0.00057870  57 t-inv F
 -0.083333 -0.166667  0.250000    0.00057870  57 t-inv F
  0.083333  0.166667  0.416667    0.00057870  57 t-inv F
  0.083333 -0.416667 -0.083333    0.00057870  58 t-inv F
 -0.083333 -0.416667  0.083333    0.00057870  58 t-inv F
  0.333333 -0.166667 -0.083333    0.00057870  58 t-inv F
  0.500000  0.416667  0.333333    0.00057870  58 t-inv F
  0.333333  0.416667  0.500000    0.00057870  58 t-inv F
 -0.083333 -0.166667  0.333333    0.00057870  58 t-inv F
  0.083333  0.166667  0.500000    0.00057870  58 t-inv F
  0.083333  0.500000 -0.083333    0.00057870  59 t-inv F
 -0.083333  0.500000  0.083333    0.00057870  59 t-inv F
 -0.583333 -0.166667 -0.083333    0.00057870  59 t-inv F
 -0.416667 -0.500000 -0.583333    0.00057870  59 t-inv F
 -0.583333 -0.500000 -0.416667    0.00057870  59 t-inv F
 -0.083333 -0.166667 -0.583333    0.00057870  59 t-inv F
  0.083333  0.166667 -0.416667    0.00057870  59 t-inv F
  0.083333 -0.083333 -0.166667    0.00057870  60 t-inv F
 -0.166667 -0.083333  0.083333    0.00057870  60 t-inv F
 -0.083333 -0.250000 -0.166667    0.00057870  60 t-inv F
  0.166667  0.083333 -0.083333    0.00057870  60 t-inv F
 -0.083333  0.083333  0.166667    0.00057870  60 t-inv F
 -0.166667 -0.250000 -0.083333    0.00057870  60 t-inv F
  0.083333  0.250000  0.166667    0.00057870  60 t-inv F
  0.083333 -0.250000 -0.166667    0.00057870  61 t-inv F
 -0.166667 -0.250000  0.083333    0.00057870  61 t-inv F
  0.083333  0.250000  0.333333    0.00057870  61 t-inv F
  0.083333 -0.333333 -0.166667    0.00057870  62 t-inv F
 -0.166667 -0.333333  0.083333    0.00057870  62 t-inv F
  0.166667 -0.250000 -0.166667    0.00057870  62 t-inv F
  0.416667  0.333333  0.166667    0.00057870  62 t-inv F
  0.166667  0.333333  0.416667    0.00057870  62 t-inv F
 -0.166667 -0.250000  0.166667    0.00057870  62 t-inv F
  0.083333  0.250000  0.416667    0.00057870  62 t-inv F
  0.083333 -0.416667 -0.166667    0.00057870  63 t-inv F
 -0.166667 -0.416667  0.083333    0.00057870  63 t-inv F
  0.250000 -0.250000 -0.166667    0.00057870  63 t-inv F
  0.500000  0.416667  0.250000    0.00057870  63 t-inv F
  0.250000  0.416667  0.500000    0.00057870  63 t-inv F
 -0.166667 -0.250000  0.250000    0.00057870  63 t-inv F
  0.083333  0.250000  0.500000    0.00057870  63 t-inv F
  0.083333  0.500000 -0.166667    0.00057870  64 t-inv F
 -0.166667  0.500000  0.083333    0.00057870  64 t-inv F
 -0.666667 -0.250000 -0.166667    0.00057870  64 t-inv F
 -0.416667 -0.500000 -0.666667    0.00057870  64 t-inv F
 -0.666667 -0.500000 -0.416667    0.00057870  64 t-inv F
 -0.166667 -0.250000 -0.666667    0.00057870  64 t-inv F
  0.083333  0.250000 -0.416667    0.00057870  64 t-inv F
  0.083333  0.416667 -0.166667    0.00057870  65 t-inv F
 -0.166667  0.416667  0.083333    0.00057870  65 t-inv F
 -0.583333 -0.250000 -0.166667    0.00057870  65 t-inv F
 -0.333333 -0.416667 -0.583333    0.00057870  65 t-inv F
 -0.583333 -0.416667 -0.333333    0.00057870  65 t-inv F
 -0.166667 -0.250000 -0.583333    0.00057870  65 t-inv F
  0.083333  0.250000 -0.333333    0.00057870  65 t-inv F
  0.083333  0.333333 -0.166667    0.00057870  66 t-inv F
 -0.166667  0.333333  0.083333    0.00057870  66 t-inv F
 -0.500000 -0.250000 -0.166667    0.00057870  66 t-inv F
 -0.250000 -0.333333 -0.500000    0.00057870  66 t-inv F
 -0.500000 -0.333333 -0.250000    0.00057870  66 t-inv F
 -0.166667 -0.250000 -0.500000    0.00057870  66 t-inv F
  0.083333  0.250000 -0.250000    0.00057870  66 t-inv F
  0.083333  0.250000 -0.166667    0.00057870  67 t-inv F
 -0.416667 -0.250000 -0.166667    0.00057870  67 t-inv F
 -0.166667 -0.250000 -0.416667    0.00057870  67 t-inv F
  0.083333 -0.083333 -0.250000    0.00057870  68 t-inv F
 -0.250000 -0.083333  0.083333    0.00057870  68 t-inv F
 -0.166667 -0.333333 -0.250000    0.00057870  68 t-inv F
  0.166667  0.083333 -0.166667    0.00057870  68 t-inv F
 -0.166667  0.083333  0.166667    0.00057870  68 t-inv F
 -0.250000 -0.333333 -0.166667    0.00057870  68 t-inv F
  0.083333  0.333333  0.166667    0.00057870  68 t-inv F
  0.083333 -0.166667 -0.250000    0.00057870  69 t-inv F
 -0.250000 -0.166667  0.083333    0.00057870  69 t-inv F
 -0.083333 -0.333333 -0.250000    0.00057870  69 t-inv F
  0.250000  0.166667 -0.083333    0.00057870  69 t-inv F
 -0.083333  0.166667  0.250000    0.00057870  69 t-inv F
 -0.250000 -0.333333 -0.083333    0.00057870  69 t-inv F
  0.083333  0.333333  0.250000    0.00057870  69 t-inv F
  0.083333 -0.333333 -0.250000    0.00057870  70 t-inv F
 -0.250000 -0.333333  0.083333    0.00057870  70 t-inv F
  0.083333  0.333333  0.416667    0.00057870  70 t-inv F
  0.083333 -0.416667 -0.250000    0.00057870  71 t-inv F
 -0.250000 -0.416667  0.083333    0.00057870  71 t-inv F
  0.166667 -0.333333 -0.250000    0.00057870  71 t-inv F
  0.500000  0.416667  0.166667    0.00057870  71 t-inv F
  0.166667  0.416667  0.500000    0.00057870  71 t-inv F
 -0.250000 -0.333333  0.166667    0.00057870  71 t-inv F
  0.083333  0.333333  0.500000    0.00057870  71 t-inv F
  0.083333  0.500000 -0.250000    0.00057870  72 t-inv F
 -0.250000  0.500000  0.083333    0.00057870  72 t-inv F
 -0.750000 -0.333333 -0.250000    0.00057870  72 t-inv F
 -0.416667 -0.500000 -0.750000    0.00057870  72 t-inv F
 -0.750000 -0.500000 -0.416667    0.00057870  72 t-inv F
 -0.250000 -0.333333 -0.750000    0.00057870  72 t-inv F
  0.083333  0.333333 -0.416667    0.00057870  72 t-inv F
  0.083333  0.416667 -0.250000    0.00057870  73 t-inv F
 -0.250000  0.416667  0.083333    0.00057870  73 t-inv F
 -0.666667 -0.333333 -0.250000    0.00057870  73 t-inv F
 -0.333333 -0.416667 -0.666667    0.00057870  73 t-inv F
 -0.666667 -0.416667 -0.333333    0.00057870  73 t-inv F
 -0.250000 -0.333333 -0.666667    0.00057870  73 t-inv F
  0.083333  0.333333 -0.333333    0.00057870  73 t-inv F
  0.083333  0.333333 -0.250000    0.00057870  74 t-inv F
 -0.583333 -0.333333 -0.250000    0.00057870  74 t-inv F
 -0.250000 -0.333333 -0.583333    0.00057870  74 t-inv F
  0.083333 -0.083333 -0.333333    0.00057870  75 t-inv F
 -0.333333 -0.083333  0.083333    0.00057870  75 t-inv F
 -0.250000 -0.416667 -0.333333    0.00057870  75 t-inv F
  0.166667  0.083333 -0.250000    0.00057870  75 t-inv F
 -0.250000  0.083333  0.166667    0.00057870  75 t-inv F
 -0.333333 -0.416667 -0.250000    0.00057870  75 t-inv F
  0.083333  0.416667  0.166667    0.00057870  75 t-inv F
  0.083333 -0.166667 -0.333333    0.00057870  76 t-inv F
 -0.333333 -0.166667  0.083333    0.00057870  76 t-inv F
 -0.166667 -0.416667 -0.333333    0.00057870  76 t-inv F
  0.250000  0.166667 -0.166667    0.00057870  76 t-inv F
 -0.166667  0.166667  0.250000    0.00057870  76 t-inv F
 -0.333333 -0.416667 -0.166667    0.00057870  76 t-inv F
  0.083333  0.416667  0.250000    0.00057870  76 t-inv F
  0.083333 -0.250000 -0.333333    0.00057870  77 t-inv F
 -0.333333 -0.250000  0.083333    0.00057870  77 t-inv F
 -0.083333 -0.416667 -0.333333    0.00057870  77 t-inv F
  0.333333  0.250000 -0.083333    0.00057870  77 t-inv F
 -0.083333  0.250000  0.333333    0.00057870  77 t-inv F
 -0.333333 -0.416667 -0.083333    0.00057870  77 t-inv F
  0.083333  0.416667  0.333333    0.00057870  77 t-inv F
  0.083333 -0.416667 -0.333333    0.00057870  78 t-inv F
 -0.333333 -0.416667  0.083333    0.00057870  78 t-inv F
  0.083333  0.416667  0.500000    0.00057870  78 t-inv F
  0.083333  0.500000 -0.333333    0.00057870  79 t-inv F
 -0.333333  0.500000  0.083333    0.00057870  79 t-inv F
 -0.833333 -0.416667 -0.333333    0.00057870  79 t-inv F
 -0.416667 -0.500000 -0.833333    0.00057870  79 t-inv F
 -0.833333 -0.500000 -0.416667    0.00057870  79 t-inv F
 -0.333333 -0.416667 -0.833333    0.00057870  79 t-inv F
  0.083333  0.416667 -0.416667    0.00057870  79 t-inv F
  0.083333  0.416667 -0.333333    0.00057870  80 t-inv F
 -0.750000 -0.416667 -0.333333    0.00057870  80 t-inv F
 -0.333333 -0.416667 -0.750000    0.00057870  80 t-inv F
  0.083333 -0.083333 -0.416667    0.00057870  81 t-inv F
 -0.416667 -0.083333  0.083333    0.00057870  81 t-inv F
 -0.333333 -0.500000 -0.416667    0.00057870  81 t-inv F
  0.166667  0.083333 -0.333333    0.00057870  81 t-inv F
 -0.333333  0.083333  0.166667    0.00057870  81 t-inv F
 -0.416667 -0.500000 -0.333333    0.00057870  81 t-inv F
  0.083333  0.500000  0.166667    0.00057870  81 t-inv F
  0.083333 -0.166667 -0.416667    0.00057870  82 t-inv F
 -0.416667 -0.166667  0.083333    0.00057870  82 t-inv F
 -0.250000 -0.500000 -0.416667    0.00057870  82 t-inv F
  0.250000  0.166667 -0.250000    0.00057870  82 t-inv F
 -0.250000  0.166667  0.250000    0.00057870  82 t-inv F
 -0.416667 -0.500000 -0.250000    0.00057870  82 t-inv F
  0.083333  0.500000  0.250000    0.00057870  82 t-inv F
  0.083333 -0.250000 -0.416667    0.00057870  83 t-inv F
 -0.416667 -0.250000  0.083333    0.00057870  83 t-inv F
 -0.166667 -0.500000 -0.416667    0.00057870  83 t-inv F
  0.333333  0.250000 -0.166667    0.00057870  83 t-inv F
 -0.166667  0.250000  0.333333    0.00057870  83 t-inv F
 -0.416667 -0.500000 -0.166667    0.00057870  83 t-inv F
  0.083333  0.500000  0.333333    0.00057870  83 t-inv F
  0.083333 -0.333333 -0.416667    0.00057870  84 t-inv F
 -0.416667 -0.333333  0.083333    0.00057870  84 t-inv F
 -0.083333 -0.500000 -0.416667    0.00057870  84 t-inv F
  0.416667  0.333333 -0.083333    0.00057870  84 t-inv F
 -0.083333  0.333333  0.416667    0.00057870  84 t-inv F
 -0.416667 -0.500000 -0.083333    0.00057870  84 t-inv F
  0.083333  0.500000  0.416667    0.00057870  84 t-inv F
  0.083333  0.500000 -0.416667    0.00057870  85 t-inv F
  0.083333 -0.083333  0.500000    0.00057870  86 t-inv F
  0.500000 -0.083333  0.083333    0.00057870  86 t-inv F
  0.583333  0.416667  0.500000    0.00057870  86 t-inv F
  0.166667  0.083333  0.583333    0.00057870  86 t-inv F
  0.583333  0.083333  0.166667    0.00057870  86 t-inv F
  0.500000  0.416667  0.583333    0.00057870  86 t-inv F
  0.083333 -0.416667  0.166667    0.00057870  86 t-inv F
  0.083333 -0.166667  0.500000    0.00057870  87 t-inv F
  0.500000 -0.166667  0.083333    0.00057870  87 t-inv F
  0.666667  0.416667  0.500000    0.00057870  87 t-inv F
  0.250000  0.166667  0.666667    0.00057870  87 t-inv F
  0.666667  0.166667  0.250000    0.00057870  87 t-inv F
  0.500000  0.416667  0.666667    0.00057870  87 t-inv F
  0.083333 -0.416667  0.250000    0.00057870  87 t-inv F
  0.083333 -0.250000  0.500000    0.00057870  88 t-inv F
  0.500000 -0.250000  0.083333    0.00057870  88 t-inv F
  0.750000  0.416667  0.500000    0.00057870  88 t-inv F
  0.333333  0.250000  0.750000    0.00057870  88 t-inv F
  0.750000  0.250000  0.333333    0.00057870  88 t-inv F
  0.500000  0.416667  0.750000    0.00057870  88 t-inv F
  0.083333 -0.416667  0.333333    0.00057870  88 t-inv F
  0.083333 -0.333333  0.500000    0.00057870  89 t-inv F
  0.500000 -0.333333  0.083333    0.00057870  89 t-inv F
  0.833333  0.416667  0.500000    0.00057870  89 t-inv F
  0.416667  0.333333  0.833333    0.00057870  89 t-inv F
  0.833333  0.333333  0.416667    0.00057870  89 t-inv F
  0.500000  0.416667  0.833333    0.00057870  89 t-inv F
  0.083333 -0.416667  0.416667    0.00057870  89 t-inv F
  0.083333 -0.416667  0.500000    0.00057870  90 t-inv F
  0.916667  0.416667  0.500000    0.00057870  90 t-inv F
  0.500000  0.416667  0.916667    0.00057870  90 t-inv F
  0.083333 -0.083333  0.416667    0.00057870  91 t-inv F
  0.416667 -0.083333  0.083333    0.00057870  91 t-inv F
  0.500000  0.333333  0.416667    0.00057870  91 t-inv F
  0.166667  0.083333  0.500000    0.00057870  91 t-inv F
  0.500000  0.083333  0.166667    0.00057870  91 t-inv F
  0.416667  0.333333  0.500000    0.00057870  91 t-inv F
  0.083333 -0.333333  0.166667    0.00057870  91 t-inv F
  0.083333 -0.166667  0.416667    0.00057870  92 t-inv F
  0.416667 -0.166667  0.083333    0.00057870  92 t-inv F
  0.583333  0.333333  0.416667    0.00057870  92 t-inv F
  0.250000  0.166667  0.583333    0.00057870  92 t-inv F
  0.583333  0.166667  0.250000    0.00057870  92 t-inv F
  0.416667  0.333333  0.583333    0.00057870  92 t-inv F
  0.083333 -0.333333  0.250000    0.00057870  92 t-inv F
  0.083333 -0.250000  0.416667    0.00057870  93 t-inv F
  0.416667 -0.250000  0.083333    0.00057870  93 t-inv F
  0.666667  0.333333  0.416667    0.00057870  93 t-inv F
  0.333333  0.250000  0.666667    0.00057870  93 t-inv F
  0.666667  0.250000  0.333333    0.00057870  93 t-inv F
  0.416667  0.333333  0.666667    0.00057870  93 t-inv F
  0.083333 -0.333333  0.333333    0.00057870  93 t-inv F
  0.083333 -0.333333  0.416667    0.00057870  94 t-inv F
  0.750000  0.333333  0.416667    0.00057870  94 t-inv F
  0.416667  0.333333  0.750000    0.00057870  94 t-inv F
  0.083333 -0.083333  0.333333    0.00057870  95 t-inv F
  0.333333 -0.083333  0.083333    0.00057870  95 t-inv F
  0.416667  0.250000  0.333333    0.00057870  95 t-inv F
  0.166667  0.083333  0.416667    0.00057870  95 t-inv F
  0.416667  0.083333  0.166667    0.00057870  95 t-inv F
  0.333333  0.250000  0.416667    0.00057870  95 t-inv F
  0.083333 -0.250000  0.166667    0.00057870  95 t-inv F
  0.083333 -0.166667  0.333333    0.00057870  96 t-inv F
  0.333333 -0.166667  0.083333    0.00057870  96 t-inv F
  0.500000  0.250000  0.333333    0.00057870  96 t-inv F
  0.250000  0.166667  0.500000    0.00057870  96 t-inv F
  0.500000  0.166667  0.250000    0.00057870  96 t-inv F
  0.333333  0.250000  0.500000    0.00057870  96 t-inv F
  0.083333 -0.250000  0.250000    0.00057870  96 t-inv F
  0.083333 -0.250000  0.333333    0.00057870  97 t-inv F
  0.583333  0.250000  0.333333    0.00057870  97 t-inv F
  0.333333  0.250000  0.583333    0.00057870  97 t-inv F
  0.083333 -0.083333  0.250000    0.00057870  98 t-inv F
  0.250000 -0.083333  0.083333    0.00057870  98 t-inv F
  0.333333  0.166667  0.250000    0.00057870  98 t-inv F
  0.166667  0.083333  0.333333    0.00057870  98 t-inv F
  0.333333  0.083333  0.166667    0.00057870  98 t-inv F
  0.250000  0.166667  0.333333    0.00057870  98 t-inv F
  0.083333 -0.166667  0.166667    0.00057870  98 t-inv F
  0.083333 -0.166667  0.250000    0.00057870  99 t-inv F
  0.416667  0.166667  0.250000    0.00057870  99 t-inv F
  0.250000  0.166667  0.416667    0.00057870  99 t-inv F
  0.083333 -0.083333  0.166667    0.00057870 100 t-inv F
  0.250000  0.083333  0.166667    0.00057870 100 t-inv F
  0.166667  0.083333  0.250000    0.00057870 100 t-inv F
  0.166667 -0.083333  0.166667    0.00057870 102 t-inv F
  0.250000  0.083333  0.250000    0.00057870 102 t-inv F
  0.166667 -0.000000  0.250000    0.00057870 102 t-inv F
  0.166667 -0.166667  0.166667    0.00057870 103 t-inv F
  0.333333  0.166667  0.333333    0.00057870 103 t-inv F
  0.166667 -0.000000  0.333333    0.00057870 103 t-inv F
  0.166667 -0.250000  0.166667    0.00057870 104 t-inv F
  0.416667  0.250000  0.416667    0.00057870 104 t-inv F
  0.166667  0.000000  0.416667    0.00057870 104 t-inv F
  0.166667 -0.333333  0.166667    0.00057870 105 t-inv F
  0.500000  0.333333  0.500000    0.00057870 105 t-inv F
  0.166667  0.000000  0.500000    0.00057870 105 t-inv F
  0.166667  0.583333  0.166667    0.00057870 106 t-inv F
 -0.416667 -0.583333 -0.416667    0.00057870 106 t-inv F
  0.166667 -0.000000 -0.416667    0.00057870 106 t-inv F
  0.166667  0.500000  0.166667    0.00057870 107 t-inv F
 -0.333333 -0.500000 -0.333333    0.00057870 107 t-inv F
  0.166667  0.000000 -0.333333    0.00057870 107 t-inv F
  0.166667  0.416667  0.166667    0.00057870 108 t-inv F
 -0.250000 -0.416667 -0.250000    0.00057870 108 t-inv F
  0.166667 -0.000000 -0.250000    0.00057870 108 t-inv F
  0.166667  0.333333  0.166667    0.00057870 109 t-inv F
 -0.166667 -0.333333 -0.166667    0.00057870 109 t-inv F
  0.166667  0.000000 -0.166667    0.00057870 109 t-inv F
  0.166667 -0.333333 -0.166667    0.00057870 110 t-inv F
 -0.166667 -0.333333  0.166667    0.00057870 110 t-inv F
  0.166667  0.333333  0.500000    0.00057870 110 t-inv F
  0.166667  0.583333 -0.166667    0.00057870 111 t-inv F
 -0.166667  0.583333  0.166667    0.00057870 111 t-inv F
 -0.750000 -0.333333 -0.166667    0.00057870 111 t-inv F
 -0.416667 -0.583333 -0.750000    0.00057870 111 t-inv F
 -0.750000 -0.583333 -0.416667    0.00057870 111 t-inv F
 -0.166667 -0.333333 -0.750000    0.00057870 111 t-inv F
  0.166667  0.333333 -0.416667    0.00057870 111 t-inv F
  0.166667  0.500000 -0.166667    0.00057870 112 t-inv F
 -0.166667  0.500000  0.166667    0.00057870 112 t-inv F
 -0.666667 -0.333333 -0.166667    0.00057870 112 t-inv F
 -0.333333 -0.500000 -0.666667    0.00057870 112 t-inv F
 -0.666667 -0.500000 -0.333333    0.00057870 112 t-inv F
 -0.166667 -0.333333 -0.666667    0.00057870 112 t-inv F
  0.166667  0.333333 -0.333333    0.00057870 112 t-inv F
  0.166667 -0.083333 -0.250000    0.00057870 113 t-inv F
 -0.250000 -0.083333  0.166667    0.00057870 113 t-inv F
 -0.166667 -0.416667 -0.250000    0.00057870 113 t-inv F
  0.250000  0.083333 -0.166667    0.00057870 113 t-inv F
 -0.166667  0.083333  0.250000    0.00057870 113 t-inv F
 -0.250000 -0.416667 -0.166667    0.00057870 113 t-inv F
  0.166667  0.416667  0.250000    0.00057870 113 t-inv F
  0.166667  0.583333 -0.250000    0.00057870 114 t-inv F
 -0.250000  0.583333  0.166667    0.00057870 114 t-inv F
 -0.833333 -0.583333 -0.416667    0.00057870 114 t-inv F
  0.166667  0.500000 -0.250000    0.00057870 115 t-inv F
 -0.250000  0.500000  0.166667    0.00057870 115 t-inv F
 -0.750000 -0.416667 -0.250000    0.00057870 115 t-inv F
 -0.333333 -0.500000 -0.750000    0.00057870 115 t-inv F
 -0.750000 -0.500000 -0.333333    0.00057870 115 t-inv F
 -0.250000 -0.416667 -0.750000    0.00057870 115 t-inv F
  0.166667  0.416667 -0.333333    0.00057870 115 t-inv F
  0.166667  0.416667 -0.250000    0.00057870 116 t-inv F
 -0.666667 -0.416667 -0.250000    0.00057870 116 t-inv F
 -0.250000 -0.416667 -0.666667    0.00057870 116 t-inv F
  0.166667 -0.083333 -0.333333    0.00057870 117 t-inv F
 -0.333333 -0.083333  0.166667    0.00057870 117 t-inv F
 -0.250000 -0.500000 -0.333333    0.00057870 117 t-inv F
  0.250000  0.083333 -0.250000    0.00057870 117 t-inv F
 -0.250000  0.083333  0.250000    0.00057870 117 t-inv F
 -0.333333 -0.500000 -0.250000    0.00057870 117 t-inv F
  0.166667  0.500000  0.250000    0.00057870 117 t-inv F
  0.166667 -0.166667 -0.333333    0.00057870 118 t-inv F
 -0.333333 -0.166667  0.166667    0.00057870 118 t-inv F
 -0.166667 -0.500000 -0.333333    0.00057870 118 t-inv F
  0.333333  0.166667 -0.166667    0.00057870 118 t-inv F
 -0.166667  0.166667  0.333333    0.00057870 118 t-inv F
 -0.333333 -0.500000 -0.166667    0.00057870 118 t-inv F
  0.166667  0.500000  0.333333    0.00057870 118 t-inv F
  0.166667  0.500000 -0.333333    0.00057870 119 t-inv F
  0.166667 -0.083333  0.583333    0.00057870 120 t-inv F
  0.583333 -0.083333  0.166667    0.00057870 120 t-inv F
  0.666667  0.416667  0.583333    0.00057870 120 t-inv F
  0.250000  0.083333  0.666667    0.00057870 120 t-inv F
  0.666667  0.083333  0.250000    0.00057870 120 t-inv F
  0.583333  0.416667  0.666667    0.00057870 120 t-inv F
  0.166667 -0.416667  0.250000    0.00057870 120 t-inv F
  0.166667 -0.166667  0.583333    0.00057870 121 t-inv F
  0.583333 -0.166667  0.166667    0.00057870 121 t-inv F
  0.750000  0.416667  0.583333    0.00057870 121 t-inv F
  0.333333  0.166667  0.750000    0.00057870 121 t-inv F
  0.750000  0.166667  0.333333    0.00057870 121 t-inv F
  0.583333  0.416667  0.750000    0.00057870 121 t-inv F
  0.166667 -0.416667  0.333333    0.00057870 121 t-inv F
  0.166667 -0.250000  0.583333    0.00057870 122 t-inv F
  0.583333 -0.250000  0.166667    0.00057870 122 t-inv F
  0.833333  0.416667  0.583333    0.00057870 122 t-inv F
  0.416667  0.250000  0.833333    0.00057870 122 t-inv F
  0.833333  0.250000  0.416667    0.00057870 122 t-inv F
  0.583333  0.416667  0.833333    0.00057870 122 t-inv F
  0.166667 -0.416667  0.416667    0.00057870 122 t-inv F
  0.166667 -0.083333  0.500000    0.00057870 123 t-inv F
  0.500000 -0.083333  0.166667    0.00057870 123 t-inv F
  0.583333  0.333333  0.500000    0.00057870 123 t-inv F
  0.250000  0.083333  0.583333    0.00057870 123 t-inv F
  0.583333  0.083333  0.250000    0.00057870 123 t-inv F
  0.500000  0.333333  0.583333    0.00057870 123 t-inv F
  0.166667 -0.333333  0.250000    0.00057870 123 t-inv F
  0.166667 -0.166667  0.500000    0.00057870 124 t-inv F
  0.500000 -0.166667  0.166667    0.00057870 124 t-inv F
  0.666667  0.333333  0.500000    0.00057870 124 t-inv F
  0.333333  0.166667  0.666667    0.00057870 124 t-inv F
  0.666667  0.166667  0.333333    0.00057870 124 t-inv F
  0.500000  0.333333  0.666667    0.00057870 124 t-inv F
  0.166667 -0.333333  0.333333    0.00057870 124 t-inv F
  0.166667 -0.250000  0.500000    0.00057870 125 t-inv F
  0.500000 -0.250000  0.166667    0.00057870 125 t-inv F
  0.750000  0.333333  0.500000    0.00057870 125 t-inv F
  0.416667  0.250000  0.750000    0.00057870 125 t-inv F
  0.750000  0.250000  0.416667    0.00057870 125 t-inv F
  0.500000  0.333333  0.750000    0.00057870 125 t-inv F
  0.166667 -0.333333  0.416667    0.00057870 125 t-inv F
  0.166667 -0.333333  0.500000    0.00057870 126 t-inv F
  0.833333  0.333333  0.500000    0.00057870 126 t-inv F
  0.500000  0.333333  0.833333    0.00057870 126 t-inv F
  0.166667 -0.083333  0.416667    0.00057870 127 t-inv F
  0.416667 -0.083333  0.166667    0.00057870 127 t-inv F
  0.500000  0.250000  0.416667    0.00057870 127 t-inv F
  0.250000  0.083333  0.500000    0.00057870 127 t-inv F
  0.500000  0.083333  0.250000    0.00057870 127 t-inv F
  0.416667  0.250000  0.500000    0.00057870 127 t-inv F
  0.166667 -0.250000  0.250000    0.00057870 127 t-inv F
  0.166667 -0.166667  0.416667    0.00057870 128 t-inv F
  0.416667 -0.166667  0.166667    0.00057870 128 t-inv F
  0.583333  0.250000  0.416667    0.00057870 128 t-inv F
  0.333333  0.166667  0.583333    0.00057870 128 t-inv F
  0.583333  0.166667  0.333333    0.00057870 128 t-inv F
  0.416667  0.250000  0.583333    0.00057870 128 t-inv F
  0.166667 -0.250000  0.333333    0.00057870 128 t-inv F
  0.166667 -0.250000  0.416667    0.00057870 129 t-inv F
  0.666667  0.250000  0.416667    0.00057870 129 t-inv F
  0.416667  0.250000  0.666667    0.00057870 129 t-inv F
  0.166667 -0.083333  0.333333    0.00057870 130 t-inv F
  0.333333 -0.083333  0.166667    0.00057870 130 t-inv F
  0.416667  0.166667  0.333333    0.00057870 130 t-inv F
  0.250000  0.083333  0.416667    0.00057870 130 t-inv F
  0.416667  0.083333  0.250000    0.00057870 130 t-inv F
  0.333333  0.166667  0.416667    0.00057870 130 t-inv F
  0.166667 -0.166667  0.250000    0.00057870 130 t-inv F
  0.166667 -0.166667  0.333333    0.00057870 131 t-inv F
  0.500000  0.166667  0.333333    0.00057870 131 t-inv F
  0.333333  0.166667  0.500000    0.00057870 131 t-inv F
  0.166667 -0.083333  0.250000    0.00057870 132 t-inv F
  0.333333  0.083333  0.250000    0.00057870 132 t-inv F
  0.250000  0.083333  0.333333    0.00057870 132 t-inv F
  0.250000 -0.083333  0.250000    0.00057870 134 t-inv F
  0.333333  0.083333  0.333333    0.00057870 134 t-inv F
  0.250000 -0.000000  0.333333    0.00057870 134 t-inv F
  0.250000 -0.166667  0.250000    0.00057870 135 t-inv F
  0.416667  0.166667  0.416667    0.00057870 135 t-inv F
  0.250000 -0.000000  0.416667    0.00057870 135 t-inv F
  0.250000 -0.250000  0.250000    0.00057870 136 t-inv F
  0.500000  0.250000  0.500000    0.00057870 136 t-inv F
  0.250000 -0.000000  0.500000    0.00057870 136 t-inv F
  0.250000  0.666667  0.250000    0.00057870 137 t-inv F
 -0.416667 -0.666667 -0.416667    0.00057870 137 t-inv F
  0.250000  0.000000 -0.416667    0.00057870 137 t-inv F
  0.250000  0.583333  0.250000    0.00057870 138 t-inv F
 -0.333333 -0.583333 -0.333333    0.00057870 138 t-inv F
  0.250000 -0.000000 -0.333333    0.00057870 138 t-inv F
  0.250000  0.500000  0.250000    0.00057870 139 t-inv F
 -0.250000 -0.500000 -0.250000    0.00057870 139 t-inv F
  0.250000 -0.000000 -0.250000    0.00057870 139 t-inv F
  0.250000  0.500000 -0.250000    0.00057870 140 t-inv F
  0.250000 -0.083333  0.666667    0.00057870 141 t-inv F
  0.666667 -0.083333  0.250000    0.00057870 141 t-inv F
  0.750000  0.416667  0.666667    0.00057870 141 t-inv F
  0.333333  0.083333  0.750000    0.00057870 141 t-inv F
  0.750000  0.083333  0.333333    0.00057870 141 t-inv F
  0.666667  0.416667  0.750000    0.00057870 141 t-inv F
  0.250000 -0.416667  0.333333    0.00057870 141 t-inv F
  0.250000 -0.083333  0.583333    0.00057870 142 t-inv F
  0.583333 -0.083333  0.250000    0.00057870 142 t-inv F
  0.666667  0.333333  0.583333    0.00057870 142 t-inv F
  0.333333  0.083333  0.666667    0.00057870 142 t-inv F
  0.666667  0.083333  0.333333    0.00057870 142 t-inv F
  0.583333  0.333333  0.666667    0.00057870 142 t-inv F
  0.250000 -0.333333  0.333333    0.00057870 142 t-inv F
  0.250000 -0.166667  0.583333    0.00057870 143 t-inv F
  0.583333 -0.166667  0.250000    0.00057870 143 t-inv F
  0.750000  0.333333  0.583333    0.00057870 143 t-inv F
  0.416667  0.166667  0.750000    0.00057870 143 t-inv F
  0.750000  0.166667  0.416667    0.00057870 143 t-inv F
  0.583333  0.333333  0.750000    0.00057870 143 t-inv F
  0.250000 -0.333333  0.416667    0.00057870 143 t-inv F
  0.250000 -0.083333  0.500000    0.00057870 144 t-inv F
  0.500000 -0.083333  0.250000    0.00057870 144 t-inv F
  0.583333  0.250000  0.500000    0.00057870 144 t-inv F
  0.333333  0.083333  0.583333    0.00057870 144 t-inv F
  0.583333  0.083333  0.333333    0.00057870 144 t-inv F
  0.500000  0.250000  0.583333    0.00057870 144 t-inv F
  0.250000 -0.250000  0.333333    0.00057870 144 t-inv F
  0.250000 -0.166667  0.500000    0.00057870 145 t-inv F
  0.500000 -0.166667  0.250000    0.00057870 145 t-inv F
  0.666667  0.250000  0.500000    0.00057870 145 t-inv F
  0.416667  0.166667  0.666667    0.00057870 145 t-inv F
  0.666667  0.166667  0.416667    0.00057870 145 t-inv F
  0.500000  0.250000  0.666667    0.00057870 145 t-inv F
  0.250000 -0.250000  0.416667    0.00057870 145 t-inv F
  0.250000 -0.250000  0.500000    0.00057870 146 t-inv F
  0.750000  0.250000  0.500000    0.00057870 146 t-inv F
  0.500000  0.250000  0.750000    0.00057870 146 t-inv F
  0.250000 -0.083333  0.416667    0.00057870 147 t-inv F
  0.416667 -0.083333  0.250000    0.00057870 147 t-inv F
  0.500000  0.166667  0.416667    0.00057870 147 t-inv F
  0.333333  0.083333  0.500000    0.00057870 147 t-inv F
  0.500000  0.083333  0.333333    0.00057870 147 t-inv F
  0.416667  0.166667  0.500000    0.00057870 147 t-inv F
  0.250000 -0.166667  0.333333    0.00057870 147 t-inv F
  0.250000 -0.166667  0.416667    0.00057870 148 t-inv F
  0.583333  0.166667  0.416667    0.00057870 148 t-inv F
[...]
      5       0.0002      0.00000
      6       0.0002      0.00000
      7       0.0002      0.00000
      8       0.0002      0.00000
      9       0.0000      0.00000
     10       0.0001      0.00000
     11      -0.0001      0.00000
     12      -0.0000      0.00000
     13      -0.0000      0.00000
     14       0.0000      0.00000
     15      -0.0000      0.00000
     16       0.0001      0.00000

 k-point 465 :       0.7500    0.2500    0.5000
  band No.  band energies     occupation 
      1      -0.0001      0.00000
      2      -0.0001      0.00000
      3      -0.0002      0.00000
      4      -0.0001      0.00000
      5       0.0003      0.00000
      6       0.0002      0.00000
      7       0.0002      0.00000
      8       0.0002      0.00000
      9       0.0000      0.00000
     10       0.0000      0.00000
     11      -0.0001      0.00000
     12      -0.0001      0.00000
     13      -0.0000      0.00000
     14       0.0000      0.00000
     15       0.0000      0.00000
     16       0.0001      0.00000

 k-point 466 :      -0.1667    0.2500   -0.5000
  band No.  band energies     occupation 
      1      -0.0001      0.00000
      2      -0.0001      0.00000
      3      -0.0001      0.00000
      4      -0.0001      0.00000
      5       0.0003      0.00000
      6       0.0002      0.00000
      7       0.0002      0.00000
      8       0.0003      0.00000
      9       0.0000      0.00000
     10       0.0000      0.00000
     11      -0.0001      0.00000
     12      -0.0001      0.00000
     13      -0.0000      0.00000
     14       0.0000      0.00000
     15       0.0000      0.00000
     16       0.0001      0.00000

 k-point 467 :      -0.0833    0.2500   -0.5000
  band No.  band energies     occupation 
      1      -0.0001      0.00000
      2      -0.0000      0.00000
      3      -0.0001      0.00000
      4      -0.0001      0.00000
      5       0.0003      0.00000
      6       0.0002      0.00000
      7       0.0002      0.00000
      8       0.0003      0.00000
      9       0.0000      0.00000
     10       0.0000      0.00000
     11      -0.0000      0.00000
     12      -0.0001      0.00000
     13      -0.0000      0.00000
     14       0.0000      0.00000
     15       0.0000      0.00000
     16       0.0000      0.00000

 k-point 468 :       0.0000    0.3333    0.5000
  band No.  band energies     occupation 
      1      -0.0001      0.00000
      2      -0.0001      0.00000
      3      -0.0001      0.00000
      4      -0.0001      0.00000
      5       0.0003      0.00000
      6       0.0002      0.00000
      7       0.0002      0.00000
      8       0.0003      0.00000
      9      -0.0000      0.00000
     10       0.0000      0.00000
     11      -0.0000      0.00000
     12      -0.0001      0.00000
     13      -0.0001      0.00000
     14       0.0000      0.00000
     15       0.0000      0.00000
     16       0.0000      0.00000

 k-point 469 :       0.0833    0.3333    0.5000
  band No.  band energies     occupation 
      1      -0.0001      0.00000
      2      -0.0001      0.00000
      3      -0.0001      0.00000
      4      -0.0001      0.00000
      5       0.0003      0.00000
      6       0.0002      0.00000
      7       0.0003      0.00000
      8       0.0002      0.00000
      9      -0.0000      0.00000
     10       0.0000      0.00000
     11      -0.0000      0.00000
     12      -0.0001      0.00000
     13      -0.0000      0.00000
     14       0.0000      0.00000
     15       0.0000      0.00000
     16      -0.0000      0.00000

 k-point 470 :       0.1667    0.3333    0.5000
  band No.  band energies     occupation 
      1      -0.0001      0.00000
      2      -0.0000      0.00000
      3      -0.0001      0.00000
      4      -0.0002      0.00000
      5       0.0003      0.00000
      6       0.0002      0.00000
      7       0.0003      0.00000
      8       0.0002      0.00000
      9      -0.0000      0.00000
     10       0.0001      0.00000
     11      -0.0000      0.00000
     12      -0.0001      0.00000
     13      -0.0000      0.00000
     14       0.0000      0.00000
     15       0.0001      0.00000
     16      -0.0000      0.00000

 k-point 471 :       0.8333    0.3333    0.5000
  band No.  band energies     occupation 
      1      -0.0001      0.00000
      2      -0.0001      0.00000
      3      -0.0001      0.00000
      4      -0.0001      0.00000
      5       0.0003      0.00000
      6       0.0002      0.00000
      7       0.0002      0.00000
      8       0.0003      0.00000
      9       0.0000      0.00000
     10      -0.0000      0.00000
     11      -0.0000      0.00000
     12      -0.0001      0.00000
     13      -0.0000      0.00000
     14       0.0001      0.00000
     15       0.0000      0.00000
     16       0.0001      0.00000

 k-point 472 :      -0.0833    0.3333   -0.5000
  band No.  band energies     occupation 
      1      -0.0001      0.00000
      2      -0.0001      0.00000
      3      -0.0001      0.00000
      4      -0.0001      0.00000
      5       0.0003      0.00000
      6       0.0002      0.00000
      7       0.0002      0.00000
      8       0.0003      0.00000
      9       0.0000      0.00000
     10      -0.0000      0.00000
     11      -0.0000      0.00000
     12      -0.0001      0.00000
     13      -0.0000      0.00000
     14       0.0001      0.00000
     15       0.0000      0.00000
     16       0.0001      0.00000

 k-point 473 :       0.0000    0.4167    0.5000
  band No.  band energies     occupation 
      1      -0.0001      0.00000
      2      -0.0001      0.00000
      3      -0.0001      0.00000
      4      -0.0001      0.00000
      5       0.0003      0.00000
      6       0.0002      0.00000
      7       0.0003      0.00000
      8       0.0003      0.00000
      9      -0.0000      0.00000
     10      -0.0000      0.00000
     11      -0.0001      0.00000
     12      -0.0001      0.00000
     13      -0.0001      0.00000
     14       0.0001      0.00000
     15      -0.0000      0.00000
     16       0.0001      0.00000

 k-point 474 :       0.0833    0.4167    0.5000
  band No.  band energies     occupation 
      1      -0.0001      0.00000
      2      -0.0001      0.00000
      3      -0.0001      0.00000
      4      -0.0001      0.00000
      5       0.0003      0.00000
      6       0.0002      0.00000
      7       0.0003      0.00000
      8       0.0002      0.00000
      9      -0.0000      0.00000
     10      -0.0000      0.00000
     11      -0.0000      0.00000
     12      -0.0001      0.00000
     13      -0.0001      0.00000
     14       0.0001      0.00000
     15      -0.0000      0.00000
     16       0.0000      0.00000

 k-point 475 :       0.9167    0.4167    0.5000
  band No.  band energies     occupation 
      1      -0.0001      0.00000
      2      -0.0001      0.00000
      3      -0.0001      0.00000
      4      -0.0001      0.00000
      5       0.0003      0.00000
      6       0.0002      0.00000
      7       0.0002      0.00000
      8       0.0003      0.00000
      9      -0.0000      0.00000
     10      -0.0000      0.00000
     11      -0.0000      0.00000
     12      -0.0001      0.00000
     13      -0.0001      0.00000
     14       0.0001      0.00000
     15      -0.0000      0.00000
     16       0.0001      0.00000

 k-point 476 :       0.0000   -0.5000   -0.5000
  band No.  band energies     occupation 
      1      -0.0001      0.00000
      2      -0.0001      0.00000
      3      -0.0001      0.00000
      4      -0.0001      0.00000
      5       0.0003      0.00000
      6       0.0002      0.00000
      7       0.0002      0.00000
      8       0.0003      0.00000
      9      -0.0000      0.00000
     10      -0.0000      0.00000
     11      -0.0001      0.00000
     12      -0.0001      0.00000
     13      -0.0001      0.00000
     14       0.0002      0.00000
     15      -0.0000      0.00000
     16       0.0002      0.00000


------------------------ aborting loop because EDIFF is reached ----------------------------------------


    FORLOC:  cpu time    0.0027: real time    0.0027
    FORNL :  cpu time    0.1855: real time    0.1855
    STRESS:  cpu time    1.4022: real time    1.4024
    FORCOR:  cpu time    0.0096: real time    0.0096
    OFIELD:  cpu time    0.0000: real time    0.0000
    FORLOC:  cpu time    0.0023: real time    0.0023
    FORNL :  cpu time    0.1502: real time    0.1502
    STRESS:  cpu time    1.4035: real time    1.4036
    FORCOR:  cpu time    0.0097: real time    0.0097
    OFIELD:  cpu time    0.0000: real time    0.0000
    FORLOC:  cpu time    0.0022: real time    0.0022
    FORNL :  cpu time    0.1502: real time    0.1502
    STRESS:  cpu time    1.4027: real time    1.4028
    FORCOR:  cpu time    0.0096: real time    0.0096
    OFIELD:  cpu time    0.0000: real time    0.0000
    FORLOC:  cpu time    0.0025: real time    0.0025
    FORNL :  cpu time    0.1502: real time    0.1502
    STRESS:  cpu time    1.4019: real time    1.4021
    FORCOR:  cpu time    0.0097: real time    0.0097
    OFIELD:  cpu time    0.0000: real time    0.0000

 INTERNAL STRAIN TENSOR  FOR ION    2  DIRECTION 2   (eV/Angst):
 -----------------------------------------------------------------------------
     0.00021  0.00021  0.00000
     0.00021  0.00126  0.00000
     0.00000  0.00000 -0.00083


 POSITION                   FORCE-CONSTANT FOR ION    2 DIRECTION 2 (eV/Angst/Angst)
 -----------------------------------------------------------------------------------
      0.00000      0.00000      0.00000         0.000018      3.108183      0.000000
     -2.40356      2.40356      2.40356        -0.000018     -3.108183     -0.000000
 -----------------------------------------------------------------------------------
    total drift:                                0.000000      0.000000      0.000000


 BORN EFFECTIVE CHARGE FOR ION    2 DIRECTION 2 :   0.000  -2.356   0.000
                   rigid augmentation           :  -0.000  -0.629  -0.000
                   ionic contribution           :  -0.000   6.000  -0.000
                   Berry contribution           :   0.000  -7.727   0.000


--------------------------------------------------------------------------------------------------------


  LATTYP: Found a face centered cubic cell.
 ALAT       =     4.8071110228
  
  Lattice vectors:
  
 A1 = (  -2.4035555114,   0.0000000000,   2.4035555114)
 A2 = (   0.0000000000,   2.4035555114,   2.4035555114)
 A3 = (  -2.4035555114,   2.4035555114,   0.0000000000)


Analysis of symmetry for initial positions (statically):
=====================================================================
 Subroutine PRICEL returns:
 Original cell was already a primitive cell.
 

 Routine SETGRP: Setting up the symmetry group for a 
 face centered cubic supercell.


 Subroutine GETGRP returns: Found  8 space group operations
 (whereof  8 operations were pure point group operations)
 out of a pool of 48 trial point group operations.


The static configuration has the point symmetry C_4v.


Analysis of symmetry for dynamics (positions and initial velocities):
=====================================================================
 Subroutine PRICEL returns:
 Original cell was already a primitive cell.
 

 Routine SETGRP: Setting up the symmetry group for a 
 face centered cubic supercell.


 Subroutine GETGRP returns: Found  8 space group operations
 (whereof  8 operations were pure point group operations)
 out of a pool of 48 trial point group operations.


The dynamic configuration has the point symmetry C_4v.


 Subroutine INISYM returns: Found  8 space group operations
 (whereof  8 operations are pure point group operations),
 and found     1 'primitive' translations



--------------------------------------------------------------------------------------------------------




 MACROSCOPIC STATIC DIELECTRIC TENSOR (including local field effects in DFT)
 ------------------------------------------------------
           3.786747    -0.000000     0.000000
          -0.000000     3.786891    -0.000000
           0.000000    -0.000000     3.786891
 ------------------------------------------------------


 PIEZOELECTRIC TENSOR  for field in x, y, z        (e  Angst)
          XX          YY          ZZ          XY          YZ          ZX
  --------------------------------------------------------------------------------
  x     0.00006     0.00001     0.00001     0.00000    -0.00000     0.00000
  y    -0.00000     0.00003    -0.00005     0.00024     0.00000     0.00000
  z    -0.00000    -0.00000     0.00001    -0.00000    -0.00000    -0.00008

 PIEZOELECTRIC TENSOR  for field in x, y, z        (C/m^2)
          XX          YY          ZZ          XY          YZ          ZX
  --------------------------------------------------------------------------------
  x     0.00003     0.00001     0.00001    -0.00000    -0.00000     0.00000
  y    -0.00000     0.00000    -0.00000     0.00005     0.00000    -0.00000
  z     0.00000     0.00000     0.00000    -0.00000    -0.00000     0.00005
 
 BORN EFFECTIVE CHARGES (in e, cummulative output)
 -------------------------------------------------
 ion    1
    1     2.35615     0.00000     0.00000
    2    -0.00004     2.35624    -0.00000
    3     0.00001    -0.00000     2.35621
 ion    2
    1    -2.35615    -0.00000    -0.00000
    2     0.00004    -2.35624     0.00000
    3    -0.00001     0.00000    -2.35621

 INTERNAL STRAIN TENSOR FOR ION    1 for displacements in x,y,z  (eV/Angst):
          X           Y           Z          XY          YZ          ZX
  --------------------------------------------------------------------------------
  x     0.00084    -0.00047    -0.00047     0.00000     0.00000    -0.00000
  y     0.00000     0.00000     0.00000    -0.00348    -0.00000     0.00000
  z     0.00000     0.00000     0.00000     0.00000     0.00000    -0.00347

 INTERNAL STRAIN TENSOR FOR ION    2 for displacements in x,y,z  (eV/Angst):
          X           Y           Z          XY          YZ          ZX
  --------------------------------------------------------------------------------
  x    -0.00076    -0.00034    -0.00034     0.00000     0.00000    -0.00000
  y     0.00000     0.00000     0.00000     0.00021     0.00000    -0.00000
  z     0.00000     0.00000     0.00000    -0.00000    -0.00000     0.00021


--------------------------------------------------------------------------------------------------------


 
 SECOND DERIVATIVES (NOT SYMMETRIZED)
 ------------------------------------
               1X          1Y          1Z          2X          2Y          2Z 
  1X    -3.126318    0.000000   -0.000000    3.126318   -0.000000    0.000000
  1Y     0.000000   -3.126335    0.000000   -0.000000    3.126335   -0.000000
  1Z    -0.000000    0.000000   -3.126335    0.000000   -0.000000    3.126335
  2X     3.108104   -0.000000    0.000000   -3.108104    0.000000   -0.000000
  2Y    -0.000000    3.108183   -0.000000    0.000000   -3.108183    0.000000
  2Z     0.000000   -0.000000    3.108183   -0.000000    0.000000   -3.108183
 
 
 Eigenvectors and eigenvalues of the dynamical matrix
 ----------------------------------------------------
 
 
   1 f  =    8.157351 THz    51.254149 2PiTHz  272.099938 cm-1    33.736105 meV
             X         Y         Z           dx          dy          dz
      0.000000  0.000000  0.000000    -0.000000    0.535263    0.000000  
     -2.403555  2.403556  2.403556     0.000000   -0.844685    0.000000  
 
   2 f  =    8.157351 THz    51.254149 2PiTHz  272.099938 cm-1    33.736105 meV
             X         Y         Z           dx          dy          dz
      0.000000  0.000000  0.000000    -0.000000    0.000000   -0.535263  
     -2.403555  2.403556  2.403556     0.000000    0.000000    0.844685  
 
   3 f  =    8.157271 THz    51.253645 2PiTHz  272.097262 cm-1    33.735773 meV
             X         Y         Z           dx          dy          dz
      0.000000  0.000000  0.000000    -0.535267   -0.000000   -0.000000  
     -2.403555  2.403556  2.403556     0.844683    0.000000   -0.000000  
 
   4 f/i=    0.010738 THz     0.067468 2PiTHz    0.358179 cm-1     0.044409 meV
             X         Y         Z           dx          dy          dz
      0.000000  0.000000  0.000000    -0.000000    0.530041   -0.657685  
     -2.403555  2.403556  2.403556    -0.000000    0.335878   -0.416764  
 
   5 f/i=    0.010738 THz     0.067468 2PiTHz    0.358179 cm-1     0.044409 meV
             X         Y         Z           dx          dy          dz
      0.000000  0.000000  0.000000     0.000000   -0.657685   -0.530041  
     -2.403555  2.403556  2.403556     0.000000   -0.416764   -0.335878  
 
   6 f/i=    0.010775 THz     0.067701 2PiTHz    0.359414 cm-1     0.044562 meV
             X         Y         Z           dx          dy          dz
      0.000000  0.000000  0.000000     0.844683    0.000000    0.000000  
     -2.403555  2.403556  2.403556     0.535267    0.000000    0.000000  
 


--------------------------------------------------------------------------------------------------------




 MACROSCOPIC STATIC DIELECTRIC TENSOR IONIC CONTRIBUTION
 ------------------------------------------------------
          11.604098    -0.000196     0.000063
          -0.000196    11.604758    -0.000000
           0.000063    -0.000000    11.604516
 ------------------------------------------------------


 ELASTIC MODULI IONIC CONTR (kBar)
 Direction    XX          YY          ZZ          XY          YZ          ZX
 --------------------------------------------------------------------------------
 XX          -0.0000      0.0000      0.0000      0.0000     -0.0000      0.0000
 YY           0.0000     -0.0000     -0.0000     -0.0000      0.0000     -0.0000
 ZZ           0.0000     -0.0000     -0.0000     -0.0000      0.0000     -0.0000
 XY           0.0000     -0.0000     -0.0000     -0.0001     -0.0000      0.0000
 YZ          -0.0000      0.0000      0.0000     -0.0000     -0.0000      0.0000
 ZX           0.0000     -0.0000     -0.0000      0.0000      0.0000     -0.0001
 --------------------------------------------------------------------------------


 PIEZOELECTRIC TENSOR IONIC CONTR  for field in x, y, z        (C/m^2)
          XX          YY          ZZ          XY          YZ          ZX
  --------------------------------------------------------------------------------
  x     0.00035    -0.00003    -0.00003    -0.00000     0.00000    -0.00000
  y    -0.00000     0.00000     0.00000    -0.00080    -0.00000     0.00000
  z     0.00000    -0.00000    -0.00000     0.00000     0.00000    -0.00080


--------------------------------------------------------------------------------------------------------


     LOOP+:  cpu time  367.1234: real time  367.4054
    4ORBIT:  cpu time    0.0000: real time    0.0000

 total amount of memory used by VASP MPI-rank0    72872. kBytes
=======================================================================

   base      :      30000. kBytes
   nonl-proj :      35701. kBytes
   fftplans  :        858. kBytes
   grid      :       2151. kBytes
   one-center:         31. kBytes
   wavefun   :       4131. kBytes
 
  
  
 General timing and accounting informations for this job:
 ========================================================
  
                  Total CPU time used (sec):      369.194
                            User time (sec):      363.852
                          System time (sec):        5.342
                         Elapsed time (sec):      369.470
  
                   Maximum memory used (kb):      372520.
                   Average memory used (kb):           0.
  
                          Minor page faults:       160735
                          Major page faults:           16
                 Voluntary context switches:         6579
