<?xml version="1.0" encoding="ISO-8859-1"?>
<modeling>
 <generator>
  <i name="program" type="string">vasp </i>
  <i name="version" type="string">5.4.4.18Apr17-6-g9f103f2a35  </i>
  <i name="subversion" type="string">(build Aug 24 2017 11:22:49) complex            parallel </i>
  <i name="platform" type="string">LinuxIFC </i>
  <i name="date" type="string">2023 12 25 </i>
  <i name="time" type="string">13:07:34 </i>
 </generator>
 <incar>
  <i type="string" name="PREC">accurate</i>
  <i type="string" name="ALGO"> Normal</i>
  <i type="int" name="NELM">   100</i>
  <i type="int" name="IBRION">     8</i>
  <i name="EDIFF">      0.00000001</i>
  <i name="SYMPREC">      0.00000001</i>
  <i name="ENCUT">    520.00000000</i>
  <i type="logical" name="LREAL"> F  </i>
  <i type="int" name="ISMEAR">     0</i>
  <i name="SIGMA">      0.01000000</i>
  <i type="logical" name="LWAVE"> F  </i>
  <v type="int" name="KPOINT_BSE">    -1     0     0     0</v>
  <i type="int" name="NELM">   100</i>
  <i type="logical" name="LPEAD"> T  </i>
  <i type="logical" name="LEPSILON"> T  </i>
 </incar>
 <structure name="primitive_cell" >
  <crystal>
   <varray name="basis" >
    <v>      -2.40355551       0.00000000       2.40355551 </v>
    <v>       0.00000000       2.40355551       2.40355551 </v>
    <v>      -2.40355551       2.40355551       0.00000000 </v>
   </varray>
   <i name="volume">     27.77106060 </i>
   <varray name="rec_basis" >
    <v>      -0.20802515      -0.20802515       0.20802515 </v>
    <v>       0.20802515       0.20802515       0.20802515 </v>
    <v>      -0.20802515       0.20802515      -0.20802515 </v>
   </varray>
  </crystal>
  <varray name="positions" >
   <v>       0.00000000       0.00000000       0.00000000 </v>
   <v>       0.49999996      -0.49999996       0.49999996 </v>
  </varray>
 </structure>
 <varray name="primitive_index" >
  <v type="int" >        1 </v>
  <v type="int" >        2 </v>
 </varray>
 <kpoints>
  <generation param="Gamma">
   <v type="int" name="divisions">      12       12       12 </v>
   <v name="usershift">      0.00000000       0.00000000       0.00000000 </v>
   <v name="genvec1">      0.08333333       0.00000000       0.00000000 </v>
   <v name="genvec2">      0.00000000       0.08333333      -0.00000000 </v>
   <v name="genvec3">     -0.00000000      -0.00000000       0.08333333 </v>
   <v name="shift">      0.00000000       0.00000000       0.00000000 </v>
  </generation>
  <varray name="kpointlist" >
   <v>       0.00000000       0.00000000       0.00000000 </v>
   <v>       0.08333333       0.00000000       0.00000000 </v>
   <v>       0.16666667       0.00000000       0.00000000 </v>
   <v>       0.25000000      -0.00000000       0.00000000 </v>
   <v>       0.33333333      -0.00000000      -0.00000000 </v>
   <v>       0.41666667      -0.00000000      -0.00000000 </v>
   <v>       0.50000000      -0.00000000       0.00000000 </v>
   <v>       0.08333333       0.08333333       0.00000000 </v>
   <v>       0.16666667       0.08333333      -0.00000000 </v>
   <v>       0.25000000       0.08333333       0.00000000 </v>
   <v>       0.33333333       0.08333333       0.00000000 </v>
   <v>       0.41666667       0.08333333       0.00000000 </v>
   <v>       0.50000000       0.08333333      -0.00000000 </v>
   <v>      -0.41666667       0.08333333      -0.00000000 </v>
   <v>      -0.33333333       0.08333333       0.00000000 </v>
   <v>      -0.25000000       0.08333333       0.00000000 </v>
   <v>      -0.16666667       0.08333333      -0.00000000 </v>
   <v>      -0.08333333       0.08333333      -0.00000000 </v>
   <v>       0.16666667       0.16666667       0.00000000 </v>
   <v>       0.25000000       0.16666667       0.00000000 </v>
   <v>       0.33333333       0.16666667       0.00000000 </v>
   <v>       0.41666667       0.16666667      -0.00000000 </v>
   <v>       0.50000000       0.16666667      -0.00000000 </v>
   <v>      -0.41666667       0.16666667       0.00000000 </v>
   <v>      -0.33333333       0.16666667      -0.00000000 </v>
   <v>      -0.25000000       0.16666667       0.00000000 </v>
   <v>      -0.16666667       0.16666667      -0.00000000 </v>
   <v>       0.25000000       0.25000000       0.00000000 </v>
   <v>       0.33333333       0.25000000       0.00000000 </v>
   <v>       0.41666667       0.25000000       0.00000000 </v>
   <v>       0.50000000       0.25000000       0.00000000 </v>
   <v>      -0.41666667       0.25000000      -0.00000000 </v>
   <v>      -0.33333333       0.25000000      -0.00000000 </v>
   <v>      -0.25000000       0.25000000       0.00000000 </v>
   <v>       0.33333333       0.33333333       0.00000000 </v>
   <v>       0.41666667       0.33333333       0.00000000 </v>
   <v>       0.50000000       0.33333333       0.00000000 </v>
   <v>      -0.41666667       0.33333333      -0.00000000 </v>
   <v>      -0.33333333       0.33333333       0.00000000 </v>
   <v>       0.41666667       0.41666667       0.00000000 </v>
   <v>       0.50000000       0.41666667       0.00000000 </v>
   <v>      -0.41666667       0.41666667       0.00000000 </v>
   <v>       0.50000000       0.50000000       0.00000000 </v>
   <v>       0.08333333       0.00000000       0.08333333 </v>
   <v>       0.16666667      -0.00000000       0.08333333 </v>
   <v>       0.25000000       0.00000000       0.08333333 </v>
   <v>       0.33333333       0.00000000       0.08333333 </v>
   <v>       0.41666667       0.00000000       0.08333333 </v>
   <v>       0.50000000      -0.00000000       0.08333333 </v>
   <v>      -0.41666667      -0.00000000       0.08333333 </v>
   <v>      -0.33333333      -0.00000000       0.08333333 </v>
   <v>      -0.25000000       0.00000000       0.08333333 </v>
   <v>      -0.16666667      -0.00000000       0.08333333 </v>
   <v>      -0.08333333      -0.00000000       0.08333333 </v>
   <v>       0.25000000       0.16666667       0.08333333 </v>
   <v>       0.33333333       0.16666667       0.08333333 </v>
   <v>       0.41666667       0.16666667       0.08333333 </v>
   <v>       0.50000000       0.16666667       0.08333333 </v>
   <v>      -0.41666667       0.16666667       0.08333333 </v>
   <v>       0.16666667       0.25000000       0.08333333 </v>
   <v>       0.33333333       0.25000000       0.08333333 </v>
   <v>       0.41666667       0.25000000       0.08333333 </v>
   <v>       0.50000000       0.25000000       0.08333333 </v>
   <v>      -0.41666667       0.25000000       0.08333333 </v>
   <v>      -0.33333333       0.25000000       0.08333333 </v>
   <v>      -0.25000000       0.25000000       0.08333333 </v>
   <v>      -0.16666667       0.25000000       0.08333333 </v>
   <v>       0.16666667       0.33333333       0.08333333 </v>
   <v>       0.25000000       0.33333333       0.08333333 </v>
   <v>       0.41666667       0.33333333       0.08333333 </v>
   <v>       0.50000000       0.33333333       0.08333333 </v>
   <v>      -0.41666667       0.33333333       0.08333333 </v>
   <v>      -0.33333333       0.33333333       0.08333333 </v>
   <v>      -0.25000000       0.33333333       0.08333333 </v>
   <v>       0.16666667       0.41666667       0.08333333 </v>
   <v>       0.25000000       0.41666667       0.08333333 </v>
   <v>       0.33333333       0.41666667       0.08333333 </v>
   <v>       0.50000000       0.41666667       0.08333333 </v>
   <v>      -0.41666667       0.41666667       0.08333333 </v>
   <v>      -0.33333333       0.41666667       0.08333333 </v>
   <v>       0.16666667       0.50000000       0.08333333 </v>
   <v>       0.25000000       0.50000000       0.08333333 </v>
   <v>       0.33333333       0.50000000       0.08333333 </v>
   <v>       0.41666667       0.50000000       0.08333333 </v>
   <v>      -0.41666667       0.50000000       0.08333333 </v>
   <v>       0.16666667      -0.41666667       0.08333333 </v>
   <v>       0.25000000      -0.41666667       0.08333333 </v>
   <v>       0.33333333      -0.41666667       0.08333333 </v>
   <v>       0.41666667      -0.41666667       0.08333333 </v>
   <v>       0.50000000      -0.41666667       0.08333333 </v>
   <v>       0.16666667      -0.33333333       0.08333333 </v>
   <v>       0.25000000      -0.33333333       0.08333333 </v>
   <v>       0.33333333      -0.33333333       0.08333333 </v>
   <v>       0.41666667      -0.33333333       0.08333333 </v>
   <v>       0.16666667      -0.25000000       0.08333333 </v>
   <v>       0.25000000      -0.25000000       0.08333333 </v>
   <v>       0.33333333      -0.25000000       0.08333333 </v>
   <v>       0.16666667      -0.16666667       0.08333333 </v>
   <v>       0.25000000      -0.16666667       0.08333333 </v>
   <v>       0.16666667      -0.08333333       0.08333333 </v>
   <v>       0.16666667       0.00000000       0.16666667 </v>
   <v>       0.25000000       0.00000000       0.16666667 </v>
   <v>       0.33333333       0.00000000       0.16666667 </v>
   <v>       0.41666667      -0.00000000       0.16666667 </v>
   <v>       0.50000000      -0.00000000       0.16666667 </v>
   <v>      -0.41666667       0.00000000       0.16666667 </v>
   <v>      -0.33333333      -0.00000000       0.16666667 </v>
   <v>      -0.25000000       0.00000000       0.16666667 </v>
   <v>      -0.16666667      -0.00000000       0.16666667 </v>
   <v>       0.50000000       0.33333333       0.16666667 </v>
   <v>      -0.41666667       0.33333333       0.16666667 </v>
   <v>      -0.33333333       0.33333333       0.16666667 </v>
   <v>       0.25000000       0.41666667       0.16666667 </v>
   <v>      -0.41666667       0.41666667       0.16666667 </v>
   <v>      -0.33333333       0.41666667       0.16666667 </v>
   <v>      -0.25000000       0.41666667       0.16666667 </v>
   <v>       0.25000000       0.50000000       0.16666667 </v>
   <v>       0.33333333       0.50000000       0.16666667 </v>
   <v>      -0.33333333       0.50000000       0.16666667 </v>
   <v>       0.25000000      -0.41666667       0.16666667 </v>
   <v>       0.33333333      -0.41666667       0.16666667 </v>
   <v>       0.41666667      -0.41666667       0.16666667 </v>
   <v>       0.25000000      -0.33333333       0.16666667 </v>
   <v>       0.33333333      -0.33333333       0.16666667 </v>
   <v>       0.41666667      -0.33333333       0.16666667 </v>
   <v>       0.50000000      -0.33333333       0.16666667 </v>
   <v>       0.25000000      -0.25000000       0.16666667 </v>
   <v>       0.33333333      -0.25000000       0.16666667 </v>
   <v>       0.41666667      -0.25000000       0.16666667 </v>
   <v>       0.25000000      -0.16666667       0.16666667 </v>
   <v>       0.33333333      -0.16666667       0.16666667 </v>
   <v>       0.25000000      -0.08333333       0.16666667 </v>
   <v>       0.25000000       0.00000000       0.25000000 </v>
   <v>       0.33333333       0.00000000       0.25000000 </v>
   <v>       0.41666667       0.00000000       0.25000000 </v>
   <v>       0.50000000       0.00000000       0.25000000 </v>
   <v>      -0.41666667      -0.00000000       0.25000000 </v>
   <v>      -0.33333333       0.00000000       0.25000000 </v>
   <v>      -0.25000000       0.00000000       0.25000000 </v>
   <v>      -0.25000000       0.50000000       0.25000000 </v>
   <v>       0.33333333      -0.41666667       0.25000000 </v>
   <v>       0.33333333      -0.33333333       0.25000000 </v>
   <v>       0.41666667      -0.33333333       0.25000000 </v>
   <v>       0.33333333      -0.25000000       0.25000000 </v>
   <v>       0.41666667      -0.25000000       0.25000000 </v>
   <v>       0.50000000      -0.25000000       0.25000000 </v>
   <v>       0.33333333      -0.16666667       0.25000000 </v>
   <v>       0.41666667      -0.16666667       0.25000000 </v>
   <v>       0.33333333      -0.08333333       0.25000000 </v>
   <v>       0.33333333       0.00000000       0.33333333 </v>
   <v>       0.41666667       0.00000000       0.33333333 </v>
   <v>       0.50000000       0.00000000       0.33333333 </v>
   <v>      -0.41666667       0.00000000       0.33333333 </v>
   <v>      -0.33333333       0.00000000       0.33333333 </v>
   <v>       0.41666667      -0.25000000       0.33333333 </v>
   <v>       0.41666667      -0.16666667       0.33333333 </v>
   <v>       0.50000000      -0.16666667       0.33333333 </v>
   <v>       0.41666667      -0.08333333       0.33333333 </v>
   <v>       0.41666667       0.00000000       0.41666667 </v>
   <v>       0.50000000       0.00000000       0.41666667 </v>
   <v>      -0.41666667       0.00000000       0.41666667 </v>
   <v>       0.50000000      -0.08333333       0.41666667 </v>
   <v>       0.50000000       0.00000000       0.50000000 </v>
  </varray>
  <varray name="weights" >
   <v>       0.00057870 </v>
   <v>       0.00462963 </v>
   <v>       0.00462963 </v>
   <v>       0.00462963 </v>
   <v>       0.00462963 </v>
   <v>       0.00462963 </v>
   <v>       0.00231481 </v>
   <v>       0.00231481 </v>
   <v>       0.00925926 </v>
   <v>       0.00925926 </v>
   <v>       0.00925926 </v>
   <v>       0.00925926 </v>
   <v>       0.00925926 </v>
   <v>       0.00925926 </v>
   <v>       0.00925926 </v>
   <v>       0.00925926 </v>
   <v>       0.00925926 </v>
   <v>       0.00462963 </v>
   <v>       0.00231481 </v>
   <v>       0.00925926 </v>
   <v>       0.00925926 </v>
   <v>       0.00925926 </v>
   <v>       0.00925926 </v>
   <v>       0.00925926 </v>
   <v>       0.00925926 </v>
   <v>       0.00925926 </v>
   <v>       0.00462963 </v>
   <v>       0.00231481 </v>
   <v>       0.00925926 </v>
   <v>       0.00925926 </v>
   <v>       0.00925926 </v>
   <v>       0.00925926 </v>
   <v>       0.00925926 </v>
   <v>       0.00462963 </v>
   <v>       0.00231481 </v>
   <v>       0.00925926 </v>
   <v>       0.00925926 </v>
   <v>       0.00925926 </v>
   <v>       0.00462963 </v>
   <v>       0.00231481 </v>
   <v>       0.00925926 </v>
   <v>       0.00462963 </v>
   <v>       0.00115741 </v>
   <v>       0.00115741 </v>
   <v>       0.00462963 </v>
   <v>       0.00462963 </v>
   <v>       0.00462963 </v>
   <v>       0.00462963 </v>
   <v>       0.00462963 </v>
   <v>       0.00462963 </v>
   <v>       0.00462963 </v>
   <v>       0.00462963 </v>
   <v>       0.00462963 </v>
   <v>       0.00231481 </v>
   <v>       0.00462963 </v>
   <v>       0.00925926 </v>
   <v>       0.00925926 </v>
   <v>       0.00925926 </v>
   <v>       0.00462963 </v>
   <v>       0.00462963 </v>
   <v>       0.00462963 </v>
   <v>       0.00925926 </v>
   <v>       0.00925926 </v>
   <v>       0.00925926 </v>
   <v>       0.00925926 </v>
   <v>       0.00925926 </v>
   <v>       0.00462963 </v>
   <v>       0.00925926 </v>
   <v>       0.00462963 </v>
   <v>       0.00462963 </v>
   <v>       0.00925926 </v>
   <v>       0.00925926 </v>
   <v>       0.00925926 </v>
   <v>       0.00462963 </v>
   <v>       0.00925926 </v>
   <v>       0.00925926 </v>
   <v>       0.00462963 </v>
   <v>       0.00462963 </v>
   <v>       0.00925926 </v>
   <v>       0.00462963 </v>
   <v>       0.00925926 </v>
   <v>       0.00925926 </v>
   <v>       0.00925926 </v>
   <v>       0.00462963 </v>
   <v>       0.00231481 </v>
   <v>       0.00925926 </v>
   <v>       0.00925926 </v>
   <v>       0.00925926 </v>
   <v>       0.00925926 </v>
   <v>       0.00231481 </v>
   <v>       0.00925926 </v>
   <v>       0.00925926 </v>
   <v>       0.00925926 </v>
   <v>       0.00462963 </v>
   <v>       0.00925926 </v>
   <v>       0.00925926 </v>
   <v>       0.00462963 </v>
   <v>       0.00925926 </v>
   <v>       0.00462963 </v>
   <v>       0.00462963 </v>
   <v>       0.00115741 </v>
   <v>       0.00462963 </v>
   <v>       0.00462963 </v>
   <v>       0.00462963 </v>
   <v>       0.00462963 </v>
   <v>       0.00462963 </v>
   <v>       0.00462963 </v>
   <v>       0.00462963 </v>
   <v>       0.00231481 </v>
   <v>       0.00462963 </v>
   <v>       0.00925926 </v>
   <v>       0.00462963 </v>
   <v>       0.00462963 </v>
   <v>       0.00462963 </v>
   <v>       0.00925926 </v>
   <v>       0.00462963 </v>
   <v>       0.00925926 </v>
   <v>       0.00462963 </v>
   <v>       0.00231481 </v>
   <v>       0.00925926 </v>
   <v>       0.00925926 </v>
   <v>       0.00462963 </v>
   <v>       0.00925926 </v>
   <v>       0.00925926 </v>
   <v>       0.00925926 </v>
   <v>       0.00231481 </v>
   <v>       0.00925926 </v>
   <v>       0.00925926 </v>
   <v>       0.00462963 </v>
   <v>       0.00925926 </v>
   <v>       0.00462963 </v>
   <v>       0.00462963 </v>
   <v>       0.00115741 </v>
   <v>       0.00462963 </v>
   <v>       0.00462963 </v>
   <v>       0.00462963 </v>
   <v>       0.00462963 </v>
   <v>       0.00462963 </v>
   <v>       0.00231481 </v>
   <v>       0.00115741 </v>
   <v>       0.00462963 </v>
   <v>       0.00925926 </v>
   <v>       0.00462963 </v>
   <v>       0.00925926 </v>
   <v>       0.00925926 </v>
   <v>       0.00231481 </v>
   <v>       0.00925926 </v>
   <v>       0.00462963 </v>
   <v>       0.00462963 </v>
   <v>       0.00115741 </v>
   <v>       0.00462963 </v>
   <v>       0.00462963 </v>
   <v>       0.00462963 </v>
   <v>       0.00231481 </v>
   <v>       0.00462963 </v>
   <v>       0.00925926 </v>
   <v>       0.00231481 </v>
   <v>       0.00462963 </v>
   <v>       0.00115741 </v>
   <v>       0.00462963 </v>
   <v>       0.00231481 </v>
   <v>       0.00231481 </v>
   <v>       0.00057870 </v>
  </varray>
 </kpoints>
 <parameters>
  <separator name="general" >
   <i type="string" name="SYSTEM">unknown system</i>
   <i type="logical" name="LCOMPAT"> F  </i>
  </separator>
  <separator name="electronic" >
   <i type="string" name="PREC">accura</i>
   <i name="ENMAX">    520.00000000</i>
   <i name="ENAUG">    605.39200000</i>
   <i name="EDIFF">      0.00000001</i>
   <i type="int" name="IALGO">    38</i>
   <i type="int" name="IWAVPR">    11</i>
   <i type="int" name="NBANDS">    16</i>
   <i name="NELECT">     16.00000000</i>
   <i type="int" name="TURBO">     0</i>
   <i type="int" name="IRESTART">     0</i>
   <i type="int" name="NREBOOT">     0</i>
   <i type="int" name="NMIN">     0</i>
   <i name="EREF">      0.00000000</i>
   <separator name="electronic smearing" >
    <i type="int" name="ISMEAR">     0</i>
    <i name="SIGMA">      0.01000000</i>
    <i name="KSPACING">      0.50000000</i>
    <i type="logical" name="KGAMMA"> T  </i>
   </separator>
   <separator name="electronic projectors" >
    <i type="logical" name="LREAL"> F  </i>
    <v name="ROPT">      0.00000000      0.00000000</v>
    <i type="int" name="LMAXPAW">  -100</i>
    <i type="int" name="LMAXMIX">     2</i>
    <i type="logical" name="NLSPLINE"> F  </i>
   </separator>
   <separator name="electronic startup" >
    <i type="int" name="ISTART">     0</i>
    <i type="int" name="ICHARG">     2</i>
    <i type="int" name="INIWAV">     1</i>
   </separator>
   <separator name="electronic spin" >
    <i type="int" name="ISPIN">     1</i>
    <i type="logical" name="LNONCOLLINEAR"> F  </i>
    <v name="MAGMOM">      1.00000000      1.00000000</v>
    <i name="NUPDOWN">     -1.00000000</i>
    <i type="logical" name="LSORBIT"> F  </i>
    <v name="SAXIS">      0.00000000      0.00000000      1.00000000</v>
    <i type="logical" name="LSPIRAL"> F  </i>
    <v name="QSPIRAL">      0.00000000      0.00000000      0.00000000</v>
    <i type="logical" name="LZEROZ"> F  </i>
   </separator>
   <separator name="electronic exchange-correlation" >
    <i type="logical" name="LASPH"> F  </i>
    <i type="logical" name="LMETAGGA"> F  </i>
   </separator>
   <separator name="electronic convergence" >
    <i type="int" name="NELM">   100</i>
    <i type="int" name="NELMDL">    -5</i>
    <i type="int" name="NELMIN">     2</i>
    <i name="ENINI">    520.00000000</i>
    <separator name="electronic convergence detail" >
     <i type="logical" name="LDIAG"> T  </i>
     <i type="logical" name="LSUBROT"> F  </i>
     <i name="WEIMIN">      0.00100000</i>
     <i name="EBREAK">      0.00000000</i>
     <i name="DEPER">      0.30000000</i>
     <i type="int" name="NRMM">     4</i>
     <i name="TIME">      0.40000000</i>
    </separator>
   </separator>
   <separator name="electronic mixer" >
    <i name="AMIX">      0.40000000</i>
    <i name="BMIX">      1.00000000</i>
    <i name="AMIN">      0.10000000</i>
    <i name="AMIX_MAG">      1.60000000</i>
    <i name="BMIX_MAG">      1.00000000</i>
    <separator name="electronic mixer details" >
     <i type="int" name="IMIX">     4</i>
     <i type="logical" name="MIXFIRST"> F  </i>
     <i type="int" name="MAXMIX">   -45</i>
     <i name="WC">    100.00000000</i>
     <i type="int" name="INIMIX">     1</i>
     <i type="int" name="MIXPRE">     1</i>
     <i type="int" name="MREMOVE">     5</i>
    </separator>
   </separator>
   <separator name="electronic dipolcorrection" >
    <i type="logical" name="LDIPOL"> F  </i>
    <i type="logical" name="LMONO"> F  </i>
    <i type="int" name="IDIPOL">     0</i>
    <i name="EPSILON">      1.00000000</i>
    <v name="DIPOL">   -100.00000000   -100.00000000   -100.00000000</v>
    <i name="EFIELD">      0.00000000</i>
   </separator>
  </separator>
  <separator name="grids" >
   <i type="int" name="NGX">    28</i>
   <i type="int" name="NGY">    28</i>
   <i type="int" name="NGZ">    28</i>
   <i type="int" name="NGXF">    56</i>
   <i type="int" name="NGYF">    56</i>
   <i type="int" name="NGZF">    56</i>
   <i type="logical" name="ADDGRID"> F  </i>
  </separator>
  <separator name="ionic" >
   <i type="int" name="NSW">     1</i>
   <i type="int" name="IBRION">     8</i>
   <i type="int" name="MDALGO">     0</i>
   <i type="int" name="ISIF">     2</i>
   <i name="PSTRESS">      0.00000000</i>
   <i name="EDIFFG">      0.00000010</i>
   <i type="int" name="NFREE">     0</i>
   <i name="POTIM">      0.50000000</i>
   <i name="SMASS">     -3.00000000</i>
   <i name="SCALEE">      1.00000000</i>
  </separator>
  <separator name="ionic md" >
   <i name="TEBEG">      0.00010000</i>
   <i name="TEEND">      0.00010000</i>
   <i type="int" name="NBLOCK">     1</i>
   <i type="int" name="KBLOCK">     1</i>
   <i type="int" name="NPACO">   256</i>
   <i name="APACO">     16.00000000</i>
  </separator>
  <separator name="symmetry" >
   <i type="int" name="ISYM">     2</i>
   <i name="SYMPREC">      0.00000001</i>
  </separator>
  <separator name="dos" >
   <i type="int" name="LORBIT">     0</i>
   <v name="RWIGS">     -1.00000000     -1.00000000</v>
   <i type="int" name="NEDOS">   301</i>
   <i name="EMIN">     10.00000000</i>
   <i name="EMAX">    -10.00000000</i>
   <i name="EFERMI">      0.00000000</i>
  </separator>
  <separator name="writing" >
   <i type="int" name="NWRITE">     2</i>
   <i type="logical" name="LWAVE"> F  </i>
   <i type="logical" name="LDOWNSAMPLE"> F  </i>
   <i type="logical" name="LCHARG"> T  </i>
   <i type="logical" name="LPARD"> F  </i>
   <i type="logical" name="LVTOT"> F  </i>
   <i type="logical" name="LVHAR"> F  </i>
   <i type="logical" name="LELF"> F  </i>
   <i type="logical" name="LOPTICS"> F  </i>
   <v name="STM">      0.00000000      0.00000000      0.00000000      0.00000000      0.00000000      0.00000000      0.00000000</v>
  </separator>
  <separator name="performance" >
   <i type="int" name="NPAR">     8</i>
   <i type="int" name="NSIM">     4</i>
   <i type="int" name="NBLK">    -1</i>
   <i type="logical" name="LPLANE"> T  </i>
   <i type="logical" name="LSCALAPACK"> T  </i>
   <i type="logical" name="LSCAAWARE"> F  </i>
   <i type="logical" name="LSCALU"> F  </i>
   <i type="logical" name="LASYNC"> F  </i>
   <i type="logical" name="LORBITALREAL"> F  </i>
  </separator>
  <separator name="miscellaneous" >
   <i type="int" name="IDIOT">     3</i>
   <i type="int" name="ISPECIAL">     0</i>
   <i type="logical" name="LMUSIC"> F  </i>
   <v name="POMASS">     40.07800000     16.00000000</v>
   <v name="DARWINR">      0.00000000      0.00000000</v>
   <v name="DARWINV">      1.00000000      1.00000000</v>
   <i type="logical" name="LCORR"> T  </i>
  </separator>
  <i type="logical" name="GGA_COMPAT"> T  </i>
  <i type="logical" name="LBERRY"> F  </i>
  <i type="int" name="ICORELEVEL">     0</i>
  <i type="logical" name="LDAU"> F  </i>
  <i type="int" name="I_CONSTRAINED_M">     0</i>
  <separator name="electronic exchange-correlation" >
   <i type="string" name="GGA">--</i>
   <i type="int" name="VOSKOWN">     0</i>
   <i type="logical" name="LHFCALC"> F  </i>
   <i type="string" name="PRECFOCK"></i>
   <i type="logical" name="LSYMGRAD"> F  </i>
   <i type="logical" name="LHFONE"> F  </i>
   <i type="logical" name="LRHFCALC"> F  </i>
   <i type="logical" name="LTHOMAS"> F  </i>
   <i type="logical" name="LMODELHF"> F  </i>
   <i name="ENCUT4O">     -1.00000000</i>
   <i type="int" name="EXXOEP">     0</i>
   <i type="int" name="FOURORBIT">     0</i>
   <i name="AEXX">      0.00000000</i>
   <i name="HFALPHA">      0.00000000</i>
   <i name="MCALPHA">      0.00000000</i>
   <i name="ALDAX">      1.00000000</i>
   <i name="AGGAX">      1.00000000</i>
   <i name="ALDAC">      1.00000000</i>
   <i name="AGGAC">      1.00000000</i>
   <i type="int" name="NKREDX">     1</i>
   <i type="int" name="NKREDY">     1</i>
   <i type="int" name="NKREDZ">     1</i>
   <i type="logical" name="SHIFTRED"> F  </i>
   <i type="logical" name="ODDONLY"> F  </i>
   <i type="logical" name="EVENONLY"> F  </i>
   <i type="int" name="LMAXFOCK">     0</i>
   <i type="int" name="NMAXFOCKAE">     0</i>
   <i type="logical" name="LFOCKAEDFT"> F  </i>
   <i name="HFSCREEN">      0.00000000</i>
   <i name="HFSCREENC">      0.00000000</i>
   <i type="int" name="NBANDSGWLOW">     0</i>
  </separator>
  <separator name="vdW DFT" >
   <i type="logical" name="LUSE_VDW"> F  </i>
   <i name="Zab_VDW">     -0.84910000</i>
   <i name="PARAM1">      0.12340000</i>
   <i name="PARAM2">      1.00000000</i>
   <i name="PARAM3">      0.00000000</i>
  </separator>
  <separator name="model GW" >
   <i type="int" name="MODEL_GW">     0</i>
   <i name="MODEL_EPS0">      8.33131818</i>
   <i name="MODEL_ALPHA">      1.00000000</i>
  </separator>
  <separator name="linear response parameters" >
   <i type="logical" name="LEPSILON"> T  </i>
   <i type="logical" name="LRPA"> F  </i>
   <i type="logical" name="LNABLA"> F  </i>
   <i type="logical" name="LVEL"> F  </i>
   <i type="int" name="KINTER">     0</i>
   <i name="CSHIFT">      0.10000000</i>
   <i name="OMEGAMAX">     -1.00000000</i>
   <i name="DEG_THRESHOLD">      0.00200000</i>
   <i name="RTIME">     -0.10000000</i>
   <i name="WPLASMAI">      0.00000000</i>
   <v name="DFIELD">      0.00000000      0.00000000      0.00000000</v>
   <v name="WPLASMA">      0.00000000      0.00000000      0.00000000      0.00000000      0.00000000      0.00000000      0.00000000      0.00000000      0.00000000</v>
  </separator>
  <separator name="orbital magnetization" >
   <i type="logical" name="NUCIND"> F  </i>
   <v name="MAGPOS">      0.00000000      0.00000000      0.00000000</v>
   <i type="logical" name="LNICSALL"> T  </i>
   <i type="logical" name="ORBITALMAG"> F  </i>
   <i type="logical" name="LMAGBLOCH"> F  </i>
   <i type="logical" name="LCHIMAG"> F  </i>
   <i type="logical" name="LGAUGE"> T  </i>
   <i type="int" name="MAGATOM">     0</i>
   <v name="MAGDIPOL">      0.00000000      0.00000000      0.00000000</v>
   <v name="AVECCONST">      0.00000000      0.00000000      0.00000000</v>
  </separator>
  <separator name="response functions" >
   <i type="logical" name="LADDER"> F  </i>
   <i type="logical" name="LRPAFORCE"> F  </i>
   <i type="logical" name="LFXC"> F  </i>
   <i type="logical" name="LHARTREE"> T  </i>
   <i type="int" name="IBSE">     0</i>
   <v type="int" name="KPOINT">    -1     0     0     0</v>
   <i type="logical" name="LTCTE"> F  </i>
   <i type="logical" name="LTETE"> F  </i>
   <i type="logical" name="LTRIPLET"> F  </i>
   <i type="logical" name="LFXCEPS"> F  </i>
   <i type="logical" name="LFXHEG"> F  </i>
   <i type="int" name="NATURALO">     2</i>
   <i type="logical" name="L2ORDER"> F  </i>
   <i type="logical" name="LMP2LT"> F  </i>
   <i type="logical" name="LUSEW"> F  </i>
   <i name="ENCUTGW">     -2.00000000</i>
   <i name="ENCUTGWSOFT">     -2.00000000</i>
   <i name="ENCUTLF">     -1.00000000</i>
   <i type="int" name="LMAXMP2">    -1</i>
   <i name="SCISSOR">      0.00000000</i>
   <i type="int" name="NOMEGA">     0</i>
   <i type="int" name="NOMEGAR">     0</i>
   <i type="int" name="NBANDSGW">    -1</i>
   <i type="int" name="NBANDSO">    -1</i>
   <i type="int" name="NBANDSV">    -1</i>
   <i type="int" name="NELM">   100</i>
   <i type="int" name="NELMHF">     1</i>
   <i type="int" name="DIM">     3</i>
   <i type="int" name="ANTIRES">     0</i>
   <i name="OMEGAMAX">    -30.00000000</i>
   <i name="OMEGAMIN">    -30.00000000</i>
   <i name="OMEGATL">   -200.00000000</i>
   <i type="int" name="OMEGAGRID">   140</i>
   <i name="CSHIFT">     -0.10000000</i>
   <i type="logical" name="SELFENERGY"> F  </i>
   <i type="logical" name="LSPECTRAL"> F  </i>
   <i type="logical" name="LSPECTRALGW"> F  </i>
   <i type="logical" name="LSINGLES"> F  </i>
   <i type="logical" name="LFERMIGW"> F  </i>
   <i type="logical" name="ODDONLYGW"> F  </i>
   <i type="logical" name="EVENONLYGW"> F  </i>
   <i type="int" name="NKREDLFX">     1</i>
   <i type="int" name="NKREDLFY">     1</i>
   <i type="int" name="NKREDLFZ">     1</i>
   <i type="int" name="MAXMEM">  2800</i>
   <i type="int" name="TELESCOPE">     0</i>
   <i type="int" name="TAUPAR">     1</i>
   <i type="int" name="OMEGAPAR">    -1</i>
   <i name="LAMBDA">      1.00000000</i>
  </separator>
  <separator name="External order field" >
   <i name="OFIELD_KAPPA">      0.00000000</i>
   <v name="OFIELD_K">      0.00000000      0.00000000      0.00000000</v>
   <i name="OFIELD_Q6_NEAR">      0.00000000</i>
   <i name="OFIELD_Q6_FAR">      0.00000000</i>
   <i name="OFIELD_A">      0.00000000</i>
  </separator>
 </parameters>
 <atominfo>
  <atoms>       2 </atoms>
  <types>       2 </types>
  <array name="atoms" >
   <dimension dim="1">ion</dimension>
   <field type="string">element</field>
   <field type="int">atomtype</field>
   <set>
    <rc><c>Ca</c><c>   1</c></rc>
    <rc><c>O </c><c>   2</c></rc>
   </set>
  </array>
  <array name="atomtypes" >
   <dimension dim="1">type</dimension>
   <field type="int">atomspertype</field>
   <field type="string">element</field>
   <field>mass</field>
   <field>valence</field>
   <field type="string">pseudopotential</field>
   <set>
    <rc><c>   1</c><c>Ca</c><c>     40.07800000</c><c>     10.00000000</c><c>  PAW_PBE Ca_sv 06Sep2000               </c></rc>
    <rc><c>   1</c><c>O </c><c>     16.00000000</c><c>      6.00000000</c><c>  PAW_PBE O 08Apr2002                   </c></rc>
   </set>
  </array>
 </atominfo>
 <structure name="initialpos" >
  <crystal>
   <varray name="basis" >
    <v>      -2.40355551       0.00000000       2.40355551 </v>
    <v>       0.00000000       2.40355551       2.40355551 </v>
    <v>      -2.40355551       2.40355551       0.00000000 </v>
   </varray>
   <i name="volume">     27.77106060 </i>
   <varray name="rec_basis" >
    <v>      -0.20802515      -0.20802515       0.20802515 </v>
    <v>       0.20802515       0.20802515       0.20802515 </v>
    <v>      -0.20802515       0.20802515      -0.20802515 </v>
   </varray>
  </crystal>
  <varray name="positions" >
   <v>       0.00000000       0.00000000       0.00000000 </v>
   <v>       0.49999996       0.50000004       0.49999996 </v>
  </varray>
 </structure>
 <calculation>
  <scstep>
   <time name="dav">    0.92    0.93</time>
   <time name="total">    0.95    0.96</time>
   <energy>
    <i name="alphaZ">     86.48331478 </i>
    <i name="ewald">  -1129.77335024 </i>
    <i name="hartreedc">   -282.99750774 </i>
    <i name="XCdc">     70.55877853 </i>
    <i name="pawpsdc">   1092.64798851 </i>
    <i name="pawaedc">  -1084.42711760 </i>
    <i name="eentropy">     -0.00003525 </i>
    <i name="bandstr">    -67.98203707 </i>
    <i name="atom">   1438.44666438 </i>
    <i name="e_fr_energy">    122.95669830 </i>
    <i name="e_wo_entrp">    122.95673355 </i>
    <i name="e_0_energy">    122.95671593 </i>
   </energy>
  </scstep>
  <scstep>
   <time name="dav">    1.02    1.03</time>
   <time name="total">    1.02    1.03</time>
   <energy>
    <i name="e_fr_energy">     -9.58875425 </i>
    <i name="e_wo_entrp">     -9.58875425 </i>
    <i name="e_0_energy">     -9.58875425 </i>
   </energy>
  </scstep>
  <scstep>
   <time name="dav">    1.01    1.01</time>
   <time name="total">    1.01    1.02</time>
   <energy>
    <i name="e_fr_energy">    -14.40602158 </i>
    <i name="e_wo_entrp">    -14.40602158 </i>
    <i name="e_0_energy">    -14.40602158 </i>
   </energy>
  </scstep>
  <scstep>
   <time name="dav">    1.08    1.08</time>
   <time name="total">    1.08    1.08</time>
   <energy>
    <i name="e_fr_energy">    -14.51120524 </i>
    <i name="e_wo_entrp">    -14.51120524 </i>
    <i name="e_0_energy">    -14.51120524 </i>
   </energy>
  </scstep>
  <scstep>
   <time name="dav">    0.98    0.99</time>
   <time name="total">    1.04    1.05</time>
   <energy>
    <i name="e_fr_energy">    -14.51308487 </i>
    <i name="e_wo_entrp">    -14.51308487 </i>
    <i name="e_0_energy">    -14.51308487 </i>
   </energy>
  </scstep>
  <scstep>
   <time name="dav">    0.96    0.98</time>
   <time name="total">    1.02    1.05</time>
   <energy>
    <i name="e_fr_energy">    -12.88068303 </i>
    <i name="e_wo_entrp">    -12.88068303 </i>
    <i name="e_0_energy">    -12.88068303 </i>
   </energy>
  </scstep>
  <scstep>
   <time name="dav">    0.96    0.96</time>
   <time name="total">    1.02    1.03</time>
   <energy>
    <i name="e_fr_energy">    -12.80480512 </i>
    <i name="e_wo_entrp">    -12.80480512 </i>
    <i name="e_0_energy">    -12.80480512 </i>
   </energy>
  </scstep>
  <scstep>
   <time name="dav">    1.02    1.03</time>
   <time name="total">    1.09    1.09</time>
   <energy>
    <i name="e_fr_energy">    -12.80245139 </i>
    <i name="e_wo_entrp">    -12.80245139 </i>
    <i name="e_0_energy">    -12.80245139 </i>
   </energy>
  </scstep>
  <scstep>
   <time name="dav">    0.91    0.91</time>
   <time name="total">    0.97    0.98</time>
   <energy>
    <i name="e_fr_energy">    -12.80062825 </i>
    <i name="e_wo_entrp">    -12.80062825 </i>
    <i name="e_0_energy">    -12.80062825 </i>
   </energy>
  </scstep>
  <scstep>
   <time name="dav">    0.91    0.91</time>
   <time name="total">    0.97    0.97</time>
   <energy>
    <i name="e_fr_energy">    -12.80125944 </i>
    <i name="e_wo_entrp">    -12.80125944 </i>
    <i name="e_0_energy">    -12.80125944 </i>
   </energy>
  </scstep>
  <scstep>
   <time name="dav">    1.07    1.08</time>
   <time name="total">    1.13    1.15</time>
   <energy>
    <i name="e_fr_energy">    -12.80123713 </i>
    <i name="e_wo_entrp">    -12.80123713 </i>
    <i name="e_0_energy">    -12.80123713 </i>
   </energy>
  </scstep>
  <scstep>
   <time name="dav">    0.92    0.93</time>
   <time name="total">    0.98    0.99</time>
   <energy>
    <i name="e_fr_energy">    -12.80123713 </i>
    <i name="e_wo_entrp">    -12.80123713 </i>
    <i name="e_0_energy">    -12.80123713 </i>
   </energy>
  </scstep>
  <scstep>
   <time name="dav">    1.05    1.06</time>
   <time name="total">    1.12    1.12</time>
   <energy>
    <i name="e_fr_energy">    -12.80123730 </i>
    <i name="e_wo_entrp">    -12.80123730 </i>
    <i name="e_0_energy">    -12.80123730 </i>
   </energy>
  </scstep>
  <scstep>
   <time name="dav">    1.19    1.19</time>
   <time name="total">    1.25    1.26</time>
   <energy>
    <i name="e_fr_energy">    -12.80123732 </i>
    <i name="e_wo_entrp">    -12.80123732 </i>
    <i name="e_0_energy">    -12.80123732 </i>
   </energy>
  </scstep>
  <scstep>
   <time name="dav">    0.70    0.72</time>
   <time name="total">    0.76    0.78</time>
   <energy>
    <i name="e_fr_energy">    -12.80123730 </i>
    <i name="e_wo_entrp">    -12.80123730 </i>
    <i name="e_0_energy">    -12.80123730 </i>
   </energy>
  </scstep>
  <scstep>
   <time name="dav">    0.64    0.64</time>
   <time name="total">    0.65    0.66</time>
   <energy>
    <i name="alphaZ">     86.48331478 </i>
    <i name="ewald">  -1129.77335024 </i>
    <i name="hartreedc">   -292.10674743 </i>
    <i name="XCdc">     71.35670226 </i>
    <i name="pawpsdc">   1171.04390422 </i>
    <i name="pawaedc">  -1171.73406289 </i>
    <i name="eentropy">     -0.00000000 </i>
    <i name="bandstr">   -186.51766239 </i>
    <i name="atom">   1438.44666438 </i>
    <i name="e_fr_energy">    -12.80123730 </i>
    <i name="e_wo_entrp">    -12.80123730 </i>
    <i name="e_0_energy">    -12.80123730 </i>
   </energy>
  </scstep>
  <structure>
   <crystal>
    <varray name="basis" >
     <v>      -2.40355551       0.00000000       2.40355551 </v>
     <v>       0.00000000       2.40355551       2.40355551 </v>
     <v>      -2.40355551       2.40355551       0.00000000 </v>
    </varray>
    <i name="volume">     27.77106060 </i>
    <varray name="rec_basis" >
     <v>      -0.20802515      -0.20802515       0.20802515 </v>
     <v>       0.20802515       0.20802515       0.20802515 </v>
     <v>      -0.20802515       0.20802515      -0.20802515 </v>
    </varray>
   </crystal>
   <varray name="positions" >
    <v>       0.00000000       0.00000000       0.00000000 </v>
    <v>       0.49999996       0.50000004       0.49999996 </v>
   </varray>
  </structure>
  <varray name="forces" >
   <v>       0.00000057       0.00000000      -0.00000000 </v>
   <v>      -0.00000057      -0.00000000       0.00000000 </v>
  </varray>
  <varray name="stress" >
   <v>      22.03598484       0.00000000       0.00000000 </v>
   <v>      -0.00000000      22.03598034       0.00000000 </v>
   <v>       0.00000000       0.00000000      22.03598034 </v>
  </varray>
  <energy>
   <i name="e_fr_energy">    -12.80123730 </i>
   <i name="e_wo_entrp">    -12.80123730 </i>
   <i name="e_0_energy">     -0.00000000 </i>
  </energy>
  <scstep>
   <time name="total">    0.89    0.89</time>
   <energy>
    <i name="e_fr_energy">     -0.20998333 </i>
    <i name="e_wo_entrp">     -0.20998333 </i>
    <i name="e_0_energy">     -0.20998333 </i>
   </energy>
  </scstep>
  <scstep>
   <time name="total">    0.80    0.80</time>
   <energy>
    <i name="e_fr_energy">     -0.22128013 </i>
    <i name="e_wo_entrp">     -0.22128013 </i>
    <i name="e_0_energy">     -0.22128013 </i>
   </energy>
  </scstep>
  <scstep>
   <time name="total">    0.82    0.82</time>
   <energy>
    <i name="e_fr_energy">     -0.22338196 </i>
    <i name="e_wo_entrp">     -0.22338196 </i>
    <i name="e_0_energy">     -0.22338196 </i>
   </energy>
  </scstep>
  <scstep>
   <time name="total">    0.82    0.82</time>
   <energy>
    <i name="e_fr_energy">     -0.22383926 </i>
    <i name="e_wo_entrp">     -0.22383926 </i>
    <i name="e_0_energy">     -0.22383926 </i>
   </energy>
  </scstep>
  <scstep>
   <time name="total">    0.79    0.79</time>
   <energy>
    <i name="e_fr_energy">     -0.22389239 </i>
    <i name="e_wo_entrp">     -0.22389239 </i>
    <i name="e_0_energy">     -0.22389239 </i>
   </energy>
  </scstep>
  <scstep>
   <time name="total">    0.79    0.79</time>
   <energy>
    <i name="e_fr_energy">     -0.22390256 </i>
    <i name="e_wo_entrp">     -0.22390256 </i>
    <i name="e_0_energy">     -0.22390256 </i>
   </energy>
  </scstep>
  <scstep>
   <time name="total">    0.80    0.80</time>
   <energy>
    <i name="e_fr_energy">     -0.22390375 </i>
    <i name="e_wo_entrp">     -0.22390375 </i>
    <i name="e_0_energy">     -0.22390375 </i>
   </energy>
  </scstep>
  <scstep>
   <time name="total">    0.79    0.79</time>
   <energy>
    <i name="e_fr_energy">     -0.22390402 </i>
    <i name="e_wo_entrp">     -0.22390402 </i>
    <i name="e_0_energy">     -0.22390402 </i>
   </energy>
  </scstep>
  <scstep>
   <time name="total">    0.80    0.80</time>
   <energy>
    <i name="e_fr_energy">     -0.22390405 </i>
    <i name="e_wo_entrp">     -0.22390405 </i>
    <i name="e_0_energy">     -0.22390405 </i>
   </energy>
  </scstep>
  <scstep>
   <time name="total">    0.78    0.78</time>
   <energy>
    <i name="e_fr_energy">     -0.22390405 </i>
    <i name="e_wo_entrp">     -0.22390405 </i>
    <i name="e_0_energy">     -0.22390405 </i>
   </energy>
  </scstep>
  <scstep>
   <time name="total">    0.92    0.92</time>
   <energy>
    <i name="e_fr_energy">     -0.21953897 </i>
    <i name="e_wo_entrp">     -0.21953897 </i>
    <i name="e_0_energy">     -0.21953897 </i>
   </energy>
  </scstep>
  <scstep>
   <time name="total">    0.85    0.85</time>
   <energy>
    <i name="e_fr_energy">     -0.23240303 </i>
    <i name="e_wo_entrp">     -0.23240303 </i>
    <i name="e_0_energy">     -0.23240303 </i>
   </energy>
  </scstep>
  <scstep>
   <time name="total">    0.85    0.85</time>
   <energy>
    <i name="e_fr_energy">     -0.23436567 </i>
    <i name="e_wo_entrp">     -0.23436567 </i>
    <i name="e_0_energy">     -0.23436567 </i>
   </energy>
  </scstep>
  <scstep>
   <time name="total">    0.84    0.84</time>
   <energy>
    <i name="e_fr_energy">     -0.23483754 </i>
    <i name="e_wo_entrp">     -0.23483754 </i>
    <i name="e_0_energy">     -0.23483754 </i>
   </energy>
  </scstep>
  <scstep>
   <time name="total">    0.84    0.84</time>
   <energy>
    <i name="e_fr_energy">     -0.23489010 </i>
    <i name="e_wo_entrp">     -0.23489010 </i>
    <i name="e_0_energy">     -0.23489010 </i>
   </energy>
  </scstep>
  <scstep>
   <time name="total">    0.83    0.83</time>
   <energy>
    <i name="e_fr_energy">     -0.23490069 </i>
    <i name="e_wo_entrp">     -0.23490069 </i>
    <i name="e_0_energy">     -0.23490069 </i>
   </energy>
  </scstep>
  <scstep>
   <time name="total">    0.83    0.83</time>
   <energy>
    <i name="e_fr_energy">     -0.23490192 </i>
    <i name="e_wo_entrp">     -0.23490192 </i>
    <i name="e_0_energy">     -0.23490192 </i>
   </energy>
  </scstep>
  <scstep>
   <time name="total">    0.83    0.83</time>
   <energy>
    <i name="e_fr_energy">     -0.23490219 </i>
    <i name="e_wo_entrp">     -0.23490219 </i>
    <i name="e_0_energy">     -0.23490219 </i>
   </energy>
  </scstep>
  <scstep>
   <time name="total">    0.83    0.83</time>
   <energy>
    <i name="e_fr_energy">     -0.23490222 </i>
    <i name="e_wo_entrp">     -0.23490222 </i>
    <i name="e_0_energy">     -0.23490222 </i>
   </energy>
  </scstep>
  <scstep>
   <time name="total">    0.82    0.82</time>
   <energy>
    <i name="e_fr_energy">     -0.23490223 </i>
    <i name="e_wo_entrp">     -0.23490223 </i>
    <i name="e_0_energy">     -0.23490223 </i>
   </energy>
  </scstep>
  <scstep>
   <time name="total">    0.88    0.88</time>
   <energy>
    <i name="e_fr_energy">     -0.20042311 </i>
    <i name="e_wo_entrp">     -0.20042311 </i>
    <i name="e_0_energy">     -0.20042311 </i>
   </energy>
  </scstep>
  <scstep>
   <time name="total">    0.80    0.80</time>
   <energy>
    <i name="e_fr_energy">     -0.21027622 </i>
    <i name="e_wo_entrp">     -0.21027622 </i>
    <i name="e_0_energy">     -0.21027622 </i>
   </energy>
  </scstep>
  <scstep>
   <time name="total">    0.82    0.82</time>
   <energy>
    <i name="e_fr_energy">     -0.21239595 </i>
    <i name="e_wo_entrp">     -0.21239595 </i>
    <i name="e_0_energy">     -0.21239595 </i>
   </energy>
  </scstep>
  <scstep>
   <time name="total">    0.82    0.82</time>
   <energy>
    <i name="e_fr_energy">     -0.21285866 </i>
    <i name="e_wo_entrp">     -0.21285866 </i>
    <i name="e_0_energy">     -0.21285866 </i>
   </energy>
  </scstep>
  <scstep>
   <time name="total">    0.79    0.79</time>
   <energy>
    <i name="e_fr_energy">     -0.21291260 </i>
    <i name="e_wo_entrp">     -0.21291260 </i>
    <i name="e_0_energy">     -0.21291260 </i>
   </energy>
  </scstep>
  <scstep>
   <time name="total">    0.79    0.79</time>
   <energy>
    <i name="e_fr_energy">     -0.21292318 </i>
    <i name="e_wo_entrp">     -0.21292318 </i>
    <i name="e_0_energy">     -0.21292318 </i>
   </energy>
  </scstep>
  <scstep>
   <time name="total">    0.79    0.79</time>
   <energy>
    <i name="e_fr_energy">     -0.21292437 </i>
    <i name="e_wo_entrp">     -0.21292437 </i>
    <i name="e_0_energy">     -0.21292437 </i>
   </energy>
  </scstep>
  <scstep>
   <time name="total">    0.79    0.79</time>
   <energy>
    <i name="e_fr_energy">     -0.21292464 </i>
    <i name="e_wo_entrp">     -0.21292464 </i>
    <i name="e_0_energy">     -0.21292464 </i>
   </energy>
  </scstep>
  <scstep>
   <time name="total">    0.79    0.79</time>
   <energy>
    <i name="e_fr_energy">     -0.21292467 </i>
    <i name="e_wo_entrp">     -0.21292467 </i>
    <i name="e_0_energy">     -0.21292467 </i>
   </energy>
  </scstep>
  <scstep>
   <time name="total">    0.77    0.77</time>
   <energy>
    <i name="e_fr_energy">     -0.21292468 </i>
    <i name="e_wo_entrp">     -0.21292468 </i>
    <i name="e_0_energy">     -0.21292468 </i>
   </energy>
  </scstep>
  <varray name="epsilon_rpa" >
   <v>       3.91786544      -0.00000000       0.00000000 </v>
   <v>      -0.00000000       3.91798789      -0.00000000 </v>
   <v>       0.00000000      -0.00000000       3.91798789 </v>
  </varray>
  <kpoints>
   <generation param="Gamma">
    <v type="int" name="divisions">      12       12       12 </v>
    <v name="usershift">      0.00000000       0.00000000       0.00000000 </v>
    <v name="genvec1">      0.08333333       0.00000000       0.00000000 </v>
    <v name="genvec2">      0.00000000       0.08333333      -0.00000000 </v>
    <v name="genvec3">     -0.00000000      -0.00000000       0.08333333 </v>
    <v name="shift">      0.00000000       0.00000000       0.00000000 </v>
   </generation>
   <varray name="kpointlist" >
    <v>       0.00000000       0.00000000       0.00000000 </v>
    <v>       0.08333333       0.00000000       0.00000000 </v>
    <v>       0.16666667       0.00000000       0.00000000 </v>
    <v>       0.25000000      -0.00000000       0.00000000 </v>
    <v>       0.33333333      -0.00000000      -0.00000000 </v>
    <v>       0.41666667      -0.00000000      -0.00000000 </v>
    <v>       0.50000000      -0.00000000       0.00000000 </v>
    <v>       0.08333333       0.08333333       0.00000000 </v>
    <v>       0.16666667       0.08333333      -0.00000000 </v>
    <v>       0.25000000       0.08333333       0.00000000 </v>
    <v>       0.33333333       0.08333333       0.00000000 </v>
    <v>       0.41666667       0.08333333       0.00000000 </v>
    <v>       0.50000000       0.08333333      -0.00000000 </v>
    <v>      -0.41666667       0.08333333      -0.00000000 </v>
    <v>      -0.33333333       0.08333333       0.00000000 </v>
    <v>      -0.25000000       0.08333333       0.00000000 </v>
    <v>      -0.16666667       0.08333333      -0.00000000 </v>
    <v>      -0.08333333       0.08333333      -0.00000000 </v>
    <v>       0.16666667       0.16666667       0.00000000 </v>
    <v>       0.25000000       0.16666667       0.00000000 </v>
    <v>       0.33333333       0.16666667       0.00000000 </v>
    <v>       0.41666667       0.16666667      -0.00000000 </v>
    <v>       0.50000000       0.16666667      -0.00000000 </v>
    <v>      -0.41666667       0.16666667       0.00000000 </v>
    <v>      -0.33333333       0.16666667      -0.00000000 </v>
    <v>      -0.25000000       0.16666667       0.00000000 </v>
    <v>      -0.16666667       0.16666667      -0.00000000 </v>
    <v>       0.25000000       0.25000000       0.00000000 </v>
    <v>       0.33333333       0.25000000       0.00000000 </v>
    <v>       0.41666667       0.25000000       0.00000000 </v>
    <v>       0.50000000       0.25000000       0.00000000 </v>
    <v>      -0.41666667       0.25000000      -0.00000000 </v>
    <v>      -0.33333333       0.25000000      -0.00000000 </v>
    <v>      -0.25000000       0.25000000       0.00000000 </v>
    <v>       0.33333333       0.33333333       0.00000000 </v>
    <v>       0.41666667       0.33333333       0.00000000 </v>
    <v>       0.50000000       0.33333333       0.00000000 </v>
    <v>      -0.41666667       0.33333333      -0.00000000 </v>
    <v>      -0.33333333       0.33333333       0.00000000 </v>
    <v>       0.41666667       0.41666667       0.00000000 </v>
    <v>       0.50000000       0.41666667       0.00000000 </v>
    <v>      -0.41666667       0.41666667       0.00000000 </v>
    <v>       0.50000000       0.50000000       0.00000000 </v>
    <v>       0.08333333       0.00000000       0.08333333 </v>
    <v>       0.16666667      -0.00000000       0.08333333 </v>
    <v>       0.25000000       0.00000000       0.08333333 </v>
    <v>       0.33333333       0.00000000       0.08333333 </v>
    <v>       0.41666667       0.00000000       0.08333333 </v>
    <v>       0.50000000      -0.00000000       0.08333333 </v>
    <v>      -0.41666667      -0.00000000       0.08333333 </v>
    <v>      -0.33333333      -0.00000000       0.08333333 </v>
    <v>      -0.25000000       0.00000000       0.08333333 </v>
    <v>      -0.16666667      -0.00000000       0.08333333 </v>
    <v>      -0.08333333      -0.00000000       0.08333333 </v>
    <v>       0.25000000       0.16666667       0.08333333 </v>
    <v>       0.33333333       0.16666667       0.08333333 </v>
    <v>       0.41666667       0.16666667       0.08333333 </v>
    <v>       0.50000000       0.16666667       0.08333333 </v>
    <v>      -0.41666667       0.16666667       0.08333333 </v>
    <v>       0.16666667       0.25000000       0.08333333 </v>
    <v>       0.33333333       0.25000000       0.08333333 </v>
    <v>       0.41666667       0.25000000       0.08333333 </v>
    <v>       0.50000000       0.25000000       0.08333333 </v>
    <v>      -0.41666667       0.25000000       0.08333333 </v>
    <v>      -0.33333333       0.25000000       0.08333333 </v>
    <v>      -0.25000000       0.25000000       0.08333333 </v>
    <v>      -0.16666667       0.25000000       0.08333333 </v>
    <v>       0.16666667       0.33333333       0.08333333 </v>
    <v>       0.25000000       0.33333333       0.08333333 </v>
    <v>       0.41666667       0.33333333       0.08333333 </v>
    <v>       0.50000000       0.33333333       0.08333333 </v>
    <v>      -0.41666667       0.33333333       0.08333333 </v>
    <v>      -0.33333333       0.33333333       0.08333333 </v>
    <v>      -0.25000000       0.33333333       0.08333333 </v>
    <v>       0.16666667       0.41666667       0.08333333 </v>
    <v>       0.25000000       0.41666667       0.08333333 </v>
    <v>       0.33333333       0.41666667       0.08333333 </v>
    <v>       0.50000000       0.41666667       0.08333333 </v>
    <v>      -0.41666667       0.41666667       0.08333333 </v>
    <v>      -0.33333333       0.41666667       0.08333333 </v>
    <v>       0.16666667       0.50000000       0.08333333 </v>
    <v>       0.25000000       0.50000000       0.08333333 </v>
    <v>       0.33333333       0.50000000       0.08333333 </v>
    <v>       0.41666667       0.50000000       0.08333333 </v>
    <v>      -0.41666667       0.50000000       0.08333333 </v>
    <v>       0.16666667      -0.41666667       0.08333333 </v>
    <v>       0.25000000      -0.41666667       0.08333333 </v>
    <v>       0.33333333      -0.41666667       0.08333333 </v>
    <v>       0.41666667      -0.41666667       0.08333333 </v>
    <v>       0.50000000      -0.41666667       0.08333333 </v>
    <v>       0.16666667      -0.33333333       0.08333333 </v>
    <v>       0.25000000      -0.33333333       0.08333333 </v>
    <v>       0.33333333      -0.33333333       0.08333333 </v>
    <v>       0.41666667      -0.33333333       0.08333333 </v>
    <v>       0.16666667      -0.25000000       0.08333333 </v>
    <v>       0.25000000      -0.25000000       0.08333333 </v>
    <v>       0.33333333      -0.25000000       0.08333333 </v>
    <v>       0.16666667      -0.16666667       0.08333333 </v>
    <v>       0.25000000      -0.16666667       0.08333333 </v>
    <v>       0.16666667      -0.08333333       0.08333333 </v>
    <v>       0.16666667       0.00000000       0.16666667 </v>
    <v>       0.25000000       0.00000000       0.16666667 </v>
    <v>       0.33333333       0.00000000       0.16666667 </v>
    <v>       0.41666667      -0.00000000       0.16666667 </v>
    <v>       0.50000000      -0.00000000       0.16666667 </v>
    <v>      -0.41666667       0.00000000       0.16666667 </v>
    <v>      -0.33333333      -0.00000000       0.16666667 </v>
    <v>      -0.25000000       0.00000000       0.16666667 </v>
    <v>      -0.16666667      -0.00000000       0.16666667 </v>
    <v>       0.50000000       0.33333333       0.16666667 </v>
    <v>      -0.41666667       0.33333333       0.16666667 </v>
    <v>      -0.33333333       0.33333333       0.16666667 </v>
    <v>       0.25000000       0.41666667       0.16666667 </v>
    <v>      -0.41666667       0.41666667       0.16666667 </v>
    <v>      -0.33333333       0.41666667       0.16666667 </v>
    <v>      -0.25000000       0.41666667       0.16666667 </v>
    <v>       0.25000000       0.50000000       0.16666667 </v>
    <v>       0.33333333       0.50000000       0.16666667 </v>
    <v>      -0.33333333       0.50000000       0.16666667 </v>
    <v>       0.25000000      -0.41666667       0.16666667 </v>
    <v>       0.33333333      -0.41666667       0.16666667 </v>
    <v>       0.41666667      -0.41666667       0.16666667 </v>
    <v>       0.25000000      -0.33333333       0.16666667 </v>
    <v>       0.33333333      -0.33333333       0.16666667 </v>
    <v>       0.41666667      -0.33333333       0.16666667 </v>
    <v>       0.50000000      -0.33333333       0.16666667 </v>
    <v>       0.25000000      -0.25000000       0.16666667 </v>
    <v>       0.33333333      -0.25000000       0.16666667 </v>
    <v>       0.41666667      -0.25000000       0.16666667 </v>
    <v>       0.25000000      -0.16666667       0.16666667 </v>
    <v>       0.33333333      -0.16666667       0.16666667 </v>
    <v>       0.25000000      -0.08333333       0.16666667 </v>
    <v>       0.25000000       0.00000000       0.25000000 </v>
    <v>       0.33333333       0.00000000       0.25000000 </v>
    <v>       0.41666667       0.00000000       0.25000000 </v>
    <v>       0.50000000       0.00000000       0.25000000 </v>
    <v>      -0.41666667      -0.00000000       0.25000000 </v>
    <v>      -0.33333333       0.00000000       0.25000000 </v>
    <v>      -0.25000000       0.00000000       0.25000000 </v>
    <v>      -0.25000000       0.50000000       0.25000000 </v>
    <v>       0.33333333      -0.41666667       0.25000000 </v>
    <v>       0.33333333      -0.33333333       0.25000000 </v>
    <v>       0.41666667      -0.33333333       0.25000000 </v>
    <v>       0.33333333      -0.25000000       0.25000000 </v>
    <v>       0.41666667      -0.25000000       0.25000000 </v>
    <v>       0.50000000      -0.25000000       0.25000000 </v>
    <v>       0.33333333      -0.16666667       0.25000000 </v>
    <v>       0.41666667      -0.16666667       0.25000000 </v>
    <v>       0.33333333      -0.08333333       0.25000000 </v>
    <v>       0.33333333       0.00000000       0.33333333 </v>
    <v>       0.41666667       0.00000000       0.33333333 </v>
    <v>       0.50000000       0.00000000       0.33333333 </v>
    <v>      -0.41666667       0.00000000       0.33333333 </v>
    <v>      -0.33333333       0.00000000       0.33333333 </v>
    <v>       0.41666667      -0.25000000       0.33333333 </v>
    <v>       0.41666667      -0.16666667       0.33333333 </v>
    <v>       0.50000000      -0.16666667       0.33333333 </v>
    <v>       0.41666667      -0.08333333       0.33333333 </v>
    <v>       0.41666667       0.00000000       0.41666667 </v>
    <v>       0.50000000       0.00000000       0.41666667 </v>
    <v>      -0.41666667       0.00000000       0.41666667 </v>
    <v>       0.50000000      -0.08333333       0.41666667 </v>
    <v>       0.50000000       0.00000000       0.50000000 </v>
   </varray>
   <varray name="weights" >
    <v>       0.00057870 </v>
    <v>       0.00462963 </v>
    <v>       0.00462963 </v>
    <v>       0.00462963 </v>
    <v>       0.00462963 </v>
    <v>       0.00462963 </v>
    <v>       0.00231481 </v>
    <v>       0.00231481 </v>
    <v>       0.00925926 </v>
    <v>       0.00925926 </v>
    <v>       0.00925926 </v>
    <v>       0.00925926 </v>
    <v>       0.00925926 </v>
    <v>       0.00925926 </v>
    <v>       0.00925926 </v>
    <v>       0.00925926 </v>
    <v>       0.00925926 </v>
    <v>       0.00462963 </v>
    <v>       0.00231481 </v>
    <v>       0.00925926 </v>
    <v>       0.00925926 </v>
    <v>       0.00925926 </v>
    <v>       0.00925926 </v>
    <v>       0.00925926 </v>
    <v>       0.00925926 </v>
    <v>       0.00925926 </v>
    <v>       0.00462963 </v>
    <v>       0.00231481 </v>
    <v>       0.00925926 </v>
    <v>       0.00925926 </v>
    <v>       0.00925926 </v>
    <v>       0.00925926 </v>
    <v>       0.00925926 </v>
    <v>       0.00462963 </v>
    <v>       0.00231481 </v>
    <v>       0.00925926 </v>
    <v>       0.00925926 </v>
    <v>       0.00925926 </v>
    <v>       0.00462963 </v>
    <v>       0.00231481 </v>
    <v>       0.00925926 </v>
    <v>       0.00462963 </v>
    <v>       0.00115741 </v>
    <v>       0.00115741 </v>
    <v>       0.00462963 </v>
    <v>       0.00462963 </v>
    <v>       0.00462963 </v>
    <v>       0.00462963 </v>
    <v>       0.00462963 </v>
    <v>       0.00462963 </v>
    <v>       0.00462963 </v>
    <v>       0.00462963 </v>
    <v>       0.00462963 </v>
    <v>       0.00231481 </v>
    <v>       0.00462963 </v>
    <v>       0.00925926 </v>
    <v>       0.00925926 </v>
    <v>       0.00925926 </v>
    <v>       0.00462963 </v>
    <v>       0.00462963 </v>
    <v>       0.00462963 </v>
    <v>       0.00925926 </v>
    <v>       0.00925926 </v>
    <v>       0.00925926 </v>
    <v>       0.00925926 </v>
    <v>       0.00925926 </v>
    <v>       0.00462963 </v>
    <v>       0.00925926 </v>
    <v>       0.00462963 </v>
    <v>       0.00462963 </v>
    <v>       0.00925926 </v>
    <v>       0.00925926 </v>
    <v>       0.00925926 </v>
    <v>       0.00462963 </v>
    <v>       0.00925926 </v>
    <v>       0.00925926 </v>
    <v>       0.00462963 </v>
    <v>       0.00462963 </v>
    <v>       0.00925926 </v>
    <v>       0.00462963 </v>
    <v>       0.00925926 </v>
    <v>       0.00925926 </v>
    <v>       0.00925926 </v>
    <v>       0.00462963 </v>
    <v>       0.00231481 </v>
    <v>       0.00925926 </v>
    <v>       0.00925926 </v>
    <v>       0.00925926 </v>
    <v>       0.00925926 </v>
    <v>       0.00231481 </v>
    <v>       0.00925926 </v>
    <v>       0.00925926 </v>
    <v>       0.00925926 </v>
    <v>       0.00462963 </v>
    <v>       0.00925926 </v>
    <v>       0.00925926 </v>
    <v>       0.00462963 </v>
    <v>       0.00925926 </v>
    <v>       0.00462963 </v>
    <v>       0.00462963 </v>
    <v>       0.00115741 </v>
    <v>       0.00462963 </v>
    <v>       0.00462963 </v>
    <v>       0.00462963 </v>
    <v>       0.00462963 </v>
    <v>       0.00462963 </v>
    <v>       0.00462963 </v>
    <v>       0.00462963 </v>
    <v>       0.00231481 </v>
    <v>       0.00462963 </v>
    <v>       0.00925926 </v>
    <v>       0.00462963 </v>
    <v>       0.00462963 </v>
    <v>       0.00462963 </v>
    <v>       0.00925926 </v>
    <v>       0.00462963 </v>
    <v>       0.00925926 </v>
    <v>       0.00462963 </v>
    <v>       0.00231481 </v>
    <v>       0.00925926 </v>
    <v>       0.00925926 </v>
    <v>       0.00462963 </v>
    <v>       0.00925926 </v>
    <v>       0.00925926 </v>
    <v>       0.00925926 </v>
    <v>       0.00231481 </v>
    <v>       0.00925926 </v>
    <v>       0.00925926 </v>
    <v>       0.00462963 </v>
    <v>       0.00925926 </v>
    <v>       0.00462963 </v>
    <v>       0.00462963 </v>
    <v>       0.00115741 </v>
    <v>       0.00462963 </v>
    <v>       0.00462963 </v>
    <v>       0.00462963 </v>
    <v>       0.00462963 </v>
    <v>       0.00462963 </v>
    <v>       0.00231481 </v>
    <v>       0.00115741 </v>
    <v>       0.00462963 </v>
    <v>       0.00925926 </v>
    <v>       0.00462963 </v>
    <v>       0.00925926 </v>
    <v>       0.00925926 </v>
    <v>       0.00231481 </v>
    <v>       0.00925926 </v>
    <v>       0.00462963 </v>
    <v>       0.00462963 </v>
    <v>       0.00115741 </v>
    <v>       0.00462963 </v>
    <v>       0.00462963 </v>
    <v>       0.00462963 </v>
    <v>       0.00231481 </v>
    <v>       0.00462963 </v>
    <v>       0.00925926 </v>
    <v>       0.00231481 </v>
    <v>       0.00462963 </v>
    <v>       0.00115741 </v>
    <v>       0.00462963 </v>
    <v>       0.00231481 </v>
    <v>       0.00231481 </v>
    <v>       0.00057870 </v>
   </varray>
  </kpoints>
  <scstep>
   <time name="total">    0.89    0.90</time>
   <energy>
    <i name="e_fr_energy">     -0.20998333 </i>
    <i name="e_wo_entrp">     -0.20998333 </i>
    <i name="e_0_energy">     -0.20998333 </i>
   </energy>
  </scstep>
  <scstep>
   <time name="total">    0.90    0.90</time>
   <energy>
    <i name="e_fr_energy">     -0.22128013 </i>
    <i name="e_wo_entrp">     -0.22128013 </i>
    <i name="e_0_energy">     -0.22128013 </i>
   </energy>
  </scstep>
  <scstep>
   <time name="total">    1.10    1.10</time>
   <energy>
    <i name="e_fr_energy">     -0.21764212 </i>
    <i name="e_wo_entrp">     -0.21764212 </i>
    <i name="e_0_energy">     -0.21764212 </i>
   </energy>
  </scstep>
  <scstep>
   <time name="total">    1.26    1.26</time>
   <energy>
    <i name="e_fr_energy">     -0.22728875 </i>
    <i name="e_wo_entrp">     -0.22728875 </i>
    <i name="e_0_energy">     -0.22728875 </i>
   </energy>
  </scstep>
  <scstep>
   <time name="total">    1.24    1.24</time>
   <energy>
    <i name="e_fr_energy">     -0.23348819 </i>
    <i name="e_wo_entrp">     -0.23348819 </i>
    <i name="e_0_energy">     -0.23348819 </i>
   </energy>
  </scstep>
  <scstep>
   <time name="total">    1.30    1.30</time>
   <energy>
    <i name="e_fr_energy">     -0.23430504 </i>
    <i name="e_wo_entrp">     -0.23430504 </i>
    <i name="e_0_energy">     -0.23430504 </i>
   </energy>
  </scstep>
  <scstep>
   <time name="total">    1.33    1.33</time>
   <energy>
    <i name="e_fr_energy">     -0.23447010 </i>
    <i name="e_wo_entrp">     -0.23447010 </i>
    <i name="e_0_energy">     -0.23447010 </i>
   </energy>
  </scstep>
  <scstep>
   <time name="total">    1.31    1.31</time>
   <energy>
    <i name="e_fr_energy">     -0.23455121 </i>
    <i name="e_wo_entrp">     -0.23455121 </i>
    <i name="e_0_energy">     -0.23455121 </i>
   </energy>
  </scstep>
  <scstep>
   <time name="total">    1.32    1.32</time>
   <energy>
    <i name="e_fr_energy">     -0.23452323 </i>
    <i name="e_wo_entrp">     -0.23452323 </i>
    <i name="e_0_energy">     -0.23452323 </i>
   </energy>
  </scstep>
  <scstep>
   <time name="total">    1.32    1.33</time>
   <energy>
    <i name="e_fr_energy">     -0.23452382 </i>
    <i name="e_wo_entrp">     -0.23452382 </i>
    <i name="e_0_energy">     -0.23452382 </i>
   </energy>
  </scstep>
  <scstep>
   <time name="total">    1.33    1.33</time>
   <energy>
    <i name="e_fr_energy">     -0.23452463 </i>
    <i name="e_wo_entrp">     -0.23452463 </i>
    <i name="e_0_energy">     -0.23452463 </i>
   </energy>
  </scstep>
  <scstep>
   <time name="total">    1.31    1.31</time>
   <energy>
    <i name="e_fr_energy">     -0.23452379 </i>
    <i name="e_wo_entrp">     -0.23452379 </i>
    <i name="e_0_energy">     -0.23452379 </i>
   </energy>
  </scstep>
  <scstep>
   <time name="total">    1.27    1.27</time>
   <energy>
    <i name="e_fr_energy">     -0.23452423 </i>
    <i name="e_wo_entrp">     -0.23452423 </i>
    <i name="e_0_energy">     -0.23452423 </i>
   </energy>
  </scstep>
  <scstep>
   <time name="total">    1.20    1.20</time>
   <energy>
    <i name="e_fr_energy">     -0.23452430 </i>
    <i name="e_wo_entrp">     -0.23452430 </i>
    <i name="e_0_energy">     -0.23452430 </i>
   </energy>
  </scstep>
  <kpoints>
   <generation param="Gamma">
    <v type="int" name="divisions">      12       12       12 </v>
    <v name="usershift">      0.00000000       0.00000000       0.00000000 </v>
    <v name="genvec1">      0.08333333       0.00000000       0.00000000 </v>
    <v name="genvec2">      0.00000000       0.08333333      -0.00000000 </v>
    <v name="genvec3">     -0.00000000      -0.00000000       0.08333333 </v>
    <v name="shift">      0.00000000       0.00000000       0.00000000 </v>
   </generation>
   <varray name="kpointlist" >
    <v>       0.00000000       0.00000000       0.00000000 </v>
    <v>       0.08333333       0.00000000       0.00000000 </v>
    <v>       0.16666667       0.00000000       0.00000000 </v>
    <v>       0.25000000      -0.00000000       0.00000000 </v>
    <v>       0.33333333      -0.00000000      -0.00000000 </v>
    <v>       0.41666667      -0.00000000      -0.00000000 </v>
    <v>       0.50000000      -0.00000000       0.00000000 </v>
    <v>       0.08333333       0.08333333       0.00000000 </v>
    <v>       0.16666667       0.08333333      -0.00000000 </v>
    <v>       0.25000000       0.08333333       0.00000000 </v>
    <v>       0.33333333       0.08333333       0.00000000 </v>
    <v>       0.41666667       0.08333333       0.00000000 </v>
    <v>       0.50000000       0.08333333      -0.00000000 </v>
    <v>      -0.41666667       0.08333333      -0.00000000 </v>
    <v>      -0.33333333       0.08333333       0.00000000 </v>
    <v>      -0.25000000       0.08333333       0.00000000 </v>
    <v>      -0.16666667       0.08333333      -0.00000000 </v>
    <v>      -0.08333333       0.08333333      -0.00000000 </v>
    <v>       0.16666667       0.16666667       0.00000000 </v>
    <v>       0.25000000       0.16666667       0.00000000 </v>
    <v>       0.33333333       0.16666667       0.00000000 </v>
    <v>       0.41666667       0.16666667      -0.00000000 </v>
    <v>       0.50000000       0.16666667      -0.00000000 </v>
    <v>      -0.41666667       0.16666667       0.00000000 </v>
    <v>      -0.33333333       0.16666667      -0.00000000 </v>
    <v>      -0.25000000       0.16666667       0.00000000 </v>
    <v>      -0.16666667       0.16666667      -0.00000000 </v>
    <v>       0.25000000       0.25000000       0.00000000 </v>
    <v>       0.33333333       0.25000000       0.00000000 </v>
    <v>       0.41666667       0.25000000       0.00000000 </v>
    <v>       0.50000000       0.25000000       0.00000000 </v>
    <v>      -0.41666667       0.25000000      -0.00000000 </v>
    <v>      -0.33333333       0.25000000      -0.00000000 </v>
    <v>      -0.25000000       0.25000000       0.00000000 </v>
    <v>       0.33333333       0.33333333       0.00000000 </v>
    <v>       0.41666667       0.33333333       0.00000000 </v>
    <v>       0.50000000       0.33333333       0.00000000 </v>
    <v>      -0.41666667       0.33333333      -0.00000000 </v>
    <v>      -0.33333333       0.33333333       0.00000000 </v>
    <v>       0.41666667       0.41666667       0.00000000 </v>
    <v>       0.50000000       0.41666667       0.00000000 </v>
    <v>      -0.41666667       0.41666667       0.00000000 </v>
    <v>       0.50000000       0.50000000       0.00000000 </v>
    <v>      -0.00000000      -0.00000000       0.08333333 </v>
    <v>       0.08333333       0.00000000       0.08333333 </v>
    <v>       0.16666667      -0.00000000       0.08333333 </v>
    <v>       0.25000000       0.00000000       0.08333333 </v>
    <v>       0.33333333       0.00000000       0.08333333 </v>
    <v>       0.41666667       0.00000000       0.08333333 </v>
    <v>       0.50000000      -0.00000000       0.08333333 </v>
    <v>      -0.41666667      -0.00000000       0.08333333 </v>
    <v>      -0.33333333      -0.00000000       0.08333333 </v>
    <v>      -0.25000000       0.00000000       0.08333333 </v>
    <v>      -0.16666667      -0.00000000       0.08333333 </v>
    <v>      -0.08333333      -0.00000000       0.08333333 </v>
    <v>       0.00000000       0.08333333       0.08333333 </v>
    <v>       0.16666667       0.08333333       0.08333333 </v>
    <v>       0.25000000       0.08333333       0.08333333 </v>
    <v>       0.33333333       0.08333333       0.08333333 </v>
    <v>       0.41666667       0.08333333       0.08333333 </v>
    <v>       0.50000000       0.08333333       0.08333333 </v>
    <v>      -0.41666667       0.08333333       0.08333333 </v>
    <v>      -0.33333333       0.08333333       0.08333333 </v>
    <v>      -0.25000000       0.08333333       0.08333333 </v>
    <v>      -0.16666667       0.08333333       0.08333333 </v>
    <v>      -0.08333333       0.08333333       0.08333333 </v>
    <v>       0.16666667       0.16666667       0.08333333 </v>
    <v>       0.25000000       0.16666667       0.08333333 </v>
    <v>       0.33333333       0.16666667       0.08333333 </v>
    <v>       0.41666667       0.16666667       0.08333333 </v>
    <v>       0.50000000       0.16666667       0.08333333 </v>
    <v>      -0.41666667       0.16666667       0.08333333 </v>
    <v>      -0.33333333       0.16666667       0.08333333 </v>
    <v>      -0.25000000       0.16666667       0.08333333 </v>
    <v>      -0.16666667       0.16666667       0.08333333 </v>
    <v>      -0.08333333       0.16666667       0.08333333 </v>
    <v>       0.16666667       0.25000000       0.08333333 </v>
    <v>       0.25000000       0.25000000       0.08333333 </v>
    <v>       0.33333333       0.25000000       0.08333333 </v>
    <v>       0.41666667       0.25000000       0.08333333 </v>
    <v>       0.50000000       0.25000000       0.08333333 </v>
    <v>      -0.41666667       0.25000000       0.08333333 </v>
    <v>      -0.33333333       0.25000000       0.08333333 </v>
    <v>      -0.25000000       0.25000000       0.08333333 </v>
    <v>      -0.16666667       0.25000000       0.08333333 </v>
    <v>       0.16666667       0.33333333       0.08333333 </v>
    <v>       0.25000000       0.33333333       0.08333333 </v>
    <v>       0.33333333       0.33333333       0.08333333 </v>
    <v>       0.41666667       0.33333333       0.08333333 </v>
    <v>       0.50000000       0.33333333       0.08333333 </v>
    <v>      -0.41666667       0.33333333       0.08333333 </v>
    <v>      -0.33333333       0.33333333       0.08333333 </v>
    <v>      -0.25000000       0.33333333       0.08333333 </v>
    <v>       0.16666667       0.41666667       0.08333333 </v>
    <v>       0.25000000       0.41666667       0.08333333 </v>
    <v>       0.33333333       0.41666667       0.08333333 </v>
    <v>       0.41666667       0.41666667       0.08333333 </v>
    <v>       0.50000000       0.41666667       0.08333333 </v>
    <v>      -0.41666667       0.41666667       0.08333333 </v>
    <v>      -0.33333333       0.41666667       0.08333333 </v>
    <v>       0.16666667       0.50000000       0.08333333 </v>
    <v>       0.25000000       0.50000000       0.08333333 </v>
    <v>       0.33333333       0.50000000       0.08333333 </v>
    <v>       0.41666667       0.50000000       0.08333333 </v>
    <v>       0.50000000       0.50000000       0.08333333 </v>
    <v>      -0.41666667       0.50000000       0.08333333 </v>
    <v>       0.16666667      -0.41666667       0.08333333 </v>
    <v>       0.25000000      -0.41666667       0.08333333 </v>
    <v>       0.33333333      -0.41666667       0.08333333 </v>
    <v>       0.41666667      -0.41666667       0.08333333 </v>
    <v>       0.50000000      -0.41666667       0.08333333 </v>
    <v>       0.16666667      -0.33333333       0.08333333 </v>
    <v>       0.25000000      -0.33333333       0.08333333 </v>
    <v>       0.33333333      -0.33333333       0.08333333 </v>
    <v>       0.41666667      -0.33333333       0.08333333 </v>
    <v>       0.16666667      -0.25000000       0.08333333 </v>
    <v>       0.25000000      -0.25000000       0.08333333 </v>
    <v>       0.33333333      -0.25000000       0.08333333 </v>
    <v>       0.16666667      -0.16666667       0.08333333 </v>
    <v>       0.25000000      -0.16666667       0.08333333 </v>
    <v>       0.16666667      -0.08333333       0.08333333 </v>
    <v>      -0.00000000      -0.00000000       0.16666667 </v>
    <v>       0.08333333       0.00000000       0.16666667 </v>
    <v>       0.16666667       0.00000000       0.16666667 </v>
    <v>       0.25000000       0.00000000       0.16666667 </v>
    <v>       0.33333333       0.00000000       0.16666667 </v>
    <v>       0.41666667      -0.00000000       0.16666667 </v>
    <v>       0.50000000      -0.00000000       0.16666667 </v>
    <v>      -0.41666667       0.00000000       0.16666667 </v>
    <v>      -0.33333333      -0.00000000       0.16666667 </v>
    <v>      -0.25000000       0.00000000       0.16666667 </v>
    <v>      -0.16666667      -0.00000000       0.16666667 </v>
    <v>      -0.08333333      -0.00000000       0.16666667 </v>
    <v>       0.00000000       0.08333333       0.16666667 </v>
    <v>       0.08333333       0.08333333       0.16666667 </v>
    <v>       0.25000000       0.08333333       0.16666667 </v>
    <v>       0.33333333       0.08333333       0.16666667 </v>
    <v>       0.41666667       0.08333333       0.16666667 </v>
    <v>       0.50000000       0.08333333       0.16666667 </v>
    <v>      -0.41666667       0.08333333       0.16666667 </v>
    <v>      -0.33333333       0.08333333       0.16666667 </v>
    <v>      -0.25000000       0.08333333       0.16666667 </v>
    <v>      -0.16666667       0.08333333       0.16666667 </v>
    <v>      -0.08333333       0.08333333       0.16666667 </v>
    <v>       0.00000000       0.16666667       0.16666667 </v>
    <v>       0.25000000       0.16666667       0.16666667 </v>
    <v>       0.33333333       0.16666667       0.16666667 </v>
    <v>       0.41666667       0.16666667       0.16666667 </v>
    <v>       0.50000000       0.16666667       0.16666667 </v>
    <v>      -0.41666667       0.16666667       0.16666667 </v>
    <v>      -0.33333333       0.16666667       0.16666667 </v>
    <v>      -0.25000000       0.16666667       0.16666667 </v>
    <v>      -0.16666667       0.16666667       0.16666667 </v>
    <v>      -0.08333333       0.16666667       0.16666667 </v>
    <v>       0.25000000       0.25000000       0.16666667 </v>
    <v>       0.33333333       0.25000000       0.16666667 </v>
    <v>       0.41666667       0.25000000       0.16666667 </v>
    <v>       0.50000000       0.25000000       0.16666667 </v>
    <v>      -0.41666667       0.25000000       0.16666667 </v>
    <v>      -0.33333333       0.25000000       0.16666667 </v>
    <v>      -0.25000000       0.25000000       0.16666667 </v>
    <v>      -0.16666667       0.25000000       0.16666667 </v>
    <v>      -0.08333333       0.25000000       0.16666667 </v>
    <v>       0.25000000       0.33333333       0.16666667 </v>
    <v>       0.33333333       0.33333333       0.16666667 </v>
    <v>       0.41666667       0.33333333       0.16666667 </v>
    <v>       0.50000000       0.33333333       0.16666667 </v>
    <v>      -0.41666667       0.33333333       0.16666667 </v>
    <v>      -0.33333333       0.33333333       0.16666667 </v>
    <v>      -0.25000000       0.33333333       0.16666667 </v>
    <v>      -0.16666667       0.33333333       0.16666667 </v>
    <v>       0.25000000       0.41666667       0.16666667 </v>
    <v>       0.33333333       0.41666667       0.16666667 </v>
    <v>       0.41666667       0.41666667       0.16666667 </v>
    <v>       0.50000000       0.41666667       0.16666667 </v>
    <v>      -0.41666667       0.41666667       0.16666667 </v>
    <v>      -0.33333333       0.41666667       0.16666667 </v>
    <v>      -0.25000000       0.41666667       0.16666667 </v>
    <v>       0.25000000       0.50000000       0.16666667 </v>
    <v>       0.33333333       0.50000000       0.16666667 </v>
    <v>       0.41666667       0.50000000       0.16666667 </v>
    <v>       0.50000000       0.50000000       0.16666667 </v>
    <v>      -0.41666667       0.50000000       0.16666667 </v>
    <v>      -0.33333333       0.50000000       0.16666667 </v>
    <v>       0.25000000      -0.41666667       0.16666667 </v>
    <v>       0.33333333      -0.41666667       0.16666667 </v>
    <v>       0.41666667      -0.41666667       0.16666667 </v>
    <v>       0.50000000      -0.41666667       0.16666667 </v>
    <v>      -0.41666667      -0.41666667       0.16666667 </v>
    <v>       0.25000000      -0.33333333       0.16666667 </v>
    <v>       0.33333333      -0.33333333       0.16666667 </v>
    <v>       0.41666667      -0.33333333       0.16666667 </v>
    <v>       0.50000000      -0.33333333       0.16666667 </v>
    <v>       0.25000000      -0.25000000       0.16666667 </v>
    <v>       0.33333333      -0.25000000       0.16666667 </v>
    <v>       0.41666667      -0.25000000       0.16666667 </v>
    <v>       0.25000000      -0.16666667       0.16666667 </v>
    <v>       0.33333333      -0.16666667       0.16666667 </v>
    <v>       0.25000000      -0.08333333       0.16666667 </v>
    <v>       0.00000000       0.00000000       0.25000000 </v>
    <v>       0.08333333      -0.00000000       0.25000000 </v>
    <v>       0.16666667       0.00000000       0.25000000 </v>
    <v>       0.25000000       0.00000000       0.25000000 </v>
    <v>       0.33333333       0.00000000       0.25000000 </v>
    <v>       0.41666667       0.00000000       0.25000000 </v>
    <v>       0.50000000       0.00000000       0.25000000 </v>
    <v>      -0.41666667      -0.00000000       0.25000000 </v>
    <v>      -0.33333333       0.00000000       0.25000000 </v>
    <v>      -0.25000000       0.00000000       0.25000000 </v>
    <v>      -0.16666667       0.00000000       0.25000000 </v>
    <v>      -0.08333333       0.00000000       0.25000000 </v>
    <v>       0.00000000       0.08333333       0.25000000 </v>
    <v>       0.08333333       0.08333333       0.25000000 </v>
    <v>       0.16666667       0.08333333       0.25000000 </v>
    <v>       0.33333333       0.08333333       0.25000000 </v>
    <v>       0.41666667       0.08333333       0.25000000 </v>
    <v>       0.50000000       0.08333333       0.25000000 </v>
    <v>      -0.41666667       0.08333333       0.25000000 </v>
    <v>      -0.33333333       0.08333333       0.25000000 </v>
    <v>      -0.25000000       0.08333333       0.25000000 </v>
    <v>      -0.16666667       0.08333333       0.25000000 </v>
    <v>      -0.08333333       0.08333333       0.25000000 </v>
    <v>       0.00000000       0.16666667       0.25000000 </v>
    <v>       0.08333333       0.16666667       0.25000000 </v>
    <v>       0.33333333       0.16666667       0.25000000 </v>
    <v>       0.41666667       0.16666667       0.25000000 </v>
    <v>       0.50000000       0.16666667       0.25000000 </v>
[...]
       <r>   11.8817    0.0000 </r>
       <r>   12.0438    0.0000 </r>
       <r>   15.2648    0.0000 </r>
       <r>   15.9934    0.0000 </r>
       <r>   17.8312    0.0000 </r>
      </set>
      <set comment="kpoint 158">
       <r>  -35.1659    1.0000 </r>
       <r>  -16.6707    1.0000 </r>
       <r>  -16.2932    1.0000 </r>
       <r>  -16.2926    1.0000 </r>
       <r>  -12.7674    1.0000 </r>
       <r>    0.8972    1.0000 </r>
       <r>    1.7364    1.0000 </r>
       <r>    1.8327    1.0000 </r>
       <r>    6.4943    0.0000 </r>
       <r>   10.3652    0.0000 </r>
       <r>   11.2090    0.0000 </r>
       <r>   11.4488    0.0000 </r>
       <r>   11.7021    0.0000 </r>
       <r>   13.7125    0.0000 </r>
       <r>   16.6340    0.0000 </r>
       <r>   19.2164    0.0000 </r>
      </set>
      <set comment="kpoint 159">
       <r>  -35.1668    1.0000 </r>
       <r>  -16.6666    1.0000 </r>
       <r>  -16.2677    1.0000 </r>
       <r>  -16.2677    1.0000 </r>
       <r>  -12.8636    1.0000 </r>
       <r>    0.8989    1.0000 </r>
       <r>    1.9728    1.0000 </r>
       <r>    1.9728    1.0000 </r>
       <r>    6.1095    0.0000 </r>
       <r>   10.2326    0.0000 </r>
       <r>   11.1507    0.0000 </r>
       <r>   11.7145    0.0000 </r>
       <r>   11.7145    0.0000 </r>
       <r>   13.2832    0.0000 </r>
       <r>   16.6615    0.0000 </r>
       <r>   20.3868    0.0000 </r>
      </set>
      <set comment="kpoint 160">
       <r>  -35.1600    1.0000 </r>
       <r>  -16.6516    1.0000 </r>
       <r>  -16.3233    1.0000 </r>
       <r>  -16.2715    1.0000 </r>
       <r>  -12.8709    1.0000 </r>
       <r>    1.0113    1.0000 </r>
       <r>    1.8237    1.0000 </r>
       <r>    1.9135    1.0000 </r>
       <r>    6.2141    0.0000 </r>
       <r>   10.4437    0.0000 </r>
       <r>   11.3312    0.0000 </r>
       <r>   11.5519    0.0000 </r>
       <r>   11.7874    0.0000 </r>
       <r>   13.7954    0.0000 </r>
       <r>   16.0187    0.0000 </r>
       <r>   19.5669    0.0000 </r>
      </set>
      <set comment="kpoint 161">
       <r>  -35.1581    1.0000 </r>
       <r>  -16.6079    1.0000 </r>
       <r>  -16.4581    1.0000 </r>
       <r>  -16.2535    1.0000 </r>
       <r>  -12.7539    1.0000 </r>
       <r>    1.0836    1.0000 </r>
       <r>    1.4503    1.0000 </r>
       <r>    1.7600    1.0000 </r>
       <r>    6.7219    0.0000 </r>
       <r>   10.6962    0.0000 </r>
       <r>   10.9697    0.0000 </r>
       <r>   11.6578    0.0000 </r>
       <r>   11.6658    0.0000 </r>
       <r>   14.6126    0.0000 </r>
       <r>   15.8333    0.0000 </r>
       <r>   18.4290    0.0000 </r>
      </set>
      <set comment="kpoint 162">
       <r>  -35.1577    1.0000 </r>
       <r>  -16.6318    1.0000 </r>
       <r>  -16.3362    1.0000 </r>
       <r>  -16.3085    1.0000 </r>
       <r>  -12.8463    1.0000 </r>
       <r>    1.0647    1.0000 </r>
       <r>    1.7276    1.0000 </r>
       <r>    1.8272    1.0000 </r>
       <r>    6.3758    0.0000 </r>
       <r>   10.5285    0.0000 </r>
       <r>   11.2274    0.0000 </r>
       <r>   11.4818    0.0000 </r>
       <r>   11.8788    0.0000 </r>
       <r>   14.1949    0.0000 </r>
       <r>   15.7864    0.0000 </r>
       <r>   19.2162    0.0000 </r>
      </set>
      <set comment="kpoint 163">
       <r>  -35.1580    1.0000 </r>
       <r>  -16.6562    1.0000 </r>
       <r>  -16.2829    1.0000 </r>
       <r>  -16.2829    1.0000 </r>
       <r>  -12.9454    1.0000 </r>
       <r>    1.0457    1.0000 </r>
       <r>    1.9725    1.0000 </r>
       <r>    1.9725    1.0000 </r>
       <r>    5.9824    0.0000 </r>
       <r>   10.3884    0.0000 </r>
       <r>   11.2390    0.0000 </r>
       <r>   11.8774    0.0000 </r>
       <r>   11.8774    0.0000 </r>
       <r>   13.6047    0.0000 </r>
       <r>   15.7409    0.0000 </r>
       <r>   20.3219    0.0000 </r>
      </set>
     </set>
    </set>
   </array>
  </eigenvalues>
  <separator name="orbital magnetization" >
   <v name="MAGDIPOLOUT">      0.00000000      0.00000000      0.00000000</v>
  </separator>
  <dos>
   <i name="efermi">      2.52657064 </i>
   <total>
    <array>
     <dimension dim="1">gridpoints</dimension>
     <dimension dim="2">spin</dimension>
     <field>energy</field>
     <field>total</field>
     <field>integrated</field>
     <set>
      <set comment="spin 1">
       <r>   -38.2962     0.0000     0.0000 </r>
       <r>   -38.0758     0.0000     0.0000 </r>
       <r>   -37.8555     0.0000     0.0000 </r>
       <r>   -37.6351     0.0000     0.0000 </r>
       <r>   -37.4147     0.0000     0.0000 </r>
       <r>   -37.1944     0.0000     0.0000 </r>
       <r>   -36.9740     0.0000     0.0000 </r>
       <r>   -36.7536     0.0000     0.0000 </r>
       <r>   -36.5333     0.0000     0.0000 </r>
       <r>   -36.3129     0.0000     0.0000 </r>
       <r>   -36.0925     0.0000     0.0000 </r>
       <r>   -35.8722     0.0000     0.0000 </r>
       <r>   -35.6518     0.0000     0.0000 </r>
       <r>   -35.4314     0.0000     0.0000 </r>
       <r>   -35.2111     1.8648     0.4121 </r>
       <r>   -34.9907     0.0000     2.0000 </r>
       <r>   -34.7703     0.0000     2.0000 </r>
       <r>   -34.5500     0.0000     2.0000 </r>
       <r>   -34.3296     0.0000     2.0000 </r>
       <r>   -34.1092     0.0000     2.0000 </r>
       <r>   -33.8889     0.0000     2.0000 </r>
       <r>   -33.6685     0.0000     2.0000 </r>
       <r>   -33.4481     0.0000     2.0000 </r>
       <r>   -33.2278     0.0000     2.0000 </r>
       <r>   -33.0074     0.0000     2.0000 </r>
       <r>   -32.7870     0.0000     2.0000 </r>
       <r>   -32.5667     0.0000     2.0000 </r>
       <r>   -32.3463     0.0000     2.0000 </r>
       <r>   -32.1260     0.0000     2.0000 </r>
       <r>   -31.9056     0.0000     2.0000 </r>
       <r>   -31.6852     0.0000     2.0000 </r>
       <r>   -31.4649     0.0000     2.0000 </r>
       <r>   -31.2445     0.0000     2.0000 </r>
       <r>   -31.0241     0.0000     2.0000 </r>
       <r>   -30.8038     0.0000     2.0000 </r>
       <r>   -30.5834     0.0000     2.0000 </r>
       <r>   -30.3630     0.0000     2.0000 </r>
       <r>   -30.1427     0.0000     2.0000 </r>
       <r>   -29.9223     0.0000     2.0000 </r>
       <r>   -29.7019     0.0000     2.0000 </r>
       <r>   -29.4816     0.0000     2.0000 </r>
       <r>   -29.2612     0.0000     2.0000 </r>
       <r>   -29.0408     0.0000     2.0000 </r>
       <r>   -28.8205     0.0000     2.0000 </r>
       <r>   -28.6001     0.0000     2.0000 </r>
       <r>   -28.3797     0.0000     2.0000 </r>
       <r>   -28.1594     0.0000     2.0000 </r>
       <r>   -27.9390     0.0000     2.0000 </r>
       <r>   -27.7186     0.0000     2.0000 </r>
       <r>   -27.4983     0.0000     2.0000 </r>
       <r>   -27.2779     0.0000     2.0000 </r>
       <r>   -27.0575     0.0000     2.0000 </r>
       <r>   -26.8372     0.0000     2.0000 </r>
       <r>   -26.6168     0.0000     2.0000 </r>
       <r>   -26.3964     0.0000     2.0000 </r>
       <r>   -26.1761     0.0000     2.0000 </r>
       <r>   -25.9557     0.0000     2.0000 </r>
       <r>   -25.7353     0.0000     2.0000 </r>
       <r>   -25.5150     0.0000     2.0000 </r>
       <r>   -25.2946     0.0000     2.0000 </r>
       <r>   -25.0742     0.0000     2.0000 </r>
       <r>   -24.8539     0.0000     2.0000 </r>
       <r>   -24.6335     0.0000     2.0000 </r>
       <r>   -24.4131     0.0000     2.0000 </r>
       <r>   -24.1928     0.0000     2.0000 </r>
       <r>   -23.9724     0.0000     2.0000 </r>
       <r>   -23.7521     0.0000     2.0000 </r>
       <r>   -23.5317     0.0000     2.0000 </r>
       <r>   -23.3113     0.0000     2.0000 </r>
       <r>   -23.0910     0.0000     2.0000 </r>
       <r>   -22.8706     0.0000     2.0000 </r>
       <r>   -22.6502     0.0000     2.0000 </r>
       <r>   -22.4299     0.0000     2.0000 </r>
       <r>   -22.2095     0.0000     2.0000 </r>
       <r>   -21.9891     0.0000     2.0000 </r>
       <r>   -21.7688     0.0000     2.0000 </r>
       <r>   -21.5484     0.0000     2.0000 </r>
       <r>   -21.3280     0.0000     2.0000 </r>
       <r>   -21.1077     0.0000     2.0000 </r>
       <r>   -20.8873     0.0000     2.0000 </r>
       <r>   -20.6669     0.0000     2.0000 </r>
       <r>   -20.4466     0.0000     2.0000 </r>
       <r>   -20.2262     0.0000     2.0000 </r>
       <r>   -20.0058     0.0000     2.0000 </r>
       <r>   -19.7855     0.0000     2.0000 </r>
       <r>   -19.5651     0.0000     2.0000 </r>
       <r>   -19.3447     0.0000     2.0000 </r>
       <r>   -19.1244     0.0000     2.0000 </r>
       <r>   -18.9040     0.0000     2.0000 </r>
       <r>   -18.6836     0.0000     2.0000 </r>
       <r>   -18.4633     0.0000     2.0000 </r>
       <r>   -18.2429     0.0000     2.0000 </r>
       <r>   -18.0225     0.0000     2.0000 </r>
       <r>   -17.8022     0.0000     2.0000 </r>
       <r>   -17.5818     0.0000     2.0000 </r>
       <r>   -17.3614     0.0000     2.0000 </r>
       <r>   -17.1411     0.0230     2.0051 </r>
       <r>   -16.9207     0.7108     2.3927 </r>
       <r>   -16.7003     1.6610     3.2920 </r>
       <r>   -16.4800     0.6435     3.9763 </r>
       <r>   -16.2596     3.2783     5.2884 </r>
       <r>   -16.0392     3.2501     7.9998 </r>
       <r>   -15.8189     0.0000     8.0000 </r>
       <r>   -15.5985     0.0000     8.0000 </r>
       <r>   -15.3781     0.0000     8.0000 </r>
       <r>   -15.1578     0.0000     8.0000 </r>
       <r>   -14.9374     0.0000     8.0000 </r>
       <r>   -14.7171     0.0000     8.0000 </r>
       <r>   -14.4967     0.0000     8.0000 </r>
       <r>   -14.2763     0.0000     8.0000 </r>
       <r>   -14.0560     0.0000     8.0000 </r>
       <r>   -13.8356     0.0000     8.0000 </r>
       <r>   -13.6152     0.0000     8.0000 </r>
       <r>   -13.3949     0.0000     8.0000 </r>
       <r>   -13.1745     0.0048     8.0011 </r>
       <r>   -12.9541     0.0018     8.0178 </r>
       <r>   -12.7338     0.2820     8.1825 </r>
       <r>   -12.5134     1.1950     8.7379 </r>
       <r>   -12.2930     1.4064     9.5507 </r>
       <r>   -12.0727     0.2602     9.9323 </r>
       <r>   -11.8523     0.0000    10.0000 </r>
       <r>   -11.6319     0.0000    10.0000 </r>
       <r>   -11.4116     0.0000    10.0000 </r>
       <r>   -11.1912     0.0000    10.0000 </r>
       <r>   -10.9708     0.0000    10.0000 </r>
       <r>   -10.7505     0.0000    10.0000 </r>
       <r>   -10.5301     0.0000    10.0000 </r>
       <r>   -10.3097     0.0000    10.0000 </r>
       <r>   -10.0894     0.0000    10.0000 </r>
       <r>    -9.8690     0.0000    10.0000 </r>
       <r>    -9.6486     0.0000    10.0000 </r>
       <r>    -9.4283     0.0000    10.0000 </r>
       <r>    -9.2079     0.0000    10.0000 </r>
       <r>    -8.9875     0.0000    10.0000 </r>
       <r>    -8.7672     0.0000    10.0000 </r>
       <r>    -8.5468     0.0000    10.0000 </r>
       <r>    -8.3264     0.0000    10.0000 </r>
       <r>    -8.1061     0.0000    10.0000 </r>
       <r>    -7.8857     0.0000    10.0000 </r>
       <r>    -7.6653     0.0000    10.0000 </r>
       <r>    -7.4450     0.0000    10.0000 </r>
       <r>    -7.2246     0.0000    10.0000 </r>
       <r>    -7.0042     0.0000    10.0000 </r>
       <r>    -6.7839     0.0000    10.0000 </r>
       <r>    -6.5635     0.0000    10.0000 </r>
       <r>    -6.3432     0.0000    10.0000 </r>
       <r>    -6.1228     0.0000    10.0000 </r>
       <r>    -5.9024     0.0000    10.0000 </r>
       <r>    -5.6821     0.0000    10.0000 </r>
       <r>    -5.4617     0.0000    10.0000 </r>
       <r>    -5.2413     0.0000    10.0000 </r>
       <r>    -5.0210     0.0000    10.0000 </r>
       <r>    -4.8006     0.0000    10.0000 </r>
       <r>    -4.5802     0.0000    10.0000 </r>
       <r>    -4.3599     0.0000    10.0000 </r>
       <r>    -4.1395     0.0000    10.0000 </r>
       <r>    -3.9191     0.0000    10.0000 </r>
       <r>    -3.6988     0.0000    10.0000 </r>
       <r>    -3.4784     0.0000    10.0000 </r>
       <r>    -3.2580     0.0000    10.0000 </r>
       <r>    -3.0377     0.0000    10.0000 </r>
       <r>    -2.8173     0.0000    10.0000 </r>
       <r>    -2.5969     0.0000    10.0000 </r>
       <r>    -2.3766     0.0000    10.0000 </r>
       <r>    -2.1562     0.0000    10.0000 </r>
       <r>    -1.9358     0.0000    10.0000 </r>
       <r>    -1.7155     0.0000    10.0000 </r>
       <r>    -1.4951     0.0000    10.0000 </r>
       <r>    -1.2747     0.0000    10.0000 </r>
       <r>    -1.0544     0.0000    10.0000 </r>
       <r>    -0.8340     0.0000    10.0000 </r>
       <r>    -0.6136     0.0000    10.0000 </r>
       <r>    -0.3933     0.0000    10.0000 </r>
       <r>    -0.1729     0.0793    10.0221 </r>
       <r>     0.0475     0.2521    10.1250 </r>
       <r>     0.2678     0.0447    10.3015 </r>
       <r>     0.4882     0.7270    10.8361 </r>
       <r>     0.7086     0.5302    11.3344 </r>
       <r>     0.9289     0.6524    11.6484 </r>
       <r>     1.1493     0.3906    11.9553 </r>
       <r>     1.3697     2.5243    13.5991 </r>
       <r>     1.5900     2.1071    14.6599 </r>
       <r>     1.8104     1.3234    15.2835 </r>
       <r>     2.0307     0.5853    15.8084 </r>
       <r>     2.2511     0.1165    15.9759 </r>
       <r>     2.4715     0.0000    16.0000 </r>
       <r>     2.6918     0.0000    16.0000 </r>
       <r>     2.9122     0.0000    16.0000 </r>
       <r>     3.1326     0.0000    16.0000 </r>
       <r>     3.3529     0.0000    16.0000 </r>
       <r>     3.5733     0.0000    16.0000 </r>
       <r>     3.7937     0.0000    16.0000 </r>
       <r>     4.0140     0.0000    16.0000 </r>
       <r>     4.2344     0.0000    16.0000 </r>
       <r>     4.4548     0.0000    16.0000 </r>
       <r>     4.6751     0.0000    16.0000 </r>
       <r>     4.8955     0.0000    16.0000 </r>
       <r>     5.1159     0.0000    16.0000 </r>
       <r>     5.3362     0.0000    16.0000 </r>
       <r>     5.5566     0.0000    16.0000 </r>
       <r>     5.7770     0.0000    16.0000 </r>
       <r>     5.9973     0.0155    16.0034 </r>
       <r>     6.2177     0.0877    16.0297 </r>
       <r>     6.4381     0.0637    16.0522 </r>
       <r>     6.6584     0.0000    16.1146 </r>
       <r>     6.8788     0.2521    16.1840 </r>
       <r>     7.0992     0.0368    16.2755 </r>
       <r>     7.3195     0.0000    16.3588 </r>
       <r>     7.5399     0.5761    16.5436 </r>
       <r>     7.7603     0.5308    16.7281 </r>
       <r>     7.9806     0.1472    16.7755 </r>
       <r>     8.2010     0.4446    17.0910 </r>
       <r>     8.4214     0.5630    17.2930 </r>
       <r>     8.6417     0.6835    17.6714 </r>
       <r>     8.8621     0.5194    17.8888 </r>
       <r>     9.0825     0.4010    18.1844 </r>
       <r>     9.3028     1.3176    18.6086 </r>
       <r>     9.5232     0.4039    18.8795 </r>
       <r>     9.7436     0.7590    19.3930 </r>
       <r>     9.9639     0.5059    19.8025 </r>
       <r>    10.1843     0.6114    20.3697 </r>
       <r>    10.4046     0.5049    20.8231 </r>
       <r>    10.6250     0.6501    21.2382 </r>
       <r>    10.8454     1.8655    22.0569 </r>
       <r>    11.0657     1.7647    23.0324 </r>
       <r>    11.2861     1.2071    23.7220 </r>
       <r>    11.5065     1.3391    24.3495 </r>
       <r>    11.7268     0.6605    24.6861 </r>
       <r>    11.9472     0.4736    25.1171 </r>
       <r>    12.1676     0.8456    25.5232 </r>
       <r>    12.3879     0.6575    25.7872 </r>
       <r>    12.6083     0.4533    26.2700 </r>
       <r>    12.8287     0.1681    26.6285 </r>
       <r>    13.0490     0.0000    26.7465 </r>
       <r>    13.2694     0.2639    26.9158 </r>
       <r>    13.4898     0.1261    27.0451 </r>
       <r>    13.7101     0.1761    27.1708 </r>
       <r>    13.9305     0.1218    27.2977 </r>
       <r>    14.1509     0.0005    27.3265 </r>
       <r>    14.3712     0.0000    27.4514 </r>
       <r>    14.5916     0.7552    27.6456 </r>
       <r>    14.8120     0.0000    27.7431 </r>
       <r>    15.0323     0.0001    27.7431 </r>
       <r>    15.2527     0.1284    27.7991 </r>
       <r>    15.4731     0.2513    27.8679 </r>
       <r>    15.6934     0.1261    27.9792 </r>
       <r>    15.9138     0.0000    28.0243 </r>
       <r>    16.1342     0.7827    28.2662 </r>
       <r>    16.3545     0.4968    28.4741 </r>
       <r>    16.5749     0.3886    28.7280 </r>
       <r>    16.7953     0.0000    29.0150 </r>
       <r>    17.0156     0.7249    29.1840 </r>
       <r>    17.2360     0.1261    29.3854 </r>
       <r>    17.4564     0.2133    29.5713 </r>
       <r>    17.6767     0.7552    29.8122 </r>
       <r>    17.8971     0.2581    29.9689 </r>
       <r>    18.1175     0.3475    30.1414 </r>
       <r>    18.3378     0.3364    30.4028 </r>
       <r>    18.5582     0.3781    30.6389 </r>
       <r>    18.7785     0.2836    30.9444 </r>
       <r>    18.9989     0.0960    31.0489 </r>
       <r>    19.2193     0.5033    31.2776 </r>
       <r>    19.4396     0.2584    31.3810 </r>
       <r>    19.6600     0.0013    31.4355 </r>
       <r>    19.8804     0.1258    31.5624 </r>
       <r>    20.1007     0.0168    31.6217 </r>
       <r>    20.3211     0.2593    31.6891 </r>
       <r>    20.5415     0.0000    31.7049 </r>
       <r>    20.7618     0.0000    31.7604 </r>
       <r>    20.9822     0.0000    31.7975 </r>
       <r>    21.2026     0.0000    31.8044 </r>
       <r>    21.4229     0.0000    31.8044 </r>
       <r>    21.6433     0.1272    31.8324 </r>
       <r>    21.8637     0.1261    31.8877 </r>
       <r>    22.0840     0.0184    31.8918 </r>
       <r>    22.3044     0.0420    31.9248 </r>
       <r>    22.5248     0.0000    31.9248 </r>
       <r>    22.7451     0.0241    31.9301 </r>
       <r>    22.9655     0.0000    31.9317 </r>
       <r>    23.1859     0.1261    31.9595 </r>
       <r>    23.4062     0.0420    31.9826 </r>
       <r>    23.6266     0.0000    31.9826 </r>
       <r>    23.8470     0.0000    31.9826 </r>
       <r>    24.0673     0.0000    31.9826 </r>
       <r>    24.2877     0.0395    31.9983 </r>
       <r>    24.5081     0.0000    31.9988 </r>
       <r>    24.7284     0.0000    31.9988 </r>
       <r>    24.9488     0.0000    32.0000 </r>
       <r>    25.1692     0.0000    32.0000 </r>
       <r>    25.3895     0.0000    32.0000 </r>
       <r>    25.6099     0.0000    32.0000 </r>
       <r>    25.8303     0.0000    32.0000 </r>
       <r>    26.0506     0.0000    32.0000 </r>
       <r>    26.2710     0.0000    32.0000 </r>
       <r>    26.4914     0.0000    32.0000 </r>
       <r>    26.7117     0.0000    32.0000 </r>
       <r>    26.9321     0.0000    32.0000 </r>
       <r>    27.1524     0.0000    32.0000 </r>
       <r>    27.3728     0.0000    32.0000 </r>
       <r>    27.5932     0.0000    32.0000 </r>
       <r>    27.8135     0.0000    32.0000 </r>
      </set>
     </set>
    </array>
   </total>
  </dos>
 </calculation>
 <structure name="finalpos" >
  <crystal>
   <varray name="basis" >
    <v>      -2.40355551       0.00000000       2.40355551 </v>
    <v>       0.00000000       2.40355551       2.40355551 </v>
    <v>      -2.40355551       2.40355551       0.00000000 </v>
   </varray>
   <i name="volume">     27.77106060 </i>
   <varray name="rec_basis" >
    <v>      -0.20802515      -0.20802515       0.20802515 </v>
    <v>       0.20802515       0.20802515       0.20802515 </v>
    <v>      -0.20802515       0.20802515      -0.20802515 </v>
   </varray>
  </crystal>
  <varray name="positions" >
   <v>       0.00000000       0.00000000       0.00000000 </v>
   <v>       0.49999996       0.50000004       0.49999996 </v>
  </varray>
 </structure>
</modeling>
