
     Program PWSCF v.7.1 starts on  3Jan2024 at 14:28:59 

     This program is part of the open-source Quantum ESPRESSO suite
     for quantum simulation of materials; please cite
         "P. Giannozzi et al., J. Phys.:Condens. Matter 21 395502 (2009);
         "P. Giannozzi et al., J. Phys.:Condens. Matter 29 465901 (2017);
         "P. Giannozzi et al., J. Chem. Phys. 152 154105 (2020);
          URL http://www.quantum-espresso.org", 
     in publications or presentations arising from this work. More details at
     http://www.quantum-espresso.org/quote

     Parallel version (MPI), running on     8 processors

     MPI processes distributed on     1 nodes
     248955 MiB available memory on the printing compute node when the environment starts
 
     Reading input from pw_mp-2605_nscf_k3000_E70.in
Warning: card &IONS ignored
Warning: card / ignored
Warning: card &CELL ignored
Warning: card / ignored

     Current dimensions of program PWSCF are:
     Max number of different atomic species (ntypx) = 10
     Max number of k-points (npk) =  40000
     Max angular momentum in pseudopotentials (lmaxx) =  4

     Atomic positions and unit cell read from directory:
     out/mp-2605.save/
     Atomic positions from file used, from input discarded
 
 
     R & G space division:  proc/nbgrp/npool/nimage =       8
     Subspace diagonalization in iterative solution of the eigenvalue problem:
     a serial algorithm will be used

 
     Parallelization info
     --------------------
     sticks:   dense  smooth     PW     G-vecs:    dense   smooth      PW
     Min         100     100     31                 1855     1855     340
     Max         101     101     32                 1856     1856     344
     Sum         805     805    253                14841    14841    2741
 
     Using Slab Decomposition
 


     bravais-lattice index     =            2
     lattice parameter (alat)  =       9.0841  a.u.
     unit-cell volume          =     187.4084 (a.u.)^3
     number of atoms/cell      =            2
     number of atomic types    =            2
     number of electrons       =        16.00
     number of Kohn-Sham states=           16
     kinetic-energy cutoff     =      70.0000  Ry
     charge density cutoff     =     280.0000  Ry
     Exchange-correlation= PBE
                           (   1   4   3   4   0   0   0)

     celldm(1)=   9.084123  celldm(2)=   0.000000  celldm(3)=   0.000000
     celldm(4)=   0.000000  celldm(5)=   0.000000  celldm(6)=   0.000000

     crystal axes: (cart. coord. in units of alat)
               a(1) = (  -0.500000   0.000000   0.500000 )  
               a(2) = (   0.000000   0.500000   0.500000 )  
               a(3) = (  -0.500000   0.500000   0.000000 )  

     reciprocal axes: (cart. coord. in units 2 pi/alat)
               b(1) = ( -1.000000 -1.000000  1.000000 )  
               b(2) = (  1.000000  1.000000  1.000000 )  
               b(3) = ( -1.000000  1.000000 -1.000000 )  


     PseudoPot. # 1 for Ca read from file:
     /usr/scratch4/magr4985/MG/devEb/pseudo/SG15/Ca.upf
     MD5 check sum: d3df06507a1658a66563533e58c348d1
     Pseudo is Norm-conserving, Zval = 10.0
     Generated using ONCVPSP code by D. R. Hamann
     Using radial grid of  602 points,  6 beta functions with: 
                l(1) =   0
                l(2) =   0
                l(3) =   1
                l(4) =   1
                l(5) =   2
                l(6) =   2

     PseudoPot. # 2 for O  read from file:
     /usr/scratch4/magr4985/MG/devEb/pseudo/SG15/O.upf
     MD5 check sum: 9d2d0a8c71a1ad34a0c43284618bc51d
     Pseudo is Norm-conserving, Zval =  6.0
     Generated using ONCVPSP code by D. R. Hamann
     Using radial grid of  602 points,  4 beta functions with: 
                l(1) =   0
                l(2) =   0
                l(3) =   1
                l(4) =   1

     atomic species   valence    mass     pseudopotential
        Ca            10.00    40.07800     Ca( 1.00)
        O              6.00    15.99940     O ( 1.00)

     No symmetry found



   Cartesian axes

     site n.     atom                  positions (alat units)
         1           Ca  tau(   1) = (   0.0000000   0.0000000   0.0000000  )
         2           O   tau(   2) = (  -0.5000000   0.5000000   0.5000000  )

     number of k points=  1728  Gaussian smearing, width (Ry)=  0.0005

     Number of k-points >= 100: set verbosity='high' to print them.

     Dense  grid:    14841 G-vectors     FFT dimensions: (  36,  36,  36)

     Estimated max dynamical RAM per process >     101.31 MB

     Estimated total dynamical RAM >     810.47 MB

     The potential is recalculated from file :
     out/mp-2605.save/charge-density

     Starting wfcs are random

     Band Structure Calculation
     Davidson diagonalization with overlap

     ethr =  5.00E-06,  avg # of iterations = 17.9

     total cpu time spent up to now is       76.1 secs

     End of band structure calculation

     Number of k-points >= 100: set verbosity='high' to print the bands.

     the Fermi energy is     9.5510 ev
     (compare with:     9.5510 eV, computed in scf)

     Writing all to output data dir out/mp-2605.save/
 
     init_run     :      0.06s CPU      0.07s WALL (       1 calls)
     electrons    :     71.56s CPU     75.74s WALL (       1 calls)

     Called by init_run:
     wfcinit      :      0.00s CPU      0.00s WALL (       1 calls)
     potinit      :      0.01s CPU      0.01s WALL (       1 calls)
     hinit0       :      0.01s CPU      0.02s WALL (       1 calls)

     Called by electrons:
     c_bands      :     71.56s CPU     75.73s WALL (       1 calls)
     v_of_rho     :      0.01s CPU      0.01s WALL (       1 calls)

     Called by c_bands:
     init_us_2    :      0.12s CPU      0.13s WALL (    1728 calls)
     init_us_2:cp :      0.12s CPU      0.13s WALL (    1728 calls)
     cegterg      :     66.48s CPU     69.53s WALL (    2017 calls)

     Called by *egterg:
     cdiaghg      :     10.98s CPU     11.45s WALL (   32666 calls)
     h_psi        :     52.14s CPU     54.69s WALL (   34683 calls)
     g_psi        :      0.51s CPU      0.53s WALL (   30938 calls)

     Called by h_psi:
     h_psi:calbec :      1.38s CPU      1.45s WALL (   34683 calls)
     vloc_psi     :     49.34s CPU     51.75s WALL (   34683 calls)
     add_vuspsi   :      1.04s CPU      1.11s WALL (   34683 calls)

     General routines
     calbec       :      1.29s CPU      1.37s WALL (   34683 calls)
     fft          :      0.00s CPU      0.01s WALL (      10 calls)
     fftw         :     44.24s CPU     46.39s WALL (  773452 calls)
 
     Parallel routines
 
     PWSCF        :   1m13.26s CPU   1m21.19s WALL

 
   This run was terminated on:  14:30:20   3Jan2024            

=------------------------------------------------------------------------------=
   JOB DONE.
=------------------------------------------------------------------------------=
