
     Program PWSCF v.7.1 starts on  3Jan2024 at 14:38:34 

     This program is part of the open-source Quantum ESPRESSO suite
     for quantum simulation of materials; please cite
         "P. Giannozzi et al., J. Phys.:Condens. Matter 21 395502 (2009);
         "P. Giannozzi et al., J. Phys.:Condens. Matter 29 465901 (2017);
         "P. Giannozzi et al., J. Chem. Phys. 152 154105 (2020);
          URL http://www.quantum-espresso.org", 
     in publications or presentations arising from this work. More details at
     http://www.quantum-espresso.org/quote

     Parallel version (MPI), running on     8 processors

     MPI processes distributed on     1 nodes
     121744 MiB available memory on the printing compute node when the environment starts
 
     Reading input from pw_mp-1342_nscf_k3000_E140.in
Warning: card &IONS ignored
Warning: card / ignored
Warning: card &CELL ignored
Warning: card / ignored

     Current dimensions of program PWSCF are:
     Max number of different atomic species (ntypx) = 10
     Max number of k-points (npk) =  40000
     Max angular momentum in pseudopotentials (lmaxx) =  4

     Atomic positions and unit cell read from directory:
     out/mp-1342.save/
     Atomic positions from file used, from input discarded
 
 
     R & G space division:  proc/nbgrp/npool/nimage =       8
     Subspace diagonalization in iterative solution of the eigenvalue problem:
     a serial algorithm will be used

 
     Parallelization info
     --------------------
     sticks:   dense  smooth     PW     G-vecs:    dense   smooth      PW
     Min         268     268     74                 8193     8193    1229
     Max         269     269     75                 8194     8194    1233
     Sum        2149    2149    595                65547    65547    9841
 
     Using Slab Decomposition
 


     bravais-lattice index     =            2
     lattice parameter (alat)  =      10.5462  a.u.
     unit-cell volume          =     293.2392 (a.u.)^3
     number of atoms/cell      =            2
     number of atomic types    =            2
     number of electrons       =        16.00
     number of Kohn-Sham states=           16
     kinetic-energy cutoff     =     140.0000  Ry
     charge density cutoff     =     560.0000  Ry
     Exchange-correlation= PBE
                           (   1   4   3   4   0   0   0)

     celldm(1)=  10.546151  celldm(2)=   0.000000  celldm(3)=   0.000000
     celldm(4)=   0.000000  celldm(5)=   0.000000  celldm(6)=   0.000000

     crystal axes: (cart. coord. in units of alat)
               a(1) = (  -0.500000   0.000000   0.500000 )  
               a(2) = (   0.000000   0.500000   0.500000 )  
               a(3) = (  -0.500000   0.500000   0.000000 )  

     reciprocal axes: (cart. coord. in units 2 pi/alat)
               b(1) = ( -1.000000 -1.000000  1.000000 )  
               b(2) = (  1.000000  1.000000  1.000000 )  
               b(3) = ( -1.000000  1.000000 -1.000000 )  


     PseudoPot. # 1 for Ba read from file:
     /usr/scratch4/magr4985/MG/devEb/pseudo/SG15/Ba.upf
     MD5 check sum: e41eb7508bab73859f43c2f9f93c7154
     Pseudo is Norm-conserving, Zval = 10.0
     Generated using ONCVPSP code by D. R. Hamann
     Using radial grid of  602 points,  8 beta functions with: 
                l(1) =   0
                l(2) =   0
                l(3) =   1
                l(4) =   1
                l(5) =   2
                l(6) =   2
                l(7) =   3
                l(8) =   3

     PseudoPot. # 2 for O  read from file:
     /usr/scratch4/magr4985/MG/devEb/pseudo/SG15/O.upf
     MD5 check sum: 9d2d0a8c71a1ad34a0c43284618bc51d
     Pseudo is Norm-conserving, Zval =  6.0
     Generated using ONCVPSP code by D. R. Hamann
     Using radial grid of  602 points,  4 beta functions with: 
                l(1) =   0
                l(2) =   0
                l(3) =   1
                l(4) =   1

     atomic species   valence    mass     pseudopotential
        Ba            10.00   137.32700     Ba( 1.00)
        O              6.00    15.99940     O ( 1.00)

     48 Sym. Ops., with inversion, found



   Cartesian axes

     site n.     atom                  positions (alat units)
         1           Ba  tau(   1) = (   0.0000000   0.0000000   0.0000000  )
         2           O   tau(   2) = (  -0.5000000   0.5000000   0.5000000  )

     number of k points=    72  Gaussian smearing, width (Ry)=  0.0005
                       cart. coord. in units 2pi/alat
        k(    1) = (   0.0000000   0.0000000   0.0000000), wk =   0.0011574
        k(    2) = (  -0.0833333   0.0833333  -0.0833333), wk =   0.0092593
        k(    3) = (  -0.1666667   0.1666667  -0.1666667), wk =   0.0092593
        k(    4) = (  -0.2500000   0.2500000  -0.2500000), wk =   0.0092593
        k(    5) = (  -0.3333333   0.3333333  -0.3333333), wk =   0.0092593
        k(    6) = (  -0.4166667   0.4166667  -0.4166667), wk =   0.0092593
        k(    7) = (   0.5000000  -0.5000000   0.5000000), wk =   0.0046296
        k(    8) = (   0.0000000   0.1666667   0.0000000), wk =   0.0069444
        k(    9) = (  -0.0833333   0.2500000  -0.0833333), wk =   0.0277778
        k(   10) = (  -0.1666667   0.3333333  -0.1666667), wk =   0.0277778
        k(   11) = (  -0.2500000   0.4166667  -0.2500000), wk =   0.0277778
        k(   12) = (  -0.3333333   0.5000000  -0.3333333), wk =   0.0277778
        k(   13) = (   0.5833333  -0.4166667   0.5833333), wk =   0.0277778
        k(   14) = (   0.5000000  -0.3333333   0.5000000), wk =   0.0277778
        k(   15) = (   0.4166667  -0.2500000   0.4166667), wk =   0.0277778
        k(   16) = (   0.3333333  -0.1666667   0.3333333), wk =   0.0277778
        k(   17) = (   0.2500000  -0.0833333   0.2500000), wk =   0.0277778
        k(   18) = (   0.1666667  -0.0000000   0.1666667), wk =   0.0138889
        k(   19) = (   0.0000000   0.3333333   0.0000000), wk =   0.0069444
        k(   20) = (  -0.0833333   0.4166667  -0.0833333), wk =   0.0277778
        k(   21) = (  -0.1666667   0.5000000  -0.1666667), wk =   0.0277778
        k(   22) = (  -0.2500000   0.5833333  -0.2500000), wk =   0.0277778
        k(   23) = (   0.6666667  -0.3333333   0.6666667), wk =   0.0277778
        k(   24) = (   0.5833333  -0.2500000   0.5833333), wk =   0.0277778
        k(   25) = (   0.5000000  -0.1666667   0.5000000), wk =   0.0277778
        k(   26) = (   0.4166667  -0.0833333   0.4166667), wk =   0.0277778
        k(   27) = (   0.3333333   0.0000000   0.3333333), wk =   0.0138889
        k(   28) = (   0.0000000   0.5000000   0.0000000), wk =   0.0069444
        k(   29) = (  -0.0833333   0.5833333  -0.0833333), wk =   0.0277778
        k(   30) = (  -0.1666667   0.6666667  -0.1666667), wk =   0.0277778
        k(   31) = (   0.7500000  -0.2500000   0.7500000), wk =   0.0277778
        k(   32) = (   0.6666667  -0.1666667   0.6666667), wk =   0.0277778
        k(   33) = (   0.5833333  -0.0833333   0.5833333), wk =   0.0277778
        k(   34) = (   0.5000000   0.0000000   0.5000000), wk =   0.0138889
        k(   35) = (   0.0000000   0.6666667   0.0000000), wk =   0.0069444
        k(   36) = (  -0.0833333   0.7500000  -0.0833333), wk =   0.0277778
        k(   37) = (   0.8333333  -0.1666667   0.8333333), wk =   0.0277778
        k(   38) = (   0.7500000  -0.0833333   0.7500000), wk =   0.0277778
        k(   39) = (   0.6666667  -0.0000000   0.6666667), wk =   0.0138889
        k(   40) = (   0.0000000   0.8333333   0.0000000), wk =   0.0069444
        k(   41) = (   0.9166667  -0.0833333   0.9166667), wk =   0.0277778
        k(   42) = (   0.8333333   0.0000000   0.8333333), wk =   0.0138889
        k(   43) = (   0.0000000  -1.0000000   0.0000000), wk =   0.0034722
        k(   44) = (  -0.1666667   0.3333333  -0.0000000), wk =   0.0277778
        k(   45) = (  -0.2500000   0.4166667  -0.0833333), wk =   0.0555556
        k(   46) = (  -0.3333333   0.5000000  -0.1666667), wk =   0.0555556
        k(   47) = (   0.5833333  -0.4166667   0.7500000), wk =   0.0555556
        k(   48) = (   0.5000000  -0.3333333   0.6666667), wk =   0.0277778
        k(   49) = (  -0.1666667   0.5000000   0.0000000), wk =   0.0277778
        k(   50) = (  -0.2500000   0.5833333  -0.0833333), wk =   0.0555556
        k(   51) = (   0.6666667  -0.3333333   0.8333333), wk =   0.0555556
        k(   52) = (   0.5833333  -0.2500000   0.7500000), wk =   0.0555556
        k(   53) = (   0.5000000  -0.1666667   0.6666667), wk =   0.0555556
        k(   54) = (   0.4166667  -0.0833333   0.5833333), wk =   0.0555556
        k(   55) = (   0.3333333   0.0000000   0.5000000), wk =   0.0277778
        k(   56) = (  -0.1666667   0.6666667  -0.0000000), wk =   0.0277778
        k(   57) = (   0.7500000  -0.2500000   0.9166667), wk =   0.0555556
        k(   58) = (   0.6666667  -0.1666667   0.8333333), wk =   0.0555556
        k(   59) = (   0.5833333  -0.0833333   0.7500000), wk =   0.0555556
        k(   60) = (   0.5000000  -0.0000000   0.6666667), wk =   0.0277778
        k(   61) = (   0.8333333  -0.1666667   1.0000000), wk =   0.0277778
        k(   62) = (   0.7500000  -0.0833333   0.9166667), wk =   0.0555556
        k(   63) = (   0.6666667   0.0000000   0.8333333), wk =   0.0277778
        k(   64) = (  -0.1666667  -1.0000000   0.0000000), wk =   0.0138889
        k(   65) = (   0.6666667  -0.3333333   1.0000000), wk =   0.0277778
        k(   66) = (   0.5833333  -0.2500000   0.9166667), wk =   0.0555556
        k(   67) = (   0.5000000  -0.1666667   0.8333333), wk =   0.0277778
        k(   68) = (   0.6666667  -0.1666667   1.0000000), wk =   0.0277778
        k(   69) = (   0.5833333  -0.0833333   0.9166667), wk =   0.0555556
        k(   70) = (   0.5000000   0.0000000   0.8333333), wk =   0.0277778
        k(   71) = (  -0.3333333  -1.0000000   0.0000000), wk =   0.0138889
        k(   72) = (  -0.5000000  -1.0000000   0.0000000), wk =   0.0069444

     Dense  grid:    65547 G-vectors     FFT dimensions: (  60,  60,  60)

     Estimated max dynamical RAM per process >      32.35 MB

     Estimated total dynamical RAM >     258.83 MB

     The potential is recalculated from file :
     out/mp-1342.save/charge-density

     Starting wfcs are random

     Band Structure Calculation
     Davidson diagonalization with overlap

     ethr =  5.00E-06,  avg # of iterations = 47.9

     total cpu time spent up to now is       23.6 secs

     End of band structure calculation

          k = 0.0000 0.0000 0.0000 (  8099 PWs)   bands (ev):

   -17.5998  -6.7181  -2.1665  -2.1665  -2.1665   7.8198   7.8198   7.8198
    11.7218  12.9740  12.9740  12.9740  15.1830  15.1830  15.7434  18.6291

          k =-0.0833 0.0833-0.0833 (  8168 PWs)   bands (ev):

   -17.5848  -6.7628  -2.1835  -2.1744  -2.1744   7.6737   7.7408   7.7408
    12.0167  12.8535  13.0887  13.0888  15.3436  15.3436  16.0672  18.5992

          k =-0.1667 0.1667-0.1667 (  8174 PWs)   bands (ev):

   -17.5433  -6.8849  -2.2287  -2.1959  -2.1959   7.3335   7.5372   7.5372
    12.5741  12.8989  13.4205  13.4205  15.7791  15.7791  16.7721  18.4797

          k =-0.2500 0.2500-0.2500 (  8180 PWs)   bands (ev):

   -17.4855  -7.0521  -2.2871  -2.2249  -2.2249   6.9503   7.2834   7.2834
    12.6140  13.8740  13.9296  13.9296  16.3722  16.3722  17.4701  18.3518

          k =-0.3333 0.3333-0.3333 (  8168 PWs)   bands (ev):

   -17.4264  -7.2198  -2.3419  -2.2533  -2.2533   6.6205   7.0520   7.0520
    12.7862  14.5378  14.5378  14.8629  16.9498  16.9498  17.9750  18.3455

          k =-0.4167 0.4167-0.4167 (  8195 PWs)   bands (ev):

   -17.3823  -7.3429  -2.3799  -2.2738  -2.2738   6.4014   6.8942   6.8942
    13.0282  15.0991  15.0991  15.4305  17.2499  17.2499  18.3793  18.3805

          k = 0.5000-0.5000 0.5000 (  8188 PWs)   bands (ev):

   -17.3659  -7.3880  -2.3934  -2.2812  -2.2812   6.3249   6.8385   6.8385
    13.1485  15.3523  15.3523  15.5483  17.2637  17.2638  18.5869  18.5910

          k = 0.0000 0.1667 0.0000 (  8184 PWs)   bands (ev):

   -17.5798  -6.7741  -2.2050  -2.2050  -2.1429   7.4863   7.8112   7.8112
    12.0710  12.6151  13.2336  13.2336  15.2598  15.5312  16.1513  18.5562

          k =-0.0833 0.2500-0.0833 (  8174 PWs)   bands (ev):

   -17.5473  -6.8609  -2.2530  -2.2460  -2.1497   7.1994   7.6955   7.7299
    12.3657  12.5869  13.5307  13.5860  15.4928  15.9695  16.6849  18.4618

          k =-0.1667 0.3333-0.1667 (  8177 PWs)   bands (ev):

   -17.4952  -7.0012  -2.3120  -2.2860  -2.1925   6.9302   7.4311   7.5322
    12.3170  13.3553  14.0183  14.0994  15.9900  16.5070  17.3493  18.3495

          k =-0.2500 0.4167-0.2500 (  8181 PWs)   bands (ev):

   -17.4367  -7.1578  -2.3671  -2.3144  -2.2563   6.7146   7.1477   7.2891
    12.4932  14.0118  14.6893  14.8346  16.6267  16.9114  17.9163  18.3096

          k =-0.3333 0.5000-0.3333 (  8179 PWs)   bands (ev):

   -17.3875  -7.2882  -2.4099  -2.3241  -2.3183   6.5546   6.9580   7.0683
    12.8215  14.4427  15.2122  15.6507  17.0903  17.1642  18.1707  18.2221

          k = 0.5833-0.4167 0.5833 (  8194 PWs)   bands (ev):

   -17.3618  -7.3566  -2.4433  -2.3506  -2.3125   6.4547   6.9179   6.9212
    13.1044  14.6318  15.4275  16.0661  17.2399  17.3034  18.1449  18.3878

          k = 0.5000-0.3333 0.5000 (  8201 PWs)   bands (ev):

   -17.3672  -7.3442  -2.4623  -2.3427  -2.2829   6.4488   6.8656   7.0242
    13.0855  14.6878  15.1487  16.0163  17.2333  17.3422  17.9976  18.5712

          k = 0.4167-0.2500 0.4167 (  8191 PWs)   bands (ev):

   -17.4021  -7.2545  -2.4507  -2.3077  -2.2427   6.5589   6.9208   7.2267
    12.8183  14.5243  14.5718  15.4938  16.9551  17.2461  18.0675  18.4169

          k = 0.3333-0.1667 0.3333 (  8193 PWs)   bands (ev):

   -17.4561  -7.1127  -2.4031  -2.2606  -2.2025   6.7785   7.0754   7.4760
    12.5682  13.9494  13.9646  14.7432  16.5002  16.8297  17.7305  18.2668

          k = 0.2500-0.0833 0.2500 (  8176 PWs)   bands (ev):

   -17.5142  -6.9573  -2.3283  -2.2154  -2.1731   7.0791   7.3012   7.6975
    12.4951  13.1359  13.4732  14.0578  15.9174  16.2531  17.1378  18.3630

          k = 0.1667-0.0000 0.1667 (  8166 PWs)   bands (ev):

   -17.5610  -6.8296  -2.2456  -2.1851  -2.1627   7.4113   7.5470   7.8000
    12.4129  12.6380  13.1703  13.4912  15.4820  15.7096  16.4883  18.5102

          k = 0.0000 0.3333 0.0000 (  8168 PWs)   bands (ev):

   -17.5253  -6.8931  -2.3089  -2.3089  -2.1744   6.9991   7.8088   7.8088
    11.9253  12.7242  13.9495  13.9496  15.4845  16.3565  16.9421  18.4004

          k =-0.0833 0.4167-0.0833 (  8179 PWs)   bands (ev):

   -17.4827  -6.9749  -2.3745  -2.3675  -2.2661   6.8788   7.7073   7.7445
    11.7095  13.2198  14.4269  14.4592  15.7863  16.7407  17.4132  18.3888

          k =-0.1667 0.5000-0.1667 (  8199 PWs)   bands (ev):

   -17.4301  -7.0854  -2.4387  -2.4069  -2.3902   6.8481   7.4546   7.5683
    11.7937  13.8583  15.0012  15.0141  16.3621  16.8994  17.9002  18.3064

          k =-0.2500 0.5833-0.2500 (  8201 PWs)   bands (ev):

   -17.3815  -7.1938  -2.5487  -2.4497  -2.4173   6.8728   7.1923   7.3443
    12.1547  14.2630  15.4755  15.6603  16.9033  17.0636  18.0261  18.2416

          k = 0.6667-0.3333 0.6667 (  8227 PWs)   bands (ev):

   -17.3506  -7.2691  -2.6569  -2.4507  -2.3961   6.7910   7.1343   7.1557
    12.6905  14.2126  15.6526  16.1538  17.0441  17.4113  18.1122  18.1704

          k = 0.5833-0.2500 0.5833 (  8221 PWs)   bands (ev):

   -17.3463  -7.2900  -2.7118  -2.4186  -2.3484   6.6535   6.9839   7.3212
    13.1159  13.9909  15.3703  16.1592  17.2669  17.4321  17.9206  18.5060

          k = 0.5000-0.1667 0.5000 (  8198 PWs)   bands (ev):

   -17.3698  -7.2520  -2.6966  -2.3642  -2.2862   6.6057   6.9209   7.5282
    12.9415  14.1196  14.7987  15.6994  17.2085  17.4470  18.0192  18.4430

          k = 0.4167-0.0833 0.4167 (  8195 PWs)   bands (ev):

   -17.4143  -7.1673  -2.6116  -2.3018  -2.2259   6.6672   6.9580   7.7036
    12.6092  14.0069  14.2082  15.2207  16.9471  17.2412  17.9863  18.4166

          k = 0.3333 0.0000 0.3333 (  8188 PWs)   bands (ev):

   -17.4672  -7.0599  -2.4765  -2.2476  -2.1841   6.8313   7.0924   7.7753
    12.4458  13.5492  13.7441  14.7427  16.4028  16.7908  17.5984  18.2418

          k = 0.0000 0.5000 0.0000 (  8220 PWs)   bands (ev):

   -17.4510  -6.9823  -2.4471  -2.4471  -2.4288   6.9289   7.8451   7.8451
    11.2658  13.3759  14.9710  14.9710  15.8390  16.8537  17.6591  18.5629

          k =-0.0833 0.5833-0.0833 (  8197 PWs)   bands (ev):

   -17.4083  -7.0220  -2.6335  -2.5094  -2.5043   7.0668   7.7655   7.8029
    11.1369  13.8174  15.4617  15.5004  16.2307  16.8374  17.9725  18.3399

          k =-0.1667 0.6667-0.1667 (  8201 PWs)   bands (ev):

   -17.3658  -7.0822  -2.8281  -2.5452  -2.5256   7.2530   7.5336   7.6451
    11.3474  14.3441  15.5832  15.8748  16.9520  17.0029  17.9911  18.2479

          k = 0.7500-0.2500 0.7500 (  8220 PWs)   bands (ev):

   -17.3351  -7.1445  -2.9676  -2.5447  -2.5058   7.2121   7.4293   7.4971
    11.8520  14.4552  15.5999  16.0213  17.2425  17.5552  17.8162  18.3421

          k = 0.6667-0.1667 0.6667 (  8223 PWs)   bands (ev):

   -17.3249  -7.1916  -3.0187  -2.5077  -2.4495   6.9564   7.2130   7.6850
    12.5533  13.9716  15.7619  15.7805  17.2644  17.4700  18.2321  18.3621

          k = 0.5833-0.0833 0.5833 (  8217 PWs)   bands (ev):

   -17.3382  -7.2124  -2.9663  -2.4434  -2.3701   6.7647   7.0416   7.8148
    13.1989  13.4846  15.2088  15.6225  17.2891  17.5163  18.2123  18.4376

          k = 0.5000 0.0000 0.5000 (  8210 PWs)   bands (ev):

   -17.3711  -7.2033  -2.8189  -2.3681  -2.2879   6.6643   6.9491   7.8299
    12.8656  13.8845  14.6426  15.3571  17.2581  17.4831  18.1900  18.3776

          k = 0.0000 0.6667 0.0000 (  8208 PWs)   bands (ev):

   -17.3770  -6.9840  -2.8950  -2.5813  -2.5813   7.3407   7.9174   7.9174
    10.7564  13.9330  16.1060  16.1060  16.2889  16.6329  18.1440  18.3081

          k =-0.0833 0.7500-0.0833 (  8206 PWs)   bands (ev):

   -17.3444  -6.9806  -3.1230  -2.6251  -2.6198   7.6189   7.8471   7.8830
    10.7319  14.2481  15.9937  16.3740  16.9075  17.0630  18.0183  18.3056

          k = 0.8333-0.1667 0.8333 (  8206 PWs)   bands (ev):

   -17.3194  -7.0128  -3.2653  -2.6306  -2.6109   7.6089   7.7242   7.8529
    11.0616  14.6661  15.3827  16.5021  17.5245  17.5410  17.7158  18.4186

          k = 0.7500-0.0833 0.7500 (  8205 PWs)   bands (ev):

   -17.3089  -7.0733  -3.2877  -2.5957  -2.5566   7.3064   7.4935   7.9876
    11.6846  14.5429  15.2122  16.2958  17.3919  17.4470  18.2677  18.4104

          k = 0.6667-0.0000 0.6667 (  8216 PWs)   bands (ev):

   -17.3159  -7.1466  -3.1808  -2.5278  -2.4692   7.0095   7.2482   7.9813
    12.4995  13.8679  15.4933  15.7547  17.2874  17.4633  18.3898  18.4949

          k = 0.0000 0.8333 0.0000 (  8196 PWs)   bands (ev):

   -17.3232  -6.9166  -3.3568  -2.6772  -2.6772   7.9226   7.9896   7.9896
    10.4397  14.1726  16.4955  16.7699  17.1411  17.1411  17.9693  18.3580

          k = 0.9167-0.0833 0.9167 (  8210 PWs)   bands (ev):

   -17.3078  -6.9111  -3.4763  -2.6905  -2.6852   7.9056   7.9404   8.1113
    10.5241  14.3115  16.0822  16.9558  17.4660  17.7269  17.8158  18.2688

          k = 0.8333 0.0000 0.8333 (  8212 PWs)   bands (ev):

   -17.3026  -6.9689  -3.4523  -2.6615  -2.6418   7.6475   7.7577   8.1392
    10.9640  14.6759  15.3257  16.8847  17.2279  17.6920  18.1758  18.3657

          k = 0.0000-1.0000 0.0000 (  8232 PWs)   bands (ev):

   -17.3035  -6.8725  -3.5524  -2.7118  -2.7118   8.0197   8.0197   8.2043
    10.3325  14.1522  16.5687  17.0668  17.7262  17.8713  17.8715  17.9398

          k =-0.1667 0.3333-0.0000 (  8189 PWs)   bands (ev):

   -17.5097  -6.9473  -2.3545  -2.2624  -2.1810   6.9679   7.4947   7.7921
    12.1384  13.0340  13.7839  14.1861  15.7617  16.4426  17.1594  18.3589

          k =-0.2500 0.4167-0.0833 (  8196 PWs)   bands (ev):

   -17.4573  -7.0670  -2.4609  -2.2944  -2.2417   6.8070   7.2353   7.7032
    12.1510  13.6443  14.2095  14.8147  16.3166  16.8675  17.6844  18.3247

          k =-0.3333 0.5000-0.1667 (  8198 PWs)   bands (ev):

   -17.4039  -7.1888  -2.5393  -2.3771  -2.2744   6.7118   7.0291   7.5029
    12.4152  14.1225  14.8130  15.3919  16.9218  17.0906  18.0614  18.3098

          k = 0.5833-0.4167 0.7500 (  8212 PWs)   bands (ev):

   -17.3641  -7.2793  -2.5709  -2.4700  -2.2884   6.6403   6.9706   7.2745
    12.8362  14.2215  15.3027  15.9800  17.1439  17.3339  18.0067  18.4104

          k = 0.5000-0.3333 0.6667 (  8226 PWs)   bands (ev):

   -17.3494  -7.3127  -2.5632  -2.5232  -2.2930   6.6049   7.0341   7.1174
    13.1083  14.1037  15.5122  16.2601  17.2796  17.3147  17.9722  18.4035

          k =-0.1667 0.5000 0.0000 (  8194 PWs)   bands (ev):

   -17.4399  -7.0339  -2.4991  -2.4195  -2.3674   6.8906   7.5299   7.8235
    11.5385  13.6349  14.8226  15.0606  16.1561  16.9134  17.7688  18.4207

          k =-0.2500 0.5833-0.0833 (  8202 PWs)   bands (ev):

   -17.3925  -7.1084  -2.6101  -2.5857  -2.3597   6.9797   7.2896   7.7562
    11.6799  14.1179  15.3101  15.3784  16.7770  17.0329  18.0814  18.2258

          k = 0.6667-0.3333 0.8333 (  8201 PWs)   bands (ev):

   -17.3531  -7.1774  -2.7377  -2.6712  -2.3388   6.9754   7.2202   7.5773
    12.1050  14.2437  15.5699  15.7899  17.0929  17.3927  18.0123  18.3567

          k = 0.5833-0.2500 0.7500 (  8217 PWs)   bands (ev):

   -17.3330  -7.2212  -2.8329  -2.6718  -2.3116   6.8256   7.3375   7.4180
    12.7142  13.8275  15.8231  15.9518  17.2637  17.4334  18.1966  18.2420

          k = 0.5000-0.1667 0.6667 (  8226 PWs)   bands (ev):

   -17.3379  -7.2279  -2.8491  -2.6115  -2.2838   6.7480   7.1473   7.6048
    13.0110  13.6013  15.5682  15.8273  17.3206  17.4080  18.1314  18.4709

          k = 0.4167-0.0833 0.5833 (  8204 PWs)   bands (ev):

   -17.3663  -7.1970  -2.7792  -2.5067  -2.2625   6.7494   7.0215   7.7567
    12.5529  13.9999  15.0676  15.4342  17.2618  17.3524  18.1605  18.4510

          k = 0.3333 0.0000 0.5000 (  8208 PWs)   bands (ev):

   -17.4102  -7.1381  -2.6376  -2.3853  -2.2526   6.7670   7.0542   7.8016
    12.2246  13.9629  14.5513  15.2050  16.9480  17.1204  17.9908  18.3985

          k =-0.1667 0.6667-0.0000 (  8186 PWs)   bands (ev):

   -17.3708  -7.0331  -2.8610  -2.6392  -2.4846   7.2991   7.6110   7.8921
    11.0596  14.1639  15.6295  15.9993  16.5712  17.0615  18.1505  18.1768

          k = 0.7500-0.2500 0.9167 (  8211 PWs)   bands (ev):

   -17.3372  -7.0629  -3.0435  -2.7340  -2.4393   7.3537   7.5588   7.8334
    11.3205  14.5039  15.2982  16.3602  17.0328  17.5306  17.9499  18.3542

          k = 0.6667-0.1667 0.8333 (  8209 PWs)   bands (ev):

   -17.3170  -7.1039  -3.1384  -2.7674  -2.3816   7.1122   7.6542   7.7690
    11.8734  14.2191  15.3128  16.4115  17.3524  17.5708  18.0478  18.3934

          k = 0.5833-0.0833 0.7500 (  8218 PWs)   bands (ev):

   -17.3159  -7.1469  -3.1212  -2.7316  -2.3239   6.9172   7.4191   7.8994
    12.6253  13.5441  15.4939  16.0864  17.3214  17.4872  18.3320  18.4761

          k = 0.5000-0.0000 0.6667 (  8209 PWs)   bands (ev):

   -17.3340  -7.1812  -2.9919  -2.6365  -2.2802   6.7992   7.1844   7.9023
    12.9407  13.4265  15.4611  15.5574  17.3169  17.4620  18.3248  18.4290

          k = 0.8333-0.1667 1.0000 (  8206 PWs)   bands (ev):

   -17.3206  -6.9647  -3.3106  -2.7391  -2.5659   7.6925   7.8878   7.9616
    10.7588  14.4280  15.6544  16.8835  17.0867  17.6756  17.8230  18.3382

          k = 0.7500-0.0833 0.9167 (  8201 PWs)   bands (ev):

   -17.3058  -6.9925  -3.3804  -2.8046  -2.4845   7.4348   7.8893   8.0493
    11.1317  14.7004  14.9769  17.0174  17.3651  17.7142  17.9610  18.3330

          k = 0.6667 0.0000 0.8333 (  8189 PWs)   bands (ev):

   -17.3041  -7.0595  -3.3132  -2.8020  -2.3972   7.1574   7.6894   8.0593
    11.7906  14.1791  15.1069  16.6760  17.3660  17.5333  18.3741  18.3860

          k =-0.1667-1.0000 0.0000 (  8214 PWs)   bands (ev):

   -17.3024  -6.9207  -3.5020  -2.7751  -2.5953   7.7292   7.9907   8.1717
    10.6568  14.4083  15.6857  17.1622  17.5624  17.8762  17.9076  17.9692

          k = 0.6667-0.3333 1.0000 (  8208 PWs)   bands (ev):

   -17.3544  -7.1290  -2.7926  -2.7671  -2.3087   7.0263   7.2532   7.8688
    11.8643  14.2024  15.2771  15.7559  17.0737  17.4002  18.2503  18.3099

          k = 0.5833-0.2500 0.9167 (  8215 PWs)   bands (ev):

   -17.3262  -7.1425  -2.9190  -2.9016  -2.2733   6.9090   7.4686   7.8360
    12.3271  13.7463  15.3719  16.2136  17.3420  17.4074  18.2812  18.4462

          k = 0.5000-0.1667 0.8333 (  8222 PWs)   bands (ev):

   -17.3159  -7.1472  -2.9588  -2.9563  -2.2608   6.8620   7.6724   7.6977
    12.9035  13.1131  15.4945  16.3824  17.3939  17.5184  18.2242  18.3666

          k = 0.6667-0.1667 1.0000 (  8217 PWs)   bands (ev):

   -17.3145  -7.0563  -3.1812  -2.9025  -2.3467   7.1533   7.8035   7.9383
    11.6115  14.2369  15.0169  16.9451  17.2353  17.5054  18.2749  18.3307

          k = 0.5833-0.0833 0.9167 (  8214 PWs)   bands (ev):

   -17.3038  -7.0690  -3.2079  -2.9976  -2.2791   6.9922   7.8934   7.9597
    12.1843  13.5101  15.0948  17.0922  17.3991  17.6659  18.1134  18.4288

          k = 0.5000 0.0000 0.8333 (  8225 PWs)   bands (ev):

   -17.3081  -7.1012  -3.1139  -2.9965  -2.2522   6.9061   7.7202   7.9762
    12.8162  12.9527  15.2289  16.7760  17.3851  17.5171  18.3488  18.4859

          k =-0.3333-1.0000 0.0000 (  8202 PWs)   bands (ev):

   -17.3001  -7.0118  -3.3605  -2.9420  -2.3606   7.1975   7.9675   8.0914
    11.5232  14.2103  14.8344  17.3485  17.6079  17.8197  17.8863  18.1060

          k =-0.5000-1.0000 0.0000 (  8188 PWs)   bands (ev):

   -17.2989  -7.0551  -3.1576  -3.1576  -2.2418   6.9490   8.0071   8.0071
    12.7586  12.7586  15.0108  17.4232  17.7080  17.7083  17.8914  18.2817

     the Fermi energy is     9.6032 ev
     (compare with:     9.6046 eV, computed in scf)

     Writing all to output data dir out/mp-1342.save/
 
     init_run     :      0.15s CPU      0.17s WALL (       1 calls)
     electrons    :     22.68s CPU     23.16s WALL (       1 calls)

     Called by init_run:
     wfcinit      :      0.00s CPU      0.00s WALL (       1 calls)
     potinit      :      0.03s CPU      0.03s WALL (       1 calls)
     hinit0       :      0.03s CPU      0.04s WALL (       1 calls)

     Called by electrons:
     c_bands      :     22.68s CPU     23.16s WALL (       1 calls)
     v_of_rho     :      0.02s CPU      0.02s WALL (       1 calls)

     Called by c_bands:
     init_us_2    :      0.03s CPU      0.03s WALL (      72 calls)
     init_us_2:cp :      0.03s CPU      0.03s WALL (      72 calls)
     cegterg      :     21.58s CPU     22.03s WALL (     213 calls)

     Called by *egterg:
     cdiaghg      :      1.21s CPU      1.23s WALL (    3523 calls)
     h_psi        :     18.61s CPU     19.02s WALL (    3736 calls)
     g_psi        :      0.18s CPU      0.18s WALL (    3451 calls)

     Called by h_psi:
     h_psi:calbec :      0.66s CPU      0.68s WALL (    3736 calls)
     vloc_psi     :     17.33s CPU     17.71s WALL (    3736 calls)
     add_vuspsi   :      0.53s CPU      0.54s WALL (    3736 calls)

     General routines
     calbec       :      0.65s CPU      0.67s WALL (    3736 calls)
     fft          :      0.01s CPU      0.02s WALL (      10 calls)
     fftw         :     15.15s CPU     15.48s WALL (   65688 calls)
 
     Parallel routines
 
     PWSCF        :     23.24s CPU     23.94s WALL

 
   This run was terminated on:  14:38:58   3Jan2024            

=------------------------------------------------------------------------------=
   JOB DONE.
=------------------------------------------------------------------------------=
