
     Program PWSCF v.7.1 starts on  3Jan2024 at 14:27:20 

     This program is part of the open-source Quantum ESPRESSO suite
     for quantum simulation of materials; please cite
         "P. Giannozzi et al., J. Phys.:Condens. Matter 21 395502 (2009);
         "P. Giannozzi et al., J. Phys.:Condens. Matter 29 465901 (2017);
         "P. Giannozzi et al., J. Chem. Phys. 152 154105 (2020);
          URL http://www.quantum-espresso.org", 
     in publications or presentations arising from this work. More details at
     http://www.quantum-espresso.org/quote

     Parallel version (MPI), running on     8 processors

     MPI processes distributed on     1 nodes
     122535 MiB available memory on the printing compute node when the environment starts
 
     Reading input from pw_mp-1265_scf_k3000_E70.in
Warning: card &CELL ignored
Warning: card / ignored

     Current dimensions of program PWSCF are:
     Max number of different atomic species (ntypx) = 10
     Max number of k-points (npk) =  40000
     Max angular momentum in pseudopotentials (lmaxx) =  4
 
     R & G space division:  proc/nbgrp/npool/nimage =       8
     Subspace diagonalization in iterative solution of the eigenvalue problem:
     a serial algorithm will be used

 
     Parallelization info
     --------------------
     sticks:   dense  smooth     PW     G-vecs:    dense   smooth      PW
     Min          74      74     24                 1229     1229     225
     Max          75      75     25                 1233     1233     227
     Sum         595     595    199                 9841     9841    1807
 
     Using Slab Decomposition
 


     bravais-lattice index     =            2
     lattice parameter (alat)  =       7.9255  a.u.
     unit-cell volume          =     124.4580 (a.u.)^3
     number of atoms/cell      =            2
     number of atomic types    =            2
     number of electrons       =        16.00
     number of Kohn-Sham states=           16
     kinetic-energy cutoff     =      70.0000  Ry
     charge density cutoff     =     280.0000  Ry
     scf convergence threshold =      1.0E-10
     mixing beta               =       0.7000
     number of iterations used =            8  plain     mixing
     Exchange-correlation= PBE
                           (   1   4   3   4   0   0   0)

     celldm(1)=   7.925516  celldm(2)=   0.000000  celldm(3)=   0.000000
     celldm(4)=   0.000000  celldm(5)=   0.000000  celldm(6)=   0.000000

     crystal axes: (cart. coord. in units of alat)
               a(1) = (  -0.500000   0.000000   0.500000 )  
               a(2) = (   0.000000   0.500000   0.500000 )  
               a(3) = (  -0.500000   0.500000   0.000000 )  

     reciprocal axes: (cart. coord. in units 2 pi/alat)
               b(1) = ( -1.000000 -1.000000  1.000000 )  
               b(2) = (  1.000000  1.000000  1.000000 )  
               b(3) = ( -1.000000  1.000000 -1.000000 )  


     PseudoPot. # 1 for Mg read from file:
     /usr/scratch4/magr4985/MG/devEb/pseudo/SG15/Mg.upf
     MD5 check sum: 37abd7b36ba9e3bb126701d58b28bff3
     Pseudo is Norm-conserving, Zval = 10.0
     Generated using ONCVPSP code by D. R. Hamann
     Using radial grid of  602 points,  4 beta functions with: 
                l(1) =   0
                l(2) =   0
                l(3) =   1
                l(4) =   1

     PseudoPot. # 2 for O  read from file:
     /usr/scratch4/magr4985/MG/devEb/pseudo/SG15/O.upf
     MD5 check sum: 9d2d0a8c71a1ad34a0c43284618bc51d
     Pseudo is Norm-conserving, Zval =  6.0
     Generated using ONCVPSP code by D. R. Hamann
     Using radial grid of  602 points,  4 beta functions with: 
                l(1) =   0
                l(2) =   0
                l(3) =   1
                l(4) =   1

     atomic species   valence    mass     pseudopotential
        Mg            10.00    24.30500     Mg( 1.00)
        O              6.00    15.99940     O ( 1.00)

     48 Sym. Ops., with inversion, found



   Cartesian axes

     site n.     atom                  positions (alat units)
         1           Mg  tau(   1) = (   0.0000000   0.0000000   0.0000000  )
         2           O   tau(   2) = (  -0.5000000   0.5000000   0.5000000  )

     number of k points=    72  Gaussian smearing, width (Ry)=  0.0005
                       cart. coord. in units 2pi/alat
        k(    1) = (   0.0000000   0.0000000   0.0000000), wk =   0.0011574
        k(    2) = (  -0.0833333   0.0833333  -0.0833333), wk =   0.0092593
        k(    3) = (  -0.1666667   0.1666667  -0.1666667), wk =   0.0092593
        k(    4) = (  -0.2500000   0.2500000  -0.2500000), wk =   0.0092593
        k(    5) = (  -0.3333333   0.3333333  -0.3333333), wk =   0.0092593
        k(    6) = (  -0.4166667   0.4166667  -0.4166667), wk =   0.0092593
        k(    7) = (   0.5000000  -0.5000000   0.5000000), wk =   0.0046296
        k(    8) = (   0.0000000   0.1666667   0.0000000), wk =   0.0069444
        k(    9) = (  -0.0833333   0.2500000  -0.0833333), wk =   0.0277778
        k(   10) = (  -0.1666667   0.3333333  -0.1666667), wk =   0.0277778
        k(   11) = (  -0.2500000   0.4166667  -0.2500000), wk =   0.0277778
        k(   12) = (  -0.3333333   0.5000000  -0.3333333), wk =   0.0277778
        k(   13) = (   0.5833333  -0.4166667   0.5833333), wk =   0.0277778
        k(   14) = (   0.5000000  -0.3333333   0.5000000), wk =   0.0277778
        k(   15) = (   0.4166667  -0.2500000   0.4166667), wk =   0.0277778
        k(   16) = (   0.3333333  -0.1666667   0.3333333), wk =   0.0277778
        k(   17) = (   0.2500000  -0.0833333   0.2500000), wk =   0.0277778
        k(   18) = (   0.1666667  -0.0000000   0.1666667), wk =   0.0138889
        k(   19) = (   0.0000000   0.3333333   0.0000000), wk =   0.0069444
        k(   20) = (  -0.0833333   0.4166667  -0.0833333), wk =   0.0277778
        k(   21) = (  -0.1666667   0.5000000  -0.1666667), wk =   0.0277778
        k(   22) = (  -0.2500000   0.5833333  -0.2500000), wk =   0.0277778
        k(   23) = (   0.6666667  -0.3333333   0.6666667), wk =   0.0277778
        k(   24) = (   0.5833333  -0.2500000   0.5833333), wk =   0.0277778
        k(   25) = (   0.5000000  -0.1666667   0.5000000), wk =   0.0277778
        k(   26) = (   0.4166667  -0.0833333   0.4166667), wk =   0.0277778
        k(   27) = (   0.3333333   0.0000000   0.3333333), wk =   0.0138889
        k(   28) = (   0.0000000   0.5000000   0.0000000), wk =   0.0069444
        k(   29) = (  -0.0833333   0.5833333  -0.0833333), wk =   0.0277778
        k(   30) = (  -0.1666667   0.6666667  -0.1666667), wk =   0.0277778
        k(   31) = (   0.7500000  -0.2500000   0.7500000), wk =   0.0277778
        k(   32) = (   0.6666667  -0.1666667   0.6666667), wk =   0.0277778
        k(   33) = (   0.5833333  -0.0833333   0.5833333), wk =   0.0277778
        k(   34) = (   0.5000000   0.0000000   0.5000000), wk =   0.0138889
        k(   35) = (   0.0000000   0.6666667   0.0000000), wk =   0.0069444
        k(   36) = (  -0.0833333   0.7500000  -0.0833333), wk =   0.0277778
        k(   37) = (   0.8333333  -0.1666667   0.8333333), wk =   0.0277778
        k(   38) = (   0.7500000  -0.0833333   0.7500000), wk =   0.0277778
        k(   39) = (   0.6666667  -0.0000000   0.6666667), wk =   0.0138889
        k(   40) = (   0.0000000   0.8333333   0.0000000), wk =   0.0069444
        k(   41) = (   0.9166667  -0.0833333   0.9166667), wk =   0.0277778
        k(   42) = (   0.8333333   0.0000000   0.8333333), wk =   0.0138889
        k(   43) = (   0.0000000  -1.0000000   0.0000000), wk =   0.0034722
        k(   44) = (  -0.1666667   0.3333333   0.0000000), wk =   0.0277778
        k(   45) = (  -0.2500000   0.4166667  -0.0833333), wk =   0.0555556
        k(   46) = (  -0.3333333   0.5000000  -0.1666667), wk =   0.0555556
        k(   47) = (   0.5833333  -0.4166667   0.7500000), wk =   0.0555556
        k(   48) = (   0.5000000  -0.3333333   0.6666667), wk =   0.0277778
        k(   49) = (  -0.1666667   0.5000000   0.0000000), wk =   0.0277778
        k(   50) = (  -0.2500000   0.5833333  -0.0833333), wk =   0.0555556
        k(   51) = (   0.6666667  -0.3333333   0.8333333), wk =   0.0555556
        k(   52) = (   0.5833333  -0.2500000   0.7500000), wk =   0.0555556
        k(   53) = (   0.5000000  -0.1666667   0.6666667), wk =   0.0555556
        k(   54) = (   0.4166667  -0.0833333   0.5833333), wk =   0.0555556
        k(   55) = (   0.3333333   0.0000000   0.5000000), wk =   0.0277778
        k(   56) = (  -0.1666667   0.6666667  -0.0000000), wk =   0.0277778
        k(   57) = (   0.7500000  -0.2500000   0.9166667), wk =   0.0555556
        k(   58) = (   0.6666667  -0.1666667   0.8333333), wk =   0.0555556
        k(   59) = (   0.5833333  -0.0833333   0.7500000), wk =   0.0555556
        k(   60) = (   0.5000000   0.0000000   0.6666667), wk =   0.0277778
        k(   61) = (   0.8333333  -0.1666667   1.0000000), wk =   0.0277778
        k(   62) = (   0.7500000  -0.0833333   0.9166667), wk =   0.0555556
        k(   63) = (   0.6666667   0.0000000   0.8333333), wk =   0.0277778
        k(   64) = (  -0.1666667  -1.0000000  -0.0000000), wk =   0.0138889
        k(   65) = (   0.6666667  -0.3333333   1.0000000), wk =   0.0277778
        k(   66) = (   0.5833333  -0.2500000   0.9166667), wk =   0.0555556
        k(   67) = (   0.5000000  -0.1666667   0.8333333), wk =   0.0277778
        k(   68) = (   0.6666667  -0.1666667   1.0000000), wk =   0.0277778
        k(   69) = (   0.5833333  -0.0833333   0.9166667), wk =   0.0555556
        k(   70) = (   0.5000000   0.0000000   0.8333333), wk =   0.0277778
        k(   71) = (  -0.3333333  -1.0000000   0.0000000), wk =   0.0138889
        k(   72) = (  -0.5000000  -1.0000000   0.0000000), wk =   0.0069444

     Dense  grid:     9841 G-vectors     FFT dimensions: (  30,  30,  30)

     Estimated max dynamical RAM per process >       4.53 MB

     Estimated total dynamical RAM >      36.24 MB

     Initial potential from superposition of free atoms

     starting charge      15.9336, renormalised to      16.0000
     Starting wfcs are random

     total cpu time spent up to now is        0.2 secs

     Self-consistent Calculation

     iteration #  1     ecut=    70.00 Ry     beta= 0.70
     Davidson diagonalization with overlap
     c_bands:  1 eigenvalues not converged
     c_bands:  1 eigenvalues not converged
     c_bands:  1 eigenvalues not converged
     ethr =  5.00E-06,  avg # of iterations = 15.7

     total cpu time spent up to now is        2.0 secs

     total energy              =    -140.69355962 Ry
     estimated scf accuracy    <       0.36758226 Ry

     iteration #  2     ecut=    70.00 Ry     beta= 0.70
     Davidson diagonalization with overlap
     ethr =  2.30E-03,  avg # of iterations =  2.3

     total cpu time spent up to now is        2.4 secs

     total energy              =    -140.78858423 Ry
     estimated scf accuracy    <       0.31076327 Ry

     iteration #  3     ecut=    70.00 Ry     beta= 0.70
     Davidson diagonalization with overlap
     ethr =  1.94E-03,  avg # of iterations =  1.8

     total cpu time spent up to now is        2.8 secs

     total energy              =    -140.84861249 Ry
     estimated scf accuracy    <       0.00157432 Ry

     iteration #  4     ecut=    70.00 Ry     beta= 0.70
     Davidson diagonalization with overlap
     ethr =  9.84E-06,  avg # of iterations =  3.8

     total cpu time spent up to now is        3.3 secs

     total energy              =    -140.84893381 Ry
     estimated scf accuracy    <       0.00005243 Ry

     iteration #  5     ecut=    70.00 Ry     beta= 0.70
     Davidson diagonalization with overlap
     ethr =  3.28E-07,  avg # of iterations =  3.4

     total cpu time spent up to now is        3.7 secs

     total energy              =    -140.84893810 Ry
     estimated scf accuracy    <       0.00000134 Ry

     iteration #  6     ecut=    70.00 Ry     beta= 0.70
     Davidson diagonalization with overlap
     ethr =  8.40E-09,  avg # of iterations =  4.4

     total cpu time spent up to now is        4.3 secs

     total energy              =    -140.84893842 Ry
     estimated scf accuracy    <       0.00000009 Ry

     iteration #  7     ecut=    70.00 Ry     beta= 0.70
     Davidson diagonalization with overlap
     ethr =  5.45E-10,  avg # of iterations =  3.0

     total cpu time spent up to now is        4.7 secs

     total energy              =    -140.84893844 Ry
     estimated scf accuracy    <          4.6E-09 Ry

     iteration #  8     ecut=    70.00 Ry     beta= 0.70
     Davidson diagonalization with overlap
     ethr =  2.85E-11,  avg # of iterations =  3.7

     total cpu time spent up to now is        5.2 secs

     End of self-consistent calculation

          k = 0.0000 0.0000 0.0000 (  1243 PWs)   bands (ev):

   -63.3910 -30.1628 -30.1628 -30.1628  -8.3504   8.9240   8.9240   8.9240
    13.8219  24.9056  24.9056  24.9056  28.7422  30.7372  30.7372  33.5340

          k =-0.0833 0.0833-0.0833 (  1243 PWs)   bands (ev):

   -63.3903 -30.1689 -30.1634 -30.1634  -8.2727   8.4566   8.8763   8.8763
    14.2730  23.9199  25.0774  25.0774  30.0479  30.1640  30.1640  33.5079

          k =-0.1667 0.1667-0.1667 (  1230 PWs)   bands (ev):

   -63.3884 -30.1855 -30.1651 -30.1651  -8.0528   7.4187   8.7499   8.7499
    15.2344  22.5283  25.4840  25.4840  29.4217  29.4217  31.4444  34.4323

          k =-0.2500 0.2500-0.2500 (  1239 PWs)   bands (ev):

   -63.3863 -30.2079 -30.1674 -30.1674  -7.7333   6.2607   8.5816   8.5816
    16.1658  21.6297  25.7744  25.7744  29.3326  29.3326  31.2024  37.0178

          k =-0.3333 0.3333-0.3333 (  1236 PWs)   bands (ev):

   -63.3839 -30.2303 -30.1697 -30.1697  -7.3858   5.2387   8.4212   8.4212
    16.7303  21.3875  25.7063  25.7063  30.0943  30.0943  30.6527  38.4401

          k =-0.4167 0.4167-0.4167 (  1221 PWs)   bands (ev):

   -63.3819 -30.2465 -30.1713 -30.1713  -7.1090   4.5327   8.3082   8.3082
    16.9147  21.5684  25.5222  25.5222  30.2515  31.1682  31.1682  38.0745

          k = 0.5000-0.5000 0.5000 (  1224 PWs)   bands (ev):

   -63.3814 -30.2525 -30.1719 -30.1719  -7.0024   4.2789   8.2666   8.2666
    16.9400  21.7008  25.4417  25.4417  30.1113  31.7047  31.7047  37.7791

          k = 0.0000 0.1667 0.0000 (  1243 PWs)   bands (ev):

   -63.3901 -30.1686 -30.1648 -30.1648  -8.2474   8.4029   8.8157   8.8157
    14.4193  23.6271  25.1479  25.1479  29.2092  30.4928  30.9536  33.8708

          k =-0.0833 0.2500-0.0833 (  1248 PWs)   bands (ev):

   -63.3889 -30.1808 -30.1672 -30.1659  -8.0771   7.6313   8.6790   8.7078
    15.2031  22.5036  25.4653  25.4817  28.1894  30.7132  32.0674  34.3615

          k =-0.1667 0.3333-0.1667 (  1237 PWs)   bands (ev):

   -63.3866 -30.2008 -30.1698 -30.1676  -7.7930   6.5843   8.5091   8.5382
    16.1614  21.5686  25.6046  25.8104  27.8947  30.5015  32.2498  36.5458

          k =-0.2500 0.4167-0.2500 (  1236 PWs)   bands (ev):

   -63.3843 -30.2227 -30.1721 -30.1703  -7.4562   5.5722   8.3326   8.3514
    16.8861  21.2032  25.2467  25.8733  28.6432  30.9131  31.8017  38.6587

          k =-0.3333 0.5000-0.3333 (  1228 PWs)   bands (ev):

   -63.3822 -30.2404 -30.1734 -30.1732  -7.1553   4.7943   8.1474   8.2458
    17.1989  21.3672  24.8558  25.7395  29.7747  31.4456  31.6613  38.5645

          k = 0.5833-0.4167 0.5833 (  1222 PWs)   bands (ev):

   -63.3811 -30.2495 -30.1754 -30.1733  -6.9897   4.4034   8.0277   8.2157
    17.2683  21.6094  24.6632  25.6267  30.6530  31.3839  31.9220  38.4436

          k = 0.5000-0.3333 0.5000 (  1221 PWs)   bands (ev):

   -63.3813 -30.2476 -30.1763 -30.1720  -7.0243   4.4858   8.0006   8.2673
    17.2653  21.5648  24.6985  25.6601  30.9890  31.1001  31.4949  38.5560

          k = 0.4167-0.2500 0.4167 (  1230 PWs)   bands (ev):

   -63.3828 -30.2352 -30.1758 -30.1696  -7.2449   5.0216   8.0730   8.3900
    17.1462  21.3138  24.9304  25.8662  29.6869  30.8751  31.5728  38.7696

          k = 0.3333-0.1667 0.3333 (  1232 PWs)   bands (ev):

   -63.3849 -30.2156 -30.1737 -30.1670  -7.5688   5.8947   8.2338   8.5555
    16.6928  21.3175  25.2386  26.1173  28.4656  30.2914  31.9828  37.5744

          k = 0.2500-0.0833 0.2500 (  1242 PWs)   bands (ev):

   -63.3874 -30.1941 -30.1706 -30.1647  -7.8968   6.9292   8.4537   8.7217
    15.8399  21.9102  25.3885  25.9163  28.2445  29.9833  32.2950  35.4539

          k = 0.1667-0.0000 0.1667 (  1239 PWs)   bands (ev):

   -63.3893 -30.1770 -30.1669 -30.1634  -8.1482   7.8920   8.6937   8.8412
    14.8828  22.9728  25.2630  25.3744  29.0269  30.1920  31.4127  34.2918

          k = 0.0000 0.3333 0.0000 (  1239 PWs)   bands (ev):

   -63.3878 -30.1837 -30.1703 -30.1703  -7.9639   7.3410   8.5357   8.5357
    15.7174  21.7601  25.7820  25.7820  26.8437  31.5961  33.7758  34.8961

          k =-0.0833 0.4167-0.0833 (  1243 PWs)   bands (ev):

   -63.3861 -30.1978 -30.1736 -30.1728  -7.7355   6.6335   8.3387   8.3616
    16.5469  20.9614  25.3965  26.1492  26.6711  31.7467  34.3988  36.2466

          k =-0.1667 0.5000-0.1667 (  1239 PWs)   bands (ev):

   -63.3840 -30.2160 -30.1763 -30.1759  -7.4394   5.8314   8.0556   8.2049
    17.3790  20.5767  24.4439  26.3240  27.4980  32.0009  34.1030  37.8865

          k =-0.2500 0.5833-0.2500 (  1234 PWs)   bands (ev):

   -63.3820 -30.2322 -30.1801 -30.1776  -7.1494   5.1480   7.7396   8.1033
    17.8720  20.7982  23.7532  26.2599  28.3677  32.5142  33.8104  38.0445

          k = 0.6667-0.3333 0.6667 (  1227 PWs)   bands (ev):

   -63.3807 -30.2419 -30.1843 -30.1771  -6.9536   4.7342   7.4784   8.0795
    18.0408  21.2788  23.3779  26.1271  29.1353  32.5867  33.5751  38.3790

          k = 0.5833-0.2500 0.5833 (  1222 PWs)   bands (ev):

   -63.3804 -30.2429 -30.1872 -30.1751  -6.9224   4.6878   7.3397   8.1385
    18.0980  21.4386  23.3249  26.0888  29.8584  31.5397  33.4351  38.9867

          k = 0.5000-0.1667 0.5000 (  1237 PWs)   bands (ev):

   -63.3816 -30.2353 -30.1877 -30.1720  -7.0681   5.0120   7.3661   8.2671
    18.0334  21.1712  23.6106  26.2379  29.8574  30.4648  33.4928  38.8805

          k = 0.4167-0.0833 0.4167 (  1237 PWs)   bands (ev):

   -63.3834 -30.2216 -30.1849 -30.1687  -7.3354   5.6050   7.5837   8.4377
    17.6152  20.9686  24.1825  26.6183  28.2072  30.6209  33.6774  37.6181

          k = 0.3333 0.0000 0.3333 (  1247 PWs)   bands (ev):

   -63.3856 -30.2066 -30.1787 -30.1660  -7.6386   6.2944   7.9825   8.6053
    16.7673  21.2560  24.8703  26.7794  27.3582  30.3381  33.4945  36.0270

          k = 0.0000 0.5000 0.0000 (  1243 PWs)   bands (ev):

   -63.3848 -30.2033 -30.1777 -30.1777  -7.5721   6.2883   8.1846   8.1846
    17.1594  20.1956  24.6445  26.5934  26.5934  32.6382  36.5900  36.5900

          k =-0.0833 0.5833-0.0833 (  1245 PWs)   bands (ev):

   -63.3831 -30.2153 -30.1817 -30.1811  -7.3382   5.7786   7.9251   8.0261
    17.9090  19.7140  23.6863  26.8963  27.1362  33.1270  36.6825  37.1027

          k =-0.1667 0.6667-0.1667 (  1235 PWs)   bands (ev):

   -63.3813 -30.2268 -30.1873 -30.1827  -7.0905   5.3385   7.4916   7.9245
    18.5092  19.8760  22.9250  26.9338  27.6489  33.6136  36.5161  36.9581

          k = 0.7500-0.2500 0.7500 (  1231 PWs)   bands (ev):

   -63.3800 -30.2336 -30.1944 -30.1823  -6.9000   5.0924   7.0007   7.9012
    18.7501  20.6484  22.4136  26.7993  27.9649  33.7109  36.0337  37.3628

          k = 0.6667-0.1667 0.6667 (  1227 PWs)   bands (ev):

   -63.3796 -30.2340 -30.2007 -30.1799  -6.8281   5.0851   6.6248   7.9624
    18.9290  21.2144  22.1945  26.6584  28.3658  32.5813  35.6570  37.9712

          k = 0.5833-0.0833 0.5833 (  1227 PWs)   bands (ev):

   -63.3801 -30.2301 -30.2027 -30.1761  -6.8998   5.2430   6.5502   8.0945
    18.9835  21.0819  22.4585  26.6173  29.2052  30.7685  35.4387  38.2254

          k = 0.5000 0.0000 0.5000 (  1211 PWs)   bands (ev):

   -63.3811 -30.2258 -30.1966 -30.1720  -7.0889   5.4127   6.9194   8.2690
    18.5510  20.8330  23.1708  26.6892  29.1149  30.1771  34.9901  37.9735

          k = 0.0000 0.6667 0.0000 (  1242 PWs)   bands (ev):

   -63.3818 -30.2217 -30.1852 -30.1852  -7.1756   5.4775   7.8649   7.8649
    18.3926  19.0540  22.9975  27.3656  27.3656  34.0040  36.2984  38.6468

          k =-0.0833 0.7500-0.0833 (  1232 PWs)   bands (ev):

   -63.3803 -30.2290 -30.1899 -30.1875  -6.9930   5.2041   7.5796   7.7595
    18.7450  19.0431  22.4560  27.5549  27.6546  34.6846  35.9022  38.8871

          k = 0.8333-0.1667 0.8333 (  1220 PWs)   bands (ev):

   -63.3791 -30.2317 -30.1980 -30.1875  -6.8408   5.1322   7.0201   7.7329
    18.8240  19.9023  22.0422  27.4647  27.6412  35.1533  36.0225  38.2560

          k = 0.7500-0.0833 0.7500 (  1228 PWs)   bands (ev):

   -63.3789 -30.2278 -30.2089 -30.1851  -6.7650   5.3358   6.3394   7.7901
    19.1057  20.8536  21.6804  27.2215  27.5326  34.2578  36.6070  37.6614

          k = 0.6667-0.0000 0.6667 (  1220 PWs)   bands (ev):

   -63.3790 -30.2212 -30.2166 -30.1809  -6.7872   5.6867   5.8496   7.9206
    19.3520  21.2612  21.6560  26.9330  28.0036  32.3636  36.8186  37.4423

          k = 0.0000 0.8333 0.0000 (  1238 PWs)   bands (ev):

   -63.3795 -30.2343 -30.1907 -30.1907  -6.8837   4.9890   7.6475   7.6475
    18.3631  19.0251  22.2508  27.9258  27.9258  35.1577  35.4520  39.9297

          k = 0.9167-0.0833 0.9167 (  1233 PWs)   bands (ev):

   -63.3788 -30.2362 -30.1947 -30.1913  -6.7945   4.9299   7.3827   7.6133
    18.3858  19.3203  22.1044  27.9132  27.9524  35.0701  36.1005  38.8801

          k = 0.8333 0.0000 0.8333 (  1228 PWs)   bands (ev):

   -63.3785 -30.2326 -30.2027 -30.1893  -6.7514   5.0964   6.8254   7.6647
    18.7391  20.0201  21.8874  27.5701  27.6826  35.6938  36.4511  36.8773

          k = 0.0000-1.0000 0.0000 (  1234 PWs)   bands (ev):

   -63.3786 -30.2387 -30.1927 -30.1927  -6.7768   4.8292   7.5712   7.5712
    18.1321  19.1129  22.1680  28.1339  28.1339  34.6583  36.2089  40.0915

          k =-0.1667 0.3333 0.0000 (  1245 PWs)   bands (ev):

   -63.3873 -30.1922 -30.1725 -30.1668  -7.8763   6.9761   8.3791   8.6263
    15.9982  21.6468  25.4197  26.0323  27.3159  30.8225  33.3090  35.2135

          k =-0.2500 0.4167-0.0833 (  1239 PWs)   bands (ev):

   -63.3851 -30.2096 -30.1775 -30.1687  -7.5859   6.1429   8.0562   8.4795
    16.9162  21.0302  24.8947  26.4145  27.4231  30.9742  33.5042  36.7691

          k =-0.3333 0.5000-0.1667 (  1233 PWs)   bands (ev):

   -63.3829 -30.2276 -30.1808 -30.1715  -7.2732   5.3476   7.7975   8.3080
    17.5697  20.9545  24.2589  26.2036  28.5263  31.3468  33.2235  38.6137

          k = 0.5833-0.4167 0.7500 (  1227 PWs)   bands (ev):

   -63.3812 -30.2408 -30.1825 -30.1741  -7.0271   4.7759   7.6341   8.1756
    17.8121  21.2931  23.8204  25.9747  29.6979  31.4835  33.1123  38.7862

          k = 0.5000-0.3333 0.6667 (  1224 PWs)   bands (ev):

   -63.3806 -30.2457 -30.1829 -30.1752  -6.9329   4.5678   7.5786   8.1257
    17.8524  21.5013  23.6709  25.8852  30.3089  31.3272  33.1704  39.0281

          k =-0.1667 0.5000 0.0000 (  1242 PWs)   bands (ev):

   -63.3844 -30.2092 -30.1802 -30.1744  -7.5030   6.0929   7.9879   8.2543
    17.3538  20.3633  24.4412  26.6650  26.8747  32.1481  35.5366  36.6271

          k =-0.2500 0.5833-0.0833 (  1239 PWs)   bands (ev):

   -63.3824 -30.2222 -30.1860 -30.1769  -7.2319   5.5465   7.5990   8.0923
    18.1578  20.2047  23.5380  26.5866  27.7417  32.4198  35.6238  37.6314

          k = 0.6667-0.3333 0.8333 (  1235 PWs)   bands (ev):

   -63.3808 -30.2327 -30.1904 -30.1793  -6.9947   5.1253   7.2356   7.9656
    18.5769  20.6637  22.8987  26.3554  28.5535  32.4448  35.5157  37.8348

          k = 0.5833-0.2500 0.7500 (  1222 PWs)   bands (ev):

   -63.3798 -30.2375 -30.1939 -30.1797  -6.8664   4.9298   6.9784   7.9355
    18.7148  21.2006  22.5874  26.1714  29.1839  31.9185  35.4542  38.0239

          k = 0.5000-0.1667 0.6667 (  1224 PWs)   bands (ev):

   -63.3801 -30.2357 -30.1957 -30.1777  -6.8929   5.0028   6.9044   8.0081
    18.7531  21.1762  22.6615  26.1865  29.7194  30.9316  35.2324  38.3577

          k = 0.4167-0.0833 0.5833 (  1232 PWs)   bands (ev):

   -63.3813 -30.2286 -30.1938 -30.1742  -7.0640   5.2957   7.0753   8.1585
    18.5552  20.7624  23.1413  26.4037  29.0326  30.8849  35.1086  38.3211

          k = 0.3333 0.0000 0.5000 (  1229 PWs)   bands (ev):

   -63.3830 -30.2191 -30.1871 -30.1708  -7.3204   5.7009   7.4999   8.3376
    17.8606  20.6720  23.9409  26.7092  27.7632  31.1513  34.7879  37.2102

          k =-0.1667 0.6667-0.0000 (  1240 PWs)   bands (ev):

   -63.3815 -30.2235 -30.1880 -30.1833  -7.1299   5.4396   7.6328   7.8661
    18.6183  19.3750  22.9203  26.9904  27.6568  33.6585  36.6782  38.0702

          k = 0.7500-0.2500 0.9167 (  1230 PWs)   bands (ev):

   -63.3800 -30.2292 -30.1947 -30.1856  -6.9329   5.2398   7.1668   7.7319
    19.0811  19.8008  22.3052  26.6955  28.2324  33.7553  36.7570  37.7378

          k = 0.6667-0.1667 0.8333 (  1223 PWs)   bands (ev):

   -63.3791 -30.2299 -30.2028 -30.1855  -6.8052   5.2555   6.6091   7.7116
    19.2629  20.7329  21.8728  26.2938  28.5935  33.2273  36.8968  37.5181

          k = 0.5833-0.0833 0.7500 (  1229 PWs)   bands (ev):

   -63.3792 -30.2264 -30.2096 -30.1827  -6.7874   5.4359   6.2034   7.7996
    19.4774  21.1271  21.7747  26.1338  29.0178  31.8972  37.0263  37.4992

          k = 0.5000 0.0000 0.6667 (  1234 PWs)   bands (ev):

   -63.3801 -30.2263 -30.2061 -30.1784  -6.8843   5.4087   6.4109   7.9657
    19.3648  20.8106  22.2677  26.2886  29.8559  30.3089  36.5465  37.7876

          k = 0.8333-0.1667 1.0000 (  1227 PWs)   bands (ev):

   -63.3792 -30.2326 -30.1937 -30.1905  -6.8586   5.0749   7.3919   7.5723
    18.7634  19.3818  22.1204  27.2389  28.2135  35.0130  35.8987  38.2664

          k = 0.7500-0.0833 0.9167 (  1225 PWs)   bands (ev):

   -63.3786 -30.2311 -30.2013 -30.1907  -6.7654   5.1647   6.8700   7.5252
    19.0350  20.1046  21.8202  26.6192  28.5415  34.9390  35.9990  37.3060

          k = 0.6667 0.0000 0.8333 (  1228 PWs)   bands (ev):

   -63.3786 -30.2243 -30.2119 -30.1876  -6.7398   5.4819   6.2130   7.6211
    19.4073  20.9773  21.4750  26.1349  28.6714  33.5848  36.3000  37.7970

          k =-0.1667-1.0000-0.0000 (  1218 PWs)   bands (ev):

   -63.3783 -30.2356 -30.1958 -30.1932  -6.7601   4.9639   7.3081   7.4618
    18.5573  19.5291  22.0163  27.2987  28.4191  35.1034  36.6196  37.3227

          k = 0.6667-0.3333 1.0000 (  1238 PWs)   bands (ev):

   -63.3809 -30.2264 -30.1956 -30.1799  -7.0150   5.3720   7.0667   7.9027
    19.0868  20.1057  22.6909  26.3453  28.6097  32.1118  37.1313  37.5909

          k = 0.5833-0.2500 0.9167 (  1219 PWs)   bands (ev):

   -63.3794 -30.2284 -30.2024 -30.1834  -6.8492   5.3187   6.6288   7.7241
    19.5538  20.6007  22.0934  25.8994  29.5570  31.4820  37.2016  37.7261

          k = 0.5000-0.1667 0.8333 (  1226 PWs)   bands (ev):

   -63.3792 -30.2290 -30.2047 -30.1850  -6.7873   5.3217   6.4483   7.6528
    19.6175  21.0058  21.8756  25.6510  29.9633  31.1945  37.0704  37.6909

          k = 0.6667-0.1667 1.0000 (  1221 PWs)   bands (ev):

   -63.3789 -30.2279 -30.2019 -30.1896  -6.8021   5.3182   6.7768   7.4577
    19.7158  20.1589  21.7761  25.9364  29.1597  33.0798  36.5065  37.7973

          k = 0.5833-0.0833 0.9167 (  1223 PWs)   bands (ev):

   -63.3786 -30.2228 -30.2100 -30.1912  -6.7361   5.5845   6.2687   7.3573
    20.0360  20.9063  21.3992  25.2427  29.8934  32.1831  36.0997  38.1421

          k = 0.5000 0.0000 0.8333 (  1224 PWs)   bands (ev):

   -63.3788 -30.2208 -30.2131 -30.1883  -6.7538   5.6979   6.0754   7.4778
    20.2259  20.7300  21.5740  25.2750  30.5482  30.9426  36.4997  38.3394

          k =-0.3333-1.0000 0.0000 (  1220 PWs)   bands (ev):

   -63.3783 -30.2272 -30.2042 -30.1943  -6.7273   5.3549   6.6755   7.2495
    19.5786  20.5616  21.5349  25.6625  29.3532  33.8488  35.5469  37.6965

          k =-0.5000-1.0000 0.0000 (  1232 PWs)   bands (ev):

   -63.3785 -30.2156 -30.2156 -30.1948  -6.7110   5.9586   5.9586   7.1464
    20.6910  20.6910  21.3176  24.6719  31.1298  31.1298  35.6822  38.2801

     the Fermi energy is    11.0144 ev

!    total energy              =    -140.84893844 Ry
     estimated scf accuracy    <          7.0E-11 Ry
     smearing contrib. (-TS)   =      -0.00000000 Ry
     internal energy E=F+TS    =    -140.84893844 Ry

     The total energy is F=E-TS. E is the sum of the following terms:
     one-electron contribution =     -55.87148475 Ry
     hartree contribution      =      31.42656553 Ry
     xc contribution           =     -21.22924668 Ry
     ewald contribution        =     -95.17477254 Ry

     convergence has been achieved in   8 iterations

     Writing all to output data dir out/mp-1265.save/
 
     init_run     :      0.16s CPU      0.18s WALL (       1 calls)
     electrons    :      4.62s CPU      4.98s WALL (       1 calls)

     Called by init_run:
     wfcinit      :      0.14s CPU      0.15s WALL (       1 calls)
     potinit      :      0.01s CPU      0.01s WALL (       1 calls)
     hinit0       :      0.01s CPU      0.01s WALL (       1 calls)

     Called by electrons:
     c_bands      :      4.20s CPU      4.52s WALL (       8 calls)
     sum_band     :      0.41s CPU      0.44s WALL (       8 calls)
     v_of_rho     :      0.02s CPU      0.02s WALL (       9 calls)
     mix_rho      :      0.00s CPU      0.00s WALL (       8 calls)

     Called by c_bands:
     init_us_2    :      0.04s CPU      0.04s WALL (    1224 calls)
     init_us_2:cp :      0.04s CPU      0.04s WALL (    1224 calls)
     cegterg      :      4.11s CPU      4.39s WALL (     576 calls)

     Called by *egterg:
     cdiaghg      :      0.97s CPU      1.03s WALL (    3317 calls)
     h_psi        :      2.84s CPU      3.05s WALL (    3389 calls)
     g_psi        :      0.02s CPU      0.03s WALL (    2741 calls)

     Called by h_psi:
     h_psi:calbec :      0.07s CPU      0.08s WALL (    3389 calls)
     vloc_psi     :      2.69s CPU      2.89s WALL (    3389 calls)
     add_vuspsi   :      0.05s CPU      0.05s WALL (    3389 calls)

     General routines
     calbec       :      0.06s CPU      0.07s WALL (    3389 calls)
     fft          :      0.01s CPU      0.01s WALL (      89 calls)
     ffts         :      0.00s CPU      0.00s WALL (       8 calls)
     fftw         :      2.73s CPU      2.94s WALL (   77920 calls)
 
     Parallel routines
 
     PWSCF        :      4.86s CPU      5.40s WALL

 
   This run was terminated on:  14:27:25   3Jan2024            

=------------------------------------------------------------------------------=
   JOB DONE.
=------------------------------------------------------------------------------=
