
     Program PWSCF v.7.1 starts on  8Apr2024 at 15:10:38 

     This program is part of the open-source Quantum ESPRESSO suite
     for quantum simulation of materials; please cite
         "P. Giannozzi et al., J. Phys.:Condens. Matter 21 395502 (2009);
         "P. Giannozzi et al., J. Phys.:Condens. Matter 29 465901 (2017);
         "P. Giannozzi et al., J. Chem. Phys. 152 154105 (2020);
          URL http://www.quantum-espresso.org", 
     in publications or presentations arising from this work. More details at
     http://www.quantum-espresso.org/quote

     Parallel version (MPI), running on    16 processors

     MPI processes distributed on     1 nodes
     245714 MiB available memory on the printing compute node when the environment starts
 
     Reading input from pw_mp-2758_scf_k3000_E65.in
Warning: card &CELL ignored
Warning: card / ignored

     Current dimensions of program PWSCF are:
     Max number of different atomic species (ntypx) = 10
     Max number of k-points (npk) =  40000
     Max angular momentum in pseudopotentials (lmaxx) =  4
 
     R & G space division:  proc/nbgrp/npool/nimage =      16
     Subspace diagonalization in iterative solution of the eigenvalue problem:
     a serial algorithm will be used

 
     Parallelization info
     --------------------
     sticks:   dense  smooth     PW     G-vecs:    dense   smooth      PW
     Min          78      78     22                 1848     1848     291
     Max          79      79     23                 1852     1852     294
     Sum        1261    1261    367                29603    29603    4693
 
     Using Slab Decomposition
 


     bravais-lattice index     =            2
     lattice parameter (alat)  =      11.8664  a.u.
     unit-cell volume          =     417.7298 (a.u.)^3
     number of atoms/cell      =            2
     number of atomic types    =            2
     number of electrons       =        16.00
     number of Kohn-Sham states=           16
     kinetic-energy cutoff     =      65.0000  Ry
     charge density cutoff     =     260.0000  Ry
     scf convergence threshold =      1.0E-10
     mixing beta               =       0.7000
     number of iterations used =            8  plain     mixing
     Exchange-correlation= PBE
                           (   1   4   3   4   0   0   0)

     celldm(1)=  11.866386  celldm(2)=   0.000000  celldm(3)=   0.000000
     celldm(4)=   0.000000  celldm(5)=   0.000000  celldm(6)=   0.000000

     crystal axes: (cart. coord. in units of alat)
               a(1) = (  -0.500000   0.000000   0.500000 )  
               a(2) = (   0.000000   0.500000   0.500000 )  
               a(3) = (  -0.500000   0.500000   0.000000 )  

     reciprocal axes: (cart. coord. in units 2 pi/alat)
               b(1) = ( -1.000000 -1.000000  1.000000 )  
               b(2) = (  1.000000  1.000000  1.000000 )  
               b(3) = ( -1.000000  1.000000 -1.000000 )  


     PseudoPot. # 1 for Se read from file:
     /usr/scratch4/magr4826/Promotion/Python/Code/devEb/pseudo/SG15/Se.upf
     MD5 check sum: e78e48a4f5d8ce1f8dc76ec1271f249c
     Pseudo is Norm-conserving, Zval =  6.0
     Generated using ONCVPSP code by D. R. Hamann
     Using radial grid of  602 points,  6 beta functions with: 
                l(1) =   0
                l(2) =   0
                l(3) =   1
                l(4) =   1
                l(5) =   2
                l(6) =   2

     PseudoPot. # 2 for Sr read from file:
     /usr/scratch4/magr4826/Promotion/Python/Code/devEb/pseudo/SG15/Sr.upf
     MD5 check sum: 3f9bc8d6f3e8472da0cbe0e6a3044a9f
     Pseudo is Norm-conserving, Zval = 10.0
     Generated using ONCVPSP code by D. R. Hamann
     Using radial grid of  602 points,  6 beta functions with: 
                l(1) =   0
                l(2) =   0
                l(3) =   1
                l(4) =   1
                l(5) =   2
                l(6) =   2

     atomic species   valence    mass     pseudopotential
        Se             6.00    78.96000     Se( 1.00)
        Sr            10.00    87.62000     Sr( 1.00)

     48 Sym. Ops., with inversion, found



   Cartesian axes

     site n.     atom                  positions (alat units)
         1           Sr  tau(   1) = (   0.0000000   0.0000000   0.0000000  )
         2           Se  tau(   2) = (  -0.5000000   0.5000000   0.5000000  )

     number of k points=    72  Gaussian smearing, width (Ry)=  0.0005
                       cart. coord. in units 2pi/alat
        k(    1) = (   0.0000000   0.0000000   0.0000000), wk =   0.0011574
        k(    2) = (  -0.0833333   0.0833333  -0.0833333), wk =   0.0092593
        k(    3) = (  -0.1666667   0.1666667  -0.1666667), wk =   0.0092593
        k(    4) = (  -0.2500000   0.2500000  -0.2500000), wk =   0.0092593
        k(    5) = (  -0.3333333   0.3333333  -0.3333333), wk =   0.0092593
        k(    6) = (  -0.4166667   0.4166667  -0.4166667), wk =   0.0092593
        k(    7) = (   0.5000000  -0.5000000   0.5000000), wk =   0.0046296
        k(    8) = (   0.0000000   0.1666667   0.0000000), wk =   0.0069444
        k(    9) = (  -0.0833333   0.2500000  -0.0833333), wk =   0.0277778
        k(   10) = (  -0.1666667   0.3333333  -0.1666667), wk =   0.0277778
        k(   11) = (  -0.2500000   0.4166667  -0.2500000), wk =   0.0277778
        k(   12) = (  -0.3333333   0.5000000  -0.3333333), wk =   0.0277778
        k(   13) = (   0.5833333  -0.4166667   0.5833333), wk =   0.0277778
        k(   14) = (   0.5000000  -0.3333333   0.5000000), wk =   0.0277778
        k(   15) = (   0.4166667  -0.2500000   0.4166667), wk =   0.0277778
        k(   16) = (   0.3333333  -0.1666667   0.3333333), wk =   0.0277778
        k(   17) = (   0.2500000  -0.0833333   0.2500000), wk =   0.0277778
        k(   18) = (   0.1666667  -0.0000000   0.1666667), wk =   0.0138889
        k(   19) = (   0.0000000   0.3333333   0.0000000), wk =   0.0069444
        k(   20) = (  -0.0833333   0.4166667  -0.0833333), wk =   0.0277778
        k(   21) = (  -0.1666667   0.5000000  -0.1666667), wk =   0.0277778
        k(   22) = (  -0.2500000   0.5833333  -0.2500000), wk =   0.0277778
        k(   23) = (   0.6666667  -0.3333333   0.6666667), wk =   0.0277778
        k(   24) = (   0.5833333  -0.2500000   0.5833333), wk =   0.0277778
        k(   25) = (   0.5000000  -0.1666667   0.5000000), wk =   0.0277778
        k(   26) = (   0.4166667  -0.0833333   0.4166667), wk =   0.0277778
        k(   27) = (   0.3333333   0.0000000   0.3333333), wk =   0.0138889
        k(   28) = (   0.0000000   0.5000000   0.0000000), wk =   0.0069444
        k(   29) = (  -0.0833333   0.5833333  -0.0833333), wk =   0.0277778
        k(   30) = (  -0.1666667   0.6666667  -0.1666667), wk =   0.0277778
        k(   31) = (   0.7500000  -0.2500000   0.7500000), wk =   0.0277778
        k(   32) = (   0.6666667  -0.1666667   0.6666667), wk =   0.0277778
        k(   33) = (   0.5833333  -0.0833333   0.5833333), wk =   0.0277778
        k(   34) = (   0.5000000   0.0000000   0.5000000), wk =   0.0138889
        k(   35) = (   0.0000000   0.6666667   0.0000000), wk =   0.0069444
        k(   36) = (  -0.0833333   0.7500000  -0.0833333), wk =   0.0277778
        k(   37) = (   0.8333333  -0.1666667   0.8333333), wk =   0.0277778
        k(   38) = (   0.7500000  -0.0833333   0.7500000), wk =   0.0277778
        k(   39) = (   0.6666667  -0.0000000   0.6666667), wk =   0.0138889
        k(   40) = (   0.0000000   0.8333333   0.0000000), wk =   0.0069444
        k(   41) = (   0.9166667  -0.0833333   0.9166667), wk =   0.0277778
        k(   42) = (   0.8333333   0.0000000   0.8333333), wk =   0.0138889
        k(   43) = (   0.0000000  -1.0000000   0.0000000), wk =   0.0034722
        k(   44) = (  -0.1666667   0.3333333   0.0000000), wk =   0.0277778
        k(   45) = (  -0.2500000   0.4166667  -0.0833333), wk =   0.0555556
        k(   46) = (  -0.3333333   0.5000000  -0.1666667), wk =   0.0555556
        k(   47) = (   0.5833333  -0.4166667   0.7500000), wk =   0.0555556
        k(   48) = (   0.5000000  -0.3333333   0.6666667), wk =   0.0277778
        k(   49) = (  -0.1666667   0.5000000   0.0000000), wk =   0.0277778
        k(   50) = (  -0.2500000   0.5833333  -0.0833333), wk =   0.0555556
        k(   51) = (   0.6666667  -0.3333333   0.8333333), wk =   0.0555556
        k(   52) = (   0.5833333  -0.2500000   0.7500000), wk =   0.0555556
        k(   53) = (   0.5000000  -0.1666667   0.6666667), wk =   0.0555556
        k(   54) = (   0.4166667  -0.0833333   0.5833333), wk =   0.0555556
        k(   55) = (   0.3333333   0.0000000   0.5000000), wk =   0.0277778
        k(   56) = (  -0.1666667   0.6666667  -0.0000000), wk =   0.0277778
        k(   57) = (   0.7500000  -0.2500000   0.9166667), wk =   0.0555556
        k(   58) = (   0.6666667  -0.1666667   0.8333333), wk =   0.0555556
        k(   59) = (   0.5833333  -0.0833333   0.7500000), wk =   0.0555556
        k(   60) = (   0.5000000   0.0000000   0.6666667), wk =   0.0277778
        k(   61) = (   0.8333333  -0.1666667   1.0000000), wk =   0.0277778
        k(   62) = (   0.7500000  -0.0833333   0.9166667), wk =   0.0555556
        k(   63) = (   0.6666667   0.0000000   0.8333333), wk =   0.0277778
        k(   64) = (  -0.1666667  -1.0000000  -0.0000000), wk =   0.0138889
        k(   65) = (   0.6666667  -0.3333333   1.0000000), wk =   0.0277778
        k(   66) = (   0.5833333  -0.2500000   0.9166667), wk =   0.0555556
        k(   67) = (   0.5000000  -0.1666667   0.8333333), wk =   0.0277778
        k(   68) = (   0.6666667  -0.1666667   1.0000000), wk =   0.0277778
        k(   69) = (   0.5833333  -0.0833333   0.9166667), wk =   0.0555556
        k(   70) = (   0.5000000   0.0000000   0.8333333), wk =   0.0277778
        k(   71) = (  -0.3333333  -1.0000000   0.0000000), wk =   0.0138889
        k(   72) = (  -0.5000000  -1.0000000   0.0000000), wk =   0.0069444

     Dense  grid:    29603 G-vectors     FFT dimensions: (  45,  45,  45)

     Estimated max dynamical RAM per process >       8.36 MB

     Estimated total dynamical RAM >     133.72 MB

     Initial potential from superposition of free atoms

     starting charge      15.7013, renormalised to      16.0000
     Starting wfcs are random

     total cpu time spent up to now is        0.4 secs

     Self-consistent Calculation

     iteration #  1     ecut=    65.00 Ry     beta= 0.70
     Davidson diagonalization with overlap
     c_bands:  1 eigenvalues not converged
     c_bands:  1 eigenvalues not converged
     c_bands:  1 eigenvalues not converged
     c_bands:  1 eigenvalues not converged
     c_bands:  1 eigenvalues not converged
     c_bands:  1 eigenvalues not converged
     c_bands:  1 eigenvalues not converged
     c_bands:  1 eigenvalues not converged
     c_bands:  1 eigenvalues not converged
     c_bands:  1 eigenvalues not converged
     c_bands:  1 eigenvalues not converged
     c_bands:  1 eigenvalues not converged
     c_bands:  2 eigenvalues not converged
     c_bands:  2 eigenvalues not converged
     c_bands:  3 eigenvalues not converged
     c_bands:  1 eigenvalues not converged
     c_bands:  1 eigenvalues not converged
     c_bands:  1 eigenvalues not converged
     c_bands:  1 eigenvalues not converged
     c_bands:  1 eigenvalues not converged
     c_bands:  1 eigenvalues not converged
     c_bands:  1 eigenvalues not converged
     c_bands:  1 eigenvalues not converged
     c_bands:  1 eigenvalues not converged
     c_bands:  1 eigenvalues not converged
     c_bands:  1 eigenvalues not converged
     c_bands:  1 eigenvalues not converged
     c_bands:  1 eigenvalues not converged
     c_bands:  1 eigenvalues not converged
     c_bands:  1 eigenvalues not converged
     c_bands:  1 eigenvalues not converged
     c_bands:  1 eigenvalues not converged
     c_bands:  1 eigenvalues not converged
     ethr =  5.00E-06,  avg # of iterations = 18.9

     total cpu time spent up to now is        3.4 secs

     total energy              =     -81.45471015 Ry
     estimated scf accuracy    <       0.08184447 Ry

     iteration #  2     ecut=    65.00 Ry     beta= 0.70
     Davidson diagonalization with overlap
     ethr =  5.12E-04,  avg # of iterations =  3.0

     total cpu time spent up to now is        4.1 secs

     total energy              =     -81.47623104 Ry
     estimated scf accuracy    <       0.02697566 Ry

     iteration #  3     ecut=    65.00 Ry     beta= 0.70
     Davidson diagonalization with overlap
     ethr =  1.69E-04,  avg # of iterations =  2.2

     total cpu time spent up to now is        4.8 secs

     total energy              =     -81.48228037 Ry
     estimated scf accuracy    <       0.00051255 Ry

     iteration #  4     ecut=    65.00 Ry     beta= 0.70
     Davidson diagonalization with overlap
     ethr =  3.20E-06,  avg # of iterations =  4.5

     total cpu time spent up to now is        5.5 secs

     total energy              =     -81.48233292 Ry
     estimated scf accuracy    <       0.00000676 Ry

     iteration #  5     ecut=    65.00 Ry     beta= 0.70
     Davidson diagonalization with overlap
     ethr =  4.22E-08,  avg # of iterations =  6.6

     total cpu time spent up to now is        6.8 secs

     total energy              =     -81.48233452 Ry
     estimated scf accuracy    <       0.00000025 Ry

     iteration #  6     ecut=    65.00 Ry     beta= 0.70
     Davidson diagonalization with overlap
     ethr =  1.58E-09,  avg # of iterations =  5.6

     total cpu time spent up to now is        8.2 secs

     total energy              =     -81.48233461 Ry
     estimated scf accuracy    <          9.8E-09 Ry

     iteration #  7     ecut=    65.00 Ry     beta= 0.70
     Davidson diagonalization with overlap
     ethr =  6.11E-11,  avg # of iterations =  4.4

     total cpu time spent up to now is        9.1 secs

     total energy              =     -81.48233461 Ry
     estimated scf accuracy    <          1.8E-10 Ry

     iteration #  8     ecut=    65.00 Ry     beta= 0.70
     Davidson diagonalization with overlap
     ethr =  1.16E-12,  avg # of iterations =  6.4

     total cpu time spent up to now is       10.0 secs

     End of self-consistent calculation

          k = 0.0000 0.0000 0.0000 (  3695 PWs)   bands (ev):

   -28.4642 -10.4254 -10.4254 -10.4254  -5.7200   5.5255   5.5255   5.5255
     8.4220   9.5417   9.5417   9.5417  10.3564  10.3564  14.3895  19.7069

          k =-0.0833 0.0833-0.0833 (  3707 PWs)   bands (ev):

   -28.4635 -10.4444 -10.4263 -10.4263  -5.6788   5.2131   5.4278   5.4278
     8.7442   9.5901   9.6474   9.6474  10.5484  10.5484  14.6643  18.6774

          k =-0.1667 0.1667-0.1667 (  3698 PWs)   bands (ev):

   -28.4616 -10.4951 -10.4288 -10.4288  -5.5661   4.5699   5.1893   5.1893
     9.1796   9.9400   9.9400  10.0117  11.0837  11.0837  15.3518  17.4214

          k =-0.2500 0.2500-0.2500 (  3705 PWs)   bands (ev):

   -28.4591 -10.5617 -10.4323 -10.4323  -5.4111   3.9119   4.9118   4.9118
     9.3789  10.3877  10.3877  10.8702  11.8543  11.8543  15.5503  16.9094

          k =-0.3333 0.3333-0.3333 (  3675 PWs)   bands (ev):

   -28.4565 -10.6257 -10.4357 -10.4357  -5.2541   3.3736   4.6725   4.6725
     9.6325  10.9588  10.9588  11.5716  12.7223  12.7223  15.0459  15.7464

          k =-0.4167 0.4167-0.4167 (  3711 PWs)   bands (ev):

   -28.4547 -10.6709 -10.4382 -10.4382  -5.1373   3.0238   4.5149   4.5149
     9.9707  11.5630  11.5630  11.6600  13.4835  13.4835  14.7862  14.7862

          k = 0.5000-0.5000 0.5000 (  3708 PWs)   bands (ev):

   -28.4540 -10.6872 -10.4391 -10.4391  -5.0941   2.9025   4.4603   4.4603
    10.1792  11.5032  11.8873  11.8873  13.7730  13.7730  14.3940  14.3940

          k = 0.0000 0.1667 0.0000 (  3711 PWs)   bands (ev):

   -28.4633 -10.4443 -10.4296 -10.4296  -5.6671   5.0574   5.4506   5.4506
     8.7979   9.3501   9.8010   9.8010  10.4134  10.8300  14.7503  18.6873

          k =-0.0833 0.2500-0.0833 (  3697 PWs)   bands (ev):

   -28.4618 -10.4810 -10.4342 -10.4310  -5.5840   4.5850   5.2590   5.3042
     9.1515   9.3580  10.1185  10.1386  10.6721  11.4529  15.3028  17.5031

          k =-0.1667 0.3333-0.1667 (  3699 PWs)   bands (ev):

   -28.4595 -10.5400 -10.4388 -10.4331  -5.4513   4.0370   4.9546   5.0610
     9.2376   9.9595  10.5465  10.6900  11.2719  12.2556  15.7202  16.6410

          k =-0.2500 0.4167-0.2500 (  3700 PWs)   bands (ev):

   -28.4569 -10.6022 -10.4422 -10.4372  -5.3037   3.5366   4.6821   4.8080
     9.4326  10.6052  11.0924  11.3768  12.0370  12.9961  15.0983  15.9071

          k =-0.3333 0.5000-0.3333 (  3716 PWs)   bands (ev):

   -28.4549 -10.6516 -10.4435 -10.4423  -5.1801   3.1686   4.5011   4.6064
     9.7701  11.2184  11.6760  11.7094  12.7837  13.5263  14.7898  15.0643

          k = 0.5833-0.4167 0.5833 (  3697 PWs)   bands (ev):

   -28.4538 -10.6765 -10.4468 -10.4424  -5.1149   2.9877   4.4320   4.4904
    10.1294  11.3601  11.8822  11.9342  13.4542  13.8170  14.3344  14.6413

          k = 0.5000-0.3333 0.5000 (  3703 PWs)   bands (ev):

   -28.4540 -10.6715 -10.4494 -10.4392  -5.1268   3.0205   4.4758   4.4779
    10.1015  11.4405  11.5622  11.9876  13.0610  14.2169  14.4187  14.7150

          k = 0.4167-0.2500 0.4167 (  3699 PWs)   bands (ev):

   -28.4555 -10.6378 -10.4495 -10.4346  -5.2124   3.2642   4.5649   4.6307
     9.7733  10.9606  11.4275  11.6556  12.4432  13.5525  14.9858  15.4391

          k = 0.3333-0.1667 0.3333 (  3697 PWs)   bands (ev):

   -28.4578 -10.5831 -10.4467 -10.4300  -5.3474   3.6877   4.7464   4.8690
     9.5119  10.3995  10.7146  11.0918  12.0321  12.6395  15.2746  16.1490

          k = 0.2500-0.0833 0.2500 (  3696 PWs)   bands (ev):

   -28.4603 -10.5212 -10.4414 -10.4266  -5.4948   4.2328   4.9919   5.1455
     9.3803   9.9202   9.9687  10.5185  11.3508  11.7535  15.7203  16.5328

          k = 0.1667-0.0000 0.1667 (  3707 PWs)   bands (ev):

   -28.4624 -10.4698 -10.4339 -10.4252  -5.6159   4.8044   5.2470   5.3678
     9.1021   9.5318   9.7081  10.0487  10.7361  11.0229  15.0790  17.7112

          k = 0.0000 0.3333 0.0000 (  3675 PWs)   bands (ev):

   -28.4608 -10.4891 -10.4411 -10.4411  -5.5443   4.3046   5.2867   5.2867
     8.9166   9.3299  10.4915  10.4915  10.5763  12.1418  15.6692  17.2544

          k =-0.0833 0.4167-0.0833 (  3684 PWs)   bands (ev):

   -28.4589 -10.5272 -10.4478 -10.4454  -5.4581   3.9650   5.0858   5.1446
     8.8154   9.7319  10.7630  10.9587  11.0523  12.9300  15.9186  16.3453

          k =-0.1667 0.5000-0.1667 (  3700 PWs)   bands (ev):

   -28.4566 -10.5768 -10.4524 -10.4503  -5.3482   3.6510   4.7713   4.9371
     8.9457  10.3804  11.2172  11.4800  11.6791  13.4327  14.9978  16.0498

          k =-0.2500 0.5833-0.2500 (  3701 PWs)   bands (ev):

   -28.4545 -10.6206 -10.4581 -10.4538  -5.2435   3.3946   4.5069   4.7308
     9.2665  11.0895  11.8202  11.8701  12.2426  13.3121  14.5716  15.3754

          k = 0.6667-0.3333 0.6667 (  3704 PWs)   bands (ev):

   -28.4532 -10.6476 -10.4671 -10.4515  -5.1716   3.2253   4.3721   4.5743
     9.7474  11.2873  12.0515  12.0703  12.8882  13.3817  14.2188  15.0989

          k = 0.5833-0.2500 0.5833 (  3689 PWs)   bands (ev):

   -28.4530 -10.6520 -10.4742 -10.4462  -5.1521   3.1768   4.3785   4.4959
    10.2137  10.9830  11.6855  12.2002  12.9271  13.8197  14.6528  15.0266

          k = 0.5000-0.1667 0.5000 (  3690 PWs)   bands (ev):

   -28.4540 -10.6339 -10.4764 -10.4393  -5.1910   3.2697   4.5074   4.5075
    10.1014  11.1158  11.2250  11.7760  12.3684  14.3502  15.0628  15.0712

          k = 0.4167-0.0833 0.4167 (  3698 PWs)   bands (ev):

   -28.4559 -10.5989 -10.4715 -10.4326  -5.2780   3.4995   4.6073   4.7248
     9.8751  10.5888  10.6631  11.6700  12.0634  13.5413  15.0243  15.8495

          k = 0.3333 0.0000 0.3333 (  3703 PWs)   bands (ev):

   -28.4582 -10.5577 -10.4588 -10.4280  -5.3893   3.8381   4.7799   4.9701
     9.7453  10.0016  10.1927  11.0344  11.9381  12.6048  15.4451  16.0799

          k = 0.0000 0.5000 0.0000 (  3655 PWs)   bands (ev):

   -28.4574 -10.5357 -10.4568 -10.4568  -5.4307   3.8094   5.1287   5.1287
     8.4516   9.8312  10.8180  11.4162  11.4162  13.6525  15.3566  16.5972

          k =-0.0833 0.5833-0.0833 (  3675 PWs)   bands (ev):

   -28.4555 -10.5626 -10.4645 -10.4635  -5.3771   3.6768   4.9453   5.0187
     8.4019  10.2406  11.0831  11.8762  11.9071  13.8583  14.6933  16.1880

          k =-0.1667 0.6667-0.1667 (  3697 PWs)   bands (ev):

   -28.4537 -10.5910 -10.4759 -10.4661  -5.3110   3.5967   4.6282   4.8566
     8.6354  10.9117  11.5943  12.1776  12.2790  13.1846  14.4768  15.7935

          k = 0.7500-0.2500 0.7500 (  3695 PWs)   bands (ev):

   -28.4524 -10.6101 -10.4917 -10.4639  -5.2489   3.5469   4.3523   4.6938
     9.0790  11.5022  12.1325  12.2629  12.3283  12.7740  14.2986  15.7035

          k = 0.6667-0.1667 0.6667 (  3694 PWs)   bands (ev):

   -28.4520 -10.6167 -10.5059 -10.4574  -5.2069   3.4785   4.2494   4.5703
     9.6949  11.1529  11.9214  12.1807  12.7914  13.1468  14.5490  15.6378

          k = 0.5833-0.0833 0.5833 (  3697 PWs)   bands (ev):

   -28.4526 -10.6143 -10.5095 -10.4485  -5.1968   3.4072   4.3314   4.5103
    10.3910  10.7804  11.4127  11.5149  12.9784  14.0302  14.9630  15.3132

          k = 0.5000 0.0000 0.5000 (  3709 PWs)   bands (ev):

   -28.4540 -10.6084 -10.4964 -10.4394  -5.2226   3.4031   4.5178   4.5235
    10.3535  10.7380  10.9398  11.4927  12.4138  14.3463  15.1191  15.4597

          k = 0.0000 0.6667 0.0000 (  3691 PWs)   bands (ev):

   -28.4541 -10.5670 -10.4726 -10.4726  -5.3834   3.6796   5.0220   5.0220
     8.0725  10.3321  11.0875  12.2775  12.2775  13.5742  14.7672  16.2716

          k =-0.0833 0.7500-0.0833 (  3694 PWs)   bands (ev):

   -28.4526 -10.5784 -10.4833 -10.4772  -5.3652   3.7136   4.8515   4.9460
     8.0987  10.7126  11.3434  12.4891  12.5381  12.9586  14.6810  16.3070

          k = 0.8333-0.1667 0.8333 (  3692 PWs)   bands (ev):

   -28.4516 -10.5829 -10.5048 -10.4762  -5.3263   3.7896   4.5001   4.8197
     8.4284  11.3606  11.8263  12.1500  12.5243  12.6190  14.5532  16.4533

          k = 0.7500-0.0833 0.7500 (  3698 PWs)   bands (ev):

   -28.4512 -10.5770 -10.5337 -10.4698  -5.2762   3.8594   4.1531   4.6836
     8.9684  11.6876  12.0159  12.2303  12.3183  12.4831  14.7412  15.9877

          k = 0.6667-0.0000 0.6667 (  3717 PWs)   bands (ev):

   -28.4515 -10.5859 -10.5381 -10.4596  -5.2283   3.6573   4.1593   4.5728
     9.6698  11.2705  11.6196  11.8119  12.9584  13.2481  15.0491  15.1927

          k = 0.0000 0.8333 0.0000 (  3688 PWs)   bands (ev):

   -28.4516 -10.5807 -10.4842 -10.4842  -5.3918   3.7888   4.9683   4.9683
     7.8310  10.6702  11.3075  12.6421  12.7243  12.7243  14.7052  16.8239

          k = 0.9167-0.0833 0.9167 (  3690 PWs)   bands (ev):

   -28.4510 -10.5807 -10.4958 -10.4852  -5.3830   3.8645   4.7981   4.9165
     7.9409  10.9021  11.5063  12.3900  12.6794  12.7298  14.5975  17.1593

          k = 0.8333 0.0000 0.8333 (  3700 PWs)   bands (ev):

   -28.4508 -10.5712 -10.5224 -10.4799  -5.3408   3.9453   4.4147   4.8102
     8.3563  11.4134  11.9145  12.2469  12.2722  12.5366  14.7025  16.6693

          k = 0.0000-1.0000 0.0000 (  3692 PWs)   bands (ev):

   -28.4508 -10.5838 -10.4885 -10.4885  -5.4038   3.8758   4.9531   4.9531
     7.7485  10.7144  11.3940  12.4243  12.8129  12.8129  14.5100  17.6833

          k =-0.1667 0.3333 0.0000 (  3687 PWs)   bands (ev):

   -28.4601 -10.5147 -10.4458 -10.4318  -5.4971   4.1821   5.0637   5.1866
     9.1906   9.5816  10.3514  10.5923  11.0681  12.2014  15.8565  16.4020

          k =-0.2500 0.4167-0.0833 (  3696 PWs)   bands (ev):

   -28.4578 -10.5638 -10.4558 -10.4342  -5.3782   3.7723   4.8047   4.9584
     9.2827  10.1376  10.7625  11.0852  11.7335  12.9606  15.3388  16.1565

          k =-0.3333 0.5000-0.1667 (  3699 PWs)   bands (ev):

   -28.4555 -10.6130 -10.4616 -10.4391  -5.2589   3.4261   4.5789   4.7238
     9.5156  10.7760  11.3537  11.6923  12.1080  13.5042  14.8803  15.6083

          k = 0.5833-0.4167 0.7500 (  3703 PWs)   bands (ev):

   -28.4538 -10.6484 -10.4636 -10.4444  -5.1711   3.1938   4.4375   4.5548
     9.8890  11.2158  11.6629  12.0551  12.5379  14.0540  14.3902  15.0341

          k = 0.5000-0.3333 0.6667 (  3694 PWs)   bands (ev):

   -28.4532 -10.6613 -10.4637 -10.4469  -5.1388   3.1119   4.3922   4.4920
    10.1822  11.0059  12.0044  12.0602  13.1808  13.6391  14.6785  14.6834

          k =-0.1667 0.5000 0.0000 (  3677 PWs)   bands (ev):

   -28.4570 -10.5554 -10.4621 -10.4477  -5.3887   3.7414   4.9290   5.0096
     8.7539  10.0727  11.0687  11.3015  11.6515  13.5334  15.1208  16.2239

          k =-0.2500 0.5833-0.0833 (  3690 PWs)   bands (ev):

   -28.4549 -10.5885 -10.4735 -10.4523  -5.3077   3.5676   4.6719   4.8194
     8.9466  10.6077  11.6165  11.7249  12.0530  13.5128  14.6407  15.8285

          k = 0.6667-0.3333 0.8333 (  3684 PWs)   bands (ev):

   -28.4532 -10.6157 -10.4814 -10.4577  -5.2360   3.4491   4.4337   4.6525
     9.3213  11.1918  11.8063  12.1389  12.3213  13.4163  14.3404  15.4491

          k = 0.5833-0.2500 0.7500 (  3692 PWs)   bands (ev):

   -28.4524 -10.6295 -10.4886 -10.4583  -5.1924   3.3767   4.3191   4.5401
     9.8473  10.9185  12.1450  12.2156  12.5870  13.4861  14.4743  15.3426

          k = 0.5000-0.1667 0.6667 (  3690 PWs)   bands (ev):

   -28.4526 -10.6274 -10.4933 -10.4529  -5.1886   3.3565   4.3542   4.5039
    10.1907  10.6898  11.7105  12.0362  12.7645  13.8918  14.7609  15.1271

          k = 0.4167-0.0833 0.5833 (  3697 PWs)   bands (ev):

   -28.4538 -10.6120 -10.4902 -10.4449  -5.2262   3.4103   4.4971   4.5639
     9.8418  10.8795  11.4724  11.5954  12.3871  14.2073  14.5141  15.5052

          k = 0.3333 0.0000 0.5000 (  3693 PWs)   bands (ev):

   -28.4557 -10.5889 -10.4766 -10.4378  -5.2957   3.5512   4.6419   4.7586
     9.5239  10.4336  11.0354  11.6880  12.0062  13.5485  14.9217  15.8970

          k =-0.1667 0.6667-0.0000 (  3701 PWs)   bands (ev):

   -28.4538 -10.5770 -10.4785 -10.4679  -5.3465   3.6495   4.8330   4.8860
     8.3960  10.5763  11.3940  12.2098  12.2636  13.3745  14.5903  16.0554

          k = 0.7500-0.2500 0.9167 (  3703 PWs)   bands (ev):

   -28.4524 -10.5884 -10.4928 -10.4738  -5.3045   3.6747   4.5534   4.7439
     8.6806  11.0703  11.8534  12.1754  12.4659  12.9080  14.5009  15.9474

          k = 0.6667-0.1667 0.8333 (  3702 PWs)   bands (ev):

   -28.4515 -10.5919 -10.5121 -10.4731  -5.2613   3.7136   4.2760   4.6213
     9.1643  11.3135  11.7731  12.3251  12.5056  12.9519  14.6105  16.0202

          k = 0.5833-0.0833 0.7500 (  3700 PWs)   bands (ev):

   -28.4515 -10.5926 -10.5256 -10.4655  -5.2283   3.6447   4.2080   4.5326
     9.8074  10.7908  11.7364  12.2164  12.5088  13.7305  14.8602  15.3511

          k = 0.5000 0.0000 0.6667 (  3702 PWs)   bands (ev):

   -28.4524 -10.6016 -10.5163 -10.4548  -5.2151   3.4972   4.3453   4.4972
    10.2996  10.5495  11.3211  11.8217  12.9039  14.0294  14.7845  15.3341

          k = 0.8333-0.1667 1.0000 (  3699 PWs)   bands (ev):

   -28.4516 -10.5799 -10.4905 -10.4869  -5.3583   3.7982   4.7630   4.8199
     8.1689  10.9339  11.6524  12.2889  12.6693  12.7094  14.6521  16.5370

          k = 0.7500-0.0833 0.9167 (  3700 PWs)   bands (ev):

   -28.4510 -10.5726 -10.5144 -10.4868  -5.3270   3.9121   4.4335   4.7092
     8.5401  11.2736  11.8464  12.2478  12.3526  12.7184  14.7589  16.5371

          k = 0.6667 0.0000 0.8333 (  3711 PWs)   bands (ev):

   -28.4509 -10.5541 -10.5514 -10.4782  -5.2793   4.0212   4.0543   4.6102
     9.1063  11.3473  11.6824  12.0874  12.5151  13.0746  14.9660  15.8102

          k =-0.1667-1.0000-0.0000 (  3708 PWs)   bands (ev):

   -28.4507 -10.5774 -10.4956 -10.4949  -5.3716   3.9107   4.7277   4.8000
     8.0916  10.9821  11.7454  12.3339  12.3688  12.8168  14.6427  17.1821

          k = 0.6667-0.3333 1.0000 (  3694 PWs)   bands (ev):

   -28.4532 -10.5951 -10.4944 -10.4595  -5.2677   3.5547   4.5613   4.6070
     9.2171  10.8709  11.6672  12.0330  12.3362  13.5393  14.4414  15.6854

          k = 0.5833-0.2500 0.9167 (  3696 PWs)   bands (ev):

   -28.4520 -10.5973 -10.5080 -10.4691  -5.2388   3.5983   4.3701   4.5040
     9.6470  10.8610  11.4385  12.3475  12.6257  13.6030  14.6622  15.5271

          k = 0.5000-0.1667 0.8333 (  3698 PWs)   bands (ev):

   -28.4515 -10.5976 -10.5122 -10.4738  -5.2283   3.6333   4.2712   4.4770
    10.1213  10.2981  11.9685  12.1114  12.4927  14.0337  14.8046  15.4107

          k = 0.6667-0.1667 1.0000 (  3707 PWs)   bands (ev):

   -28.4514 -10.5780 -10.5075 -10.4889  -5.2895   3.8037   4.4551   4.5223
     9.0170  11.2099  11.3420  12.4524  12.6639  12.9341  14.8159  15.9783

          k = 0.5833-0.0833 0.9167 (  3702 PWs)   bands (ev):

   -28.4509 -10.5634 -10.5280 -10.4943  -5.2700   3.9372   4.2229   4.4398
     9.5326  10.7153  11.4914  12.0583  12.7261  13.8398  15.0864  15.7136

          k = 0.5000 0.0000 0.8333 (  3706 PWs)   bands (ev):

   -28.4512 -10.5708 -10.5308 -10.4842  -5.2513   3.8177   4.2479   4.4237
    10.1418  10.1678  11.5046  12.2096  12.5919  14.3596  14.8191  15.4198

          k =-0.3333-1.0000 0.0000 (  3700 PWs)   bands (ev):

   -28.4507 -10.5600 -10.5123 -10.5097  -5.3063   4.0210   4.3339   4.4958
     8.9487  11.2453  11.3140  12.1004  12.8245  13.0513  15.0277  16.3767

          k =-0.5000-1.0000 0.0000 (  3704 PWs)   bands (ev):

   -28.4507 -10.5362 -10.5362 -10.5166  -5.2731   4.1575   4.2170   4.2170
    10.0845  10.0845  11.3694  11.9616  12.8284  14.7874  14.8319  15.6257

     the Fermi energy is     7.6954 ev

!    total energy              =     -81.48233461 Ry
     estimated scf accuracy    <          2.2E-11 Ry
     smearing contrib. (-TS)   =      -0.00000000 Ry
     internal energy E=F+TS    =     -81.48233461 Ry

     The total energy is F=E-TS. E is the sum of the following terms:
     one-electron contribution =     -19.05378050 Ry
     hartree contribution      =      14.09135787 Ry
     xc contribution           =     -12.95303001 Ry
     ewald contribution        =     -63.56688198 Ry

     convergence has been achieved in   8 iterations

     Writing all to output data dir out/mp-2758.save/
 
     init_run     :      0.31s CPU      0.36s WALL (       1 calls)
     electrons    :      8.24s CPU      9.72s WALL (       1 calls)

     Called by init_run:
     wfcinit      :      0.24s CPU      0.25s WALL (       1 calls)
     potinit      :      0.03s CPU      0.03s WALL (       1 calls)
     hinit0       :      0.02s CPU      0.05s WALL (       1 calls)

     Called by electrons:
     c_bands      :      7.55s CPU      8.87s WALL (       8 calls)
     sum_band     :      0.67s CPU      0.70s WALL (       8 calls)
     v_of_rho     :      0.03s CPU      0.03s WALL (       9 calls)
     mix_rho      :      0.00s CPU      0.00s WALL (       8 calls)

     Called by c_bands:
     init_us_2    :      0.05s CPU      0.06s WALL (    1224 calls)
     init_us_2:cp :      0.05s CPU      0.05s WALL (    1224 calls)
     cegterg      :      7.29s CPU      7.52s WALL (     576 calls)

     Called by *egterg:
     cdiaghg      :      0.97s CPU      1.00s WALL (    4286 calls)
     h_psi        :      6.12s CPU      6.30s WALL (    4358 calls)
     g_psi        :      0.02s CPU      0.02s WALL (    3710 calls)

     Called by h_psi:
     h_psi:calbec :      0.12s CPU      0.13s WALL (    4358 calls)
     vloc_psi     :      5.90s CPU      6.08s WALL (    4358 calls)
     add_vuspsi   :      0.07s CPU      0.07s WALL (    4358 calls)

     General routines
     calbec       :      0.12s CPU      0.12s WALL (    4358 calls)
     fft          :      0.02s CPU      0.05s WALL (      89 calls)
     ffts         :      0.00s CPU      0.00s WALL (       8 calls)
     fftw         :      6.21s CPU      6.41s WALL (   88740 calls)
 
     Parallel routines
 
     PWSCF        :      8.75s CPU     11.59s WALL

 
   This run was terminated on:  15:10:49   8Apr2024            

=------------------------------------------------------------------------------=
   JOB DONE.
=------------------------------------------------------------------------------=
