
     Program PWSCF v.7.1 starts on  3Jan2024 at 14:35:48 

     This program is part of the open-source Quantum ESPRESSO suite
     for quantum simulation of materials; please cite
         "P. Giannozzi et al., J. Phys.:Condens. Matter 21 395502 (2009);
         "P. Giannozzi et al., J. Phys.:Condens. Matter 29 465901 (2017);
         "P. Giannozzi et al., J. Chem. Phys. 152 154105 (2020);
          URL http://www.quantum-espresso.org", 
     in publications or presentations arising from this work. More details at
     http://www.quantum-espresso.org/quote

     Parallel version (MPI), running on     8 processors

     MPI processes distributed on     1 nodes
     248455 MiB available memory on the printing compute node when the environment starts
 
     Reading input from pw_mp-23167_nscf_k3000_E130.in
Warning: card &IONS ignored
Warning: card / ignored
Warning: card &CELL ignored
Warning: card / ignored

     Current dimensions of program PWSCF are:
     Max number of different atomic species (ntypx) = 10
     Max number of k-points (npk) =  40000
     Max angular momentum in pseudopotentials (lmaxx) =  4

     Atomic positions and unit cell read from directory:
     out/mp-23167.save/
 
 
     R & G space division:  proc/nbgrp/npool/nimage =       8
     Subspace diagonalization in iterative solution of the eigenvalue problem:
     a serial algorithm will be used

 
     Parallelization info
     --------------------
     sticks:   dense  smooth     PW     G-vecs:    dense   smooth      PW
     Min         272     272     76                 9550     9550    1438
     Max         274     274     77                 9551     9551    1441
     Sum        2185    2185    613                76405    76405   11513
 
     Using Slab Decomposition
 


     bravais-lattice index     =            1
     lattice parameter (alat)  =       7.2518  a.u.
     unit-cell volume          =     381.3560 (a.u.)^3
     number of atoms/cell      =            2
     number of atomic types    =            2
     number of electrons       =        20.00
     number of Kohn-Sham states=           20
     kinetic-energy cutoff     =     130.0000  Ry
     charge density cutoff     =     520.0000  Ry
     Exchange-correlation= PBE
                           (   1   4   3   4   0   0   0)

     celldm(1)=   7.251762  celldm(2)=   0.000000  celldm(3)=   0.000000
     celldm(4)=   0.000000  celldm(5)=   0.000000  celldm(6)=   0.000000

     crystal axes: (cart. coord. in units of alat)
               a(1) = (   1.000000   0.000000   0.000000 )  
               a(2) = (   0.000000   1.000000   0.000000 )  
               a(3) = (   0.000000   0.000000   1.000000 )  

     reciprocal axes: (cart. coord. in units 2 pi/alat)
               b(1) = (  1.000000  0.000000  0.000000 )  
               b(2) = (  0.000000  1.000000  0.000000 )  
               b(3) = (  0.000000  0.000000  1.000000 )  


     PseudoPot. # 1 for Cl read from file:
     /usr/scratch4/magr4985/MG/devEb/pseudo/SG15/Cl.upf
     MD5 check sum: d09d09b0a9f35bc416b5a5b3d9ab34ee
     Pseudo is Norm-conserving, Zval =  7.0
     Generated using ONCVPSP code by D. R. Hamann
     Using radial grid of  602 points,  4 beta functions with: 
                l(1) =   0
                l(2) =   0
                l(3) =   1
                l(4) =   1

     PseudoPot. # 2 for Tl read from file:
     /usr/scratch4/magr4985/MG/devEb/pseudo/SG15/Tl.upf
     MD5 check sum: 9df9092a7c7b421465112b12ba899e4a
     Pseudo is Norm-conserving, Zval = 13.0
     Generated using ONCVPSP code by D. R. Hamann
     Using radial grid of  602 points,  8 beta functions with: 
                l(1) =   0
                l(2) =   0
                l(3) =   1
                l(4) =   1
                l(5) =   2
                l(6) =   2
                l(7) =   3
                l(8) =   3

     atomic species   valence    mass     pseudopotential
        Cl             7.00    35.45300     Cl( 1.00)
        Tl            13.00   204.38330     Tl( 1.00)

     48 Sym. Ops., with inversion, found



   Cartesian axes

     site n.     atom                  positions (alat units)
         1           Tl  tau(   1) = (   0.0000000   0.0000000   0.0000000  )
         2           Cl  tau(   2) = (   0.5000000   0.5000000   0.5000000  )

     number of k points=    84  Gaussian smearing, width (Ry)=  0.0005
                       cart. coord. in units 2pi/alat
        k(    1) = (   0.0000000   0.0000000   0.0000000), wk =   0.0011574
        k(    2) = (   0.0000000   0.0000000   0.0833333), wk =   0.0069444
        k(    3) = (   0.0000000   0.0000000   0.1666667), wk =   0.0069444
        k(    4) = (   0.0000000   0.0000000   0.2500000), wk =   0.0069444
        k(    5) = (   0.0000000   0.0000000   0.3333333), wk =   0.0069444
        k(    6) = (   0.0000000   0.0000000   0.4166667), wk =   0.0069444
        k(    7) = (   0.0000000   0.0000000  -0.5000000), wk =   0.0034722
        k(    8) = (   0.0000000   0.0833333   0.0833333), wk =   0.0138889
        k(    9) = (   0.0000000   0.0833333   0.1666667), wk =   0.0277778
        k(   10) = (   0.0000000   0.0833333   0.2500000), wk =   0.0277778
        k(   11) = (   0.0000000   0.0833333   0.3333333), wk =   0.0277778
        k(   12) = (   0.0000000   0.0833333   0.4166667), wk =   0.0277778
        k(   13) = (   0.0000000   0.0833333  -0.5000000), wk =   0.0138889
        k(   14) = (   0.0000000   0.1666667   0.1666667), wk =   0.0138889
        k(   15) = (   0.0000000   0.1666667   0.2500000), wk =   0.0277778
        k(   16) = (   0.0000000   0.1666667   0.3333333), wk =   0.0277778
        k(   17) = (   0.0000000   0.1666667   0.4166667), wk =   0.0277778
        k(   18) = (   0.0000000   0.1666667  -0.5000000), wk =   0.0138889
        k(   19) = (   0.0000000   0.2500000   0.2500000), wk =   0.0138889
        k(   20) = (   0.0000000   0.2500000   0.3333333), wk =   0.0277778
        k(   21) = (   0.0000000   0.2500000   0.4166667), wk =   0.0277778
        k(   22) = (   0.0000000   0.2500000  -0.5000000), wk =   0.0138889
        k(   23) = (   0.0000000   0.3333333   0.3333333), wk =   0.0138889
        k(   24) = (   0.0000000   0.3333333   0.4166667), wk =   0.0277778
        k(   25) = (   0.0000000   0.3333333  -0.5000000), wk =   0.0138889
        k(   26) = (   0.0000000   0.4166667   0.4166667), wk =   0.0138889
        k(   27) = (   0.0000000   0.4166667  -0.5000000), wk =   0.0138889
        k(   28) = (   0.0000000  -0.5000000  -0.5000000), wk =   0.0034722
        k(   29) = (   0.0833333   0.0833333   0.0833333), wk =   0.0092593
        k(   30) = (   0.0833333   0.0833333   0.1666667), wk =   0.0277778
        k(   31) = (   0.0833333   0.0833333   0.2500000), wk =   0.0277778
        k(   32) = (   0.0833333   0.0833333   0.3333333), wk =   0.0277778
        k(   33) = (   0.0833333   0.0833333   0.4166667), wk =   0.0277778
        k(   34) = (   0.0833333   0.0833333  -0.5000000), wk =   0.0138889
        k(   35) = (   0.0833333   0.1666667   0.1666667), wk =   0.0277778
        k(   36) = (   0.0833333   0.1666667   0.2500000), wk =   0.0555556
        k(   37) = (   0.0833333   0.1666667   0.3333333), wk =   0.0555556
        k(   38) = (   0.0833333   0.1666667   0.4166667), wk =   0.0555556
        k(   39) = (   0.0833333   0.1666667  -0.5000000), wk =   0.0277778
        k(   40) = (   0.0833333   0.2500000   0.2500000), wk =   0.0277778
        k(   41) = (   0.0833333   0.2500000   0.3333333), wk =   0.0555556
        k(   42) = (   0.0833333   0.2500000   0.4166667), wk =   0.0555556
        k(   43) = (   0.0833333   0.2500000  -0.5000000), wk =   0.0277778
        k(   44) = (   0.0833333   0.3333333   0.3333333), wk =   0.0277778
        k(   45) = (   0.0833333   0.3333333   0.4166667), wk =   0.0555556
        k(   46) = (   0.0833333   0.3333333  -0.5000000), wk =   0.0277778
        k(   47) = (   0.0833333   0.4166667   0.4166667), wk =   0.0277778
        k(   48) = (   0.0833333   0.4166667  -0.5000000), wk =   0.0277778
        k(   49) = (   0.0833333  -0.5000000  -0.5000000), wk =   0.0069444
        k(   50) = (   0.1666667   0.1666667   0.1666667), wk =   0.0092593
        k(   51) = (   0.1666667   0.1666667   0.2500000), wk =   0.0277778
        k(   52) = (   0.1666667   0.1666667   0.3333333), wk =   0.0277778
        k(   53) = (   0.1666667   0.1666667   0.4166667), wk =   0.0277778
        k(   54) = (   0.1666667   0.1666667  -0.5000000), wk =   0.0138889
        k(   55) = (   0.1666667   0.2500000   0.2500000), wk =   0.0277778
        k(   56) = (   0.1666667   0.2500000   0.3333333), wk =   0.0555556
        k(   57) = (   0.1666667   0.2500000   0.4166667), wk =   0.0555556
        k(   58) = (   0.1666667   0.2500000  -0.5000000), wk =   0.0277778
        k(   59) = (   0.1666667   0.3333333   0.3333333), wk =   0.0277778
        k(   60) = (   0.1666667   0.3333333   0.4166667), wk =   0.0555556
        k(   61) = (   0.1666667   0.3333333  -0.5000000), wk =   0.0277778
        k(   62) = (   0.1666667   0.4166667   0.4166667), wk =   0.0277778
        k(   63) = (   0.1666667   0.4166667  -0.5000000), wk =   0.0277778
        k(   64) = (   0.1666667  -0.5000000  -0.5000000), wk =   0.0069444
        k(   65) = (   0.2500000   0.2500000   0.2500000), wk =   0.0092593
        k(   66) = (   0.2500000   0.2500000   0.3333333), wk =   0.0277778
        k(   67) = (   0.2500000   0.2500000   0.4166667), wk =   0.0277778
        k(   68) = (   0.2500000   0.2500000  -0.5000000), wk =   0.0138889
        k(   69) = (   0.2500000   0.3333333   0.3333333), wk =   0.0277778
        k(   70) = (   0.2500000   0.3333333   0.4166667), wk =   0.0555556
        k(   71) = (   0.2500000   0.3333333  -0.5000000), wk =   0.0277778
        k(   72) = (   0.2500000   0.4166667   0.4166667), wk =   0.0277778
        k(   73) = (   0.2500000   0.4166667  -0.5000000), wk =   0.0277778
        k(   74) = (   0.2500000  -0.5000000  -0.5000000), wk =   0.0069444
        k(   75) = (   0.3333333   0.3333333   0.3333333), wk =   0.0092593
        k(   76) = (   0.3333333   0.3333333   0.4166667), wk =   0.0277778
        k(   77) = (   0.3333333   0.3333333  -0.5000000), wk =   0.0138889
        k(   78) = (   0.3333333   0.4166667   0.4166667), wk =   0.0277778
        k(   79) = (   0.3333333   0.4166667  -0.5000000), wk =   0.0277778
        k(   80) = (   0.3333333  -0.5000000  -0.5000000), wk =   0.0069444
        k(   81) = (   0.4166667   0.4166667   0.4166667), wk =   0.0092593
        k(   82) = (   0.4166667   0.4166667  -0.5000000), wk =   0.0138889
        k(   83) = (   0.4166667  -0.5000000  -0.5000000), wk =   0.0069444
        k(   84) = (  -0.5000000  -0.5000000  -0.5000000), wk =   0.0011574

     Dense  grid:    76405 G-vectors     FFT dimensions: (  54,  54,  54)

     Estimated max dynamical RAM per process >      45.03 MB

     Estimated total dynamical RAM >     360.24 MB

     The potential is recalculated from file :
     out/mp-23167.save/charge-density

     Starting wfcs are random

     Band Structure Calculation
     Davidson diagonalization with overlap

     ethr =  5.00E-06,  avg # of iterations = 22.8

     total cpu time spent up to now is       19.6 secs

     End of band structure calculation

          k = 0.0000 0.0000 0.0000 (  9627 PWs)   bands (ev):

    -8.0658  -4.2559  -4.2559  -4.0124  -4.0124  -4.0124   1.1293   4.1631
     4.1631   4.1631  13.4853  13.4853  13.4853  13.5823  13.5823  18.1758
    20.0079  20.0079  20.0079  22.2404

          k = 0.0000 0.0000 0.0833 (  9579 PWs)   bands (ev):

    -8.0500  -4.2549  -4.2441  -4.0178  -4.0178  -4.0119   1.0644   4.1899
     4.1899   4.2195  12.5167  13.4047  13.4047  13.6256  14.3538  18.5827
    19.8908  19.8908  20.0051  21.1302

          k = 0.0000 0.0000 0.1667 (  9542 PWs)   bands (ev):

    -8.0063  -4.2523  -4.2122  -4.0327  -4.0327  -4.0106   0.8923   4.2643
     4.2643   4.3880  11.3290  13.1828  13.1828  13.7529  15.1943  19.4829
    19.7770  19.7770  19.9390  19.9974

          k = 0.0000 0.0000 0.2500 (  9546 PWs)   bands (ev):

    -7.9450  -4.2488  -4.1698  -4.0527  -4.0527  -4.0087   0.6679   4.3691
     4.3691   4.6664  10.1229  12.8786  12.8786  13.9551  16.2192  18.8950
    19.8840  19.8840  19.9866  20.3757

          k = 0.0000 0.0000 0.3333 (  9542 PWs)   bands (ev):

    -7.8816  -4.2452  -4.1288  -4.0726  -4.0726  -4.0069   0.4544   4.4781
     4.4781   5.0418   9.0221  12.5752  12.5752  14.2077  17.4294  18.0358
    19.9756  20.2470  20.2470  21.0122

          k = 0.0000 0.0000 0.4167 (  9522 PWs)   bands (ev):

    -7.8337  -4.2426  -4.0999  -4.0870  -4.0870  -4.0056   0.3042   4.5609
     4.5609   5.4539   8.1514  12.3543  12.3543  14.4490  17.4286  18.7170
    19.9673  20.8381  20.8381  21.3525

          k = 0.0000 0.0000-0.5000 (  9530 PWs)   bands (ev):

    -7.8159  -4.2417  -4.0923  -4.0923  -4.0897  -4.0051   0.2505   4.5918
     4.5918   5.6760   7.7727  12.2737  12.2737  14.5580  17.1972  19.5576
    19.9642  21.0736  21.6190  21.6343

          k = 0.0000 0.0833 0.0833 (  9567 PWs)   bands (ev):

    -8.0348  -4.2486  -4.2375  -4.0228  -4.0183  -4.0163   1.0156   4.0572
     4.2153   4.4144  12.4399  12.5713  13.3393  14.0006  14.7424  18.7078
    19.5079  19.8868  20.3393  21.4560

          k = 0.0000 0.0833 0.1667 (  9529 PWs)   bands (ev):

    -7.9925  -4.2440  -4.2074  -4.0363  -4.0321  -4.0156   0.8795   4.0075
     4.2858   4.6549  11.2972  12.5007  13.1553  14.1581  15.4966  18.7586
    19.2109  20.1126  20.5721  20.7711

          k = 0.0000 0.0833 0.2500 (  9537 PWs)   bands (ev):

    -7.9332  -4.2401  -4.1647  -4.0543  -4.0518  -4.0136   0.6904   4.0664
     4.3849   4.9123  10.1230  12.4043  12.8946  14.2874  16.4378  18.6921
    19.1320  19.5174  20.7179  21.3863

          k = 0.0000 0.0833 0.3333 (  9553 PWs)   bands (ev):

    -7.8721  -4.2365  -4.1233  -4.0719  -4.0714  -4.0115   0.5011   4.2024
     4.4878   5.1804   9.0824  12.2515  12.6272  14.4397  17.5394  18.2829
    19.2377  19.5050  20.8636  21.9126

          k = 0.0000 0.0833 0.4167 (  9545 PWs)   bands (ev):

    -7.8261  -4.2338  -4.0941  -4.0856  -4.0843  -4.0100   0.3637   4.3413
     4.5656   5.4346   8.3046  12.1114  12.4290  14.5957  17.7279  18.7584
    19.4085  20.0039  21.0740  21.3377

          k = 0.0000 0.0833-0.5000 (  9536 PWs)   bands (ev):

    -7.8089  -4.2328  -4.0908  -4.0893  -4.0833  -4.0095   0.3138   4.3998
     4.5947   5.5588   7.9938  12.0553  12.3561  14.6676  17.5468  19.4018
    19.4904  20.3247  21.1388  21.2518

          k = 0.0000 0.1667 0.1667 (  9537 PWs)   bands (ev):

    -7.9543  -4.2297  -4.1859  -4.0459  -4.0329  -4.0269   0.8340   3.7755
     4.3453   4.9349  10.9308  11.8356  13.0705  14.5254  16.1606  18.1279
    18.7207  20.8487  21.0256  21.2547

          k = 0.0000 0.1667 0.2500 (  9547 PWs)   bands (ev):

    -7.9009  -4.2213  -4.1463  -4.0583  -4.0496  -4.0266   0.7475   3.6813
     4.4286   5.1416  10.0612  11.7016  12.9332  14.7686  16.9548  17.9216
    18.4777  20.2277  21.1274  21.7422

          k = 0.0000 0.1667 0.3333 (  9555 PWs)   bands (ev):

    -7.8461  -4.2160  -4.1048  -4.0695  -4.0682  -4.0241   0.6360   3.7385
     4.5142   5.2452   9.2484  11.6573  12.7742  14.8766  17.6188  18.4044
    18.4799  19.5514  20.9097  21.1919

          k = 0.0000 0.1667 0.4167 (  9526 PWs)   bands (ev):

    -7.8050  -4.2127  -4.0819  -4.0792  -4.0727  -4.0222   0.5414   3.8805
     4.5786   5.2428   8.7094  11.6119  12.6462  14.9115  18.0185  18.6372
    19.1620  19.2811  20.5513  20.7310

          k = 0.0000 0.1667-0.5000 (  9550 PWs)   bands (ev):

    -7.7898  -4.2115  -4.0868  -4.0806  -4.0632  -4.0215   0.5046   3.9618
     4.6025   5.2147   8.5238  11.5907  12.5973  14.9212  18.1955  18.7460
    19.1979  19.3108  20.3617  21.3254

          k = 0.0000 0.2500 0.2500 (  9553 PWs)   bands (ev):

    -7.8560  -4.2056  -4.1116  -4.0626  -4.0493  -4.0413   0.8086   3.4066
     4.4890   5.2002   9.8118  11.2834  12.9707  15.1290  17.4141  17.6720
    18.0569  20.6513  20.8651  21.3862

          k = 0.0000 0.2500 0.3333 (  9530 PWs)   bands (ev):

    -7.8102  -4.1961  -4.0721  -4.0650  -4.0639  -4.0411   0.8381   3.3181
     4.5506   5.0665   9.4710  11.1615  12.9867  15.2035  17.4376  17.9070
    18.5210  20.0581  20.2339  21.0702

          k = 0.0000 0.2500 0.4167 (  9530 PWs)   bands (ev):

    -7.7761  -4.1908  -4.0767  -4.0672  -4.0407  -4.0388   0.8322   3.3985
     4.5963   4.8178   9.2438  11.1416  12.9826  15.1092  17.8005  17.9876
    19.0117  19.6136  19.7904  20.9017

          k = 0.0000 0.2500-0.5000 (  9540 PWs)   bands (ev):

    -7.7635  -4.1890  -4.0814  -4.0674  -4.0379  -4.0296   0.8236   3.4790
     4.6132   4.6744   9.1718  11.1397  12.9775  15.0571  18.0904  18.0941
    18.8413  19.3203  19.7584  21.6200

          k = 0.0000 0.3333 0.3333 (  9554 PWs)   bands (ev):

    -7.7738  -4.1826  -4.0618  -4.0598  -4.0558  -4.0324   1.0577   3.0526
     4.5872   4.6820   9.6722  10.8875  13.2132  15.1547  17.4710  17.5799
    19.0721  19.4001  19.6130  22.0352

          k = 0.0000 0.3333 0.4167 (  9539 PWs)   bands (ev):

    -7.7469  -4.1750  -4.0715  -4.0553  -4.0547  -4.0018   1.2162   3.0101
     4.2355   4.6142   9.7867  10.8117  13.3872  14.9183  17.5246  17.6351
    18.6757  19.2322  19.9678  21.9364

          k = 0.0000 0.3333-0.5000 (  9534 PWs)   bands (ev):

    -7.7370  -4.1726  -4.0759  -4.0542  -4.0526  -3.9904   1.2680   3.0712
     3.9993   4.6241   9.8179  10.8118  13.4521  14.8060  17.6050  17.6930
    18.3227  19.1765  20.3902  21.9837

          k = 0.0000 0.4167 0.4167 (  9536 PWs)   bands (ev):

    -7.7254  -4.1661  -4.0684  -4.0665  -4.0445  -3.9710   1.6205   2.8009
     3.6258   4.6273  10.2046  10.6444  13.7558  14.5471  17.2960  17.4781
    17.9110  19.9097  20.2082  22.5700

          k = 0.0000 0.4167-0.5000 (  9542 PWs)   bands (ev):

    -7.7175  -4.1633  -4.0719  -4.0661  -4.0406  -3.9594   1.8228   2.8032
     3.2721   4.6322  10.3435  10.6228  13.9157  14.3701  17.3037  17.4063
    17.5316  20.0885  20.7105  22.3227

          k = 0.0000-0.5000-0.5000 (  9540 PWs)   bands (ev):

    -7.7103  -4.1603  -4.0704  -4.0704  -4.0359  -3.9477   2.3213   2.7101
     2.7101   4.6351  10.5618  10.5618  14.1343  14.1576  17.2020  17.2020
    17.3052  20.8038  20.8038  22.4097

          k = 0.0833 0.0833 0.0833 (  9561 PWs)   bands (ev):

    -8.0200  -4.2366  -4.2366  -4.0229  -4.0219  -4.0219   0.9787   4.0856
     4.0856   4.5846  12.4249  12.5417  12.5417  14.6991  14.6991  18.9345
    19.4066  19.4066  20.8747  21.6440

          k = 0.0833 0.0833 0.1667 (  9541 PWs)   bands (ev):

    -7.9790  -4.2340  -4.2041  -4.0371  -4.0342  -4.0206   0.8717   3.9771
     4.1649   4.8257  11.3006  12.4403  12.5583  14.6139  15.5883  18.6974
    19.2614  19.6917  20.8304  21.4487

          k = 0.0833 0.0833 0.2500 (  9546 PWs)   bands (ev):

    -7.9217  -4.2305  -4.1606  -4.0578  -4.0494  -4.0184   0.7140   3.9853
     4.2769   5.0525  10.1534  12.2556  12.5945  14.5778  16.5880  18.4119
    19.0255  20.0947  20.2969  21.8810

          k = 0.0833 0.0833 0.3333 (  9546 PWs)   bands (ev):

    -7.8626  -4.2269  -4.1185  -4.0784  -4.0639  -4.0163   0.5478   4.0985
     4.3939   5.2486   9.1626  12.0279  12.5704  14.6327  17.7218  18.4063
    18.5181  20.2459  20.4477  21.4393

          k = 0.0833 0.0833 0.4167 (  9537 PWs)   bands (ev):

    -7.8181  -4.2243  -4.0933  -4.0888  -4.0741  -4.0147   0.4232   4.2436
     4.4831   5.3970   8.4544  11.8417  12.5206  14.7324  18.0610  18.5437
    18.8560  20.3514  20.9758  21.0037

          k = 0.0833 0.0833-0.5000 (  9536 PWs)   bands (ev):

    -7.8016  -4.2233  -4.0987  -4.0783  -4.0777  -4.0141   0.3773   4.3117
     4.5166   5.4578   8.1869  11.7705  12.4966  14.7833  17.8843  18.7673
    19.1246  20.8274  21.1033  21.2014

          k = 0.0833 0.1667 0.1667 (  9533 PWs)   bands (ev):

    -7.9417  -4.2170  -4.1851  -4.0467  -4.0335  -4.0329   0.8407   3.8087
     4.1768   5.0544  11.0265  11.7779  12.4807  14.9743  16.0136  18.4937
    18.8548  20.1004  21.4308  21.4944

          k = 0.0833 0.1667 0.2500 (  9533 PWs)   bands (ev):

    -7.8897  -4.2092  -4.1445  -4.0635  -4.0467  -4.0310   0.7748   3.7019
     4.2737   5.2078  10.1655  11.6248  12.4965  15.0294  16.8351  18.0670
    18.9060  20.1557  20.8482  21.6457

          k = 0.0833 0.1667 0.3333 (  9548 PWs)   bands (ev):

    -7.8364  -4.2045  -4.1021  -4.0825  -4.0569  -4.0289   0.6827   3.7382
     4.3818   5.2536   9.3622  11.4930  12.5739  15.0329  17.6666  17.9756
    19.1283  19.7213  20.3058  21.5352

          k = 0.0833 0.1667 0.4167 (  9542 PWs)   bands (ev):

    -7.7964  -4.2014  -4.0969  -4.0721  -4.0625  -4.0272   0.6009   3.8668
     4.4653   5.2023   8.8360  11.3543  12.6551  15.0472  17.7885  18.4349
    19.0284  19.9980  20.1365  21.4724

          k = 0.0833 0.1667-0.5000 (  9548 PWs)   bands (ev):

    -7.7816  -4.2003  -4.1022  -4.0659  -4.0599  -4.0265   0.5683   3.9447
     4.4971   5.1538   8.6560  11.2963  12.6873  15.0563  17.9234  18.3538
    18.8792  20.2423  20.7444  21.3849

          k = 0.0833 0.2500 0.2500 (  9547 PWs)   bands (ev):

    -7.8454  -4.1922  -4.1111  -4.0713  -4.0479  -4.0424   0.8440   3.4464
     4.3446   5.2167   9.9517  11.1847  12.5218  15.3185  17.1341  17.9299
    18.7399  19.7975  21.4719  21.5448

          k = 0.0833 0.2500 0.3333 (  9536 PWs)   bands (ev):

    -7.8001  -4.1828  -4.0833  -4.0717  -4.0536  -4.0427   0.8860   3.3530
     4.4265   5.0566   9.5770  11.0187  12.6426  15.3455  17.3838  17.9793
    19.1129  19.1938  20.8649  21.4921

          k = 0.0833 0.2500 0.4167 (  9540 PWs)   bands (ev):

    -7.7664  -4.1776  -4.0950  -4.0567  -4.0451  -4.0369   0.8915   3.4217
     4.4897   4.8017   9.3141  10.9175  12.8130  15.2563  17.3853  18.0377
    19.0940  19.7662  20.4610  21.1870

          k = 0.0833 0.2500-0.5000 (  9556 PWs)   bands (ev):

    -7.7540  -4.1759  -4.0996  -4.0552  -4.0456  -4.0266   0.8873   3.4960
     4.5143   4.6583   9.2287  10.8746  12.8970  15.2021  17.4487  17.8418
    19.5244  19.6605  20.3229  21.6732

          k = 0.0833 0.3333 0.3333 (  9540 PWs)   bands (ev):

    -7.7634  -4.1687  -4.0832  -4.0641  -4.0454  -4.0313   1.1094   3.0989
     4.4781   4.6810   9.7106  10.7502  12.7855  15.3145  17.4221  17.8463
    18.6394  19.4737  20.6702  22.1376

          k = 0.0833 0.3333 0.4167 (  9540 PWs)   bands (ev):

    -7.7362  -4.1610  -4.0885  -4.0645  -4.0467  -4.0010   1.2749   3.0532
     4.2456   4.5219   9.7674  10.6288  12.9891  15.0803  17.3676  17.6245
    18.8339  19.8502  20.3779  22.0111

          k = 0.0833 0.3333-0.5000 (  9526 PWs)   bands (ev):

    -7.7262  -4.1585  -4.0920  -4.0619  -4.0483  -3.9895   1.3307   3.1086
     4.0185   4.5362   9.7857  10.5887  13.1040  14.9425  17.3898  17.4439
    19.1228  19.6458  20.6409  22.0269

          k = 0.0833 0.4167 0.4167 (  9524 PWs)   bands (ev):

    -7.7139  -4.1518  -4.0820  -4.0748  -4.0454  -3.9706   1.6791   2.8519
     3.6570   4.5445  10.0958  10.4811  13.1652  14.7303  17.3481  17.3830
    18.6509  20.2397  20.4432  22.6342

          k = 0.0833 0.4167-0.5000 (  9534 PWs)   bands (ev):

    -7.7057  -4.1488  -4.0831  -4.0743  -4.0457  -3.9590   1.8826   2.8522
     3.3135   4.5531  10.2183  10.4361  13.2580  14.5502  17.2968  17.3456
    18.5153  20.3382  20.9278  22.3542

          k = 0.0833-0.5000-0.5000 (  9536 PWs)   bands (ev):

    -7.6982  -4.1458  -4.0788  -4.0788  -4.0455  -3.9474   2.3758   2.7628
     2.7628   4.5593  10.3896  10.3896  13.3145  14.3747  17.3046  17.3046
    18.2347  21.0154  21.0154  22.4363

          k = 0.1667 0.1667 0.1667 (  9525 PWs)   bands (ev):

    -7.9071  -4.1828  -4.1828  -4.0494  -4.0494  -4.0345   0.8522   3.9016
     3.9016   5.2079  11.1610  11.6070  11.6070  15.7281  15.7281  19.1678
    19.1678  19.4057  21.3844  21.7482

          k = 0.1667 0.1667 0.2500 (  9540 PWs)   bands (ev):

    -7.8589  -4.1795  -4.1368  -4.0717  -4.0525  -4.0356   0.8487   3.7104
     4.0341   5.2617  10.3914  11.3465  11.7985  15.5078  16.5513  18.6795
    19.5324  19.5528  20.9398  21.2614

          k = 0.1667 0.1667 0.3333 (  9557 PWs)   bands (ev):

    -7.8095  -4.1760  -4.0940  -4.0925  -4.0534  -4.0373   0.8187   3.6718
     4.1743   5.1934   9.6250  11.0610  12.2218  15.4117  17.1234  18.4661
    19.2268  19.7048  21.0224  21.0337

          k = 0.1667 0.1667 0.4167 (  9539 PWs)   bands (ev):

    -7.7726  -4.1732  -4.1105  -4.0632  -4.0508  -4.0387   0.7783   3.7565
     4.2827   5.0444   9.1391  10.8398  12.5750  15.3996  17.1427  18.1355
    19.5389  19.9789  21.1018  21.4799

          k = 0.1667 0.1667-0.5000 (  9540 PWs)   bands (ev):

    -7.7590  -4.1721  -4.1166  -4.0532  -4.0518  -4.0367   0.7597   3.8237
     4.3237   4.9551   8.9755  10.7565  12.7168  15.4060  17.0860  17.9484
    19.4319  21.1052  21.1238  21.5578

          k = 0.1667 0.2500 0.2500 (  9547 PWs)   bands (ev):

    -7.8160  -4.1561  -4.1100  -4.0828  -4.0654  -4.0355   0.9449   3.5583
     4.0329   5.1914  10.3105  10.9108  11.6380  15.7828  16.6585  18.6114
    19.3461  19.6015  21.3545  21.8391

          k = 0.1667 0.2500 0.3333 (  9530 PWs)   bands (ev):

    -7.7724  -4.1477  -4.1012  -4.0767  -4.0597  -4.0381   1.0263   3.4442
     4.1455   4.9897   9.8155  10.6296  11.9685  15.7520  16.9849  18.0069
    19.2949  20.1157  21.2504  21.8850

          k = 0.1667 0.2500 0.4167 (  9545 PWs)   bands (ev):

    -7.7399  -4.1433  -4.1170  -4.0681  -4.0438  -4.0317   1.0679   3.4731
     4.2444   4.7282   9.4613  10.3930  12.3772  15.6776  16.8772  17.6589
    19.8895  20.6992  20.8752  21.9997

          k = 0.1667 0.2500-0.5000 (  9538 PWs)   bands (ev):

    -7.7278  -4.1414  -4.1234  -4.0636  -4.0483  -4.0201   1.0778   3.5280
     4.2831   4.5895   9.3438  10.2999  12.5609  15.6285  16.7513  17.5636
    20.2704  20.8313  21.1809  21.8259

          k = 0.1667 0.3333 0.3333 (  9541 PWs)   bands (ev):

    -7.7346  -4.1320  -4.1059  -4.0852  -4.0409  -4.0292   1.2624   3.2300
     4.2155   4.6496   9.7513  10.3838  11.9639  15.7248  17.2263  17.5154
    19.4040  20.3241  21.7306  22.4364

          k = 0.1667 0.3333 0.4167 (  9559 PWs)   bands (ev):

    -7.7066  -4.1247  -4.1143  -4.0855  -4.0477  -3.9988   1.4494   3.1738
     4.2573   4.2915   9.6650  10.1618  12.1619  15.4916  17.1807  17.4521
    19.8716  20.7172  21.3819  22.2646

          k = 0.1667 0.3333-0.5000 (  9548 PWs)   bands (ev):

    -7.6963  -4.1207  -4.1204  -4.0822  -4.0524  -3.9871   1.5174   3.2120
     4.0599   4.3135   9.6606  10.0404  12.2801  15.3607  17.1252  17.4463
    20.4537  20.6172  21.3072  22.1493

          k = 0.1667 0.4167 0.4167 (  9545 PWs)   bands (ev):

    -7.6820  -4.1152  -4.1079  -4.0972  -4.0570  -3.9694   1.8529   2.9971
     3.7392   4.3307   9.7721  10.0545  12.0385  15.2050  17.4049  17.4894
    20.0197  21.0663  21.1032  22.8268

          k = 0.1667 0.4167-0.5000 (  9556 PWs)   bands (ev):

    -7.6730  -4.1102  -4.1097  -4.0963  -4.0635  -3.9580   2.0596   2.9913
     3.4275   4.3485   9.8697   9.9529  12.0099  15.0871  17.4688  17.5050
    20.1305  20.9965  21.5285  22.4404

          k = 0.1667-0.5000-0.5000 (  9540 PWs)   bands (ev):

    -7.6644  -4.1062  -4.1017  -4.1017  -4.0722  -3.9467   2.5364   2.9131
     2.9131   4.3626   9.9425   9.9425  11.8967  14.9884  17.5609  17.5609
    19.9612  21.6072  21.6072  22.5103

          k = 0.2500 0.2500 0.2500 (  9513 PWs)   bands (ev):

    -7.7753  -4.1101  -4.1101  -4.0874  -4.0874  -4.0342   1.0918   3.7202
     3.7202   5.0604  10.5296  10.5296  11.0331  16.3974  16.3974  17.8750
    20.4037  20.4037  20.7853  22.1897

          k = 0.2500 0.2500 0.3333 (  9542 PWs)   bands (ev):

    -7.7339  -4.1202  -4.0991  -4.0960  -4.0543  -4.0392   1.2453   3.5189
     3.8947   4.8250   9.9668  10.1417  11.4225  16.2998  16.7690  17.3915
    20.3270  21.1215  21.4115  21.9149

          k = 0.2500 0.2500 0.4167 (  9551 PWs)   bands (ev):

    -7.7030  -4.1353  -4.0997  -4.0910  -4.0481  -4.0198   1.3551   3.4750
     4.0324   4.5522   9.5582   9.8530  11.8201  16.2879  16.4523  17.4913
    20.8302  21.3151  21.6490  22.1812

          k = 0.2500 0.2500-0.5000 (  9542 PWs)   bands (ev):

    -7.6916  -4.1413  -4.0995  -4.0870  -4.0536  -4.0071   1.3926   3.5003
     4.0853   4.4126   9.4210   9.7459  11.9806  16.2752  16.2932  17.5241
    21.2222  21.6892  21.8063  22.0586

          k = 0.2500 0.3333 0.3333 (  9552 PWs)   bands (ev):

    -7.6946  -4.1294  -4.1129  -4.0765  -4.0485  -4.0271   1.5066   3.4222
     3.9023   4.5550   9.6565   9.8981  11.2419  16.3165  17.0697  17.1567
    20.7772  21.2635  22.2884  22.5524

          k = 0.2500 0.3333 0.4167 (  9555 PWs)   bands (ev):

    -7.6654  -4.1425  -4.1135  -4.0704  -4.0623  -3.9954   1.7325   3.3423
     4.0056   4.2403   9.4215   9.6139  11.2870  16.1054  17.0432  17.5378
    21.1210  21.6319  22.2072  22.8071

          k = 0.2500 0.3333-0.5000 (  9572 PWs)   bands (ev):

    -7.6546  -4.1482  -4.1099  -4.0703  -4.0690  -3.9830   1.8228   3.3503
     4.0511   4.0731   9.4127   9.4241  11.3231  16.0251  17.0486  17.6485
    21.6736  21.8055  22.1284  22.3282

          k = 0.2500 0.4167 0.4167 (  9562 PWs)   bands (ev):

    -7.6375  -4.1418  -4.1271  -4.0818  -4.0585  -3.9681   2.1335   3.2117
     3.8355   4.0631   9.2999   9.5021  10.9041  15.9625  17.5425  17.6870
    21.3672  21.8511  22.2160  23.1338

          k = 0.2500 0.4167-0.5000 (  9570 PWs)   bands (ev):

    -7.6271  -4.1425  -4.1264  -4.0936  -4.0555  -3.9567   2.3443   3.1958
     3.5805   4.0923   9.3373   9.3879  10.7650  15.9253  17.6571  17.8072
    21.8143  21.8324  22.3338  22.5598

          k = 0.2500-0.5000-0.5000 (  9572 PWs)   bands (ev):

    -7.6170  -4.1325  -4.1325  -4.1102  -4.0520  -3.9457   2.7908   3.1360
     3.1360   4.1147   9.3675   9.3675  10.5218  15.9037  17.8789  17.8789
    21.7417  22.4264  22.4264  22.6169

          k = 0.3333 0.3333 0.3333 (  9552 PWs)   bands (ev):

    -7.6537  -4.1399  -4.1399  -4.0659  -4.0252  -4.0252   1.8122   3.6334
     3.6334   4.3680   9.4203   9.4203  10.7766  16.6820  17.1858  17.1858
    21.7745  22.1223  22.1225  22.9751

          k = 0.3333 0.3333 0.4167 (  9558 PWs)   bands (ev):

    -7.6232  -4.1594  -4.1402  -4.0870  -4.0239  -3.9875   2.1030   3.4790
     3.8038   4.1183   9.0689   9.2107  10.5171  16.6756  17.2457  17.7017
    21.9953  22.3466  22.6856  23.0238

          k = 0.3333 0.3333-0.5000 (  9586 PWs)   bands (ev):

    -7.6119  -4.1664  -4.1365  -4.0986  -4.0234  -3.9738   2.2328   3.4471
     3.8703   3.9764   8.9388   9.1361  10.4284  16.6811  17.2743  17.9001
    22.3889  22.5238  22.6565  22.8619

          k = 0.3333 0.4167 0.4167 (  9571 PWs)   bands (ev):

    -7.5916  -4.1662  -4.1564  -4.1143  -4.0050  -3.9667   2.4984   3.4509
     3.8173   3.8811   8.8385   8.9653   9.9430  16.8749  17.7561  17.8974
    22.3291  22.5120  22.9657  23.4245

          k = 0.3333 0.4167-0.5000 (  9564 PWs)   bands (ev):

    -7.5799  -4.1702  -4.1556  -4.1296  -4.0021  -3.9551   2.7136   3.4199
     3.7061   3.8606   8.7670   8.9009   9.7082  16.9272  17.8768  18.1054
    22.5464  22.6786  23.0139  23.0831

          k = 0.3333-0.5000-0.5000 (  9576 PWs)   bands (ev):

    -7.5680  -4.1625  -4.1625  -4.1501  -3.9979  -3.9447   3.1034   3.3857
     3.3857   3.8865   8.8103   8.8103   9.3612  16.9859  18.1857  18.1857
    22.7305  22.7540  23.0413  23.1665

          k = 0.4167 0.4167 0.4167 (  9568 PWs)   bands (ev):

    -7.5571  -4.1775  -4.1775  -4.1454  -3.9658  -3.9658   2.8894   3.6475
     3.6475   3.8097   8.5708   8.5708   9.2379  17.6049  18.0641  18.0641
    22.7772  22.9379  22.9379  23.4569

          k = 0.4167 0.4167-0.5000 (  9554 PWs)   bands (ev):

    -7.5443  -4.1852  -4.1766  -4.1621  -3.9655  -3.9515   3.1153   3.5803
     3.7099   3.7254   8.4240   8.5366   8.9282  17.7954  18.1285  18.3300
    22.7596  22.9532  23.1300  23.3693

          k = 0.4167-0.5000-0.5000 (  9532 PWs)   bands (ev):

    -7.5311  -4.1842  -4.1842  -4.1806  -3.9582  -3.9440   3.3909   3.5924
     3.5924   3.7300   8.4003   8.4003   8.5490  18.0127  18.4151  18.4151
    22.7513  22.8187  23.2483  23.4977

          k =-0.5000-0.5000-0.5000 (  9568 PWs)   bands (ev):

    -7.5173  -4.1921  -4.1921  -4.1921  -3.9437  -3.9437   3.5150   3.6747
     3.6747   3.6747   8.2473   8.2473   8.2473  18.5019  18.5019  18.5019
    22.6654  22.8521  22.8522  23.5742

     the Fermi energy is     5.7689 ev
     (compare with:     5.7748 eV, computed in scf)

     Writing all to output data dir out/mp-23167.save/
 
     init_run     :      0.15s CPU      0.18s WALL (       1 calls)
     electrons    :     18.71s CPU     19.16s WALL (       1 calls)

     Called by init_run:
     wfcinit      :      0.00s CPU      0.00s WALL (       1 calls)
     potinit      :      0.01s CPU      0.02s WALL (       1 calls)
     hinit0       :      0.02s CPU      0.04s WALL (       1 calls)

     Called by electrons:
     c_bands      :     18.71s CPU     19.16s WALL (       1 calls)
     v_of_rho     :      0.01s CPU      0.01s WALL (       1 calls)

     Called by c_bands:
     init_us_2    :      0.05s CPU      0.05s WALL (      84 calls)
     init_us_2:cp :      0.05s CPU      0.05s WALL (      84 calls)
     cegterg      :     17.10s CPU     17.45s WALL (     141 calls)

     Called by *egterg:
     cdiaghg      :      1.24s CPU      1.28s WALL (    2001 calls)
     h_psi        :     14.14s CPU     14.48s WALL (    2142 calls)
     g_psi        :      0.18s CPU      0.19s WALL (    1917 calls)

     Called by h_psi:
     h_psi:calbec :      0.56s CPU      0.58s WALL (    2142 calls)
     vloc_psi     :     13.01s CPU     13.31s WALL (    2142 calls)
     add_vuspsi   :      0.48s CPU      0.50s WALL (    2142 calls)

     General routines
     calbec       :      0.55s CPU      0.57s WALL (    2142 calls)
     fft          :      0.00s CPU      0.02s WALL (      10 calls)
     fftw         :     11.55s CPU     11.82s WALL (   52976 calls)
 
     Parallel routines
 
     PWSCF        :     19.34s CPU     20.16s WALL

 
   This run was terminated on:  14:36: 8   3Jan2024            

=------------------------------------------------------------------------------=
   JOB DONE.
=------------------------------------------------------------------------------=
