 
             +---------------------------------------------------+
             |                                                   |
             |                   WANNIER90                       |
             |                                                   |
             +---------------------------------------------------+
             |                                                   |
             |        Welcome to the Maximally-Localized         |
             |        Generalized Wannier Functions code         |
             |            http://www.wannier.org                 |
             |                                                   |
             |                                                   |
             |  Wannier90 Developer Group:                       |
             |    Giovanni Pizzi    (EPFL)                       |
             |    Valerio Vitale    (Cambridge)                  |
             |    David Vanderbilt  (Rutgers University)         |
             |    Nicola Marzari    (EPFL)                       |
             |    Ivo Souza         (Universidad del Pais Vasco) |
             |    Arash A. Mostofi  (Imperial College London)    |
             |    Jonathan R. Yates (University of Oxford)       |
             |                                                   |
             |  For the full list of Wannier90 3.x authors,      |
             |  please check the code documentation and the      |
             |  README on the GitHub page of the code            |
             |                                                   |
             |                                                   |
             |  Please cite                                      |
             |                                                   |
             |  [ref] "Wannier90 as a community code:            |
             |        new features and applications",            |
             |        G. Pizzi et al., J. Phys. Cond. Matt. 32,  |
             |        165902 (2020).                             |
             |        http://doi.org/10.1088/1361-648X/ab51ff    |
             |                                                   |
             |  in any publications arising from the use of      |
             |  this code. For the method please cite            |
             |                                                   |
             |  [ref] "Maximally Localized Generalised Wannier   |
             |         Functions for Composite Energy Bands"     |
             |         N. Marzari and D. Vanderbilt              |
             |         Phys. Rev. B 56 12847 (1997)              |
             |                                                   |
             |  [ref] "Maximally Localized Wannier Functions     |
             |         for Entangled Energy Bands"               |
             |         I. Souza, N. Marzari and D. Vanderbilt    |
             |         Phys. Rev. B 65 035109 (2001)             |
             |                                                   |
             |                                                   |
             | Copyright (c) 1996-2020                           |
             |        The Wannier90 Developer Group and          |
             |        individual contributors                    |
             |                                                   |
             |      Release: 3.1.0        5th March    2020      |
             |                                                   |
             | This program is free software; you can            |
             | redistribute it and/or modify it under the terms  |
             | of the GNU General Public License as published by |
             | the Free Software Foundation; either version 2 of |
             | the License, or (at your option) any later version|
             |                                                   |
             | This program is distributed in the hope that it   |
             | will be useful, but WITHOUT ANY WARRANTY; without |
             | even the implied warranty of MERCHANTABILITY or   |
             | FITNESS FOR A PARTICULAR PURPOSE. See the GNU     |
             | General Public License for more details.          |
             |                                                   |
             | You should have received a copy of the GNU General|
             | Public License along with this program; if not,   |
             | write to the Free Software Foundation, Inc.,      |
             | 675 Mass Ave, Cambridge, MA 02139, USA.           |
             |                                                   |
             +---------------------------------------------------+
             |    Execution started on  8Apr2024 at 15:18:52     |
             +---------------------------------------------------+
 
 ******************************************************************************
 * -> Using CODATA 2006 constant values                                       *
 *    (http://physics.nist.gov/cuu/Constants/index.html)                      *
 * -> Using Bohr value from CODATA                                            *
 ******************************************************************************
 

 Running in parallel on  16 CPUs

 
                                    ------
                                    SYSTEM
                                    ------
 
                              Lattice Vectors (Ang)
                    a_1     2.402513  -1.387092   4.372084
                    a_2     0.000000   2.774184   4.372084
                    a_3    -2.402513  -1.387092   4.372084
 
                   Unit Cell Volume:      87.41999  (Ang^3)
 
                        Reciprocal-Space Vectors (Ang^-1)
                    b_1     1.307628  -0.754959   0.479038
                    b_2     0.000000   1.509918   0.479038
                    b_3    -1.307628  -0.754959   0.479038
  
 *----------------------------------------------------------------------------*
 |   Site       Fractional Coordinate          Cartesian Coordinate (Ang)     |
 +----------------------------------------------------------------------------+
 | Al   1   0.64790   0.64790   0.64790   |    0.00000   0.00000   8.49807    |
 | Al   2   0.85210   0.85210   0.85210   |    0.00000  -0.00000  11.17631    |
 | Al   3   0.14790   0.14790   0.14790   |    0.00000  -0.00000   1.93995    |
 | Al   4   0.35210   0.35210   0.35210   |    0.00000   0.00000   4.61818    |
 | O    1   0.44385   0.05615   0.75000   |   -0.73552  -1.50023   5.46511    |
 | O    2   0.94385   0.25000   0.55615   |    0.93148  -1.38709   7.65115    |
 | O    3   0.05615   0.75000   0.44385   |   -0.93148   1.38709   5.46511    |
 | O    4   0.75000   0.44385   0.05615   |    1.66699   0.11314   5.46511    |
 | O    5   0.25000   0.55615   0.94385   |   -1.66699  -0.11314   7.65115    |
 | O    6   0.55615   0.94385   0.25000   |    0.73552   1.50023   7.65115    |
 *----------------------------------------------------------------------------*
                                ------------
                                K-POINT GRID
                                ------------
  
             Grid size =  8 x  8 x  8      Total points =  512
  
  
 *---------------------------------- MAIN ------------------------------------*
 |  Number of Wannier Functions               :                18             |
 |  Number of Objective Wannier Functions     :                18             |
 |  Number of input Bloch states              :                18             |
 |  Output verbosity (1=low, 5=high)          :                 1             |
 |  Timing Level (1=low, 5=high)              :                 1             |
 |  Optimisation (0=memory, 3=speed)          :                 3             |
 |  Length Unit                               :               Ang             |
 |  Post-processing setup (write *.nnkp)      :                 F             |
 |  Using Gamma-only branch of algorithms     :                 F             |
 *----------------------------------------------------------------------------*
 *------------------------------- WANNIERISE ---------------------------------*
 |  Total number of iterations                :               500             |
 |  Number of CG steps before reset           :                 5             |
 |  Trial step length for line search         :             2.000             |
 |  Convergence tolerence                     :         0.100E-09             |
 |  Convergence window                        :                -1             |
 |  Iterations between writing output         :                 1             |
 |  Iterations between backing up to disk     :               100             |
 |  Write r^2_nm to file                      :                 F             |
 |  Write xyz WF centres to file              :                 F             |
 |  Write on-site energies <0n|H|0n> to file  :                 F             |
 |  Use guiding centre to control phases      :                 F             |
 |  Use phases for initial projections        :                 F             |
 *----------------------------------------------------------------------------*
 Time to read parameters        0.080 (sec)

 *---------------------------------- K-MESH ----------------------------------*
 +----------------------------------------------------------------------------+
 |                    Distance to Nearest-Neighbour Shells                    |
 |                    ------------------------------------                    |
 |          Shell             Distance (Ang^-1)          Multiplicity         |
 |          -----             -----------------          ------------         |
 |             1                   0.179639                      2            |
 |             2                   0.198011                      6            |
 |             3                   0.223529                      6            |
 |             4                   0.304946                      6            |
 |             5                   0.326907                      6            |
 |             6                   0.353924                      6            |
 |             7                   0.359279                      2            |
 |             8                   0.373013                     12            |
 |             9                   0.382199                      6            |
 |            10                   0.396022                      6            |
 |            11                   0.447057                      6            |
 |            12                   0.459692                      6            |
 |            13                   0.481799                      6            |
 |            14                   0.485746                     12            |
 |            15                   0.502936                     12            |
 |            16                   0.513519                     12            |
 |            17                   0.514879                      6            |
 |            18                   0.538918                      2            |
 |            19                   0.553831                     12            |
 |            20                   0.564079                      6            |
 |            21                   0.566219                      6            |
 |            22                   0.582236                     12            |
 |            23                   0.594033                     12            |
 |            24                   0.609892                      6            |
 |            25                   0.627839                      6            |
 |            26                   0.630318                     12            |
 |            27                   0.651961                     12            |
 |            28                   0.653814                      6            |
 |            29                   0.670586                     12            |
 |            30                   0.678043                     12            |
 |            31                   0.683140                     12            |
 |            32                   0.685185                      6            |
 |            33                   0.690969                     12            |
 |            34                   0.691980                     12            |
 |            35                   0.707849                      6            |
 |            36                   0.718557                      2            |
 +----------------------------------------------------------------------------+
 | The b-vectors are chosen automatically                                     |
 | The following shells are used:   1,  2                                     |
 +----------------------------------------------------------------------------+
 |                        Shell   # Nearest-Neighbours                        |
 |                        -----   --------------------                        |
 |                          1               2                                 |
 |                          2               6                                 |
 +----------------------------------------------------------------------------+
 | Completeness relation is fully satisfied [Eq. (B1), PRB 56, 12847 (1997)]  |
 +----------------------------------------------------------------------------+
 |                  b_k Vectors (Ang^-1) and Weights (Ang^2)                  |
 |                  ----------------------------------------                  |
 |            No.         b_k(x)      b_k(y)      b_k(z)        w_b           |
 |            ---        --------------------------------     --------        |
 |             1         0.000000    0.000000    0.179639    12.375022        |
 |             2         0.000000    0.000000   -0.179639    12.375022        |
 |             3        -0.163453   -0.094370    0.059880     9.357329        |
 |             4         0.000000    0.188740    0.059880     9.357329        |
 |             5         0.163453   -0.094370    0.059880     9.357329        |
 |             6         0.000000   -0.188740   -0.059880     9.357329        |
 |             7         0.163453    0.094370   -0.059880     9.357329        |
 |             8        -0.163453    0.094370   -0.059880     9.357329        |
 +----------------------------------------------------------------------------+
 |                           b_k Directions (Ang^-1)                          |
 |                           -----------------------                          |
 |            No.           x           y           z                         |
 |            ---        --------------------------------                     |
 |             1         0.000000    0.000000    0.179639                     |
 |             2        -0.163453   -0.094370    0.059880                     |
 |             3         0.000000    0.188740    0.059880                     |
 |             4         0.163453   -0.094370    0.059880                     |
 +----------------------------------------------------------------------------+
  
 Time to get kmesh              0.249 (sec)
 *============================================================================*
 |                              MEMORY ESTIMATE                               |
 |         Maximum RAM allocated during each phase of the calculation         |
 *============================================================================*
 |                            Wannierise:           53.73 Mb                  |
 |                          plot_wannier:           53.73 Mb                  |
 *----------------------------------------------------------------------------*
  
 Starting a new Wannier90 calculation ...


 Reading overlaps from mp-1143.mmn    :  Created on  8Apr2024 at 15:18:37

 Reading projections from mp-1143.amn :  Created on  8Apr2024 at 15:18:32  with SCDM

 Time to read overlaps          0.845 (sec)

 Writing checkpoint file mp-1143.chk... done

 
 *------------------------------- WANNIERISE ---------------------------------*
 +--------------------------------------------------------------------+<-- CONV
 | Iter  Delta Spread     RMS Gradient      Spread (Ang^2)      Time  |<-- CONV
 +--------------------------------------------------------------------+<-- CONV
 
 ------------------------------------------------------------------------------
 Initial State
  WF centre and spread    1  (  0.959616,  1.390082, -1.095035 )     0.94412498
  WF centre and spread    2  ( -0.960161, -1.385136,  1.090424 )     0.92507054
  WF centre and spread    3  (  1.679102, -0.138968,  1.089850 )     0.92735955
  WF centre and spread    4  ( -1.676663,  0.139802, -1.091878 )     0.90975627
  WF centre and spread    5  (  0.718785, -1.524053, -1.092315 )     0.91431110
  WF centre and spread    6  ( -0.717254,  1.525550,  1.091533 )     0.92944453
  WF centre and spread    7  (  0.718300, -1.504872, -1.090262 )     0.94409911
  WF centre and spread    8  ( -0.945065, -1.398284,  1.094215 )     0.95204873
  WF centre and spread    9  ( -0.702719,  1.478240,  1.093322 )     0.96930852
  WF centre and spread   10  (  0.931289,  1.422348, -1.094583 )     0.96719165
  WF centre and spread   11  ( -1.667967,  0.098268, -1.094483 )     0.99189065
  WF centre and spread   12  (  1.683951, -0.120364,  1.095325 )     0.95182041
  WF centre and spread   13  ( -0.769965,  1.516487,  1.094366 )     0.95668900
  WF centre and spread   14  ( -1.662819,  0.132959, -1.091183 )     0.96549357
  WF centre and spread   15  (  0.926585,  1.344726, -1.092946 )     0.95272059
  WF centre and spread   16  (  1.649603, -0.106998,  1.091952 )     0.97816989
  WF centre and spread   17  (  0.752631, -1.493685, -1.093118 )     0.97906462
  WF centre and spread   18  ( -0.916979, -1.375524,  1.093264 )     0.97042802
  Sum of centres and spreads (  0.000271,  0.000577, -0.001553 )    17.12899173
 
      0     0.171E+02     0.0000000000       17.1289917214       0.00  <-- CONV
        O_D=      0.0031782 O_OD=      1.2652129 O_TOT=     17.1289917 <-- SPRD
 ------------------------------------------------------------------------------
 Cycle:      1
  WF centre and spread    1  (  0.960129,  1.387461, -1.093181 )     0.87857909
  WF centre and spread    2  ( -0.956491, -1.387746,  1.091528 )     0.87740320
  WF centre and spread    3  (  1.679986, -0.134618,  1.091492 )     0.87668473
  WF centre and spread    4  ( -1.678848,  0.134864, -1.094085 )     0.87528958
  WF centre and spread    5  (  0.722569, -1.521578, -1.094194 )     0.87716590
  WF centre and spread    6  ( -0.721050,  1.525057,  1.092773 )     0.87729263
  WF centre and spread    7  (  0.718631, -1.505086, -1.090800 )     0.90979490
  WF centre and spread    8  ( -0.944473, -1.399495,  1.095009 )     0.90979120
  WF centre and spread    9  ( -0.701332,  1.476197,  1.092937 )     0.90953603
  WF centre and spread   10  (  0.927782,  1.428472, -1.093394 )     0.90940410
  WF centre and spread   11  ( -1.669809,  0.092811, -1.093671 )     0.91427352
  WF centre and spread   12  (  1.684327, -0.118243,  1.094983 )     0.90922490
  WF centre and spread   13  ( -0.773330,  1.517602,  1.093211 )     0.90816234
  WF centre and spread   14  ( -1.662869,  0.130878, -1.090945 )     0.91134361
  WF centre and spread   15  (  0.927359,  1.345116, -1.093174 )     0.91017721
  WF centre and spread   16  (  1.647251, -0.105475,  1.092191 )     0.91080025
  WF centre and spread   17  (  0.754945, -1.492225, -1.093569 )     0.91410498
  WF centre and spread   18  ( -0.914879, -1.374034,  1.092494 )     0.91082539
  Sum of centres and spreads ( -0.000102, -0.000043, -0.000396 )    16.18985354
 
      1    -0.939E+00     0.2641159799       16.1898535433       0.02  <-- CONV
        O_D=      0.0174312 O_OD=      0.3118217 O_TOT=     16.1898535 <-- SPRD
 Delta: O_D=  0.1425302E-01 O_OD= -0.9533912E+00 O_TOT= -0.9391382E+00 <-- DLTA
 ------------------------------------------------------------------------------
 Cycle:      2
  WF centre and spread    1  (  0.959982,  1.387306, -1.092982 )     0.87250798
  WF centre and spread    2  ( -0.956111, -1.387771,  1.091650 )     0.87158530
  WF centre and spread    3  (  1.679858, -0.134242,  1.091645 )     0.87114050
  WF centre and spread    4  ( -1.678763,  0.134547, -1.094223 )     0.87059320
  WF centre and spread    5  (  0.722753, -1.521224, -1.094336 )     0.87165952
  WF centre and spread    6  ( -0.721242,  1.524860,  1.092929 )     0.87181535
  WF centre and spread    7  (  0.718665, -1.504988, -1.090845 )     0.90202667
  WF centre and spread    8  ( -0.944204, -1.399589,  1.094984 )     0.90193883
  WF centre and spread    9  ( -0.701321,  1.475858,  1.092945 )     0.90178474
  WF centre and spread   10  (  0.927397,  1.428824, -1.093259 )     0.90140061
  WF centre and spread   11  ( -1.669833,  0.092310, -1.093651 )     0.90579902
  WF centre and spread   12  (  1.684212, -0.117905,  1.094920 )     0.90157564
  WF centre and spread   13  ( -0.773704,  1.517517,  1.093095 )     0.90115949
  WF centre and spread   14  ( -1.662699,  0.130479, -1.090957 )     0.90296824
  WF centre and spread   15  (  0.927215,  1.345106, -1.093197 )     0.90283076
  WF centre and spread   16  (  1.647079, -0.105172,  1.092274 )     0.90410462
  WF centre and spread   17  (  0.755158, -1.492044, -1.093619 )     0.90542456
  WF centre and spread   18  ( -0.914590, -1.373982,  1.092423 )     0.90415602
  Sum of centres and spreads ( -0.000149, -0.000111, -0.000204 )    16.06447105
 
      2    -0.125E+00     0.2557810060       16.0644710539       0.03  <-- CONV
        O_D=      0.0063316 O_OD=      0.1975389 O_TOT=     16.0644711 <-- SPRD
 Delta: O_D= -0.1109964E-01 O_OD= -0.1142828E+00 O_TOT= -0.1253825E+00 <-- DLTA
 ------------------------------------------------------------------------------
 Cycle:      3
  WF centre and spread    1  (  0.959874,  1.387246, -1.092886 )     0.86931393
  WF centre and spread    2  ( -0.955936, -1.387723,  1.091719 )     0.86852409
  WF centre and spread    3  (  1.679755, -0.134087,  1.091724 )     0.86825982
  WF centre and spread    4  ( -1.678633,  0.134443, -1.094269 )     0.86812748
  WF centre and spread    5  (  0.722787, -1.521013, -1.094391 )     0.86872514
  WF centre and spread    6  ( -0.721289,  1.524747,  1.093011 )     0.86893577
  WF centre and spread    7  (  0.718673, -1.504932, -1.090871 )     0.89850496
  WF centre and spread    8  ( -0.944038, -1.399607,  1.094952 )     0.89815991
  WF centre and spread    9  ( -0.701360,  1.475675,  1.092942 )     0.89801451
  WF centre and spread   10  (  0.927241,  1.428888, -1.093220 )     0.89765909
  WF centre and spread   11  ( -1.669807,  0.092100, -1.093664 )     0.90160831
  WF centre and spread   12  (  1.684119, -0.117736,  1.094888 )     0.89790412
  WF centre and spread   13  ( -0.773871,  1.517431,  1.093056 )     0.89784214
  WF centre and spread   14  ( -1.662600,  0.130268, -1.090977 )     0.89838713
  WF centre and spread   15  (  0.927096,  1.345097, -1.093194 )     0.89877537
  WF centre and spread   16  (  1.647015, -0.105001,  1.092325 )     0.90080074
  WF centre and spread   17  (  0.755245, -1.491964, -1.093638 )     0.90148648
  WF centre and spread   18  ( -0.914442, -1.373972,  1.092401 )     0.90083370
  Sum of centres and spreads ( -0.000172, -0.000139, -0.000093 )    16.00186269
 
      3    -0.626E-01     0.2556234166       16.0018626865       0.04  <-- CONV
        O_D=      0.0035944 O_OD=      0.1376677 O_TOT=     16.0018627 <-- SPRD
 Delta: O_D= -0.2737208E-02 O_OD= -0.5987116E-01 O_TOT= -0.6260837E-01 <-- DLTA
 ------------------------------------------------------------------------------
 Cycle:      4
  WF centre and spread    1  (  0.959828,  1.387224, -1.092849 )     0.86832128
  WF centre and spread    2  ( -0.955870, -1.387682,  1.091748 )     0.86755793
  WF centre and spread    3  (  1.679700, -0.134035,  1.091757 )     0.86738598
  WF centre and spread    4  ( -1.678551,  0.134414, -1.094274 )     0.86726993
  WF centre and spread    5  (  0.722780, -1.520912, -1.094402 )     0.86762161
  WF centre and spread    6  ( -0.721292,  1.524700,  1.093046 )     0.86807560
  WF centre and spread    7  (  0.718666, -1.504920, -1.090881 )     0.89718727
  WF centre and spread    8  ( -0.943971, -1.399609,  1.094928 )     0.89683372
  WF centre and spread    9  ( -0.701387,  1.475606,  1.092938 )     0.89671200
  WF centre and spread   10  (  0.927193,  1.428883, -1.093213 )     0.89639971
  WF centre and spread   11  ( -1.669789,  0.092017, -1.093677 )     0.90020273
  WF centre and spread   12  (  1.684081, -0.117680,  1.094875 )     0.89661704
  WF centre and spread   13  ( -0.773939,  1.517388,  1.093040 )     0.89669294
  WF centre and spread   14  ( -1.662564,  0.130194, -1.090987 )     0.89663102
  WF centre and spread   15  (  0.927043,  1.345093, -1.093186 )     0.89711467
  WF centre and spread   16  (  1.646998, -0.104922,  1.092349 )     0.89977478
  WF centre and spread   17  (  0.755276, -1.491936, -1.093643 )     0.90021113
  WF centre and spread   18  ( -0.914383, -1.373971,  1.092399 )     0.89978638
  Sum of centres and spreads ( -0.000181, -0.000147, -0.000033 )    15.98039571
 
      4    -0.215E-01     0.1408956364       15.9803957127       0.05  <-- CONV
        O_D=      0.0023557 O_OD=      0.1174394 O_TOT=     15.9803957 <-- SPRD
 Delta: O_D= -0.1238702E-02 O_OD= -0.2022827E-01 O_TOT= -0.2146697E-01 <-- DLTA
 ------------------------------------------------------------------------------
 Cycle:      5
  WF centre and spread    1  (  0.959803,  1.387206, -1.092818 )     0.86775184
  WF centre and spread    2  ( -0.955831, -1.387655,  1.091770 )     0.86704862
  WF centre and spread    3  (  1.679669, -0.134000,  1.091784 )     0.86694444
  WF centre and spread    4  ( -1.678497,  0.134396, -1.094283 )     0.86688334
  WF centre and spread    5  (  0.722773, -1.520847, -1.094415 )     0.86701706
  WF centre and spread    6  ( -0.721297,  1.524676,  1.093074 )     0.86763599
  WF centre and spread    7  (  0.718657, -1.504923, -1.090890 )     0.89642335
  WF centre and spread    8  ( -0.943939, -1.399611,  1.094903 )     0.89610119
  WF centre and spread    9  ( -0.701403,  1.475567,  1.092934 )     0.89599412
  WF centre and spread   10  (  0.927161,  1.428889, -1.093206 )     0.89576669
  WF centre and spread   11  ( -1.669791,  0.091955, -1.093678 )     0.89936423
  WF centre and spread   12  (  1.684067, -0.117658,  1.094863 )     0.89593612
  WF centre and spread   13  ( -0.773986,  1.517363,  1.093025 )     0.89603235
  WF centre and spread   14  ( -1.662544,  0.130159, -1.090997 )     0.89567167
  WF centre and spread   15  (  0.927018,  1.345095, -1.093179 )     0.89618434
  WF centre and spread   16  (  1.646989, -0.104873,  1.092371 )     0.89921129
  WF centre and spread   17  (  0.755308, -1.491924, -1.093642 )     0.89942660
  WF centre and spread   18  ( -0.914346, -1.373965,  1.092402 )     0.89921500
  Sum of centres and spreads ( -0.000187, -0.000150,  0.000019 )    15.96860824
 
      5    -0.118E-01     0.0978215815       15.9686082415       0.06  <-- CONV
        O_D=      0.0012442 O_OD=      0.1067634 O_TOT=     15.9686082 <-- SPRD
 Delta: O_D= -0.1111462E-02 O_OD= -0.1067601E-01 O_TOT= -0.1178747E-01 <-- DLTA
 ------------------------------------------------------------------------------
 Cycle:      6
  WF centre and spread    1  (  0.959795,  1.387193, -1.092794 )     0.86743064
  WF centre and spread    2  ( -0.955812, -1.387645,  1.091785 )     0.86679042
  WF centre and spread    3  (  1.679658, -0.133980,  1.091803 )     0.86671821
  WF centre and spread    4  ( -1.678476,  0.134385, -1.094297 )     0.86674025
  WF centre and spread    5  (  0.722773, -1.520817, -1.094430 )     0.86676063
  WF centre and spread    6  ( -0.721304,  1.524668,  1.093094 )     0.86741665
  WF centre and spread    7  (  0.718650, -1.504932, -1.090897 )     0.89608980
  WF centre and spread    8  ( -0.943931, -1.399615,  1.094884 )     0.89576802
  WF centre and spread    9  ( -0.701408,  1.475550,  1.092930 )     0.89564553
  WF centre and spread   10  (  0.927142,  1.428905, -1.093198 )     0.89551593
  WF centre and spread   11  ( -1.669805,  0.091913, -1.093670 )     0.89892692
  WF centre and spread   12  (  1.684069, -0.117654,  1.094852 )     0.89564285
  WF centre and spread   13  ( -0.774013,  1.517354,  1.093014 )     0.89569029
  WF centre and spread   14  ( -1.662534,  0.130150, -1.091004 )     0.89527554
  WF centre and spread   15  (  0.927012,  1.345100, -1.093175 )     0.89576534
  WF centre and spread   16  (  1.646985, -0.104850,  1.092387 )     0.89890561
  WF centre and spread   17  (  0.755334, -1.491920, -1.093637 )     0.89900294
  WF centre and spread   18  ( -0.914327, -1.373955,  1.092405 )     0.89890554
  Sum of centres and spreads ( -0.000191, -0.000149,  0.000053 )    15.96299110
 
      6    -0.562E-02     0.0710691173       15.9629910977       0.08  <-- CONV
        O_D=      0.0007508 O_OD=      0.1016397 O_TOT=     15.9629911 <-- SPRD
 Delta: O_D= -0.4933693E-03 O_OD= -0.5123775E-02 O_TOT= -0.5617144E-02 <-- DLTA
 ------------------------------------------------------------------------------
 Cycle:      7
  WF centre and spread    1  (  0.959795,  1.387193, -1.092791 )     0.86731768
  WF centre and spread    2  ( -0.955810, -1.387646,  1.091788 )     0.86667418
  WF centre and spread    3  (  1.679658, -0.133977,  1.091806 )     0.86661417
  WF centre and spread    4  ( -1.678475,  0.134383, -1.094300 )     0.86664002
  WF centre and spread    5  (  0.722773, -1.520815, -1.094433 )     0.86665349
  WF centre and spread    6  ( -0.721306,  1.524668,  1.093097 )     0.86730975
  WF centre and spread    7  (  0.718649, -1.504934, -1.090897 )     0.89600112
  WF centre and spread    8  ( -0.943932, -1.399617,  1.094881 )     0.89569581
  WF centre and spread    9  ( -0.701408,  1.475550,  1.092929 )     0.89556482
  WF centre and spread   10  (  0.927140,  1.428908, -1.093197 )     0.89543267
  WF centre and spread   11  ( -1.669807,  0.091908, -1.093669 )     0.89881532
  WF centre and spread   12  (  1.684071, -0.117655,  1.094850 )     0.89557674
  WF centre and spread   13  ( -0.774016,  1.517354,  1.093012 )     0.89560660
  WF centre and spread   14  ( -1.662535,  0.130151, -1.091004 )     0.89522073
  WF centre and spread   15  (  0.927013,  1.345101, -1.093174 )     0.89568163
  WF centre and spread   16  (  1.646985, -0.104847,  1.092389 )     0.89880202
  WF centre and spread   17  (  0.755337, -1.491919, -1.093637 )     0.89888913
  WF centre and spread   18  ( -0.914325, -1.373953,  1.092405 )     0.89880029
  Sum of centres and spreads ( -0.000191, -0.000148,  0.000056 )    15.96129617
 
      7    -0.169E-02     0.0466747319       15.9612961716       0.09  <-- CONV
        O_D=      0.0006504 O_OD=      0.1000452 O_TOT=     15.9612962 <-- SPRD
 Delta: O_D= -0.1004453E-03 O_OD= -0.1594481E-02 O_TOT= -0.1694926E-02 <-- DLTA
 ------------------------------------------------------------------------------
 Cycle:      8
  WF centre and spread    1  (  0.959796,  1.387193, -1.092784 )     0.86720491
  WF centre and spread    2  ( -0.955807, -1.387649,  1.091796 )     0.86656330
  WF centre and spread    3  (  1.679659, -0.133972,  1.091815 )     0.86651762
  WF centre and spread    4  ( -1.678474,  0.134379, -1.094307 )     0.86654801
  WF centre and spread    5  (  0.722774, -1.520812, -1.094441 )     0.86655221
  WF centre and spread    6  ( -0.721310,  1.524668,  1.093105 )     0.86720838
  WF centre and spread    7  (  0.718646, -1.504938, -1.090898 )     0.89595520
  WF centre and spread    8  ( -0.943933, -1.399620,  1.094873 )     0.89568350
  WF centre and spread    9  ( -0.701408,  1.475548,  1.092926 )     0.89552422
  WF centre and spread   10  (  0.927136,  1.428916, -1.093194 )     0.89539509
  WF centre and spread   11  ( -1.669811,  0.091896, -1.093667 )     0.89869990
  WF centre and spread   12  (  1.684076, -0.117656,  1.094844 )     0.89557641
  WF centre and spread   13  ( -0.774024,  1.517354,  1.093009 )     0.89555323
  WF centre and spread   14  ( -1.662535,  0.130154, -1.091006 )     0.89524880
  WF centre and spread   15  (  0.927014,  1.345102, -1.093172 )     0.89563123
  WF centre and spread   16  (  1.646984, -0.104842,  1.092394 )     0.89870047
  WF centre and spread   17  (  0.755345, -1.491919, -1.093636 )     0.89877591
  WF centre and spread   18  ( -0.914320, -1.373949,  1.092407 )     0.89870174
  Sum of centres and spreads ( -0.000192, -0.000144,  0.000062 )    15.96004014
 
      8    -0.126E-02     0.0306141863       15.9600401356       0.10  <-- CONV
        O_D=      0.0006339 O_OD=      0.0988057 O_TOT=     15.9600401 <-- SPRD
 Delta: O_D= -0.1652708E-04 O_OD= -0.1239509E-02 O_TOT= -0.1256036E-02 <-- DLTA
 ------------------------------------------------------------------------------
 Cycle:      9
  WF centre and spread    1  (  0.959796,  1.387194, -1.092775 )     0.86709594
  WF centre and spread    2  ( -0.955804, -1.387653,  1.091807 )     0.86645676
  WF centre and spread    3  (  1.679660, -0.133965,  1.091826 )     0.86642248
  WF centre and spread    4  ( -1.678473,  0.134375, -1.094318 )     0.86645609
  WF centre and spread    5  (  0.722776, -1.520809, -1.094453 )     0.86645383
  WF centre and spread    6  ( -0.721315,  1.524668,  1.093117 )     0.86710990
  WF centre and spread    7  (  0.718642, -1.504943, -1.090900 )     0.89593276
  WF centre and spread    8  ( -0.943936, -1.399624,  1.094863 )     0.89570617
  WF centre and spread    9  ( -0.701409,  1.475546,  1.092922 )     0.89551174
  WF centre and spread   10  (  0.927130,  1.428927, -1.093190 )     0.89539766
  WF centre and spread   11  ( -1.669817,  0.091880, -1.093664 )     0.89859276
  WF centre and spread   12  (  1.684083, -0.117657,  1.094836 )     0.89561824
  WF centre and spread   13  ( -0.774033,  1.517354,  1.093005 )     0.89552068
  WF centre and spread   14  ( -1.662534,  0.130158, -1.091009 )     0.89533714
  WF centre and spread   15  (  0.927016,  1.345104, -1.093169 )     0.89559903
  WF centre and spread   16  (  1.646983, -0.104834,  1.092400 )     0.89859950
  WF centre and spread   17  (  0.755355, -1.491917, -1.093635 )     0.89866701
  WF centre and spread   18  ( -0.914313, -1.373942,  1.092408 )     0.89860552
  Sum of centres and spreads ( -0.000193, -0.000139,  0.000071 )    15.95908319
 
      9    -0.957E-03     0.0256188416       15.9590831864       0.11  <-- CONV
        O_D=      0.0006316 O_OD=      0.0978510 O_TOT=     15.9590832 <-- SPRD
 Delta: O_D= -0.2304878E-05 O_OD= -0.9546444E-03 O_TOT= -0.9569492E-03 <-- DLTA
 ------------------------------------------------------------------------------
 Cycle:     10
  WF centre and spread    1  (  0.959797,  1.387197, -1.092764 )     0.86698729
  WF centre and spread    2  ( -0.955802, -1.387658,  1.091821 )     0.86634556
  WF centre and spread    3  (  1.679662, -0.133958,  1.091840 )     0.86631930
  WF centre and spread    4  ( -1.678473,  0.134371, -1.094332 )     0.86635088
  WF centre and spread    5  (  0.722776, -1.520809, -1.094468 )     0.86634918
  WF centre and spread    6  ( -0.721321,  1.524668,  1.093132 )     0.86700636
  WF centre and spread    7  (  0.718637, -1.504949, -1.090901 )     0.89591568
  WF centre and spread    8  ( -0.943941, -1.399629,  1.094850 )     0.89574746
  WF centre and spread    9  ( -0.701409,  1.475543,  1.092918 )     0.89551526
  WF centre and spread   10  (  0.927124,  1.428939, -1.093184 )     0.89542839
  WF centre and spread   11  ( -1.669823,  0.091863, -1.093661 )     0.89848934
  WF centre and spread   12  (  1.684092, -0.117659,  1.094826 )     0.89568472
  WF centre and spread   13  ( -0.774043,  1.517354,  1.093000 )     0.89550112
  WF centre and spread   14  ( -1.662532,  0.130163, -1.091012 )     0.89547223
  WF centre and spread   15  (  0.927017,  1.345107, -1.093166 )     0.89557014
  WF centre and spread   16  (  1.646982, -0.104825,  1.092406 )     0.89849009
  WF centre and spread   17  (  0.755366, -1.491916, -1.093636 )     0.89855357
  WF centre and spread   18  ( -0.914305, -1.373935,  1.092408 )     0.89850155
  Sum of centres and spreads ( -0.000195, -0.000133,  0.000079 )    15.95822812
 
     10    -0.855E-03     0.0239349332       15.9582281247       0.12  <-- CONV
        O_D=      0.0006216 O_OD=      0.0970059 O_TOT=     15.9582281 <-- SPRD
 Delta: O_D= -0.9984181E-05 O_OD= -0.8450775E-03 O_TOT= -0.8550617E-03 <-- DLTA
 ------------------------------------------------------------------------------
 Cycle:     11
  WF centre and spread    1  (  0.959798,  1.387201, -1.092757 )     0.86691543
  WF centre and spread    2  ( -0.955802, -1.387662,  1.091832 )     0.86626887
  WF centre and spread    3  (  1.679664, -0.133954,  1.091851 )     0.86624686
  WF centre and spread    4  ( -1.678473,  0.134369, -1.094342 )     0.86627338
  WF centre and spread    5  (  0.722776, -1.520811, -1.094479 )     0.86627795
  WF centre and spread    6  ( -0.721324,  1.524669,  1.093144 )     0.86693408
  WF centre and spread    7  (  0.718633, -1.504954, -1.090900 )     0.89590903
  WF centre and spread    8  ( -0.943945, -1.399633,  1.094842 )     0.89578460
  WF centre and spread    9  ( -0.701410,  1.475543,  1.092915 )     0.89552698
  WF centre and spread   10  (  0.927120,  1.428947, -1.093180 )     0.89546293
  WF centre and spread   11  ( -1.669826,  0.091851, -1.093660 )     0.89842262
  WF centre and spread   12  (  1.684098, -0.117661,  1.094819 )     0.89574139
  WF centre and spread   13  ( -0.774049,  1.517355,  1.092997 )     0.89549652
  WF centre and spread   14  ( -1.662531,  0.130168, -1.091013 )     0.89558634
  WF centre and spread   15  (  0.927018,  1.345108, -1.093163 )     0.89555374
  WF centre and spread   16  (  1.646982, -0.104819,  1.092409 )     0.89841358
  WF centre and spread   17  (  0.755373, -1.491914, -1.093637 )     0.89847475
  WF centre and spread   18  ( -0.914299, -1.373931,  1.092407 )     0.89843000
  Sum of centres and spreads ( -0.000195, -0.000127,  0.000084 )    15.95771903
 
     11    -0.509E-03     0.0210156761       15.9577190348       0.13  <-- CONV
        O_D=      0.0006192 O_OD=      0.0964992 O_TOT=     15.9577190 <-- SPRD
 Delta: O_D= -0.2323775E-05 O_OD= -0.5067661E-03 O_TOT= -0.5090899E-03 <-- DLTA
 ------------------------------------------------------------------------------
 Cycle:     12
  WF centre and spread    1  (  0.959800,  1.387207, -1.092752 )     0.86685773
  WF centre and spread    2  ( -0.955802, -1.387664,  1.091842 )     0.86619897
  WF centre and spread    3  (  1.679665, -0.133953,  1.091860 )     0.86618461
  WF centre and spread    4  ( -1.678472,  0.134369, -1.094350 )     0.86619614
  WF centre and spread    5  (  0.722774, -1.520813, -1.094487 )     0.86620938
  WF centre and spread    6  ( -0.721326,  1.524670,  1.093154 )     0.86687107
  WF centre and spread    7  (  0.718627, -1.504960, -1.090899 )     0.89590397
  WF centre and spread    8  ( -0.943952, -1.399637,  1.094834 )     0.89582510
  WF centre and spread    9  ( -0.701411,  1.475543,  1.092912 )     0.89554843
  WF centre and spread   10  (  0.927119,  1.428952, -1.093176 )     0.89550602
  WF centre and spread   11  ( -1.669825,  0.091843, -1.093661 )     0.89836883
  WF centre and spread   12  (  1.684105, -0.117663,  1.094812 )     0.89580056
  WF centre and spread   13  ( -0.774053,  1.517356,  1.092995 )     0.89550160
  WF centre and spread   14  ( -1.662531,  0.130173, -1.091014 )     0.89570688
  WF centre and spread   15  (  0.927020,  1.345110, -1.093159 )     0.89553946
  WF centre and spread   16  (  1.646983, -0.104812,  1.092409 )     0.89834719
  WF centre and spread   17  (  0.755377, -1.491912, -1.093640 )     0.89840220
  WF centre and spread   18  ( -0.914294, -1.373929,  1.092405 )     0.89836730
  Sum of centres and spreads ( -0.000196, -0.000121,  0.000084 )    15.95733545
 
     12    -0.384E-03     0.0147819597       15.9573354525       0.14  <-- CONV
        O_D=      0.0006114 O_OD=      0.0961235 O_TOT=     15.9573355 <-- SPRD
 Delta: O_D= -0.7881061E-05 O_OD= -0.3757012E-03 O_TOT= -0.3835822E-03 <-- DLTA
 ------------------------------------------------------------------------------
 Cycle:     13
  WF centre and spread    1  (  0.959800,  1.387207, -1.092752 )     0.86685063
  WF centre and spread    2  ( -0.955803, -1.387664,  1.091842 )     0.86618864
  WF centre and spread    3  (  1.679666, -0.133953,  1.091861 )     0.86617651
  WF centre and spread    4  ( -1.678471,  0.134369, -1.094350 )     0.86618525
  WF centre and spread    5  (  0.722773, -1.520813, -1.094487 )     0.86619829
  WF centre and spread    6  ( -0.721326,  1.524670,  1.093154 )     0.86686183
  WF centre and spread    7  (  0.718627, -1.504961, -1.090899 )     0.89589813
  WF centre and spread    8  ( -0.943952, -1.399638,  1.094834 )     0.89582183
  WF centre and spread    9  ( -0.701411,  1.475543,  1.092912 )     0.89554547
  WF centre and spread   10  (  0.927119,  1.428952, -1.093176 )     0.89550395
  WF centre and spread   11  ( -1.669825,  0.091843, -1.093661 )     0.89836240
  WF centre and spread   12  (  1.684106, -0.117663,  1.094811 )     0.89579778
  WF centre and spread   13  ( -0.774053,  1.517357,  1.092995 )     0.89549854
  WF centre and spread   14  ( -1.662530,  0.130173, -1.091014 )     0.89570787
  WF centre and spread   15  (  0.927020,  1.345110, -1.093159 )     0.89553279
  WF centre and spread   16  (  1.646983, -0.104812,  1.092409 )     0.89833925
  WF centre and spread   17  (  0.755377, -1.491912, -1.093641 )     0.89839390
  WF centre and spread   18  ( -0.914293, -1.373929,  1.092405 )     0.89835903
  Sum of centres and spreads ( -0.000196, -0.000120,  0.000084 )    15.95722209
 
     13    -0.113E-03     0.0130898926       15.9572220860       0.15  <-- CONV
        O_D=      0.0006044 O_OD=      0.0960171 O_TOT=     15.9572221 <-- SPRD
 Delta: O_D= -0.6995115E-05 O_OD= -0.1063715E-03 O_TOT= -0.1133666E-03 <-- DLTA
 ------------------------------------------------------------------------------
 Cycle:     14
  WF centre and spread    1  (  0.959801,  1.387208, -1.092753 )     0.86684552
  WF centre and spread    2  ( -0.955803, -1.387665,  1.091844 )     0.86617484
  WF centre and spread    3  (  1.679666, -0.133953,  1.091862 )     0.86616813
  WF centre and spread    4  ( -1.678471,  0.134370, -1.094351 )     0.86616790
  WF centre and spread    5  (  0.722772, -1.520814, -1.094488 )     0.86618115
  WF centre and spread    6  ( -0.721325,  1.524671,  1.093155 )     0.86685135
  WF centre and spread    7  (  0.718626, -1.504961, -1.090899 )     0.89589500
  WF centre and spread    8  ( -0.943953, -1.399639,  1.094834 )     0.89582568
  WF centre and spread    9  ( -0.701411,  1.475543,  1.092912 )     0.89554974
  WF centre and spread   10  (  0.927118,  1.428952, -1.093175 )     0.89551129
  WF centre and spread   11  ( -1.669823,  0.091843, -1.093663 )     0.89835724
  WF centre and spread   12  (  1.684107, -0.117662,  1.094810 )     0.89580289
  WF centre and spread   13  ( -0.774054,  1.517357,  1.092994 )     0.89550174
  WF centre and spread   14  ( -1.662530,  0.130173, -1.091014 )     0.89572368
  WF centre and spread   15  (  0.927019,  1.345109, -1.093159 )     0.89552702
  WF centre and spread   16  (  1.646983, -0.104811,  1.092408 )     0.89833051
  WF centre and spread   17  (  0.755376, -1.491911, -1.093641 )     0.89838370
  WF centre and spread   18  ( -0.914292, -1.373929,  1.092405 )     0.89834938
  Sum of centres and spreads ( -0.000196, -0.000119,  0.000083 )    15.95714676
 
     14    -0.753E-04     0.0072406551       15.9571467638       0.16  <-- CONV
        O_D=      0.0006023 O_OD=      0.0959439 O_TOT=     15.9571468 <-- SPRD
 Delta: O_D= -0.2083894E-05 O_OD= -0.7323829E-04 O_TOT= -0.7532218E-04 <-- DLTA
 ------------------------------------------------------------------------------
 Cycle:     15
  WF centre and spread    1  (  0.959802,  1.387210, -1.092752 )     0.86684004
  WF centre and spread    2  ( -0.955805, -1.387666,  1.091847 )     0.86615635
  WF centre and spread    3  (  1.679667, -0.133954,  1.091864 )     0.86615708
  WF centre and spread    4  ( -1.678471,  0.134372, -1.094352 )     0.86614387
  WF centre and spread    5  (  0.722771, -1.520815, -1.094489 )     0.86615783
  WF centre and spread    6  ( -0.721324,  1.524672,  1.093157 )     0.86683768
  WF centre and spread    7  (  0.718624, -1.504962, -1.090898 )     0.89589216
  WF centre and spread    8  ( -0.943954, -1.399641,  1.094832 )     0.89583381
  WF centre and spread    9  ( -0.701411,  1.475542,  1.092913 )     0.89555878
  WF centre and spread   10  (  0.927118,  1.428953, -1.093173 )     0.89552639
  WF centre and spread   11  ( -1.669821,  0.091842, -1.093664 )     0.89835180
  WF centre and spread   12  (  1.684109, -0.117660,  1.094808 )     0.89581350
  WF centre and spread   13  ( -0.774056,  1.517357,  1.092993 )     0.89550881
  WF centre and spread   14  ( -1.662530,  0.130174, -1.091014 )     0.89575242
  WF centre and spread   15  (  0.927018,  1.345107, -1.093158 )     0.89552081
  WF centre and spread   16  (  1.646981, -0.104809,  1.092407 )     0.89831863
  WF centre and spread   17  (  0.755376, -1.491909, -1.093643 )     0.89836999
  WF centre and spread   18  ( -0.914290, -1.373929,  1.092404 )     0.89833612
  Sum of centres and spreads ( -0.000196, -0.000117,  0.000082 )    15.95707607
 
     15    -0.707E-04     0.0069624282       15.9570760735       0.16  <-- CONV
        O_D=      0.0006004 O_OD=      0.0958751 O_TOT=     15.9570761 <-- SPRD
 Delta: O_D= -0.1919876E-05 O_OD= -0.6877037E-04 O_TOT= -0.7069024E-04 <-- DLTA
 ------------------------------------------------------------------------------
 Cycle:     16
  WF centre and spread    1  (  0.959804,  1.387211, -1.092752 )     0.86683617
  WF centre and spread    2  ( -0.955807, -1.387667,  1.091850 )     0.86614065
  WF centre and spread    3  (  1.679668, -0.133956,  1.091867 )     0.86614723
  WF centre and spread    4  ( -1.678472,  0.134374, -1.094354 )     0.86612308
  WF centre and spread    5  (  0.722769, -1.520817, -1.094491 )     0.86613775
  WF centre and spread    6  ( -0.721324,  1.524674,  1.093159 )     0.86682638
  WF centre and spread    7  (  0.718623, -1.504962, -1.090898 )     0.89588934
  WF centre and spread    8  ( -0.943954, -1.399643,  1.094831 )     0.89584197
  WF centre and spread    9  ( -0.701411,  1.475541,  1.092913 )     0.89556754
  WF centre and spread   10  (  0.927117,  1.428954, -1.093170 )     0.89554211
  WF centre and spread   11  ( -1.669819,  0.091840, -1.093665 )     0.89834748
  WF centre and spread   12  (  1.684111, -0.117659,  1.094806 )     0.89582486
  WF centre and spread   13  ( -0.774058,  1.517357,  1.092991 )     0.89551609
  WF centre and spread   14  ( -1.662528,  0.130174, -1.091014 )     0.89578168
  WF centre and spread   15  (  0.927017,  1.345106, -1.093158 )     0.89551599
  WF centre and spread   16  (  1.646980, -0.104808,  1.092407 )     0.89830788
  WF centre and spread   17  (  0.755377, -1.491908, -1.093644 )     0.89835766
  WF centre and spread   18  ( -0.914288, -1.373929,  1.092403 )     0.89832408
  Sum of centres and spreads ( -0.000196, -0.000116,  0.000081 )    15.95702796
 
     16    -0.481E-04     0.0060694822       15.9570279605       0.17  <-- CONV
        O_D=      0.0005996 O_OD=      0.0958277 O_TOT=     15.9570280 <-- SPRD
 Delta: O_D= -0.7490940E-06 O_OD= -0.4736397E-04 O_TOT= -0.4811307E-04 <-- DLTA
 ------------------------------------------------------------------------------
 Cycle:     17
  WF centre and spread    1  (  0.959807,  1.387212, -1.092750 )     0.86683281
  WF centre and spread    2  ( -0.955809, -1.387668,  1.091853 )     0.86612882
  WF centre and spread    3  (  1.679670, -0.133957,  1.091870 )     0.86613921
  WF centre and spread    4  ( -1.678473,  0.134376, -1.094357 )     0.86610800
  WF centre and spread    5  (  0.722768, -1.520819, -1.094493 )     0.86612278
  WF centre and spread    6  ( -0.721323,  1.524677,  1.093161 )     0.86681799
  WF centre and spread    7  (  0.718621, -1.504962, -1.090898 )     0.89588644
  WF centre and spread    8  ( -0.943955, -1.399645,  1.094829 )     0.89584907
  WF centre and spread    9  ( -0.701411,  1.475540,  1.092914 )     0.89557453
  WF centre and spread   10  (  0.927115,  1.428955, -1.093168 )     0.89555577
  WF centre and spread   11  ( -1.669819,  0.091837, -1.093665 )     0.89834307
  WF centre and spread   12  (  1.684112, -0.117657,  1.094804 )     0.89583579
  WF centre and spread   13  ( -0.774060,  1.517356,  1.092988 )     0.89552206
  WF centre and spread   14  ( -1.662527,  0.130175, -1.091014 )     0.89580787
  WF centre and spread   15  (  0.927016,  1.345104, -1.093159 )     0.89551298
  WF centre and spread   16  (  1.646978, -0.104806,  1.092407 )     0.89829881
  WF centre and spread   17  (  0.755379, -1.491906, -1.093644 )     0.89834654
  WF centre and spread   18  ( -0.914285, -1.373928,  1.092403 )     0.89831407
  Sum of centres and spreads ( -0.000196, -0.000115,  0.000081 )    15.95699662
 
     17    -0.313E-04     0.0049365780       15.9569966202       0.18  <-- CONV
        O_D=      0.0005992 O_OD=      0.0957968 O_TOT=     15.9569966 <-- SPRD
 Delta: O_D= -0.4017136E-06 O_OD= -0.3093855E-04 O_TOT= -0.3134026E-04 <-- DLTA
 ------------------------------------------------------------------------------
 Cycle:     18
  WF centre and spread    1  (  0.959809,  1.387212, -1.092749 )     0.86682989
  WF centre and spread    2  ( -0.955811, -1.387669,  1.091854 )     0.86612243
  WF centre and spread    3  (  1.679672, -0.133958,  1.091871 )     0.86613438
  WF centre and spread    4  ( -1.678474,  0.134378, -1.094358 )     0.86610098
  WF centre and spread    5  (  0.722767, -1.520821, -1.094494 )     0.86611499
  WF centre and spread    6  ( -0.721323,  1.524679,  1.093163 )     0.86681355
  WF centre and spread    7  (  0.718620, -1.504962, -1.090898 )     0.89588406
  WF centre and spread    8  ( -0.943955, -1.399646,  1.094827 )     0.89585372
  WF centre and spread    9  ( -0.701412,  1.475538,  1.092915 )     0.89557834
  WF centre and spread   10  (  0.927113,  1.428957, -1.093166 )     0.89556444
  WF centre and spread   11  ( -1.669819,  0.091834, -1.093664 )     0.89833880
  WF centre and spread   12  (  1.684114, -0.117656,  1.094802 )     0.89584397
  WF centre and spread   13  ( -0.774062,  1.517356,  1.092986 )     0.89552539
  WF centre and spread   14  ( -1.662526,  0.130176, -1.091015 )     0.89582551
  WF centre and spread   15  (  0.927014,  1.345103, -1.093160 )     0.89551187
  WF centre and spread   16  (  1.646976, -0.104804,  1.092407 )     0.89829296
  WF centre and spread   17  (  0.755381, -1.491905, -1.093644 )     0.89833820
  WF centre and spread   18  ( -0.914283, -1.373926,  1.092403 )     0.89830776
  Sum of centres and spreads ( -0.000196, -0.000115,  0.000082 )    15.95698125
 
     18    -0.154E-04     0.0034491138       15.9569812451       0.19  <-- CONV
        O_D=      0.0005994 O_OD=      0.0957813 O_TOT=     15.9569812 <-- SPRD
 Delta: O_D=  0.1434423E-06 O_OD= -0.1551852E-04 O_TOT= -0.1537507E-04 <-- DLTA
 ------------------------------------------------------------------------------
 Cycle:     19
  WF centre and spread    1  (  0.959810,  1.387212, -1.092749 )     0.86682863
  WF centre and spread    2  ( -0.955812, -1.387669,  1.091855 )     0.86612182
  WF centre and spread    3  (  1.679672, -0.133959,  1.091871 )     0.86613351
  WF centre and spread    4  ( -1.678474,  0.134378, -1.094359 )     0.86610106
  WF centre and spread    5  (  0.722767, -1.520822, -1.094495 )     0.86611457
  WF centre and spread    6  ( -0.721323,  1.524680,  1.093163 )     0.86681297
  WF centre and spread    7  (  0.718620, -1.504962, -1.090899 )     0.89588316
  WF centre and spread    8  ( -0.943955, -1.399646,  1.094826 )     0.89585374
  WF centre and spread    9  ( -0.701412,  1.475538,  1.092916 )     0.89557788
  WF centre and spread   10  (  0.927113,  1.428957, -1.093165 )     0.89556487
  WF centre and spread   11  ( -1.669819,  0.091833, -1.093664 )     0.89833722
  WF centre and spread   12  (  1.684114, -0.117656,  1.094802 )     0.89584474
  WF centre and spread   13  ( -0.774062,  1.517356,  1.092985 )     0.89552506
  WF centre and spread   14  ( -1.662525,  0.130176, -1.091015 )     0.89582694
  WF centre and spread   15  (  0.927014,  1.345103, -1.093160 )     0.89551149
  WF centre and spread   16  (  1.646975, -0.104803,  1.092408 )     0.89829188
  WF centre and spread   17  (  0.755382, -1.491904, -1.093644 )     0.89833635
  WF centre and spread   18  ( -0.914282, -1.373926,  1.092404 )     0.89830670
  Sum of centres and spreads ( -0.000196, -0.000115,  0.000082 )    15.95697259
 
     19    -0.866E-05     0.0033240209       15.9569725891       0.20  <-- CONV
        O_D=      0.0005989 O_OD=      0.0957730 O_TOT=     15.9569726 <-- SPRD
 Delta: O_D= -0.4123002E-06 O_OD= -0.8243696E-05 O_TOT= -0.8655996E-05 <-- DLTA
 ------------------------------------------------------------------------------
 Cycle:     20
  WF centre and spread    1  (  0.959812,  1.387211, -1.092747 )     0.86682582
  WF centre and spread    2  ( -0.955814, -1.387669,  1.091855 )     0.86612089
  WF centre and spread    3  (  1.679674, -0.133960,  1.091872 )     0.86613175
  WF centre and spread    4  ( -1.678475,  0.134380, -1.094360 )     0.86610204
  WF centre and spread    5  (  0.722766, -1.520823, -1.094496 )     0.86611406
  WF centre and spread    6  ( -0.721322,  1.524682,  1.093164 )     0.86681217
  WF centre and spread    7  (  0.718619, -1.504961, -1.090899 )     0.89588136
  WF centre and spread    8  ( -0.943955, -1.399648,  1.094825 )     0.89585477
  WF centre and spread    9  ( -0.701412,  1.475536,  1.092917 )     0.89557750
  WF centre and spread   10  (  0.927111,  1.428958, -1.093163 )     0.89556751
  WF centre and spread   11  ( -1.669820,  0.091830, -1.093663 )     0.89833341
  WF centre and spread   12  (  1.684116, -0.117656,  1.094801 )     0.89584803
  WF centre and spread   13  ( -0.774064,  1.517355,  1.092984 )     0.89552502
  WF centre and spread   14  ( -1.662524,  0.130177, -1.091015 )     0.89583251
  WF centre and spread   15  (  0.927013,  1.345103, -1.093161 )     0.89551109
  WF centre and spread   16  (  1.646974, -0.104802,  1.092409 )     0.89828935
  WF centre and spread   17  (  0.755385, -1.491903, -1.093643 )     0.89833157
  WF centre and spread   18  ( -0.914280, -1.373924,  1.092404 )     0.89830428
  Sum of centres and spreads ( -0.000196, -0.000115,  0.000082 )    15.95696312
 
     20    -0.947E-05     0.0023587453       15.9569631184       0.21  <-- CONV
        O_D=      0.0005988 O_OD=      0.0957637 O_TOT=     15.9569631 <-- SPRD
 Delta: O_D= -0.1558803E-06 O_OD= -0.9314860E-05 O_TOT= -0.9470740E-05 <-- DLTA
 ------------------------------------------------------------------------------
 Cycle:     21
  WF centre and spread    1  (  0.959815,  1.387211, -1.092745 )     0.86682269
  WF centre and spread    2  ( -0.955817, -1.387670,  1.091856 )     0.86611975
  WF centre and spread    3  (  1.679676, -0.133962,  1.091873 )     0.86612956
  WF centre and spread    4  ( -1.678477,  0.134383, -1.094361 )     0.86610280
  WF centre and spread    5  (  0.722765, -1.520826, -1.094497 )     0.86611312
  WF centre and spread    6  ( -0.721321,  1.524685,  1.093165 )     0.86681123
  WF centre and spread    7  (  0.718618, -1.504961, -1.090900 )     0.89587922
  WF centre and spread    8  ( -0.943955, -1.399649,  1.094823 )     0.89585644
  WF centre and spread    9  ( -0.701412,  1.475534,  1.092918 )     0.89557755
  WF centre and spread   10  (  0.927109,  1.428959, -1.093161 )     0.89557198
  WF centre and spread   11  ( -1.669820,  0.091825, -1.093662 )     0.89832919
  WF centre and spread   12  (  1.684117, -0.117655,  1.094799 )     0.89585235
  WF centre and spread   13  ( -0.774066,  1.517354,  1.092981 )     0.89552551
  WF centre and spread   14  ( -1.662523,  0.130178, -1.091016 )     0.89584036
  WF centre and spread   15  (  0.927011,  1.345103, -1.093163 )     0.89551028
  WF centre and spread   16  (  1.646971, -0.104799,  1.092410 )     0.89828604
  WF centre and spread   17  (  0.755389, -1.491902, -1.093642 )     0.89832568
  WF centre and spread   18  ( -0.914277, -1.373922,  1.092405 )     0.89830111
  Sum of centres and spreads ( -0.000197, -0.000114,  0.000083 )    15.95695485
 
     21    -0.827E-05     0.0023793574       15.9569548472       0.22  <-- CONV
        O_D=      0.0005987 O_OD=      0.0957555 O_TOT=     15.9569548 <-- SPRD
 Delta: O_D= -0.9919446E-07 O_OD= -0.8172041E-05 O_TOT= -0.8271236E-05 <-- DLTA
 ------------------------------------------------------------------------------
 Cycle:     22
  WF centre and spread    1  (  0.959820,  1.387211, -1.092744 )     0.86682005
  WF centre and spread    2  ( -0.955820, -1.387670,  1.091857 )     0.86611833
  WF centre and spread    3  (  1.679679, -0.133965,  1.091875 )     0.86612725
  WF centre and spread    4  ( -1.678479,  0.134386, -1.094363 )     0.86610249
  WF centre and spread    5  (  0.722763, -1.520829, -1.094499 )     0.86611137
  WF centre and spread    6  ( -0.721320,  1.524689,  1.093167 )     0.86681014
  WF centre and spread    7  (  0.718616, -1.504960, -1.090900 )     0.89587715
  WF centre and spread    8  ( -0.943955, -1.399651,  1.094821 )     0.89585853
  WF centre and spread    9  ( -0.701413,  1.475532,  1.092920 )     0.89557821
  WF centre and spread   10  (  0.927107,  1.428961, -1.093158 )     0.89557784
  WF centre and spread   11  ( -1.669821,  0.091820, -1.093660 )     0.89832564
  WF centre and spread   12  (  1.684119, -0.117654,  1.094797 )     0.89585674
  WF centre and spread   13  ( -0.774068,  1.517353,  1.092978 )     0.89552668
  WF centre and spread   14  ( -1.662521,  0.130179, -1.091017 )     0.89584907
  WF centre and spread   15  (  0.927009,  1.345102, -1.093165 )     0.89550872
  WF centre and spread   16  (  1.646968, -0.104797,  1.092411 )     0.89828238
  WF centre and spread   17  (  0.755393, -1.491900, -1.093642 )     0.89831985
  WF centre and spread   18  ( -0.914273, -1.373920,  1.092405 )     0.89829761
  Sum of centres and spreads ( -0.000197, -0.000114,  0.000084 )    15.95694803
 
     22    -0.682E-05     0.0022007018       15.9569480291       0.23  <-- CONV
        O_D=      0.0005988 O_OD=      0.0957487 O_TOT=     15.9569480 <-- SPRD
 Delta: O_D=  0.6644426E-07 O_OD= -0.6884543E-05 O_TOT= -0.6818099E-05 <-- DLTA
 ------------------------------------------------------------------------------
 Cycle:     23
  WF centre and spread    1  (  0.959824,  1.387210, -1.092742 )     0.86681838
  WF centre and spread    2  ( -0.955824, -1.387671,  1.091858 )     0.86611680
  WF centre and spread    3  (  1.679681, -0.133968,  1.091876 )     0.86612536
  WF centre and spread    4  ( -1.678481,  0.134389, -1.094364 )     0.86610106
  WF centre and spread    5  (  0.722761, -1.520833, -1.094500 )     0.86610903
  WF centre and spread    6  ( -0.721319,  1.524693,  1.093168 )     0.86680905
  WF centre and spread    7  (  0.718614, -1.504959, -1.090901 )     0.89587557
  WF centre and spread    8  ( -0.943955, -1.399653,  1.094819 )     0.89586061
  WF centre and spread    9  ( -0.701413,  1.475529,  1.092922 )     0.89557934
  WF centre and spread   10  (  0.927104,  1.428962, -1.093155 )     0.89558384
  WF centre and spread   11  ( -1.669821,  0.091815, -1.093659 )     0.89832333
  WF centre and spread   12  (  1.684121, -0.117653,  1.094796 )     0.89586027
  WF centre and spread   13  ( -0.774071,  1.517351,  1.092975 )     0.89552826
  WF centre and spread   14  ( -1.662519,  0.130180, -1.091018 )     0.89585687
  WF centre and spread   15  (  0.927007,  1.345101, -1.093167 )     0.89550665
  WF centre and spread   16  (  1.646965, -0.104794,  1.092412 )     0.89827908
  WF centre and spread   17  (  0.755397, -1.491898, -1.093641 )     0.89831516
  WF centre and spread   18  ( -0.914269, -1.373917,  1.092406 )     0.89829442
  Sum of centres and spreads ( -0.000197, -0.000114,  0.000084 )    15.95694307
 
     23    -0.496E-05     0.0019539631       15.9569430735       0.24  <-- CONV
        O_D=      0.0005987 O_OD=      0.0957437 O_TOT=     15.9569431 <-- SPRD
 Delta: O_D= -0.7618341E-08 O_OD= -0.4947930E-05 O_TOT= -0.4955549E-05 <-- DLTA
 ------------------------------------------------------------------------------
 Cycle:     24
  WF centre and spread    1  (  0.959828,  1.387210, -1.092741 )     0.86681762
  WF centre and spread    2  ( -0.955828, -1.387672,  1.091859 )     0.86611503
  WF centre and spread    3  (  1.679684, -0.133971,  1.091877 )     0.86612394
  WF centre and spread    4  ( -1.678484,  0.134393, -1.094365 )     0.86609846
  WF centre and spread    5  (  0.722760, -1.520836, -1.094501 )     0.86610597
  WF centre and spread    6  ( -0.721317,  1.524698,  1.093169 )     0.86680789
  WF centre and spread    7  (  0.718612, -1.504958, -1.090901 )     0.89587434
  WF centre and spread    8  ( -0.943955, -1.399655,  1.094818 )     0.89586283
  WF centre and spread    9  ( -0.701413,  1.475527,  1.092924 )     0.89558092
  WF centre and spread   10  (  0.927102,  1.428964, -1.093152 )     0.89559021
  WF centre and spread   11  ( -1.669821,  0.091810, -1.093659 )     0.89832190
  WF centre and spread   12  (  1.684124, -0.117652,  1.094794 )     0.89586322
  WF centre and spread   13  ( -0.774073,  1.517350,  1.092972 )     0.89553030
  WF centre and spread   14  ( -1.662517,  0.130181, -1.091018 )     0.89586432
  WF centre and spread   15  (  0.927005,  1.345100, -1.093169 )     0.89550389
  WF centre and spread   16  (  1.646961, -0.104792,  1.092413 )     0.89827585
  WF centre and spread   17  (  0.755401, -1.491895, -1.093640 )     0.89831114
  WF centre and spread   18  ( -0.914265, -1.373915,  1.092407 )     0.89829125
  Sum of centres and spreads ( -0.000198, -0.000114,  0.000085 )    15.95693908
 
     24    -0.400E-05     0.0015778362       15.9569390774       0.24  <-- CONV
        O_D=      0.0005989 O_OD=      0.0957396 O_TOT=     15.9569391 <-- SPRD
 Delta: O_D=  0.1360415E-06 O_OD= -0.4132159E-05 O_TOT= -0.3996117E-05 <-- DLTA
 ------------------------------------------------------------------------------
 Cycle:     25
  WF centre and spread    1  (  0.959829,  1.387210, -1.092741 )     0.86681780
  WF centre and spread    2  ( -0.955829, -1.387672,  1.091859 )     0.86611475
  WF centre and spread    3  (  1.679684, -0.133972,  1.091877 )     0.86612392
  WF centre and spread    4  ( -1.678484,  0.134393, -1.094365 )     0.86609790
  WF centre and spread    5  (  0.722759, -1.520837, -1.094501 )     0.86610548
  WF centre and spread    6  ( -0.721316,  1.524698,  1.093169 )     0.86680770
  WF centre and spread    7  (  0.718612, -1.504958, -1.090901 )     0.89587421
  WF centre and spread    8  ( -0.943955, -1.399656,  1.094818 )     0.89586281
  WF centre and spread    9  ( -0.701413,  1.475526,  1.092924 )     0.89558093
  WF centre and spread   10  (  0.927101,  1.428964, -1.093152 )     0.89559036
  WF centre and spread   11  ( -1.669821,  0.091810, -1.093659 )     0.89832188
  WF centre and spread   12  (  1.684124, -0.117652,  1.094794 )     0.89586303
  WF centre and spread   13  ( -0.774073,  1.517350,  1.092971 )     0.89553036
  WF centre and spread   14  ( -1.662516,  0.130181, -1.091018 )     0.89586439
  WF centre and spread   15  (  0.927004,  1.345100, -1.093170 )     0.89550340
  WF centre and spread   16  (  1.646961, -0.104791,  1.092413 )     0.89827556
  WF centre and spread   17  (  0.755401, -1.491895, -1.093640 )     0.89831099
  WF centre and spread   18  ( -0.914264, -1.373915,  1.092407 )     0.89829091
  Sum of centres and spreads ( -0.000198, -0.000114,  0.000085 )    15.95693638
 
     25    -0.270E-05     0.0019687836       15.9569363800       0.25  <-- CONV
        O_D=      0.0005987 O_OD=      0.0957371 O_TOT=     15.9569364 <-- SPRD
 Delta: O_D= -0.2259107E-06 O_OD= -0.2471467E-05 O_TOT= -0.2697377E-05 <-- DLTA
 ------------------------------------------------------------------------------
 Cycle:     26
  WF centre and spread    1  (  0.959831,  1.387211, -1.092742 )     0.86681873
  WF centre and spread    2  ( -0.955831, -1.387672,  1.091859 )     0.86611426
  WF centre and spread    3  (  1.679685, -0.133973,  1.091877 )     0.86612425
  WF centre and spread    4  ( -1.678485,  0.134395, -1.094365 )     0.86609656
  WF centre and spread    5  (  0.722758, -1.520839, -1.094501 )     0.86610438
  WF centre and spread    6  ( -0.721315,  1.524700,  1.093169 )     0.86680755
  WF centre and spread    7  (  0.718611, -1.504958, -1.090901 )     0.89587410
  WF centre and spread    8  ( -0.943955, -1.399657,  1.094818 )     0.89586303
  WF centre and spread    9  ( -0.701413,  1.475525,  1.092925 )     0.89558125
  WF centre and spread   10  (  0.927100,  1.428965, -1.093151 )     0.89559115
  WF centre and spread   11  ( -1.669821,  0.091808, -1.093659 )     0.89832212
  WF centre and spread   12  (  1.684125, -0.117651,  1.094794 )     0.89586276
  WF centre and spread   13  ( -0.774074,  1.517349,  1.092970 )     0.89553079
  WF centre and spread   14  ( -1.662516,  0.130181, -1.091018 )     0.89586498
  WF centre and spread   15  (  0.927003,  1.345099, -1.093171 )     0.89550223
  WF centre and spread   16  (  1.646959, -0.104790,  1.092413 )     0.89827495
  WF centre and spread   17  (  0.755403, -1.491894, -1.093640 )     0.89831076
  WF centre and spread   18  ( -0.914263, -1.373914,  1.092407 )     0.89829018
  Sum of centres and spreads ( -0.000198, -0.000114,  0.000084 )    15.95693402
 
     26    -0.236E-05     0.0012052355       15.9569340191       0.26  <-- CONV
        O_D=      0.0005986 O_OD=      0.0957348 O_TOT=     15.9569340 <-- SPRD
 Delta: O_D= -0.6814524E-07 O_OD= -0.2292784E-05 O_TOT= -0.2360930E-05 <-- DLTA
 ------------------------------------------------------------------------------
 Cycle:     27
  WF centre and spread    1  (  0.959835,  1.387211, -1.092742 )     0.86682056
  WF centre and spread    2  ( -0.955834, -1.387672,  1.091859 )     0.86611361
  WF centre and spread    3  (  1.679687, -0.133977,  1.091877 )     0.86612489
  WF centre and spread    4  ( -1.678487,  0.134398, -1.094366 )     0.86609446
  WF centre and spread    5  (  0.722757, -1.520842, -1.094502 )     0.86610264
  WF centre and spread    6  ( -0.721313,  1.524703,  1.093169 )     0.86680754
  WF centre and spread    7  (  0.718610, -1.504956, -1.090901 )     0.89587382
  WF centre and spread    8  ( -0.943955, -1.399659,  1.094817 )     0.89586343
  WF centre and spread    9  ( -0.701414,  1.475523,  1.092927 )     0.89558178
  WF centre and spread   10  (  0.927098,  1.428965, -1.093148 )     0.89559256
  WF centre and spread   11  ( -1.669821,  0.091805, -1.093659 )     0.89832251
  WF centre and spread   12  (  1.684126, -0.117650,  1.094793 )     0.89586238
  WF centre and spread   13  ( -0.774076,  1.517348,  1.092968 )     0.89553151
  WF centre and spread   14  ( -1.662514,  0.130182, -1.091019 )     0.89586624
  WF centre and spread   15  (  0.927001,  1.345098, -1.093173 )     0.89550026
  WF centre and spread   16  (  1.646956, -0.104789,  1.092413 )     0.89827383
  WF centre and spread   17  (  0.755406, -1.491892, -1.093640 )     0.89831028
  WF centre and spread   18  ( -0.914259, -1.373912,  1.092407 )     0.89828884
  Sum of centres and spreads ( -0.000198, -0.000114,  0.000084 )    15.95693116
 
     27    -0.286E-05     0.0012962859       15.9569311585       0.27  <-- CONV
        O_D=      0.0005985 O_OD=      0.0957320 O_TOT=     15.9569312 <-- SPRD
 Delta: O_D= -0.5288614E-07 O_OD= -0.2807741E-05 O_TOT= -0.2860627E-05 <-- DLTA
 ------------------------------------------------------------------------------
 Cycle:     28
  WF centre and spread    1  (  0.959841,  1.387211, -1.092742 )     0.86682305
  WF centre and spread    2  ( -0.955840, -1.387672,  1.091860 )     0.86611315
  WF centre and spread    3  (  1.679690, -0.133981,  1.091877 )     0.86612575
  WF centre and spread    4  ( -1.678490,  0.134403, -1.094366 )     0.86609239
  WF centre and spread    5  (  0.722754, -1.520847, -1.094502 )     0.86610088
  WF centre and spread    6  ( -0.721310,  1.524709,  1.093170 )     0.86680794
  WF centre and spread    7  (  0.718608, -1.504955, -1.090902 )     0.89587327
  WF centre and spread    8  ( -0.943954, -1.399662,  1.094817 )     0.89586386
  WF centre and spread    9  ( -0.701414,  1.475520,  1.092930 )     0.89558218
  WF centre and spread   10  (  0.927096,  1.428967, -1.093145 )     0.89559409
  WF centre and spread   11  ( -1.669820,  0.091800, -1.093658 )     0.89832270
  WF centre and spread   12  (  1.684128, -0.117648,  1.094793 )     0.89586208
  WF centre and spread   13  ( -0.774079,  1.517346,  1.092965 )     0.89553218
  WF centre and spread   14  ( -1.662511,  0.130183, -1.091019 )     0.89586800
  WF centre and spread   15  (  0.926998,  1.345096, -1.093176 )     0.89549790
  WF centre and spread   16  (  1.646951, -0.104786,  1.092414 )     0.89827226
  WF centre and spread   17  (  0.755410, -1.491889, -1.093639 )     0.89830935
  WF centre and spread   18  ( -0.914255, -1.373910,  1.092408 )     0.89828700
  Sum of centres and spreads ( -0.000198, -0.000114,  0.000084 )    15.95692804
 
     28    -0.311E-05     0.0013827659       15.9569280445       0.28  <-- CONV
        O_D=      0.0005986 O_OD=      0.0957288 O_TOT=     15.9569280 <-- SPRD
 Delta: O_D=  0.9803223E-07 O_OD= -0.3212002E-05 O_TOT= -0.3113970E-05 <-- DLTA
 ------------------------------------------------------------------------------
 Cycle:     29
  WF centre and spread    1  (  0.959849,  1.387211, -1.092742 )     0.86682604
  WF centre and spread    2  ( -0.955848, -1.387672,  1.091860 )     0.86611320
  WF centre and spread    3  (  1.679694, -0.133988,  1.091877 )     0.86612689
  WF centre and spread    4  ( -1.678493,  0.134409, -1.094367 )     0.86609115
  WF centre and spread    5  (  0.722751, -1.520853, -1.094503 )     0.86609968
  WF centre and spread    6  ( -0.721306,  1.524716,  1.093170 )     0.86680911
  WF centre and spread    7  (  0.718605, -1.504952, -1.090902 )     0.89587230
  WF centre and spread    8  ( -0.943954, -1.399666,  1.094816 )     0.89586419
  WF centre and spread    9  ( -0.701414,  1.475515,  1.092935 )     0.89558207
  WF centre and spread   10  (  0.927091,  1.428969, -1.093141 )     0.89559534
  WF centre and spread   11  ( -1.669820,  0.091792, -1.093657 )     0.89832213
  WF centre and spread   12  (  1.684131, -0.117645,  1.094791 )     0.89586203
  WF centre and spread   13  ( -0.774083,  1.517344,  1.092960 )     0.89553242
  WF centre and spread   14  ( -1.662508,  0.130184, -1.091020 )     0.89587027
  WF centre and spread   15  (  0.926994,  1.345094, -1.093180 )     0.89549535
  WF centre and spread   16  (  1.646944, -0.104782,  1.092414 )     0.89827013
  WF centre and spread   17  (  0.755417, -1.491885, -1.093639 )     0.89830756
  WF centre and spread   18  ( -0.914248, -1.373906,  1.092409 )     0.89828458
  Sum of centres and spreads ( -0.000198, -0.000114,  0.000084 )    15.95692445
 
     29    -0.360E-05     0.0014441979       15.9569244450       0.29  <-- CONV
        O_D=      0.0005988 O_OD=      0.0957250 O_TOT=     15.9569244 <-- SPRD
 Delta: O_D=  0.1805428E-06 O_OD= -0.3780023E-05 O_TOT= -0.3599480E-05 <-- DLTA
 ------------------------------------------------------------------------------
 Cycle:     30
  WF centre and spread    1  (  0.959860,  1.387211, -1.092742 )     0.86682887
  WF centre and spread    2  ( -0.955857, -1.387673,  1.091860 )     0.86611413
  WF centre and spread    3  (  1.679699, -0.133996,  1.091877 )     0.86612828
  WF centre and spread    4  ( -1.678498,  0.134418, -1.094368 )     0.86609181
  WF centre and spread    5  (  0.722746, -1.520861, -1.094504 )     0.86609987
  WF centre and spread    6  ( -0.721301,  1.524725,  1.093171 )     0.86681125
  WF centre and spread    7  (  0.718601, -1.504949, -1.090903 )     0.89587108
  WF centre and spread    8  ( -0.943953, -1.399671,  1.094814 )     0.89586433
  WF centre and spread    9  ( -0.701415,  1.475509,  1.092940 )     0.89558107
  WF centre and spread   10  (  0.927086,  1.428971, -1.093135 )     0.89559563
  WF centre and spread   11  ( -1.669819,  0.091782, -1.093656 )     0.89832022
  WF centre and spread   12  (  1.684135, -0.117642,  1.094790 )     0.89586244
  WF centre and spread   13  ( -0.774088,  1.517340,  1.092954 )     0.89553180
  WF centre and spread   14  ( -1.662503,  0.130186, -1.091021 )     0.89587252
  WF centre and spread   15  (  0.926988,  1.345091, -1.093186 )     0.89549313
  WF centre and spread   16  (  1.646935, -0.104777,  1.092416 )     0.89826765
  WF centre and spread   17  (  0.755425, -1.491880, -1.093637 )     0.89830474
  WF centre and spread   18  ( -0.914239, -1.373901,  1.092410 )     0.89828189
  Sum of centres and spreads ( -0.000198, -0.000114,  0.000083 )    15.95692068
 
     30    -0.377E-05     0.0014749609       15.9569206785       0.30  <-- CONV
        O_D=      0.0005991 O_OD=      0.0957210 O_TOT=     15.9569207 <-- SPRD
 Delta: O_D=  0.2899002E-06 O_OD= -0.4056451E-05 O_TOT= -0.3766551E-05 <-- DLTA
 ------------------------------------------------------------------------------
 Cycle:     31
  WF centre and spread    1  (  0.959861,  1.387211, -1.092741 )     0.86682845
  WF centre and spread    2  ( -0.955858, -1.387673,  1.091860 )     0.86611434
  WF centre and spread    3  (  1.679699, -0.133996,  1.091877 )     0.86612815
  WF centre and spread    4  ( -1.678499,  0.134418, -1.094368 )     0.86609255
  WF centre and spread    5  (  0.722746, -1.520862, -1.094504 )     0.86610039
  WF centre and spread    6  ( -0.721301,  1.524726,  1.093171 )     0.86681144
  WF centre and spread    7  (  0.718601, -1.504949, -1.090903 )     0.89587092
  WF centre and spread    8  ( -0.943953, -1.399671,  1.094814 )     0.89586406
  WF centre and spread    9  ( -0.701415,  1.475509,  1.092941 )     0.89558044
  WF centre and spread   10  (  0.927086,  1.428972, -1.093134 )     0.89559497
  WF centre and spread   11  ( -1.669819,  0.091782, -1.093656 )     0.89831942
  WF centre and spread   12  (  1.684136, -0.117641,  1.094790 )     0.89586244
  WF centre and spread   13  ( -0.774088,  1.517340,  1.092954 )     0.89553121
  WF centre and spread   14  ( -1.662503,  0.130186, -1.091021 )     0.89587211
  WF centre and spread   15  (  0.926988,  1.345091, -1.093186 )     0.89549312
  WF centre and spread   16  (  1.646935, -0.104776,  1.092416 )     0.89826739
  WF centre and spread   17  (  0.755426, -1.491879, -1.093637 )     0.89830418
  WF centre and spread   18  ( -0.914238, -1.373901,  1.092410 )     0.89828167
  Sum of centres and spreads ( -0.000198, -0.000114,  0.000084 )    15.95691726
 
     31    -0.342E-05     0.0021537755       15.9569172598       0.31  <-- CONV
        O_D=      0.0005989 O_OD=      0.0957178 O_TOT=     15.9569173 <-- SPRD
 Delta: O_D= -0.2303181E-06 O_OD= -0.3188309E-05 O_TOT= -0.3418628E-05 <-- DLTA
 ------------------------------------------------------------------------------
 Cycle:     32
  WF centre and spread    1  (  0.959863,  1.387211, -1.092741 )     0.86682769
  WF centre and spread    2  ( -0.955860, -1.387672,  1.091860 )     0.86611540
  WF centre and spread    3  (  1.679700, -0.133998,  1.091877 )     0.86612820
  WF centre and spread    4  ( -1.678500,  0.134420, -1.094368 )     0.86609505
  WF centre and spread    5  (  0.722745, -1.520864, -1.094504 )     0.86610230
  WF centre and spread    6  ( -0.721300,  1.524728,  1.093171 )     0.86681245
  WF centre and spread    7  (  0.718600, -1.504949, -1.090904 )     0.89587082
  WF centre and spread    8  ( -0.943953, -1.399672,  1.094814 )     0.89586363
  WF centre and spread    9  ( -0.701415,  1.475508,  1.092942 )     0.89557899
  WF centre and spread   10  (  0.927085,  1.428972, -1.093133 )     0.89559344
  WF centre and spread   11  ( -1.669820,  0.091779, -1.093655 )     0.89831750
  WF centre and spread   12  (  1.684137, -0.117641,  1.094790 )     0.89586276
  WF centre and spread   13  ( -0.774089,  1.517339,  1.092953 )     0.89552981
  WF centre and spread   14  ( -1.662502,  0.130187, -1.091021 )     0.89587130
  WF centre and spread   15  (  0.926987,  1.345091, -1.093187 )     0.89549340
  WF centre and spread   16  (  1.646933, -0.104775,  1.092417 )     0.89826694
  WF centre and spread   17  (  0.755428, -1.491878, -1.093637 )     0.89830289
  WF centre and spread   18  ( -0.914236, -1.373900,  1.092411 )     0.89828137
  Sum of centres and spreads ( -0.000198, -0.000114,  0.000084 )    15.95691394
 
     32    -0.332E-05     0.0014280804       15.9569139440       0.32  <-- CONV
        O_D=      0.0005987 O_OD=      0.0957146 O_TOT=     15.9569139 <-- SPRD
 Delta: O_D= -0.1499404E-06 O_OD= -0.3165871E-05 O_TOT= -0.3315812E-05 <-- DLTA
 ------------------------------------------------------------------------------
 Cycle:     33
  WF centre and spread    1  (  0.959866,  1.387211, -1.092741 )     0.86682703
  WF centre and spread    2  ( -0.955863, -1.387672,  1.091860 )     0.86611695
  WF centre and spread    3  (  1.679701, -0.134001,  1.091877 )     0.86612838
  WF centre and spread    4  ( -1.678501,  0.134423, -1.094368 )     0.86609826
  WF centre and spread    5  (  0.722743, -1.520866, -1.094504 )     0.86610487
  WF centre and spread    6  ( -0.721298,  1.524731,  1.093171 )     0.86681396
  WF centre and spread    7  (  0.718599, -1.504948, -1.090904 )     0.89587082
  WF centre and spread    8  ( -0.943953, -1.399673,  1.094813 )     0.89586315
  WF centre and spread    9  ( -0.701415,  1.475506,  1.092944 )     0.89557716
  WF centre and spread   10  (  0.927083,  1.428973, -1.093131 )     0.89559164
  WF centre and spread   11  ( -1.669820,  0.091775, -1.093654 )     0.89831518
  WF centre and spread   12  (  1.684138, -0.117640,  1.094789 )     0.89586313
  WF centre and spread   13  ( -0.774091,  1.517338,  1.092951 )     0.89552803
  WF centre and spread   14  ( -1.662500,  0.130187, -1.091022 )     0.89587027
  WF centre and spread   15  (  0.926985,  1.345091, -1.093189 )     0.89549363
  WF centre and spread   16  (  1.646930, -0.104773,  1.092417 )     0.89826627
  WF centre and spread   17  (  0.755431, -1.491876, -1.093636 )     0.89830128
  WF centre and spread   18  ( -0.914233, -1.373898,  1.092411 )     0.89828091
  Sum of centres and spreads ( -0.000198, -0.000114,  0.000084 )    15.95691092
 
     33    -0.302E-05     0.0014006157       15.9569109207       0.32  <-- CONV
        O_D=      0.0005987 O_OD=      0.0957116 O_TOT=     15.9569109 <-- SPRD
 Delta: O_D= -0.5345758E-07 O_OD= -0.2969872E-05 O_TOT= -0.3023329E-05 <-- DLTA
 ------------------------------------------------------------------------------
 Cycle:     34
  WF centre and spread    1  (  0.959871,  1.387210, -1.092740 )     0.86682682
  WF centre and spread    2  ( -0.955867, -1.387672,  1.091859 )     0.86611866
  WF centre and spread    3  (  1.679704, -0.134004,  1.091877 )     0.86612868
[...]
        O_D=      0.0006084 O_OD=      0.0943151 O_TOT=     15.9555241 <-- SPRD
 Delta: O_D=  0.1809439E-06 O_OD= -0.2783627E-05 O_TOT= -0.2602683E-05 <-- DLTA
 ------------------------------------------------------------------------------
 Cycle:    492
  WF centre and spread    1  (  0.961913,  1.387205, -1.092722 )     0.86731193
  WF centre and spread    2  ( -0.957756, -1.387656,  1.091802 )     0.86642075
  WF centre and spread    3  (  1.680635, -0.135649,  1.091822 )     0.86643151
  WF centre and spread    4  ( -1.679455,  0.136051, -1.094446 )     0.86639616
  WF centre and spread    5  (  0.721809, -1.522505, -1.094597 )     0.86640484
  WF centre and spread    6  ( -0.720276,  1.526506,  1.093180 )     0.86729882
  WF centre and spread    7  (  0.717826, -1.504341, -1.091097 )     0.89586632
  WF centre and spread    8  ( -0.943800, -1.400674,  1.094581 )     0.89585258
  WF centre and spread    9  ( -0.701525,  1.474386,  1.094074 )     0.89520554
  WF centre and spread   10  (  0.926062,  1.429438, -1.092004 )     0.89522286
  WF centre and spread   11  ( -1.669796,  0.089778, -1.093367 )     0.89781487
  WF centre and spread   12  (  1.684929, -0.117007,  1.094555 )     0.89585209
  WF centre and spread   13  ( -0.775006,  1.516677,  1.091810 )     0.89514833
  WF centre and spread   14  ( -1.661575,  0.130554, -1.091229 )     0.89585873
  WF centre and spread   15  (  0.925952,  1.344631, -1.094335 )     0.89511016
  WF centre and spread   16  (  1.645202, -0.103761,  1.092710 )     0.89775710
  WF centre and spread   17  (  0.757142, -1.490848, -1.093348 )     0.89779618
  WF centre and spread   18  ( -0.912493, -1.372908,  1.092702 )     0.89777265
  Sum of centres and spreads ( -0.000213, -0.000123,  0.000092 )    15.95552143
 
    492    -0.271E-05     0.0012756144       15.9555214319       4.48  <-- CONV
        O_D=      0.0006086 O_OD=      0.0943122 O_TOT=     15.9555214 <-- SPRD
 Delta: O_D=  0.2522799E-06 O_OD= -0.2960791E-05 O_TOT= -0.2708511E-05 <-- DLTA
 ------------------------------------------------------------------------------
 Cycle:    493
  WF centre and spread    1  (  0.961914,  1.387205, -1.092722 )     0.86731211
  WF centre and spread    2  ( -0.957756, -1.387656,  1.091802 )     0.86642057
  WF centre and spread    3  (  1.680635, -0.135650,  1.091822 )     0.86643158
  WF centre and spread    4  ( -1.679455,  0.136051, -1.094446 )     0.86639591
  WF centre and spread    5  (  0.721808, -1.522505, -1.094597 )     0.86640467
  WF centre and spread    6  ( -0.720276,  1.526507,  1.093180 )     0.86729874
  WF centre and spread    7  (  0.717826, -1.504340, -1.091097 )     0.89586609
  WF centre and spread    8  ( -0.943800, -1.400674,  1.094581 )     0.89585256
  WF centre and spread    9  ( -0.701525,  1.474385,  1.094075 )     0.89520538
  WF centre and spread   10  (  0.926062,  1.429438, -1.092004 )     0.89522234
  WF centre and spread   11  ( -1.669796,  0.089777, -1.093367 )     0.89781448
  WF centre and spread   12  (  1.684929, -0.117006,  1.094555 )     0.89585205
  WF centre and spread   13  ( -0.775007,  1.516676,  1.091810 )     0.89514823
  WF centre and spread   14  ( -1.661575,  0.130554, -1.091229 )     0.89585895
  WF centre and spread   15  (  0.925951,  1.344630, -1.094335 )     0.89511015
  WF centre and spread   16  (  1.645201, -0.103761,  1.092710 )     0.89775675
  WF centre and spread   17  (  0.757143, -1.490848, -1.093348 )     0.89779586
  WF centre and spread   18  ( -0.912493, -1.372907,  1.092702 )     0.89777230
  Sum of centres and spreads ( -0.000213, -0.000123,  0.000091 )    15.95551873
 
    493    -0.270E-05     0.0018883844       15.9555187316       4.49  <-- CONV
        O_D=      0.0006084 O_OD=      0.0943097 O_TOT=     15.9555187 <-- SPRD
 Delta: O_D= -0.2272919E-06 O_OD= -0.2473038E-05 O_TOT= -0.2700330E-05 <-- DLTA
 ------------------------------------------------------------------------------
 Cycle:    494
  WF centre and spread    1  (  0.961916,  1.387205, -1.092722 )     0.86731298
  WF centre and spread    2  ( -0.957758, -1.387656,  1.091802 )     0.86642039
  WF centre and spread    3  (  1.680636, -0.135651,  1.091822 )     0.86643208
  WF centre and spread    4  ( -1.679456,  0.136053, -1.094446 )     0.86639548
  WF centre and spread    5  (  0.721807, -1.522507, -1.094597 )     0.86640451
  WF centre and spread    6  ( -0.720275,  1.526509,  1.093180 )     0.86729890
  WF centre and spread    7  (  0.717825, -1.504340, -1.091097 )     0.89586571
  WF centre and spread    8  ( -0.943800, -1.400675,  1.094581 )     0.89585276
  WF centre and spread    9  ( -0.701525,  1.474384,  1.094076 )     0.89520515
  WF centre and spread   10  (  0.926061,  1.429438, -1.092003 )     0.89522115
  WF centre and spread   11  ( -1.669796,  0.089775, -1.093367 )     0.89781364
  WF centre and spread   12  (  1.684930, -0.117005,  1.094554 )     0.89585221
  WF centre and spread   13  ( -0.775008,  1.516676,  1.091809 )     0.89514814
  WF centre and spread   14  ( -1.661574,  0.130555, -1.091229 )     0.89585989
  WF centre and spread   15  (  0.925950,  1.344630, -1.094336 )     0.89511037
  WF centre and spread   16  (  1.645199, -0.103760,  1.092710 )     0.89775600
  WF centre and spread   17  (  0.757145, -1.490847, -1.093348 )     0.89779520
  WF centre and spread   18  ( -0.912491, -1.372906,  1.092703 )     0.89777155
  Sum of centres and spreads ( -0.000213, -0.000123,  0.000091 )    15.95551613
 
    494    -0.260E-05     0.0012744814       15.9555161293       4.50  <-- CONV
        O_D=      0.0006083 O_OD=      0.0943073 O_TOT=     15.9555161 <-- SPRD
 Delta: O_D= -0.1454622E-06 O_OD= -0.2456844E-05 O_TOT= -0.2602306E-05 <-- DLTA
 ------------------------------------------------------------------------------
 Cycle:    495
  WF centre and spread    1  (  0.961920,  1.387206, -1.092722 )     0.86731465
  WF centre and spread    2  ( -0.957762, -1.387656,  1.091802 )     0.86642031
  WF centre and spread    3  (  1.680638, -0.135654,  1.091822 )     0.86643299
  WF centre and spread    4  ( -1.679458,  0.136056, -1.094446 )     0.86639490
  WF centre and spread    5  (  0.721805, -1.522510, -1.094597 )     0.86640438
  WF centre and spread    6  ( -0.720273,  1.526512,  1.093180 )     0.86729939
  WF centre and spread    7  (  0.717824, -1.504338, -1.091097 )     0.89586522
  WF centre and spread    8  ( -0.943799, -1.400677,  1.094580 )     0.89585314
  WF centre and spread    9  ( -0.701525,  1.474382,  1.094078 )     0.89520479
  WF centre and spread   10  (  0.926059,  1.429440, -1.092001 )     0.89521932
  WF centre and spread   11  ( -1.669796,  0.089771, -1.093367 )     0.89781233
  WF centre and spread   12  (  1.684931, -0.117004,  1.094554 )     0.89585248
  WF centre and spread   13  ( -0.775009,  1.516674,  1.091807 )     0.89514797
  WF centre and spread   14  ( -1.661572,  0.130555, -1.091229 )     0.89586152
  WF centre and spread   15  (  0.925948,  1.344629, -1.094338 )     0.89511068
  WF centre and spread   16  (  1.645196, -0.103758,  1.092710 )     0.89775473
  WF centre and spread   17  (  0.757148, -1.490845, -1.093348 )     0.89779405
  WF centre and spread   18  ( -0.912488, -1.372904,  1.092703 )     0.89777023
  Sum of centres and spreads ( -0.000213, -0.000123,  0.000091 )    15.95551308
 
    495    -0.305E-05     0.0013434309       15.9555130775       4.51  <-- CONV
        O_D=      0.0006081 O_OD=      0.0943044 O_TOT=     15.9555131 <-- SPRD
 Delta: O_D= -0.1904704E-06 O_OD= -0.2861358E-05 O_TOT= -0.3051829E-05 <-- DLTA
 ------------------------------------------------------------------------------
 Cycle:    496
  WF centre and spread    1  (  0.961925,  1.387206, -1.092723 )     0.86731695
  WF centre and spread    2  ( -0.957767, -1.387657,  1.091802 )     0.86642049
  WF centre and spread    3  (  1.680640, -0.135659,  1.091822 )     0.86643415
  WF centre and spread    4  ( -1.679460,  0.136061, -1.094446 )     0.86639440
  WF centre and spread    5  (  0.721802, -1.522514, -1.094597 )     0.86640438
  WF centre and spread    6  ( -0.720270,  1.526517,  1.093180 )     0.86730029
  WF centre and spread    7  (  0.717822, -1.504336, -1.091098 )     0.89586484
  WF centre and spread    8  ( -0.943798, -1.400680,  1.094580 )     0.89585362
  WF centre and spread    9  ( -0.701526,  1.474378,  1.094081 )     0.89520421
  WF centre and spread   10  (  0.926056,  1.429441, -1.091997 )     0.89521728
  WF centre and spread   11  ( -1.669796,  0.089766, -1.093366 )     0.89781073
  WF centre and spread   12  (  1.684934, -0.117002,  1.094553 )     0.89585283
  WF centre and spread   13  ( -0.775012,  1.516673,  1.091804 )     0.89514761
  WF centre and spread   14  ( -1.661570,  0.130556, -1.091230 )     0.89586336
  WF centre and spread   15  (  0.925946,  1.344628, -1.094341 )     0.89511070
  WF centre and spread   16  (  1.645190, -0.103756,  1.092710 )     0.89775303
  WF centre and spread   17  (  0.757153, -1.490842, -1.093347 )     0.89779251
  WF centre and spread   18  ( -0.912483, -1.372901,  1.092704 )     0.89776843
  Sum of centres and spreads ( -0.000213, -0.000123,  0.000091 )    15.95550980
 
    496    -0.328E-05     0.0014184311       15.9555097982       4.52  <-- CONV
        O_D=      0.0006084 O_OD=      0.0943008 O_TOT=     15.9555098 <-- SPRD
 Delta: O_D=  0.2910081E-06 O_OD= -0.3570314E-05 O_TOT= -0.3279306E-05 <-- DLTA
 ------------------------------------------------------------------------------
 Cycle:    497
  WF centre and spread    1  (  0.961933,  1.387206, -1.092723 )     0.86731979
  WF centre and spread    2  ( -0.957775, -1.387657,  1.091802 )     0.86642127
  WF centre and spread    3  (  1.680644, -0.135666,  1.091822 )     0.86643567
  WF centre and spread    4  ( -1.679464,  0.136067, -1.094446 )     0.86639453
  WF centre and spread    5  (  0.721798, -1.522521, -1.094598 )     0.86640496
  WF centre and spread    6  ( -0.720266,  1.526524,  1.093180 )     0.86730193
  WF centre and spread    7  (  0.717819, -1.504333, -1.091098 )     0.89586464
  WF centre and spread    8  ( -0.943797, -1.400685,  1.094579 )     0.89585406
  WF centre and spread    9  ( -0.701526,  1.474374,  1.094086 )     0.89520318
  WF centre and spread   10  (  0.926051,  1.429443, -1.091993 )     0.89521514
  WF centre and spread   11  ( -1.669796,  0.089758, -1.093365 )     0.89780867
  WF centre and spread   12  (  1.684937, -0.116999,  1.094552 )     0.89585315
  WF centre and spread   13  ( -0.775016,  1.516670,  1.091799 )     0.89514674
  WF centre and spread   14  ( -1.661566,  0.130557, -1.091231 )     0.89586496
  WF centre and spread   15  (  0.925942,  1.344626, -1.094346 )     0.89511012
  WF centre and spread   16  (  1.645183, -0.103752,  1.092711 )     0.89775080
  WF centre and spread   17  (  0.757160, -1.490838, -1.093346 )     0.89779041
  WF centre and spread   18  ( -0.912476, -1.372897,  1.092705 )     0.89776609
  Sum of centres and spreads ( -0.000213, -0.000123,  0.000091 )    15.95550611
 
    497    -0.369E-05     0.0014649977       15.9555061080       4.53  <-- CONV
        O_D=      0.0006087 O_OD=      0.0942968 O_TOT=     15.9555061 <-- SPRD
 Delta: O_D=  0.3578275E-06 O_OD= -0.4048029E-05 O_TOT= -0.3690201E-05 <-- DLTA
 ------------------------------------------------------------------------------
 Cycle:    498
  WF centre and spread    1  (  0.961943,  1.387206, -1.092723 )     0.86732259
  WF centre and spread    2  ( -0.957784, -1.387656,  1.091802 )     0.86642275
  WF centre and spread    3  (  1.680648, -0.135673,  1.091821 )     0.86643742
  WF centre and spread    4  ( -1.679469,  0.136075, -1.094447 )     0.86639577
  WF centre and spread    5  (  0.721794, -1.522528, -1.094598 )     0.86640636
  WF centre and spread    6  ( -0.720261,  1.526532,  1.093180 )     0.86730430
  WF centre and spread    7  (  0.717815, -1.504330, -1.091099 )     0.89586470
  WF centre and spread    8  ( -0.943796, -1.400690,  1.094578 )     0.89585432
  WF centre and spread    9  ( -0.701527,  1.474369,  1.094091 )     0.89520169
  WF centre and spread   10  (  0.926047,  1.429445, -1.091988 )     0.89521325
  WF centre and spread   11  ( -1.669796,  0.089749, -1.093364 )     0.89780630
  WF centre and spread   12  (  1.684940, -0.116995,  1.094551 )     0.89585336
  WF centre and spread   13  ( -0.775020,  1.516667,  1.091794 )     0.89514525
  WF centre and spread   14  ( -1.661562,  0.130558, -1.091232 )     0.89586564
  WF centre and spread   15  (  0.925937,  1.344624, -1.094351 )     0.89510876
  WF centre and spread   16  (  1.645175, -0.103748,  1.092712 )     0.89774838
  WF centre and spread   17  (  0.757168, -1.490834, -1.093344 )     0.89778805
  WF centre and spread   18  ( -0.912468, -1.372892,  1.092707 )     0.89776362
  Sum of centres and spreads ( -0.000213, -0.000123,  0.000091 )    15.95550251
 
    498    -0.360E-05     0.0015286683       15.9555025108       4.53  <-- CONV
        O_D=      0.0006090 O_OD=      0.0942929 O_TOT=     15.9555025 <-- SPRD
 Delta: O_D=  0.3005087E-06 O_OD= -0.3897686E-05 O_TOT= -0.3597177E-05 <-- DLTA
 ------------------------------------------------------------------------------
 Cycle:    499
  WF centre and spread    1  (  0.961943,  1.387206, -1.092723 )     0.86732235
  WF centre and spread    2  ( -0.957784, -1.387656,  1.091802 )     0.86642294
  WF centre and spread    3  (  1.680649, -0.135674,  1.091821 )     0.86643738
  WF centre and spread    4  ( -1.679469,  0.136076, -1.094447 )     0.86639619
  WF centre and spread    5  (  0.721794, -1.522529, -1.094598 )     0.86640662
  WF centre and spread    6  ( -0.720261,  1.526533,  1.093180 )     0.86730450
  WF centre and spread    7  (  0.717815, -1.504330, -1.091100 )     0.89586466
  WF centre and spread    8  ( -0.943796, -1.400690,  1.094578 )     0.89585404
  WF centre and spread    9  ( -0.701527,  1.474368,  1.094091 )     0.89520122
  WF centre and spread   10  (  0.926046,  1.429445, -1.091987 )     0.89521318
  WF centre and spread   11  ( -1.669796,  0.089748, -1.093364 )     0.89780590
  WF centre and spread   12  (  1.684941, -0.116995,  1.094551 )     0.89585313
  WF centre and spread   13  ( -0.775020,  1.516667,  1.091794 )     0.89514472
  WF centre and spread   14  ( -1.661561,  0.130558, -1.091232 )     0.89586489
  WF centre and spread   15  (  0.925937,  1.344624, -1.094352 )     0.89510810
  WF centre and spread   16  (  1.645175, -0.103747,  1.092713 )     0.89774806
  WF centre and spread   17  (  0.757169, -1.490833, -1.093344 )     0.89778769
  WF centre and spread   18  ( -0.912467, -1.372892,  1.092707 )     0.89776335
  Sum of centres and spreads ( -0.000213, -0.000123,  0.000091 )    15.95549892
 
    499    -0.359E-05     0.0021076515       15.9554989245       4.54  <-- CONV
        O_D=      0.0006088 O_OD=      0.0942896 O_TOT=     15.9554989 <-- SPRD
 Delta: O_D= -0.2669457E-06 O_OD= -0.3319304E-05 O_TOT= -0.3586249E-05 <-- DLTA
 ------------------------------------------------------------------------------
 Cycle:    500
  WF centre and spread    1  (  0.961945,  1.387206, -1.092723 )     0.86732215
  WF centre and spread    2  ( -0.957786, -1.387656,  1.091802 )     0.86642387
  WF centre and spread    3  (  1.680650, -0.135676,  1.091821 )     0.86643759
  WF centre and spread    4  ( -1.679470,  0.136077, -1.094447 )     0.86639774
  WF centre and spread    5  (  0.721793, -1.522531, -1.094598 )     0.86640775
  WF centre and spread    6  ( -0.720260,  1.526535,  1.093180 )     0.86730550
  WF centre and spread    7  (  0.717814, -1.504330, -1.091100 )     0.89586486
  WF centre and spread    8  ( -0.943796, -1.400691,  1.094577 )     0.89585356
  WF centre and spread    9  ( -0.701527,  1.474367,  1.094093 )     0.89520023
  WF centre and spread   10  (  0.926046,  1.429446, -1.091986 )     0.89521333
  WF centre and spread   11  ( -1.669796,  0.089745, -1.093363 )     0.89780514
  WF centre and spread   12  (  1.684942, -0.116995,  1.094550 )     0.89585279
  WF centre and spread   13  ( -0.775021,  1.516666,  1.091792 )     0.89514353
  WF centre and spread   14  ( -1.661560,  0.130559, -1.091232 )     0.89586323
  WF centre and spread   15  (  0.925936,  1.344623, -1.094353 )     0.89510661
  WF centre and spread   16  (  1.645173, -0.103746,  1.092713 )     0.89774748
  WF centre and spread   17  (  0.757171, -1.490832, -1.093344 )     0.89778699
  WF centre and spread   18  ( -0.912465, -1.372891,  1.092707 )     0.89776287
  Sum of centres and spreads ( -0.000213, -0.000123,  0.000091 )    15.95549523
 
    500    -0.369E-05     0.0015274031       15.9554952335       4.55  <-- CONV
        O_D=      0.0006084 O_OD=      0.0942862 O_TOT=     15.9554952 <-- SPRD
 Delta: O_D= -0.3078305E-06 O_OD= -0.3383190E-05 O_TOT= -0.3691020E-05 <-- DLTA
 ------------------------------------------------------------------------------

 Writing checkpoint file mp-1143.chk... done

 Final State
  WF centre and spread    1  (  0.961945,  1.387206, -1.092723 )     0.86732215
  WF centre and spread    2  ( -0.957786, -1.387656,  1.091802 )     0.86642387
  WF centre and spread    3  (  1.680650, -0.135676,  1.091821 )     0.86643759
  WF centre and spread    4  ( -1.679470,  0.136077, -1.094447 )     0.86639774
  WF centre and spread    5  (  0.721793, -1.522531, -1.094598 )     0.86640775
  WF centre and spread    6  ( -0.720260,  1.526535,  1.093180 )     0.86730550
  WF centre and spread    7  (  0.717814, -1.504330, -1.091100 )     0.89586486
  WF centre and spread    8  ( -0.943796, -1.400691,  1.094577 )     0.89585356
  WF centre and spread    9  ( -0.701527,  1.474367,  1.094093 )     0.89520023
  WF centre and spread   10  (  0.926046,  1.429446, -1.091986 )     0.89521333
  WF centre and spread   11  ( -1.669796,  0.089745, -1.093363 )     0.89780514
  WF centre and spread   12  (  1.684942, -0.116995,  1.094550 )     0.89585279
  WF centre and spread   13  ( -0.775021,  1.516666,  1.091792 )     0.89514353
  WF centre and spread   14  ( -1.661560,  0.130559, -1.091232 )     0.89586323
  WF centre and spread   15  (  0.925936,  1.344623, -1.094353 )     0.89510661
  WF centre and spread   16  (  1.645173, -0.103746,  1.092713 )     0.89774748
  WF centre and spread   17  (  0.757171, -1.490832, -1.093344 )     0.89778699
  WF centre and spread   18  ( -0.912465, -1.372891,  1.092707 )     0.89776287
  Sum of centres and spreads ( -0.000213, -0.000123,  0.000091 )    15.95549523
 
         Spreads (Ang^2)       Omega I      =    15.860600610
        ================       Omega D      =     0.000608448
                               Omega OD     =     0.094286175
    Final Spread (Ang^2)       Omega Total  =    15.955495234
 ------------------------------------------------------------------------------
 Time for wannierise            4.525 (sec)

 Writing checkpoint file mp-1143.chk... done

 Time for plotting              0.000 (sec)
 Total Execution Time           5.709 (sec)

 *===========================================================================*
 |                             TIMING INFORMATION                            |
 *===========================================================================*
 |    Tag                                                Ncalls      Time (s)|
 |---------------------------------------------------------------------------|
 |kmesh: get                                        :         1         0.249|
 |overlap: allocate                                 :         1         0.004|
 |overlap: read                                     :         1         0.840|
 |wann: main                                        :         1         4.525|
 |plot: main                                        :         1         0.000|
 *---------------------------------------------------------------------------*
 
 All done: wannier90 exiting
