 
             +---------------------------------------------------+
             |                                                   |
             |                   WANNIER90                       |
             |                                                   |
             +---------------------------------------------------+
             |                                                   |
             |        Welcome to the Maximally-Localized         |
             |        Generalized Wannier Functions code         |
             |            http://www.wannier.org                 |
             |                                                   |
             |                                                   |
             |  Wannier90 Developer Group:                       |
             |    Giovanni Pizzi    (EPFL)                       |
             |    Valerio Vitale    (Cambridge)                  |
             |    David Vanderbilt  (Rutgers University)         |
             |    Nicola Marzari    (EPFL)                       |
             |    Ivo Souza         (Universidad del Pais Vasco) |
             |    Arash A. Mostofi  (Imperial College London)    |
             |    Jonathan R. Yates (University of Oxford)       |
             |                                                   |
             |  For the full list of Wannier90 3.x authors,      |
             |  please check the code documentation and the      |
             |  README on the GitHub page of the code            |
             |                                                   |
             |                                                   |
             |  Please cite                                      |
             |                                                   |
             |  [ref] "Wannier90 as a community code:            |
             |        new features and applications",            |
             |        G. Pizzi et al., J. Phys. Cond. Matt. 32,  |
             |        165902 (2020).                             |
             |        http://doi.org/10.1088/1361-648X/ab51ff    |
             |                                                   |
             |  in any publications arising from the use of      |
             |  this code. For the method please cite            |
             |                                                   |
             |  [ref] "Maximally Localized Generalised Wannier   |
             |         Functions for Composite Energy Bands"     |
             |         N. Marzari and D. Vanderbilt              |
             |         Phys. Rev. B 56 12847 (1997)              |
             |                                                   |
             |  [ref] "Maximally Localized Wannier Functions     |
             |         for Entangled Energy Bands"               |
             |         I. Souza, N. Marzari and D. Vanderbilt    |
             |         Phys. Rev. B 65 035109 (2001)             |
             |                                                   |
             |                                                   |
             | Copyright (c) 1996-2020                           |
             |        The Wannier90 Developer Group and          |
             |        individual contributors                    |
             |                                                   |
             |      Release: 3.1.0        5th March    2020      |
             |                                                   |
             | This program is free software; you can            |
             | redistribute it and/or modify it under the terms  |
             | of the GNU General Public License as published by |
             | the Free Software Foundation; either version 2 of |
             | the License, or (at your option) any later version|
             |                                                   |
             | This program is distributed in the hope that it   |
             | will be useful, but WITHOUT ANY WARRANTY; without |
             | even the implied warranty of MERCHANTABILITY or   |
             | FITNESS FOR A PARTICULAR PURPOSE. See the GNU     |
             | General Public License for more details.          |
             |                                                   |
             | You should have received a copy of the GNU General|
             | Public License along with this program; if not,   |
             | write to the Free Software Foundation, Inc.,      |
             | 675 Mass Ave, Cambridge, MA 02139, USA.           |
             |                                                   |
             +---------------------------------------------------+
             |    Execution started on  3Jan2024 at 14:43:55     |
             +---------------------------------------------------+
 
 ******************************************************************************
 * -> Using CODATA 2006 constant values                                       *
 *    (http://physics.nist.gov/cuu/Constants/index.html)                      *
 * -> Using Bohr value from CODATA                                            *
 ******************************************************************************
 

 Running in parallel on   8 CPUs

 
                                    ------
                                    SYSTEM
                                    ------
 
                              Lattice Vectors (Ang)
                    a_1     2.402513  -1.387092   4.372084
                    a_2     0.000000   2.774184   4.372084
                    a_3    -2.402513  -1.387092   4.372084
 
                   Unit Cell Volume:      87.41999  (Ang^3)
 
                        Reciprocal-Space Vectors (Ang^-1)
                    b_1     1.307628  -0.754959   0.479038
                    b_2     0.000000   1.509918   0.479038
                    b_3    -1.307628  -0.754959   0.479038
  
 *----------------------------------------------------------------------------*
 |   Site       Fractional Coordinate          Cartesian Coordinate (Ang)     |
 +----------------------------------------------------------------------------+
 | Al   1   0.64790   0.64790   0.64790   |    0.00000   0.00000   8.49807    |
 | Al   2   0.85210   0.85210   0.85210   |    0.00000  -0.00000  11.17631    |
 | Al   3   0.14790   0.14790   0.14790   |    0.00000  -0.00000   1.93995    |
 | Al   4   0.35210   0.35210   0.35210   |    0.00000   0.00000   4.61818    |
 | O    1   0.44385   0.05615   0.75000   |   -0.73552  -1.50023   5.46511    |
 | O    2   0.94385   0.25000   0.55615   |    0.93148  -1.38709   7.65115    |
 | O    3   0.05615   0.75000   0.44385   |   -0.93148   1.38709   5.46511    |
 | O    4   0.75000   0.44385   0.05615   |    1.66699   0.11314   5.46511    |
 | O    5   0.25000   0.55615   0.94385   |   -1.66699  -0.11314   7.65115    |
 | O    6   0.55615   0.94385   0.25000   |    0.73552   1.50023   7.65115    |
 *----------------------------------------------------------------------------*
                                ------------
                                K-POINT GRID
                                ------------
  
             Grid size =  8 x  8 x  8      Total points =  512
  
  
 *---------------------------------- MAIN ------------------------------------*
 |  Number of Wannier Functions               :                18             |
 |  Number of Objective Wannier Functions     :                18             |
 |  Number of input Bloch states              :                18             |
 |  Output verbosity (1=low, 5=high)          :                 1             |
 |  Timing Level (1=low, 5=high)              :                 1             |
 |  Optimisation (0=memory, 3=speed)          :                 3             |
 |  Length Unit                               :               Ang             |
 |  Post-processing setup (write *.nnkp)      :                 F             |
 |  Using Gamma-only branch of algorithms     :                 F             |
 *----------------------------------------------------------------------------*
 *------------------------------- WANNIERISE ---------------------------------*
 |  Total number of iterations                :               500             |
 |  Number of CG steps before reset           :                 5             |
 |  Trial step length for line search         :             2.000             |
 |  Convergence tolerence                     :         0.100E-09             |
 |  Convergence window                        :                -1             |
 |  Iterations between writing output         :                 1             |
 |  Iterations between backing up to disk     :               100             |
 |  Write r^2_nm to file                      :                 F             |
 |  Write xyz WF centres to file              :                 F             |
 |  Write on-site energies <0n|H|0n> to file  :                 F             |
 |  Use guiding centre to control phases      :                 F             |
 |  Use phases for initial projections        :                 F             |
 *----------------------------------------------------------------------------*
 Time to read parameters        0.042 (sec)

 *---------------------------------- K-MESH ----------------------------------*
 +----------------------------------------------------------------------------+
 |                    Distance to Nearest-Neighbour Shells                    |
 |                    ------------------------------------                    |
 |          Shell             Distance (Ang^-1)          Multiplicity         |
 |          -----             -----------------          ------------         |
 |             1                   0.179639                      2            |
 |             2                   0.198011                      6            |
 |             3                   0.223529                      6            |
 |             4                   0.304946                      6            |
 |             5                   0.326907                      6            |
 |             6                   0.353924                      6            |
 |             7                   0.359279                      2            |
 |             8                   0.373013                     12            |
 |             9                   0.382199                      6            |
 |            10                   0.396022                      6            |
 |            11                   0.447057                      6            |
 |            12                   0.459692                      6            |
 |            13                   0.481799                      6            |
 |            14                   0.485746                     12            |
 |            15                   0.502936                     12            |
 |            16                   0.513519                     12            |
 |            17                   0.514879                      6            |
 |            18                   0.538918                      2            |
 |            19                   0.553831                     12            |
 |            20                   0.564079                      6            |
 |            21                   0.566219                      6            |
 |            22                   0.582236                     12            |
 |            23                   0.594033                     12            |
 |            24                   0.609892                      6            |
 |            25                   0.627839                      6            |
 |            26                   0.630318                     12            |
 |            27                   0.651961                     12            |
 |            28                   0.653814                      6            |
 |            29                   0.670586                     12            |
 |            30                   0.678043                     12            |
 |            31                   0.683140                     12            |
 |            32                   0.685185                      6            |
 |            33                   0.690969                     12            |
 |            34                   0.691980                     12            |
 |            35                   0.707849                      6            |
 |            36                   0.718557                      2            |
 +----------------------------------------------------------------------------+
 | The b-vectors are chosen automatically                                     |
 | The following shells are used:   1,  2                                     |
 +----------------------------------------------------------------------------+
 |                        Shell   # Nearest-Neighbours                        |
 |                        -----   --------------------                        |
 |                          1               2                                 |
 |                          2               6                                 |
 +----------------------------------------------------------------------------+
 | Completeness relation is fully satisfied [Eq. (B1), PRB 56, 12847 (1997)]  |
 +----------------------------------------------------------------------------+
 |                  b_k Vectors (Ang^-1) and Weights (Ang^2)                  |
 |                  ----------------------------------------                  |
 |            No.         b_k(x)      b_k(y)      b_k(z)        w_b           |
 |            ---        --------------------------------     --------        |
 |             1         0.000000    0.000000    0.179639    12.375022        |
 |             2         0.000000    0.000000   -0.179639    12.375022        |
 |             3        -0.163453   -0.094370    0.059880     9.357329        |
 |             4         0.000000    0.188740    0.059880     9.357329        |
 |             5         0.163453   -0.094370    0.059880     9.357329        |
 |             6         0.000000   -0.188740   -0.059880     9.357329        |
 |             7         0.163453    0.094370   -0.059880     9.357329        |
 |             8        -0.163453    0.094370   -0.059880     9.357329        |
 +----------------------------------------------------------------------------+
 |                           b_k Directions (Ang^-1)                          |
 |                           -----------------------                          |
 |            No.           x           y           z                         |
 |            ---        --------------------------------                     |
 |             1         0.000000    0.000000    0.179639                     |
 |             2        -0.163453   -0.094370    0.059880                     |
 |             3         0.000000    0.188740    0.059880                     |
 |             4         0.163453   -0.094370    0.059880                     |
 +----------------------------------------------------------------------------+
  
 Time to get kmesh              0.365 (sec)
 *============================================================================*
 |                              MEMORY ESTIMATE                               |
 |         Maximum RAM allocated during each phase of the calculation         |
 *============================================================================*
 |                            Wannierise:           53.73 Mb                  |
 |                          plot_wannier:           53.73 Mb                  |
 *----------------------------------------------------------------------------*
  
 Starting a new Wannier90 calculation ...


 Reading overlaps from mp-1143.mmn    :  Created on  3Jan2024 at 14:43:36

 Reading projections from mp-1143.amn :  Created on  3Jan2024 at 14:43:29  with SCDM

 Time to read overlaps          1.376 (sec)

 Writing checkpoint file mp-1143.chk... done

 
 *------------------------------- WANNIERISE ---------------------------------*
 +--------------------------------------------------------------------+<-- CONV
 | Iter  Delta Spread     RMS Gradient      Spread (Ang^2)      Time  |<-- CONV
 +--------------------------------------------------------------------+<-- CONV
 
 ------------------------------------------------------------------------------
 Initial State
  WF centre and spread    1  (  1.683655, -0.136010,  1.095034 )     0.94412170
  WF centre and spread    2  ( -1.679645,  0.138955, -1.090424 )     0.92506864
  WF centre and spread    3  (  0.719201, -1.523629, -1.089851 )     0.92736166
  WF centre and spread    4  ( -0.717259,  1.521933,  1.091879 )     0.90975758
  WF centre and spread    5  ( -0.960476, -1.384512,  1.092315 )     0.91430972
  WF centre and spread    6  (  0.962539,  1.383935, -1.091533 )     0.92944441
  WF centre and spread    7  ( -0.944109, -1.374502,  1.090262 )     0.94409810
  WF centre and spread    8  ( -1.683483,  0.119308, -1.094214 )     0.95204774
  WF centre and spread    9  (  0.928834,  1.347692, -1.093322 )     0.96930841
  WF centre and spread   10  (  1.697434, -0.095345,  1.094584 )     0.96718907
  WF centre and spread   11  ( -0.748881,  1.493636,  1.094483 )     0.99189098
  WF centre and spread   12  (  0.737737, -1.518526, -1.095324 )     0.95182291
  WF centre and spread   13  (  0.928335,  1.425053, -1.094365 )     0.95668928
  WF centre and spread   14  ( -0.716263,  1.506522,  1.091183 )     0.96549425
  WF centre and spread   15  (  1.627861, -0.130082,  1.092947 )     0.95271912
  WF centre and spread   16  (  0.732138, -1.482097, -1.091951 )     0.97817180
  WF centre and spread   17  ( -0.917253, -1.398641,  1.093118 )     0.97906325
  WF centre and spread   18  ( -1.649728,  0.106365, -1.093264 )     0.97042663
  Sum of centres and spreads (  0.000635,  0.000057,  0.001558 )    17.12898525
 
      0     0.171E+02     0.0000000000       17.1289852410       0.00  <-- CONV
        O_D=      0.0031783 O_OD=      1.2652105 O_TOT=     17.1289852 <-- SPRD
 ------------------------------------------------------------------------------
 Cycle:      1
  WF centre and spread    1  (  1.681641, -0.137765,  1.093180 )     0.87857143
  WF centre and spread    2  ( -1.680070,  0.134472, -1.091528 )     0.87739831
  WF centre and spread    3  (  0.723410, -1.522219, -1.091492 )     0.87668569
  WF centre and spread    4  ( -0.722628,  1.521356,  1.094085 )     0.87528898
  WF centre and spread    5  ( -0.956440, -1.386552,  1.094193 )     0.87716067
  WF centre and spread    6  (  0.960215,  1.386977, -1.092773 )     0.87729187
  WF centre and spread    7  ( -0.944128, -1.374896,  1.090800 )     0.90979410
  WF centre and spread    8  ( -1.684235,  0.118190, -1.095008 )     0.90979166
  WF centre and spread    9  (  0.927758,  1.345468, -1.092936 )     0.90953780
  WF centre and spread   10  (  1.700984, -0.089246,  1.093395 )     0.90940326
  WF centre and spread   11  ( -0.754528,  1.492502,  1.093671 )     0.91428008
  WF centre and spread   12  (  0.739762, -1.517791, -1.094983 )     0.90923081
  WF centre and spread   13  (  0.927618,  1.428524, -1.093210 )     0.90815885
  WF centre and spread   14  ( -0.718090,  1.505525,  1.090946 )     0.91134595
  WF centre and spread   15  (  1.628585, -0.130558,  1.093174 )     0.91017347
  WF centre and spread   16  (  0.732280, -1.479298, -1.092191 )     0.91080254
  WF centre and spread   17  ( -0.914832, -1.399914,  1.093570 )     0.91410650
  WF centre and spread   18  ( -1.647388,  0.105292, -1.092495 )     0.91082053
  Sum of centres and spreads ( -0.000088,  0.000069,  0.000401 )    16.18984249
 
      1    -0.939E+00     0.2641155594       16.1898424860       0.03  <-- CONV
        O_D=      0.0174362 O_OD=      0.3118099 O_TOT=     16.1898425 <-- SPRD
 Delta: O_D=  0.1425788E-01 O_OD= -0.9534006E+00 O_TOT= -0.9391428E+00 <-- DLTA
 ------------------------------------------------------------------------------
 Cycle:      2
  WF centre and spread    1  (  1.681433, -0.137715,  1.092981 )     0.87246302
  WF centre and spread    2  ( -1.679902,  0.134130, -1.091649 )     0.87156371
  WF centre and spread    3  (  0.723672, -1.521921, -1.091646 )     0.87114561
  WF centre and spread    4  ( -0.722860,  1.521124,  1.094223 )     0.87058309
  WF centre and spread    5  ( -0.956042, -1.386534,  1.094336 )     0.87164099
  WF centre and spread    6  (  0.959947,  1.387044, -1.092929 )     0.87181954
  WF centre and spread    7  ( -0.944026, -1.374876,  1.090846 )     0.90202787
  WF centre and spread    8  ( -1.684183,  0.117911, -1.094983 )     0.90194409
  WF centre and spread    9  (  0.927470,  1.345290, -1.092945 )     0.90181049
  WF centre and spread   10  (  1.701097, -0.088737,  1.093260 )     0.90140680
  WF centre and spread   11  ( -0.754974,  1.492273,  1.093651 )     0.90585356
  WF centre and spread   12  (  0.739996, -1.517521, -1.094920 )     0.90159486
  WF centre and spread   13  (  0.927357,  1.428806, -1.093094 )     0.90113818
  WF centre and spread   14  ( -0.718351,  1.505179,  1.090958 )     0.90298936
  WF centre and spread   15  (  1.628505, -0.130438,  1.093197 )     0.90283034
  WF centre and spread   16  (  0.732457, -1.478997, -1.092273 )     0.90411528
  WF centre and spread   17  ( -0.914569, -1.400009,  1.093619 )     0.90544073
  WF centre and spread   18  ( -1.647198,  0.105067, -1.092423 )     0.90413949
  Sum of centres and spreads ( -0.000170,  0.000076,  0.000209 )    16.06450700
 
      2    -0.125E+00     0.2557892430       16.0645070026       0.05  <-- CONV
        O_D=      0.0063485 O_OD=      0.1975621 O_TOT=     16.0645070 <-- SPRD
 Delta: O_D= -0.1108770E-01 O_OD= -0.1142478E+00 O_TOT= -0.1253355E+00 <-- DLTA
 ------------------------------------------------------------------------------
 Cycle:      3
  WF centre and spread    1  (  1.681327, -0.137652,  1.092885 )     0.86929638
  WF centre and spread    2  ( -1.679772,  0.134004, -1.091719 )     0.86851591
  WF centre and spread    3  (  0.723754, -1.521754, -1.091725 )     0.86825802
  WF centre and spread    4  ( -0.722885,  1.520959,  1.094269 )     0.86812588
  WF centre and spread    5  ( -0.955842, -1.386458,  1.094390 )     0.86871723
  WF centre and spread    6  (  0.959826,  1.387028, -1.093011 )     0.86893476
  WF centre and spread    7  ( -0.943974, -1.374855,  1.090872 )     0.89850352
  WF centre and spread    8  ( -1.684115,  0.117757, -1.094951 )     0.89815608
  WF centre and spread    9  (  0.927292,  1.345232, -1.092942 )     0.89802125
  WF centre and spread   10  (  1.701074, -0.088569,  1.093221 )     0.89765635
  WF centre and spread   11  ( -0.755144,  1.492145,  1.093664 )     0.90162137
  WF centre and spread   12  (  0.740097, -1.517357, -1.094888 )     0.89790862
  WF centre and spread   13  (  0.927200,  1.428908, -1.093055 )     0.89783603
  WF centre and spread   14  ( -0.718484,  1.504988,  1.090978 )     0.89839407
  WF centre and spread   15  (  1.628437, -0.130340,  1.093195 )     0.89877482
  WF centre and spread   16  (  0.732573, -1.478856, -1.092324 )     0.90080359
  WF centre and spread   17  ( -0.914456, -1.400044,  1.093639 )     0.90148402
  WF centre and spread   18  ( -1.647115,  0.104945, -1.092402 )     0.90082662
  Sum of centres and spreads ( -0.000206,  0.000082,  0.000098 )    16.00183453
 
      3    -0.627E-01     0.2556466479       16.0018345316       0.08  <-- CONV
        O_D=      0.0036004 O_OD=      0.1376378 O_TOT=     16.0018345 <-- SPRD
 Delta: O_D= -0.2748122E-02 O_OD= -0.5992435E-01 O_TOT= -0.6267247E-01 <-- DLTA
 ------------------------------------------------------------------------------
 Cycle:      4
  WF centre and spread    1  (  1.681285, -0.137622,  1.092848 )     0.86831217
  WF centre and spread    2  ( -1.679704,  0.133967, -1.091748 )     0.86755205
  WF centre and spread    3  (  0.723772, -1.521680, -1.091758 )     0.86738546
  WF centre and spread    4  ( -0.722869,  1.520874,  1.094274 )     0.86726980
  WF centre and spread    5  ( -0.955759, -1.386401,  1.094402 )     0.86761739
  WF centre and spread    6  (  0.959784,  1.387008, -1.093046 )     0.86807583
  WF centre and spread    7  ( -0.943967, -1.374843,  1.090881 )     0.89718636
  WF centre and spread    8  ( -1.684083,  0.117698, -1.094927 )     0.89683436
  WF centre and spread    9  (  0.927218,  1.345220, -1.092938 )     0.89671686
  WF centre and spread   10  (  1.701046, -0.088530,  1.093214 )     0.89639703
  WF centre and spread   11  ( -0.755206,  1.492089,  1.093677 )     0.90020953
  WF centre and spread   12  (  0.740126, -1.517296, -1.094875 )     0.89661977
  WF centre and spread   13  (  0.927129,  1.428944, -1.093039 )     0.89669143
  WF centre and spread   14  ( -0.718531,  1.504919,  1.090988 )     0.89663537
  WF centre and spread   15  (  1.628408, -0.130296,  1.093186 )     0.89711509
  WF centre and spread   16  (  0.732633, -1.478803, -1.092348 )     0.89977809
  WF centre and spread   17  ( -0.914417, -1.400057,  1.093644 )     0.90021065
  WF centre and spread   18  ( -1.647085,  0.104893, -1.092399 )     0.89978280
  Sum of centres and spreads ( -0.000218,  0.000086,  0.000038 )    15.98039004
 
      4    -0.214E-01     0.1408068856       15.9803900429       0.11  <-- CONV
        O_D=      0.0023572 O_OD=      0.1174365 O_TOT=     15.9803900 <-- SPRD
 Delta: O_D= -0.1243215E-02 O_OD= -0.2020127E-01 O_TOT= -0.2144449E-01 <-- DLTA
 ------------------------------------------------------------------------------
 Cycle:      5
  WF centre and spread    1  (  1.681257, -0.137610,  1.092817 )     0.86774727
  WF centre and spread    2  ( -1.679661,  0.133946, -1.091770 )     0.86704563
  WF centre and spread    3  (  0.723787, -1.521636, -1.091785 )     0.86694496
  WF centre and spread    4  ( -0.722857,  1.520819,  1.094283 )     0.86688429
  WF centre and spread    5  ( -0.955705, -1.386363,  1.094415 )     0.86701435
  WF centre and spread    6  (  0.959761,  1.387000, -1.093074 )     0.86763581
  WF centre and spread    7  ( -0.943974, -1.374837,  1.090890 )     0.89642166
  WF centre and spread    8  ( -1.684069,  0.117669, -1.094902 )     0.89610154
  WF centre and spread    9  (  0.927177,  1.345215, -1.092933 )     0.89599512
  WF centre and spread   10  (  1.701035, -0.088500,  1.093207 )     0.89576516
  WF centre and spread   11  ( -0.755261,  1.492059,  1.093678 )     0.89936902
  WF centre and spread   12  (  0.740138, -1.517273, -1.094862 )     0.89593784
  WF centre and spread   13  (  0.927084,  1.428973, -1.093024 )     0.89603213
  WF centre and spread   14  ( -0.718551,  1.504884,  1.090997 )     0.89567461
  WF centre and spread   15  (  1.628397, -0.130273,  1.093179 )     0.89618471
  WF centre and spread   16  (  0.732671, -1.478770, -1.092371 )     0.89921377
  WF centre and spread   17  ( -0.914390, -1.400078,  1.093642 )     0.89942637
  WF centre and spread   18  ( -1.647061,  0.104865, -1.092402 )     0.89921242
  Sum of centres and spreads ( -0.000224,  0.000090, -0.000014 )    15.96860666
 
      5    -0.118E-01     0.0978604884       15.9686066557       0.14  <-- CONV
        O_D=      0.0012450 O_OD=      0.1067653 O_TOT=     15.9686067 <-- SPRD
 Delta: O_D= -0.1112193E-02 O_OD= -0.1067119E-01 O_TOT= -0.1178339E-01 <-- DLTA
 ------------------------------------------------------------------------------
 Cycle:      6
  WF centre and spread    1  (  1.681242, -0.137610,  1.092793 )     0.86742797
  WF centre and spread    2  ( -1.679643,  0.133934, -1.091785 )     0.86678843
  WF centre and spread    3  (  0.723799, -1.521616, -1.091804 )     0.86671952
  WF centre and spread    4  ( -0.722857,  1.520794,  1.094297 )     0.86674175
  WF centre and spread    5  ( -0.955679, -1.386347,  1.094430 )     0.86675922
  WF centre and spread    6  (  0.959750,  1.387002, -1.093094 )     0.86741631
  WF centre and spread    7  ( -0.943985, -1.374836,  1.090897 )     0.89608802
  WF centre and spread    8  ( -1.684068,  0.117660, -1.094883 )     0.89576749
  WF centre and spread    9  (  0.927160,  1.345211, -1.092930 )     0.89564623
  WF centre and spread   10  (  1.701039, -0.088475,  1.093199 )     0.89551345
  WF centre and spread   11  ( -0.755304,  1.492050,  1.093670 )     0.89892999
  WF centre and spread   12  (  0.740143, -1.517273, -1.094852 )     0.89564480
  WF centre and spread   13  (  0.927062,  1.428991, -1.093013 )     0.89569045
  WF centre and spread   14  ( -0.718554,  1.504872,  1.091004 )     0.89527755
  WF centre and spread   15  (  1.628398, -0.130265,  1.093175 )     0.89576464
  WF centre and spread   16  (  0.732689, -1.478755, -1.092387 )     0.89890727
  WF centre and spread   17  ( -0.914374, -1.400099,  1.093638 )     0.89900256
  WF centre and spread   18  ( -1.647043,  0.104853, -1.092405 )     0.89890323
  Sum of centres and spreads ( -0.000225,  0.000093, -0.000048 )    15.96298887
 
      6    -0.562E-02     0.0710904888       15.9629888693       0.17  <-- CONV
        O_D=      0.0007510 O_OD=      0.1016415 O_TOT=     15.9629889 <-- SPRD
 Delta: O_D= -0.4940082E-03 O_OD= -0.5123778E-02 O_TOT= -0.5617786E-02 <-- DLTA
 ------------------------------------------------------------------------------
 Cycle:      7
  WF centre and spread    1  (  1.681241, -0.137610,  1.092790 )     0.86731523
  WF centre and spread    2  ( -1.679643,  0.133933, -1.091788 )     0.86667245
  WF centre and spread    3  (  0.723801, -1.521615, -1.091807 )     0.86661556
  WF centre and spread    4  ( -0.722858,  1.520793,  1.094300 )     0.86664159
  WF centre and spread    5  ( -0.955678, -1.386347,  1.094433 )     0.86665220
  WF centre and spread    6  (  0.959749,  1.387003, -1.093097 )     0.86730945
  WF centre and spread    7  ( -0.943987, -1.374835,  1.090898 )     0.89599941
  WF centre and spread    8  ( -1.684070,  0.117660, -1.094880 )     0.89569509
  WF centre and spread    9  (  0.927159,  1.345211, -1.092928 )     0.89556529
  WF centre and spread   10  (  1.701041, -0.088472,  1.093198 )     0.89543020
  WF centre and spread   11  ( -0.755309,  1.492049,  1.093670 )     0.89881767
  WF centre and spread   12  (  0.740143, -1.517275, -1.094849 )     0.89557856
  WF centre and spread   13  (  0.927060,  1.428994, -1.093011 )     0.89560682
  WF centre and spread   14  ( -0.718553,  1.504873,  1.091005 )     0.89522240
  WF centre and spread   15  (  1.628399, -0.130266,  1.093174 )     0.89568087
  WF centre and spread   16  (  0.732691, -1.478753, -1.092389 )     0.89880368
  WF centre and spread   17  ( -0.914372, -1.400101,  1.093637 )     0.89888842
  WF centre and spread   18  ( -1.647041,  0.104852, -1.092406 )     0.89879835
  Sum of centres and spreads ( -0.000224,  0.000094, -0.000050 )    15.96129325
 
      7    -0.170E-02     0.0466898027       15.9612932508       0.19  <-- CONV
        O_D=      0.0006503 O_OD=      0.1000466 O_TOT=     15.9612933 <-- SPRD
 Delta: O_D= -0.1006987E-03 O_OD= -0.1594920E-02 O_TOT= -0.1695619E-02 <-- DLTA
 ------------------------------------------------------------------------------
 Cycle:      8
  WF centre and spread    1  (  1.681242, -0.137610,  1.092784 )     0.86720274
  WF centre and spread    2  ( -1.679644,  0.133929, -1.091796 )     0.86656179
  WF centre and spread    3  (  0.723806, -1.521612, -1.091815 )     0.86651913
  WF centre and spread    4  ( -0.722861,  1.520790,  1.094307 )     0.86654945
  WF centre and spread    5  ( -0.955674, -1.386346,  1.094441 )     0.86655090
  WF centre and spread    6  (  0.959747,  1.387006, -1.093105 )     0.86720819
  WF centre and spread    7  ( -0.943992, -1.374835,  1.090899 )     0.89595373
  WF centre and spread    8  ( -1.684074,  0.117660, -1.094872 )     0.89568273
  WF centre and spread    9  (  0.927158,  1.345210, -1.092925 )     0.89552447
  WF centre and spread   10  (  1.701046, -0.088464,  1.093195 )     0.89539246
  WF centre and spread   11  ( -0.755322,  1.492047,  1.093667 )     0.89870168
  WF centre and spread   12  (  0.740145, -1.517280, -1.094844 )     0.89557832
  WF centre and spread   13  (  0.927057,  1.429001, -1.093008 )     0.89555353
  WF centre and spread   14  ( -0.718550,  1.504874,  1.091007 )     0.89525015
  WF centre and spread   15  (  1.628401, -0.130266,  1.093172 )     0.89562998
  WF centre and spread   16  (  0.732696, -1.478750, -1.092393 )     0.89870201
  WF centre and spread   17  ( -0.914367, -1.400107,  1.093636 )     0.89877522
  WF centre and spread   18  ( -1.647034,  0.104850, -1.092407 )     0.89870007
  Sum of centres and spreads ( -0.000221,  0.000097, -0.000057 )    15.96003654
 
      8    -0.126E-02     0.0306195420       15.9600365388       0.22  <-- CONV
        O_D=      0.0006339 O_OD=      0.0988063 O_TOT=     15.9600365 <-- SPRD
 Delta: O_D= -0.1639129E-04 O_OD= -0.1240321E-02 O_TOT= -0.1256712E-02 <-- DLTA
 ------------------------------------------------------------------------------
 Cycle:      9
  WF centre and spread    1  (  1.681243, -0.137610,  1.092774 )     0.86709398
  WF centre and spread    2  ( -1.679646,  0.133924, -1.091807 )     0.86645544
  WF centre and spread    3  (  0.723813, -1.521610, -1.091827 )     0.86642425
  WF centre and spread    4  ( -0.722864,  1.520787,  1.094318 )     0.86645767
  WF centre and spread    5  ( -0.955672, -1.386346,  1.094453 )     0.86645257
  WF centre and spread    6  (  0.959745,  1.387011, -1.093117 )     0.86710971
  WF centre and spread    7  ( -0.943999, -1.374834,  1.090900 )     0.89593123
  WF centre and spread    8  ( -1.684079,  0.117661, -1.094862 )     0.89570528
  WF centre and spread    9  (  0.927156,  1.345209, -1.092922 )     0.89551184
  WF centre and spread   10  (  1.701053, -0.088454,  1.093191 )     0.89539512
  WF centre and spread   11  ( -0.755338,  1.492044,  1.093664 )     0.89859455
  WF centre and spread   12  (  0.740147, -1.517286, -1.094836 )     0.89562017
  WF centre and spread   13  (  0.927052,  1.429009, -1.093004 )     0.89552088
  WF centre and spread   14  ( -0.718546,  1.504875,  1.091010 )     0.89533824
  WF centre and spread   15  (  1.628404, -0.130266,  1.093169 )     0.89559768
  WF centre and spread   16  (  0.732701, -1.478745, -1.092399 )     0.89860100
  WF centre and spread   17  ( -0.914361, -1.400116,  1.093636 )     0.89866652
  WF centre and spread   18  ( -1.647025,  0.104848, -1.092408 )     0.89860395
  Sum of centres and spreads ( -0.000217,  0.000100, -0.000065 )    15.95908005
 
      9    -0.956E-03     0.0256287728       15.9590800536       0.24  <-- CONV
        O_D=      0.0006314 O_OD=      0.0978522 O_TOT=     15.9590801 <-- SPRD
 Delta: O_D= -0.2435654E-05 O_OD= -0.9540495E-03 O_TOT= -0.9564852E-03 <-- DLTA
 ------------------------------------------------------------------------------
 Cycle:     10
  WF centre and spread    1  (  1.681247, -0.137609,  1.092763 )     0.86698526
  WF centre and spread    2  ( -1.679650,  0.133919, -1.091821 )     0.86634430
  WF centre and spread    3  (  0.723820, -1.521609, -1.091841 )     0.86632109
  WF centre and spread    4  ( -0.722868,  1.520785,  1.094332 )     0.86635241
  WF centre and spread    5  ( -0.955671, -1.386346,  1.094468 )     0.86634789
  WF centre and spread    6  (  0.959742,  1.387016, -1.093132 )     0.86700611
  WF centre and spread    7  ( -0.944007, -1.374833,  1.090901 )     0.89591405
  WF centre and spread    8  ( -1.684085,  0.117662, -1.094849 )     0.89574650
  WF centre and spread    9  (  0.927153,  1.345209, -1.092918 )     0.89551538
  WF centre and spread   10  (  1.701060, -0.088442,  1.093185 )     0.89542586
  WF centre and spread   11  ( -0.755357,  1.492040,  1.093661 )     0.89849092
  WF centre and spread   12  (  0.740150, -1.517294, -1.094826 )     0.89568667
  WF centre and spread   13  (  0.927047,  1.429018, -1.092999 )     0.89550123
  WF centre and spread   14  ( -0.718541,  1.504876,  1.091012 )     0.89547334
  WF centre and spread   15  (  1.628407, -0.130266,  1.093166 )     0.89556860
  WF centre and spread   16  (  0.732709, -1.478740, -1.092405 )     0.89849150
  WF centre and spread   17  ( -0.914354, -1.400125,  1.093636 )     0.89855298
  WF centre and spread   18  ( -1.647015,  0.104844, -1.092408 )     0.89849991
  Sum of centres and spreads ( -0.000212,  0.000105, -0.000074 )    15.95822401
 
     10    -0.856E-03     0.0239374026       15.9582240078       0.27  <-- CONV
        O_D=      0.0006215 O_OD=      0.0970061 O_TOT=     15.9582240 <-- SPRD
 Delta: O_D= -0.9964681E-05 O_OD= -0.8460810E-03 O_TOT= -0.8560457E-03 <-- DLTA
 ------------------------------------------------------------------------------
 Cycle:     11
  WF centre and spread    1  (  1.681250, -0.137608,  1.092756 )     0.86691331
  WF centre and spread    2  ( -1.679652,  0.133917, -1.091832 )     0.86626781
  WF centre and spread    3  (  0.723824, -1.521608, -1.091851 )     0.86624881
  WF centre and spread    4  ( -0.722869,  1.520783,  1.094342 )     0.86627479
  WF centre and spread    5  ( -0.955673, -1.386347,  1.094479 )     0.86627670
  WF centre and spread    6  (  0.959741,  1.387020, -1.093144 )     0.86693398
  WF centre and spread    7  ( -0.944013, -1.374832,  1.090901 )     0.89590762
  WF centre and spread    8  ( -1.684091,  0.117664, -1.094841 )     0.89578377
  WF centre and spread    9  (  0.927152,  1.345210, -1.092915 )     0.89552697
  WF centre and spread   10  (  1.701064, -0.088436,  1.093181 )     0.89546036
  WF centre and spread   11  ( -0.755368,  1.492037,  1.093660 )     0.89842384
  WF centre and spread   12  (  0.740152, -1.517301, -1.094818 )     0.89574338
  WF centre and spread   13  (  0.927045,  1.429023, -1.092996 )     0.89549660
  WF centre and spread   14  ( -0.718537,  1.504878,  1.091014 )     0.89558716
  WF centre and spread   15  (  1.628409, -0.130266,  1.093163 )     0.89555199
  WF centre and spread   16  (  0.732715, -1.478737, -1.092408 )     0.89841518
  WF centre and spread   17  ( -0.914349, -1.400130,  1.093638 )     0.89847406
  WF centre and spread   18  ( -1.647008,  0.104841, -1.092407 )     0.89842885
  Sum of centres and spreads ( -0.000208,  0.000108, -0.000078 )    15.95771516
 
     11    -0.509E-03     0.0210143611       15.9577151555       0.30  <-- CONV
        O_D=      0.0006192 O_OD=      0.0964996 O_TOT=     15.9577152 <-- SPRD
 Delta: O_D= -0.2301332E-05 O_OD= -0.5065510E-03 O_TOT= -0.5088524E-03 <-- DLTA
 ------------------------------------------------------------------------------
 Cycle:     12
  WF centre and spread    1  (  1.681256, -0.137607,  1.092751 )     0.86685580
  WF centre and spread    2  ( -1.679655,  0.133917, -1.091842 )     0.86619777
  WF centre and spread    3  (  0.723826, -1.521609, -1.091861 )     0.86618633
  WF centre and spread    4  ( -0.722869,  1.520783,  1.094350 )     0.86619787
  WF centre and spread    5  ( -0.955676, -1.386346,  1.094487 )     0.86620805
  WF centre and spread    6  (  0.959741,  1.387022, -1.093154 )     0.86687083
  WF centre and spread    7  ( -0.944021, -1.374830,  1.090900 )     0.89590243
  WF centre and spread    8  ( -1.684098,  0.117668, -1.094834 )     0.89582414
  WF centre and spread    9  (  0.927152,  1.345211, -1.092912 )     0.89554868
  WF centre and spread   10  (  1.701068, -0.088432,  1.093177 )     0.89550336
  WF centre and spread   11  ( -0.755375,  1.492033,  1.093661 )     0.89837018
  WF centre and spread   12  (  0.740153, -1.517309, -1.094811 )     0.89580243
  WF centre and spread   13  (  0.927044,  1.429027, -1.092994 )     0.89550180
  WF centre and spread   14  ( -0.718532,  1.504880,  1.091015 )     0.89570766
  WF centre and spread   15  (  1.628411, -0.130267,  1.093160 )     0.89553785
  WF centre and spread   16  (  0.732721, -1.478735, -1.092409 )     0.89834872
  WF centre and spread   17  ( -0.914346, -1.400132,  1.093641 )     0.89840160
  WF centre and spread   18  ( -1.647003,  0.104838, -1.092405 )     0.89836594
  Sum of centres and spreads ( -0.000202,  0.000112, -0.000079 )    15.95733142
 
     12    -0.384E-03     0.0147887261       15.9573314229       0.32  <-- CONV
        O_D=      0.0006112 O_OD=      0.0961239 O_TOT=     15.9573314 <-- SPRD
 Delta: O_D= -0.8029788E-05 O_OD= -0.3757027E-03 O_TOT= -0.3837325E-03 <-- DLTA
 ------------------------------------------------------------------------------
 Cycle:     13
  WF centre and spread    1  (  1.681256, -0.137607,  1.092752 )     0.86684848
  WF centre and spread    2  ( -1.679655,  0.133917, -1.091842 )     0.86618761
  WF centre and spread    3  (  0.723826, -1.521609, -1.091861 )     0.86617843
  WF centre and spread    4  ( -0.722868,  1.520783,  1.094350 )     0.86618668
  WF centre and spread    5  ( -0.955676, -1.386346,  1.094487 )     0.86619700
  WF centre and spread    6  (  0.959741,  1.387022, -1.093154 )     0.86686170
  WF centre and spread    7  ( -0.944022, -1.374830,  1.090900 )     0.89589671
  WF centre and spread    8  ( -1.684098,  0.117668, -1.094833 )     0.89582100
  WF centre and spread    9  (  0.927152,  1.345211, -1.092912 )     0.89554548
  WF centre and spread   10  (  1.701068, -0.088432,  1.093177 )     0.89550137
  WF centre and spread   11  ( -0.755375,  1.492032,  1.093662 )     0.89836355
  WF centre and spread   12  (  0.740153, -1.517309, -1.094811 )     0.89579973
  WF centre and spread   13  (  0.927044,  1.429028, -1.092994 )     0.89549863
  WF centre and spread   14  ( -0.718532,  1.504880,  1.091015 )     0.89570863
  WF centre and spread   15  (  1.628410, -0.130267,  1.093159 )     0.89553103
  WF centre and spread   16  (  0.732721, -1.478734, -1.092408 )     0.89834086
  WF centre and spread   17  ( -0.914346, -1.400132,  1.093641 )     0.89839318
  WF centre and spread   18  ( -1.647003,  0.104837, -1.092405 )     0.89835792
  Sum of centres and spreads ( -0.000202,  0.000112, -0.000079 )    15.95721799
 
     13    -0.113E-03     0.0130969817       15.9572179860       0.35  <-- CONV
        O_D=      0.0006043 O_OD=      0.0960173 O_TOT=     15.9572180 <-- SPRD
 Delta: O_D= -0.6883577E-05 O_OD= -0.1065533E-03 O_TOT= -0.1134369E-03 <-- DLTA
 ------------------------------------------------------------------------------
 Cycle:     14
  WF centre and spread    1  (  1.681258, -0.137607,  1.092752 )     0.86684334
  WF centre and spread    2  ( -1.679656,  0.133917, -1.091844 )     0.86617382
  WF centre and spread    3  (  0.723826, -1.521610, -1.091863 )     0.86617006
  WF centre and spread    4  ( -0.722867,  1.520783,  1.094351 )     0.86616931
  WF centre and spread    5  ( -0.955677, -1.386345,  1.094488 )     0.86617984
  WF centre and spread    6  (  0.959742,  1.387022, -1.093155 )     0.86685120
  WF centre and spread    7  ( -0.944023, -1.374829,  1.090899 )     0.89589359
  WF centre and spread    8  ( -1.684100,  0.117668, -1.094833 )     0.89582489
  WF centre and spread    9  (  0.927152,  1.345211, -1.092912 )     0.89554975
  WF centre and spread   10  (  1.701068, -0.088431,  1.093176 )     0.89550871
  WF centre and spread   11  ( -0.755374,  1.492030,  1.093663 )     0.89835836
  WF centre and spread   12  (  0.740155, -1.517309, -1.094810 )     0.89580486
  WF centre and spread   13  (  0.927044,  1.429028, -1.092993 )     0.89550183
  WF centre and spread   14  ( -0.718532,  1.504880,  1.091015 )     0.89572446
  WF centre and spread   15  (  1.628409, -0.130267,  1.093159 )     0.89552523
  WF centre and spread   16  (  0.732722, -1.478733, -1.092408 )     0.89833212
  WF centre and spread   17  ( -0.914345, -1.400131,  1.093642 )     0.89838297
  WF centre and spread   18  ( -1.647003,  0.104836, -1.092405 )     0.89834828
  Sum of centres and spreads ( -0.000201,  0.000112, -0.000078 )    15.95714259
 
     14    -0.754E-04     0.0072438209       15.9571425869       0.37  <-- CONV
        O_D=      0.0006022 O_OD=      0.0959440 O_TOT=     15.9571426 <-- SPRD
 Delta: O_D= -0.2076827E-05 O_OD= -0.7332227E-04 O_TOT= -0.7539910E-04 <-- DLTA
 ------------------------------------------------------------------------------
 Cycle:     15
  WF centre and spread    1  (  1.681260, -0.137607,  1.092752 )     0.86683777
  WF centre and spread    2  ( -1.679657,  0.133918, -1.091847 )     0.86615535
  WF centre and spread    3  (  0.723825, -1.521611, -1.091865 )     0.86615905
  WF centre and spread    4  ( -0.722866,  1.520784,  1.094353 )     0.86614514
  WF centre and spread    5  ( -0.955679, -1.386344,  1.094489 )     0.86615649
  WF centre and spread    6  (  0.959744,  1.387022, -1.093157 )     0.86683755
  WF centre and spread    7  ( -0.944024, -1.374828,  1.090899 )     0.89589079
  WF centre and spread    8  ( -1.684102,  0.117667, -1.094832 )     0.89583308
  WF centre and spread    9  (  0.927151,  1.345210, -1.092912 )     0.89555872
  WF centre and spread   10  (  1.701069, -0.088430,  1.093174 )     0.89552386
  WF centre and spread   11  ( -0.755374,  1.492028,  1.093664 )     0.89835288
  WF centre and spread   12  (  0.740157, -1.517310, -1.094808 )     0.89581552
  WF centre and spread   13  (  0.927043,  1.429030, -1.092992 )     0.89550886
  WF centre and spread   14  ( -0.718531,  1.504879,  1.091015 )     0.89575325
  WF centre and spread   15  (  1.628408, -0.130267,  1.093158 )     0.89551895
  WF centre and spread   16  (  0.732722, -1.478732, -1.092406 )     0.89832025
  WF centre and spread   17  ( -0.914343, -1.400130,  1.093643 )     0.89836920
  WF centre and spread   18  ( -1.647002,  0.104834, -1.092404 )     0.89833508
  Sum of centres and spreads ( -0.000200,  0.000113, -0.000076 )    15.95707179
 
     15    -0.708E-04     0.0069629748       15.9570717859       0.40  <-- CONV
        O_D=      0.0006003 O_OD=      0.0958751 O_TOT=     15.9570718 <-- SPRD
 Delta: O_D= -0.1890757E-05 O_OD= -0.6891030E-04 O_TOT= -0.7080105E-04 <-- DLTA
 ------------------------------------------------------------------------------
 Cycle:     16
  WF centre and spread    1  (  1.681262, -0.137608,  1.092751 )     0.86683385
  WF centre and spread    2  ( -1.679659,  0.133919, -1.091850 )     0.86613966
  WF centre and spread    3  (  0.723825, -1.521613, -1.091868 )     0.86614923
  WF centre and spread    4  ( -0.722864,  1.520785,  1.094355 )     0.86612427
  WF centre and spread    5  ( -0.955681, -1.386344,  1.094491 )     0.86613640
  WF centre and spread    6  (  0.959746,  1.387022, -1.093159 )     0.86682627
  WF centre and spread    7  ( -0.944025, -1.374827,  1.090899 )     0.89588799
  WF centre and spread    8  ( -1.684104,  0.117667, -1.094830 )     0.89584127
  WF centre and spread    9  (  0.927150,  1.345210, -1.092913 )     0.89556747
  WF centre and spread   10  (  1.701069, -0.088429,  1.093171 )     0.89553961
  WF centre and spread   11  ( -0.755375,  1.492026,  1.093665 )     0.89834853
  WF centre and spread   12  (  0.740159, -1.517311, -1.094806 )     0.89582691
  WF centre and spread   13  (  0.927042,  1.429032, -1.092990 )     0.89551613
  WF centre and spread   14  ( -0.718530,  1.504879,  1.091015 )     0.89578255
  WF centre and spread   15  (  1.628406, -0.130267,  1.093158 )     0.89551410
  WF centre and spread   16  (  0.732723, -1.478729, -1.092406 )     0.89830950
  WF centre and spread   17  ( -0.914342, -1.400130,  1.093644 )     0.89835684
  WF centre and spread   18  ( -1.647001,  0.104833, -1.092403 )     0.89832307
  Sum of centres and spreads ( -0.000198,  0.000114, -0.000076 )    15.95702364
 
     16    -0.481E-04     0.0060671060       15.9570236427       0.43  <-- CONV
        O_D=      0.0005996 O_OD=      0.0958277 O_TOT=     15.9570236 <-- SPRD
 Delta: O_D= -0.7121443E-06 O_OD= -0.4743098E-04 O_TOT= -0.4814312E-04 <-- DLTA
 ------------------------------------------------------------------------------
 Cycle:     17
  WF centre and spread    1  (  1.681264, -0.137610,  1.092750 )     0.86683046
  WF centre and spread    2  ( -1.679661,  0.133921, -1.091853 )     0.86612784
  WF centre and spread    3  (  0.723825, -1.521615, -1.091870 )     0.86614123
  WF centre and spread    4  ( -0.722863,  1.520787,  1.094357 )     0.86610915
  WF centre and spread    5  ( -0.955684, -1.386344,  1.094492 )     0.86612143
  WF centre and spread    6  (  0.959748,  1.387023, -1.093161 )     0.86681789
  WF centre and spread    7  ( -0.944025, -1.374826,  1.090899 )     0.89588511
  WF centre and spread    8  ( -1.684106,  0.117666, -1.094828 )     0.89584838
  WF centre and spread    9  (  0.927149,  1.345209, -1.092914 )     0.89557443
  WF centre and spread   10  (  1.701069, -0.088426,  1.093169 )     0.89555327
  WF centre and spread   11  ( -0.755377,  1.492024,  1.093665 )     0.89834410
  WF centre and spread   12  (  0.740162, -1.517312, -1.094803 )     0.89583786
  WF centre and spread   13  (  0.927040,  1.429033, -1.092987 )     0.89552208
  WF centre and spread   14  ( -0.718529,  1.504878,  1.091015 )     0.89580875
  WF centre and spread   15  (  1.628404, -0.130266,  1.093159 )     0.89551108
  WF centre and spread   16  (  0.732724, -1.478727, -1.092406 )     0.89830044
  WF centre and spread   17  ( -0.914339, -1.400131,  1.093644 )     0.89834570
  WF centre and spread   18  ( -1.646999,  0.104831, -1.092403 )     0.89831309
  Sum of centres and spreads ( -0.000198,  0.000115, -0.000076 )    15.95699230
 
     17    -0.313E-04     0.0049389785       15.9569922975       0.45  <-- CONV
        O_D=      0.0005992 O_OD=      0.0957967 O_TOT=     15.9569923 <-- SPRD
 Delta: O_D= -0.3895495E-06 O_OD= -0.3095571E-04 O_TOT= -0.3134526E-04 <-- DLTA
 ------------------------------------------------------------------------------
 Cycle:     18
  WF centre and spread    1  (  1.681265, -0.137612,  1.092748 )     0.86682753
  WF centre and spread    2  ( -1.679663,  0.133922, -1.091854 )     0.86612144
  WF centre and spread    3  (  0.723825, -1.521617, -1.091872 )     0.86613638
  WF centre and spread    4  ( -0.722862,  1.520789,  1.094359 )     0.86610212
  WF centre and spread    5  ( -0.955686, -1.386344,  1.094494 )     0.86611362
  WF centre and spread    6  (  0.959750,  1.387024, -1.093163 )     0.86681343
  WF centre and spread    7  ( -0.944026, -1.374824,  1.090899 )     0.89588272
  WF centre and spread    8  ( -1.684107,  0.117666, -1.094826 )     0.89585306
  WF centre and spread    9  (  0.927147,  1.345208, -1.092915 )     0.89557826
  WF centre and spread   10  (  1.701070, -0.088424,  1.093167 )     0.89556196
  WF centre and spread   11  ( -0.755379,  1.492022,  1.093664 )     0.89833982
  WF centre and spread   12  (  0.740163, -1.517313, -1.094802 )     0.89584605
  WF centre and spread   13  (  0.927039,  1.429035, -1.092985 )     0.89552542
  WF centre and spread   14  ( -0.718527,  1.504877,  1.091015 )     0.89582643
  WF centre and spread   15  (  1.628402, -0.130265,  1.093160 )     0.89550996
  WF centre and spread   16  (  0.732724, -1.478724, -1.092407 )     0.89829458
  WF centre and spread   17  ( -0.914337, -1.400132,  1.093644 )     0.89833734
  WF centre and spread   18  ( -1.646996,  0.104829, -1.092403 )     0.89830676
  Sum of centres and spreads ( -0.000197,  0.000115, -0.000076 )    15.95697689
 
     18    -0.154E-04     0.0034486190       15.9569768890       0.48  <-- CONV
        O_D=      0.0005993 O_OD=      0.0957812 O_TOT=     15.9569769 <-- SPRD
 Delta: O_D=  0.1467539E-06 O_OD= -0.1555522E-04 O_TOT= -0.1540846E-04 <-- DLTA
 ------------------------------------------------------------------------------
 Cycle:     19
  WF centre and spread    1  (  1.681265, -0.137613,  1.092748 )     0.86682627
  WF centre and spread    2  ( -1.679663,  0.133923, -1.091854 )     0.86612083
  WF centre and spread    3  (  0.723824, -1.521618, -1.091872 )     0.86613551
  WF centre and spread    4  ( -0.722862,  1.520790,  1.094359 )     0.86610221
  WF centre and spread    5  ( -0.955687, -1.386344,  1.094494 )     0.86611320
  WF centre and spread    6  (  0.959751,  1.387024, -1.093163 )     0.86681285
  WF centre and spread    7  ( -0.944026, -1.374824,  1.090899 )     0.89588182
  WF centre and spread    8  ( -1.684107,  0.117666, -1.094826 )     0.89585307
  WF centre and spread    9  (  0.927147,  1.345208, -1.092915 )     0.89557779
  WF centre and spread   10  (  1.701070, -0.088424,  1.093166 )     0.89556240
  WF centre and spread   11  ( -0.755380,  1.492022,  1.093664 )     0.89833823
  WF centre and spread   12  (  0.740163, -1.517313, -1.094801 )     0.89584683
  WF centre and spread   13  (  0.927039,  1.429035, -1.092985 )     0.89552509
  WF centre and spread   14  ( -0.718527,  1.504877,  1.091016 )     0.89582785
  WF centre and spread   15  (  1.628402, -0.130265,  1.093160 )     0.89550958
  WF centre and spread   16  (  0.732725, -1.478723, -1.092407 )     0.89829350
  WF centre and spread   17  ( -0.914336, -1.400133,  1.093644 )     0.89833550
  WF centre and spread   18  ( -1.646995,  0.104829, -1.092404 )     0.89830571
  Sum of centres and spreads ( -0.000197,  0.000115, -0.000076 )    15.95696822
 
     19    -0.867E-05     0.0033274593       15.9569682202       0.50  <-- CONV
        O_D=      0.0005989 O_OD=      0.0957729 O_TOT=     15.9569682 <-- SPRD
 Delta: O_D= -0.4145324E-06 O_OD= -0.8254317E-05 O_TOT= -0.8668849E-05 <-- DLTA
 ------------------------------------------------------------------------------
 Cycle:     20
  WF centre and spread    1  (  1.681266, -0.137615,  1.092747 )     0.86682346
  WF centre and spread    2  ( -1.679665,  0.133924, -1.091855 )     0.86611990
  WF centre and spread    3  (  0.723824, -1.521620, -1.091873 )     0.86613375
  WF centre and spread    4  ( -0.722861,  1.520791,  1.094360 )     0.86610320
  WF centre and spread    5  ( -0.955689, -1.386345,  1.094495 )     0.86611269
  WF centre and spread    6  (  0.959753,  1.387025, -1.093164 )     0.86681204
  WF centre and spread    7  ( -0.944026, -1.374823,  1.090900 )     0.89588002
  WF centre and spread    8  ( -1.684108,  0.117665, -1.094824 )     0.89585410
  WF centre and spread    9  (  0.927146,  1.345208, -1.092916 )     0.89557741
  WF centre and spread   10  (  1.701070, -0.088422,  1.093164 )     0.89556503
  WF centre and spread   11  ( -0.755384,  1.492021,  1.093663 )     0.89833442
  WF centre and spread   12  (  0.740164, -1.517314, -1.094800 )     0.89585011
  WF centre and spread   13  (  0.927037,  1.429036, -1.092983 )     0.89552506
  WF centre and spread   14  ( -0.718526,  1.504876,  1.091016 )     0.89583342
  WF centre and spread   15  (  1.628401, -0.130264,  1.093162 )     0.89550918
  WF centre and spread   16  (  0.732725, -1.478721, -1.092408 )     0.89829097
  WF centre and spread   17  ( -0.914334, -1.400135,  1.093643 )     0.89833072
  WF centre and spread   18  ( -1.646993,  0.104828, -1.092404 )     0.89830328
  Sum of centres and spreads ( -0.000197,  0.000115, -0.000077 )    15.95695876
 
     20    -0.946E-05     0.0023578048       15.9569587572       0.53  <-- CONV
        O_D=      0.0005988 O_OD=      0.0957636 O_TOT=     15.9569588 <-- SPRD
 Delta: O_D= -0.1561808E-06 O_OD= -0.9306801E-05 O_TOT= -0.9462982E-05 <-- DLTA
 ------------------------------------------------------------------------------
 Cycle:     21
  WF centre and spread    1  (  1.681267, -0.137618,  1.092745 )     0.86682033
  WF centre and spread    2  ( -1.679667,  0.133926, -1.091856 )     0.86611876
  WF centre and spread    3  (  0.723823, -1.521623, -1.091874 )     0.86613156
  WF centre and spread    4  ( -0.722859,  1.520794,  1.094361 )     0.86610397
  WF centre and spread    5  ( -0.955692, -1.386345,  1.094497 )     0.86611176
  WF centre and spread    6  (  0.959757,  1.387025, -1.093165 )     0.86681110
  WF centre and spread    7  ( -0.944026, -1.374822,  1.090900 )     0.89587788
  WF centre and spread    8  ( -1.684110,  0.117665, -1.094822 )     0.89585577
  WF centre and spread    9  (  0.927144,  1.345207, -1.092918 )     0.89557746
  WF centre and spread   10  (  1.701070, -0.088419,  1.093162 )     0.89556951
  WF centre and spread   11  ( -0.755388,  1.492019,  1.093662 )     0.89833019
  WF centre and spread   12  (  0.740166, -1.517315, -1.094799 )     0.89585443
  WF centre and spread   13  (  0.927035,  1.429037, -1.092980 )     0.89552554
  WF centre and spread   14  ( -0.718524,  1.504876,  1.091017 )     0.89584126
  WF centre and spread   15  (  1.628400, -0.130263,  1.093163 )     0.89550837
  WF centre and spread   16  (  0.732726, -1.478718, -1.092409 )     0.89828765
  WF centre and spread   17  ( -0.914331, -1.400137,  1.093643 )     0.89832483
  WF centre and spread   18  ( -1.646989,  0.104826, -1.092405 )     0.89830011
  Sum of centres and spreads ( -0.000198,  0.000116, -0.000078 )    15.95695048
 
     21    -0.828E-05     0.0023804131       15.9569504784       0.56  <-- CONV
        O_D=      0.0005987 O_OD=      0.0957554 O_TOT=     15.9569505 <-- SPRD
 Delta: O_D= -0.1001809E-06 O_OD= -0.8178638E-05 O_TOT= -0.8278819E-05 <-- DLTA
 ------------------------------------------------------------------------------
 Cycle:     22
  WF centre and spread    1  (  1.681269, -0.137622,  1.092743 )     0.86681768
  WF centre and spread    2  ( -1.679669,  0.133929, -1.091857 )     0.86611734
  WF centre and spread    3  (  0.723822, -1.521627, -1.091875 )     0.86612925
  WF centre and spread    4  ( -0.722858,  1.520798,  1.094363 )     0.86610365
  WF centre and spread    5  ( -0.955695, -1.386345,  1.094498 )     0.86611001
  WF centre and spread    6  (  0.959761,  1.387026, -1.093167 )     0.86681002
  WF centre and spread    7  ( -0.944027, -1.374820,  1.090901 )     0.89587581
  WF centre and spread    8  ( -1.684112,  0.117664, -1.094820 )     0.89585786
  WF centre and spread    9  (  0.927141,  1.345206, -1.092919 )     0.89557811
  WF centre and spread   10  (  1.701070, -0.088416,  1.093159 )     0.89557538
  WF centre and spread   11  ( -0.755393,  1.492017,  1.093661 )     0.89832664
  WF centre and spread   12  (  0.740168, -1.517317, -1.094797 )     0.89585882
  WF centre and spread   13  (  0.927033,  1.429039, -1.092977 )     0.89552671
  WF centre and spread   14  ( -0.718522,  1.504874,  1.091018 )     0.89584997
  WF centre and spread   15  (  1.628399, -0.130261,  1.093165 )     0.89550680
  WF centre and spread   16  (  0.732727, -1.478714, -1.092411 )     0.89828400
  WF centre and spread   17  ( -0.914327, -1.400140,  1.093642 )     0.89831899
  WF centre and spread   18  ( -1.646985,  0.104824, -1.092405 )     0.89829660
  Sum of centres and spreads ( -0.000198,  0.000116, -0.000079 )    15.95694366
 
     22    -0.682E-05     0.0021998845       15.9569436562       0.58  <-- CONV
        O_D=      0.0005987 O_OD=      0.0957485 O_TOT=     15.9569437 <-- SPRD
 Delta: O_D=  0.7312647E-07 O_OD= -0.6895293E-05 O_TOT= -0.6822166E-05 <-- DLTA
 ------------------------------------------------------------------------------
 Cycle:     23
  WF centre and spread    1  (  1.681271, -0.137626,  1.092742 )     0.86681601
  WF centre and spread    2  ( -1.679671,  0.133932, -1.091858 )     0.86611582
  WF centre and spread    3  (  0.723821, -1.521630, -1.091876 )     0.86612737
  WF centre and spread    4  ( -0.722856,  1.520801,  1.094364 )     0.86610220
  WF centre and spread    5  ( -0.955699, -1.386345,  1.094500 )     0.86610768
  WF centre and spread    6  (  0.959765,  1.387027, -1.093168 )     0.86680894
  WF centre and spread    7  ( -0.944027, -1.374818,  1.090901 )     0.89587424
  WF centre and spread    8  ( -1.684113,  0.117663, -1.094818 )     0.89585994
  WF centre and spread    9  (  0.927139,  1.345205, -1.092921 )     0.89557923
  WF centre and spread   10  (  1.701070, -0.088414,  1.093156 )     0.89558138
  WF centre and spread   11  ( -0.755397,  1.492015,  1.093660 )     0.89832434
  WF centre and spread   12  (  0.740169, -1.517318, -1.094795 )     0.89586235
  WF centre and spread   13  (  0.927031,  1.429040, -1.092974 )     0.89552828
  WF centre and spread   14  ( -0.718520,  1.504873,  1.091018 )     0.89585778
  WF centre and spread   15  (  1.628397, -0.130260,  1.093167 )     0.89550474
  WF centre and spread   16  (  0.732727, -1.478710, -1.092412 )     0.89828068
  WF centre and spread   17  ( -0.914323, -1.400142,  1.093641 )     0.89831430
  WF centre and spread   18  ( -1.646981,  0.104822, -1.092406 )     0.89829342
  Sum of centres and spreads ( -0.000198,  0.000116, -0.000079 )    15.95693870
 
     23    -0.495E-05     0.0019547345       15.9569387018       0.61  <-- CONV
        O_D=      0.0005987 O_OD=      0.0957436 O_TOT=     15.9569387 <-- SPRD
 Delta: O_D= -0.2706752E-08 O_OD= -0.4951684E-05 O_TOT= -0.4954391E-05 <-- DLTA
 ------------------------------------------------------------------------------
 Cycle:     24
  WF centre and spread    1  (  1.681273, -0.137630,  1.092741 )     0.86681525
  WF centre and spread    2  ( -1.679674,  0.133936, -1.091859 )     0.86611405
  WF centre and spread    3  (  0.723819, -1.521634, -1.091877 )     0.86612595
  WF centre and spread    4  ( -0.722854,  1.520805,  1.094365 )     0.86609962
  WF centre and spread    5  ( -0.955703, -1.386346,  1.094501 )     0.86610461
  WF centre and spread    6  (  0.959770,  1.387028, -1.093169 )     0.86680777
  WF centre and spread    7  ( -0.944027, -1.374816,  1.090902 )     0.89587301
  WF centre and spread    8  ( -1.684115,  0.117662, -1.094817 )     0.89586216
  WF centre and spread    9  (  0.927137,  1.345204, -1.092923 )     0.89558083
  WF centre and spread   10  (  1.701070, -0.088411,  1.093153 )     0.89558775
  WF centre and spread   11  ( -0.755401,  1.492013,  1.093659 )     0.89832290
  WF centre and spread   12  (  0.740172, -1.517319, -1.094794 )     0.89586530
  WF centre and spread   13  (  0.927028,  1.429042, -1.092971 )     0.89553033
  WF centre and spread   14  ( -0.718518,  1.504872,  1.091019 )     0.89586523
  WF centre and spread   15  (  1.628395, -0.130259,  1.093170 )     0.89550196
  WF centre and spread   16  (  0.732728, -1.478705, -1.092412 )     0.89827746
  WF centre and spread   17  ( -0.914319, -1.400145,  1.093641 )     0.89831028
  WF centre and spread   18  ( -1.646977,  0.104819, -1.092407 )     0.89829024
  Sum of centres and spreads ( -0.000198,  0.000116, -0.000079 )    15.95693470
 
     24    -0.400E-05     0.0015766137       15.9569347030       0.63  <-- CONV
        O_D=      0.0005989 O_OD=      0.0957394 O_TOT=     15.9569347 <-- SPRD
 Delta: O_D=  0.1406636E-06 O_OD= -0.4139505E-05 O_TOT= -0.3998842E-05 <-- DLTA
 ------------------------------------------------------------------------------
 Cycle:     25
  WF centre and spread    1  (  1.681274, -0.137630,  1.092741 )     0.86681544
  WF centre and spread    2  ( -1.679674,  0.133936, -1.091859 )     0.86611376
  WF centre and spread    3  (  0.723819, -1.521635, -1.091877 )     0.86612594
  WF centre and spread    4  ( -0.722853,  1.520806,  1.094365 )     0.86609904
  WF centre and spread    5  ( -0.955704, -1.386346,  1.094501 )     0.86610413
  WF centre and spread    6  (  0.959770,  1.387028, -1.093169 )     0.86680759
  WF centre and spread    7  ( -0.944027, -1.374816,  1.090902 )     0.89587288
  WF centre and spread    8  ( -1.684116,  0.117661, -1.094817 )     0.89586214
  WF centre and spread    9  (  0.927136,  1.345204, -1.092924 )     0.89558082
  WF centre and spread   10  (  1.701070, -0.088410,  1.093153 )     0.89558791
  WF centre and spread   11  ( -0.755402,  1.492013,  1.093659 )     0.89832289
  WF centre and spread   12  (  0.740172, -1.517319, -1.094794 )     0.89586511
  WF centre and spread   13  (  0.927028,  1.429042, -1.092970 )     0.89553038
  WF centre and spread   14  ( -0.718518,  1.504872,  1.091019 )     0.89586531
  WF centre and spread   15  (  1.628394, -0.130258,  1.093170 )     0.89550148
  WF centre and spread   16  (  0.732728, -1.478705, -1.092412 )     0.89827716
  WF centre and spread   17  ( -0.914318, -1.400145,  1.093641 )     0.89831012
  WF centre and spread   18  ( -1.646977,  0.104819, -1.092407 )     0.89828991
  Sum of centres and spreads ( -0.000198,  0.000117, -0.000079 )    15.95693201
 
     25    -0.270E-05     0.0019698857       15.9569320050       0.66  <-- CONV
        O_D=      0.0005987 O_OD=      0.0957370 O_TOT=     15.9569320 <-- SPRD
 Delta: O_D= -0.2276881E-06 O_OD= -0.2470247E-05 O_TOT= -0.2697935E-05 <-- DLTA
 ------------------------------------------------------------------------------
 Cycle:     26
  WF centre and spread    1  (  1.681275, -0.137632,  1.092741 )     0.86681637
  WF centre and spread    2  ( -1.679675,  0.133938, -1.091859 )     0.86611327
  WF centre and spread    3  (  0.723818, -1.521636, -1.091877 )     0.86612626
  WF centre and spread    4  ( -0.722852,  1.520807,  1.094366 )     0.86609770
  WF centre and spread    5  ( -0.955706, -1.386346,  1.094501 )     0.86610302
  WF centre and spread    6  (  0.959772,  1.387028, -1.093169 )     0.86680744
  WF centre and spread    7  ( -0.944027, -1.374815,  1.090902 )     0.89587277
  WF centre and spread    8  ( -1.684117,  0.117661, -1.094817 )     0.89586236
  WF centre and spread    9  (  0.927135,  1.345203, -1.092925 )     0.89558114
  WF centre and spread   10  (  1.701070, -0.088409,  1.093152 )     0.89558869
  WF centre and spread   11  ( -0.755403,  1.492012,  1.093659 )     0.89832312
  WF centre and spread   12  (  0.740173, -1.517319, -1.094794 )     0.89586484
  WF centre and spread   13  (  0.927027,  1.429042, -1.092969 )     0.89553081
  WF centre and spread   14  ( -0.718517,  1.504871,  1.091019 )     0.89586590
  WF centre and spread   15  (  1.628393, -0.130258,  1.093171 )     0.89550031
  WF centre and spread   16  (  0.732728, -1.478703, -1.092412 )     0.89827656
  WF centre and spread   17  ( -0.914317, -1.400146,  1.093641 )     0.89830990
  WF centre and spread   18  ( -1.646975,  0.104818, -1.092407 )     0.89828918
  Sum of centres and spreads ( -0.000197,  0.000117, -0.000079 )    15.95692965
 
     26    -0.236E-05     0.0012049875       15.9569296459       0.68  <-- CONV
        O_D=      0.0005986 O_OD=      0.0957347 O_TOT=     15.9569296 <-- SPRD
 Delta: O_D= -0.6855789E-07 O_OD= -0.2290587E-05 O_TOT= -0.2359145E-05 <-- DLTA
 ------------------------------------------------------------------------------
 Cycle:     27
  WF centre and spread    1  (  1.681277, -0.137635,  1.092741 )     0.86681820
  WF centre and spread    2  ( -1.679677,  0.133941, -1.091859 )     0.86611263
  WF centre and spread    3  (  0.723816, -1.521640, -1.091877 )     0.86612691
  WF centre and spread    4  ( -0.722851,  1.520810,  1.094366 )     0.86609559
  WF centre and spread    5  ( -0.955709, -1.386346,  1.094501 )     0.86610129
  WF centre and spread    6  (  0.959776,  1.387028, -1.093170 )     0.86680743
  WF centre and spread    7  ( -0.944027, -1.374813,  1.090902 )     0.89587249
  WF centre and spread    8  ( -1.684118,  0.117660, -1.094816 )     0.89586276
  WF centre and spread    9  (  0.927133,  1.345202, -1.092927 )     0.89558166
  WF centre and spread   10  (  1.701070, -0.088407,  1.093149 )     0.89559009
  WF centre and spread   11  ( -0.755405,  1.492009,  1.093659 )     0.89832351
  WF centre and spread   12  (  0.740175, -1.517320, -1.094793 )     0.89586447
  WF centre and spread   13  (  0.927025,  1.429043, -1.092967 )     0.89553153
  WF centre and spread   14  ( -0.718516,  1.504870,  1.091019 )     0.89586716
  WF centre and spread   15  (  1.628391, -0.130257,  1.093173 )     0.89549835
  WF centre and spread   16  (  0.732728, -1.478699, -1.092413 )     0.89827544
  WF centre and spread   17  ( -0.914314, -1.400147,  1.093641 )     0.89830942
  WF centre and spread   18  ( -1.646972,  0.104816, -1.092407 )     0.89828784
  Sum of centres and spreads ( -0.000197,  0.000117, -0.000079 )    15.95692678
 
     27    -0.286E-05     0.0012962675       15.9569267832       0.71  <-- CONV
        O_D=      0.0005985 O_OD=      0.0957319 O_TOT=     15.9569268 <-- SPRD
 Delta: O_D= -0.5424682E-07 O_OD= -0.2808405E-05 O_TOT= -0.2862652E-05 <-- DLTA
 ------------------------------------------------------------------------------
 Cycle:     28
  WF centre and spread    1  (  1.681280, -0.137640,  1.092741 )     0.86682069
  WF centre and spread    2  ( -1.679680,  0.133945, -1.091860 )     0.86611217
  WF centre and spread    3  (  0.723814, -1.521644, -1.091878 )     0.86612777
  WF centre and spread    4  ( -0.722848,  1.520815,  1.094366 )     0.86609352
  WF centre and spread    5  ( -0.955715, -1.386346,  1.094502 )     0.86609953
  WF centre and spread    6  (  0.959782,  1.387028, -1.093170 )     0.86680783
  WF centre and spread    7  ( -0.944026, -1.374810,  1.090902 )     0.89587194
  WF centre and spread    8  ( -1.684120,  0.117658, -1.094816 )     0.89586318
  WF centre and spread    9  (  0.927130,  1.345201, -1.092930 )     0.89558206
  WF centre and spread   10  (  1.701070, -0.088404,  1.093146 )     0.89559162
  WF centre and spread   11  ( -0.755410,  1.492006,  1.093658 )     0.89832371
  WF centre and spread   12  (  0.740178, -1.517321, -1.094792 )     0.89586417
  WF centre and spread   13  (  0.927022,  1.429045, -1.092964 )     0.89553219
  WF centre and spread   14  ( -0.718514,  1.504868,  1.091020 )     0.89586892
  WF centre and spread   15  (  1.628388, -0.130255,  1.093176 )     0.89549599
  WF centre and spread   16  (  0.732727, -1.478693, -1.092413 )     0.89827387
  WF centre and spread   17  ( -0.914309, -1.400149,  1.093640 )     0.89830849
  WF centre and spread   18  ( -1.646968,  0.104813, -1.092408 )     0.89828601
  Sum of centres and spreads ( -0.000197,  0.000117, -0.000078 )    15.95692367
 
     28    -0.311E-05     0.0013820272       15.9569236705       0.74  <-- CONV
        O_D=      0.0005986 O_OD=      0.0957286 O_TOT=     15.9569237 <-- SPRD
 Delta: O_D=  0.9816437E-07 O_OD= -0.3210853E-05 O_TOT= -0.3112689E-05 <-- DLTA
 ------------------------------------------------------------------------------
 Cycle:     29
  WF centre and spread    1  (  1.681285, -0.137648,  1.092741 )     0.86682368
  WF centre and spread    2  ( -1.679684,  0.133952, -1.091860 )     0.86611222
  WF centre and spread    3  (  0.723810, -1.521651, -1.091878 )     0.86612891
  WF centre and spread    4  ( -0.722844,  1.520822,  1.094367 )     0.86609228
  WF centre and spread    5  ( -0.955722, -1.386346,  1.094502 )     0.86609833
  WF centre and spread    6  (  0.959791,  1.387028, -1.093170 )     0.86680901
  WF centre and spread    7  ( -0.944025, -1.374806,  1.090903 )     0.89587097
  WF centre and spread    8  ( -1.684124,  0.117655, -1.094815 )     0.89586352
  WF centre and spread    9  (  0.927126,  1.345199, -1.092934 )     0.89558195
  WF centre and spread   10  (  1.701069, -0.088399,  1.093142 )     0.89559287
  WF centre and spread   11  ( -0.755416,  1.492002,  1.093658 )     0.89832314
  WF centre and spread   12  (  0.740182, -1.517322, -1.094791 )     0.89586412
  WF centre and spread   13  (  0.927018,  1.429047, -1.092959 )     0.89553243
  WF centre and spread   14  ( -0.718511,  1.504866,  1.091020 )     0.89587118
  WF centre and spread   15  (  1.628384, -0.130252,  1.093180 )     0.89549345
  WF centre and spread   16  (  0.732727, -1.478685, -1.092414 )     0.89827174
  WF centre and spread   17  ( -0.914302, -1.400153,  1.093639 )     0.89830670
  WF centre and spread   18  ( -1.646961,  0.104809, -1.092409 )     0.89828358
  Sum of centres and spreads ( -0.000197,  0.000117, -0.000078 )    15.95692007
 
     29    -0.360E-05     0.0014441091       15.9569200720       0.76  <-- CONV
        O_D=      0.0005988 O_OD=      0.0957249 O_TOT=     15.9569201 <-- SPRD
 Delta: O_D=  0.1796773E-06 O_OD= -0.3778185E-05 O_TOT= -0.3598507E-05 <-- DLTA
 ------------------------------------------------------------------------------
 Cycle:     30
  WF centre and spread    1  (  1.681290, -0.137657,  1.092741 )     0.86682651
  WF centre and spread    2  ( -1.679689,  0.133960, -1.091860 )     0.86611315
  WF centre and spread    3  (  0.723805, -1.521659, -1.091878 )     0.86613029
  WF centre and spread    4  ( -0.722840,  1.520830,  1.094368 )     0.86609295
  WF centre and spread    5  ( -0.955732, -1.386346,  1.094503 )     0.86609852
  WF centre and spread    6  (  0.959801,  1.387028, -1.093171 )     0.86681115
  WF centre and spread    7  ( -0.944025, -1.374802,  1.090904 )     0.89586975
  WF centre and spread    8  ( -1.684128,  0.117652, -1.094814 )     0.89586365
  WF centre and spread    9  (  0.927121,  1.345196, -1.092940 )     0.89558095
  WF centre and spread   10  (  1.701069, -0.088393,  1.093136 )     0.89559315
  WF centre and spread   11  ( -0.755424,  1.491997,  1.093656 )     0.89832122
  WF centre and spread   12  (  0.740187, -1.517324, -1.094790 )     0.89586452
  WF centre and spread   13  (  0.927013,  1.429050, -1.092953 )     0.89553181
  WF centre and spread   14  ( -0.718507,  1.504863,  1.091021 )     0.89587343
  WF centre and spread   15  (  1.628379, -0.130249,  1.093186 )     0.89549122
  WF centre and spread   16  (  0.732728, -1.478675, -1.092415 )     0.89826926
  WF centre and spread   17  ( -0.914293, -1.400157,  1.093638 )     0.89830388
  WF centre and spread   18  ( -1.646952,  0.104804, -1.092410 )     0.89828089
  Sum of centres and spreads ( -0.000197,  0.000117, -0.000078 )    15.95691630
 
     30    -0.377E-05     0.0014736310       15.9569162981       0.79  <-- CONV
        O_D=      0.0005991 O_OD=      0.0957208 O_TOT=     15.9569163 <-- SPRD
 Delta: O_D=  0.2915023E-06 O_OD= -0.4065419E-05 O_TOT= -0.3773916E-05 <-- DLTA
 ------------------------------------------------------------------------------
 Cycle:     31
  WF centre and spread    1  (  1.681290, -0.137657,  1.092741 )     0.86682610
  WF centre and spread    2  ( -1.679690,  0.133960, -1.091860 )     0.86611336
  WF centre and spread    3  (  0.723805, -1.521660, -1.091878 )     0.86613017
  WF centre and spread    4  ( -0.722839,  1.520831,  1.094368 )     0.86609369
  WF centre and spread    5  ( -0.955732, -1.386346,  1.094503 )     0.86609905
  WF centre and spread    6  (  0.959802,  1.387028, -1.093171 )     0.86681134
  WF centre and spread    7  ( -0.944025, -1.374801,  1.090904 )     0.89586959
  WF centre and spread    8  ( -1.684128,  0.117652, -1.094813 )     0.89586338
  WF centre and spread    9  (  0.927121,  1.345196, -1.092940 )     0.89558032
  WF centre and spread   10  (  1.701069, -0.088393,  1.093135 )     0.89559249
  WF centre and spread   11  ( -0.755425,  1.491997,  1.093656 )     0.89832042
  WF centre and spread   12  (  0.740187, -1.517324, -1.094789 )     0.89586453
  WF centre and spread   13  (  0.927012,  1.429050, -1.092953 )     0.89553122
  WF centre and spread   14  ( -0.718507,  1.504863,  1.091022 )     0.89587302
  WF centre and spread   15  (  1.628379, -0.130249,  1.093186 )     0.89549121
  WF centre and spread   16  (  0.732728, -1.478674, -1.092415 )     0.89826900
  WF centre and spread   17  ( -0.914293, -1.400158,  1.093638 )     0.89830332
  WF centre and spread   18  ( -1.646952,  0.104804, -1.092411 )     0.89828068
  Sum of centres and spreads ( -0.000197,  0.000117, -0.000078 )    15.95691288
 
     31    -0.342E-05     0.0021541986       15.9569128746       0.81  <-- CONV
        O_D=      0.0005989 O_OD=      0.0957176 O_TOT=     15.9569129 <-- SPRD
 Delta: O_D= -0.2307593E-06 O_OD= -0.3192717E-05 O_TOT= -0.3423477E-05 <-- DLTA
 ------------------------------------------------------------------------------
 Cycle:     32
  WF centre and spread    1  (  1.681291, -0.137659,  1.092740 )     0.86682534
  WF centre and spread    2  ( -1.679690,  0.133962, -1.091860 )     0.86611442
  WF centre and spread    3  (  0.723804, -1.521662, -1.091878 )     0.86613023
  WF centre and spread    4  ( -0.722838,  1.520832,  1.094368 )     0.86609619
  WF centre and spread    5  ( -0.955734, -1.386346,  1.094503 )     0.86610096
  WF centre and spread    6  (  0.959804,  1.387028, -1.093171 )     0.86681235
  WF centre and spread    7  ( -0.944025, -1.374800,  1.090904 )     0.89586949
  WF centre and spread    8  ( -1.684129,  0.117651, -1.094813 )     0.89586295
  WF centre and spread    9  (  0.927119,  1.345196, -1.092941 )     0.89557886
  WF centre and spread   10  (  1.701069, -0.088392,  1.093134 )     0.89559097
  WF centre and spread   11  ( -0.755427,  1.491996,  1.093655 )     0.89831850
  WF centre and spread   12  (  0.740188, -1.517325, -1.094789 )     0.89586485
  WF centre and spread   13  (  0.927011,  1.429050, -1.092952 )     0.89552982
  WF centre and spread   14  ( -0.718506,  1.504862,  1.091022 )     0.89587221
  WF centre and spread   15  (  1.628378, -0.130248,  1.093188 )     0.89549149
  WF centre and spread   16  (  0.732728, -1.478672, -1.092416 )     0.89826854
  WF centre and spread   17  ( -0.914291, -1.400159,  1.093637 )     0.89830202
  WF centre and spread   18  ( -1.646950,  0.104802, -1.092411 )     0.89828037
  Sum of centres and spreads ( -0.000198,  0.000117, -0.000079 )    15.95690956
 
     32    -0.331E-05     0.0014278627       15.9569095609       0.84  <-- CONV
        O_D=      0.0005987 O_OD=      0.0957144 O_TOT=     15.9569096 <-- SPRD
 Delta: O_D= -0.1488770E-06 O_OD= -0.3164865E-05 O_TOT= -0.3313742E-05 <-- DLTA
 ------------------------------------------------------------------------------
 Cycle:     33
  WF centre and spread    1  (  1.681292, -0.137662,  1.092740 )     0.86682467
  WF centre and spread    2  ( -1.679692,  0.133965, -1.091859 )     0.86611597
  WF centre and spread    3  (  0.723803, -1.521664, -1.091878 )     0.86613040
  WF centre and spread    4  ( -0.722837,  1.520835,  1.094368 )     0.86609941
  WF centre and spread    5  ( -0.955737, -1.386346,  1.094504 )     0.86610352
  WF centre and spread    6  (  0.959808,  1.387028, -1.093171 )     0.86681386
  WF centre and spread    7  ( -0.944025, -1.374799,  1.090905 )     0.89586949
  WF centre and spread    8  ( -1.684130,  0.117651, -1.094812 )     0.89586248
  WF centre and spread    9  (  0.927118,  1.345195, -1.092943 )     0.89557704
  WF centre and spread   10  (  1.701069, -0.088390,  1.093132 )     0.89558917
  WF centre and spread   11  ( -0.755431,  1.491994,  1.093655 )     0.89831618
  WF centre and spread   12  (  0.740189, -1.517326, -1.094789 )     0.89586522
  WF centre and spread   13  (  0.927009,  1.429051, -1.092950 )     0.89552804
  WF centre and spread   14  ( -0.718504,  1.504861,  1.091022 )     0.89587118
  WF centre and spread   15  (  1.628377, -0.130247,  1.093190 )     0.89549171
  WF centre and spread   16  (  0.732728, -1.478669, -1.092417 )     0.89826787
  WF centre and spread   17  ( -0.914287, -1.400161,  1.093637 )     0.89830042
  WF centre and spread   18  ( -1.646947,  0.104801, -1.092411 )     0.89827991
  Sum of centres and spreads ( -0.000198,  0.000117, -0.000079 )    15.95690654
 
     33    -0.302E-05     0.0014012856       15.9569065370       0.87  <-- CONV
        O_D=      0.0005987 O_OD=      0.0957115 O_TOT=     15.9569065 <-- SPRD
 Delta: O_D= -0.5322057E-07 O_OD= -0.2970710E-05 O_TOT= -0.3023931E-05 <-- DLTA
 ------------------------------------------------------------------------------
 Cycle:     34
  WF centre and spread    1  (  1.681295, -0.137667,  1.092739 )     0.86682446
  WF centre and spread    2  ( -1.679694,  0.133969, -1.091859 )     0.86611769
  WF centre and spread    3  (  0.723800, -1.521668, -1.091877 )     0.86613071
[...]
        O_D=      0.0006084 O_OD=      0.0943186 O_TOT=     15.9555233 <-- SPRD
 Delta: O_D=  0.1958571E-06 O_OD= -0.2840927E-05 O_TOT= -0.2645070E-05 <-- DLTA
 ------------------------------------------------------------------------------
 Cycle:    492
  WF centre and spread    1  (  1.682309, -0.139433,  1.092721 )     0.86730833
  WF centre and spread    2  ( -1.680623,  0.135609, -1.091802 )     0.86641903
  WF centre and spread    3  (  0.722844, -1.523293, -1.091823 )     0.86643274
  WF centre and spread    4  ( -0.721906,  1.522471,  1.094446 )     0.86639658
  WF centre and spread    5  ( -0.957619, -1.386356,  1.094597 )     0.86640275
  WF centre and spread    6  (  0.961852,  1.387031, -1.093180 )     0.86729753
  WF centre and spread    7  ( -0.943886, -1.373829,  1.091097 )     0.89586502
  WF centre and spread    8  ( -1.684918,  0.117020, -1.094580 )     0.89585191
  WF centre and spread    9  (  0.926095,  1.344731, -1.094071 )     0.89520636
  WF centre and spread   10  (  1.700961, -0.087276,  1.092008 )     0.89522139
  WF centre and spread   11  ( -0.757145,  1.490977,  1.093368 )     0.89781718
  WF centre and spread   12  (  0.741131, -1.517692, -1.094555 )     0.89585418
  WF centre and spread   13  (  0.925981,  1.429512, -1.091812 )     0.89514925
  WF centre and spread   14  ( -0.717726,  1.504245,  1.091229 )     0.89585961
  WF centre and spread   15  (  1.627464, -0.129583,  1.094333 )     0.89510915
  WF centre and spread   16  (  0.732740, -1.476671, -1.092708 )     0.89776001
  WF centre and spread   17  ( -0.912545, -1.401127,  1.093350 )     0.89779662
  WF centre and spread   18  ( -1.645223,  0.103791, -1.092702 )     0.89777294
  Sum of centres and spreads ( -0.000213,  0.000126, -0.000086 )    15.95552058
 
    492    -0.276E-05     0.0012917050       15.9555205802      12.84  <-- CONV
        O_D=      0.0006086 O_OD=      0.0943155 O_TOT=     15.9555206 <-- SPRD
 Delta: O_D=  0.2581227E-06 O_OD= -0.3015477E-05 O_TOT= -0.2757354E-05 <-- DLTA
 ------------------------------------------------------------------------------
 Cycle:    493
  WF centre and spread    1  (  1.682309, -0.139434,  1.092721 )     0.86730851
  WF centre and spread    2  ( -1.680623,  0.135609, -1.091802 )     0.86641884
  WF centre and spread    3  (  0.722844, -1.523293, -1.091823 )     0.86643281
  WF centre and spread    4  ( -0.721906,  1.522472,  1.094446 )     0.86639631
  WF centre and spread    5  ( -0.957620, -1.386356,  1.094596 )     0.86640258
  WF centre and spread    6  (  0.961852,  1.387031, -1.093180 )     0.86729745
  WF centre and spread    7  ( -0.943885, -1.373828,  1.091097 )     0.89586479
  WF centre and spread    8  ( -1.684918,  0.117019, -1.094580 )     0.89585189
  WF centre and spread    9  (  0.926095,  1.344731, -1.094072 )     0.89520618
  WF centre and spread   10  (  1.700961, -0.087276,  1.092008 )     0.89522086
  WF centre and spread   11  ( -0.757145,  1.490976,  1.093368 )     0.89781678
  WF centre and spread   12  (  0.741131, -1.517693, -1.094555 )     0.89585415
  WF centre and spread   13  (  0.925981,  1.429512, -1.091812 )     0.89514915
  WF centre and spread   14  ( -0.717726,  1.504245,  1.091229 )     0.89585984
  WF centre and spread   15  (  1.627463, -0.129583,  1.094333 )     0.89510914
  WF centre and spread   16  (  0.732740, -1.476670, -1.092708 )     0.89775966
  WF centre and spread   17  ( -0.912545, -1.401127,  1.093350 )     0.89779630
  WF centre and spread   18  ( -1.645222,  0.103791, -1.092702 )     0.89777259
  Sum of centres and spreads ( -0.000213,  0.000126, -0.000086 )    15.95551783
 
    493    -0.275E-05     0.0019022982       15.9555178307      12.87  <-- CONV
        O_D=      0.0006084 O_OD=      0.0943130 O_TOT=     15.9555178 <-- SPRD
 Delta: O_D= -0.2328188E-06 O_OD= -0.2516656E-05 O_TOT= -0.2749475E-05 <-- DLTA
 ------------------------------------------------------------------------------
 Cycle:    494
  WF centre and spread    1  (  1.682310, -0.139436,  1.092721 )     0.86730937
  WF centre and spread    2  ( -1.680624,  0.135611, -1.091802 )     0.86641865
  WF centre and spread    3  (  0.722843, -1.523295, -1.091822 )     0.86643331
  WF centre and spread    4  ( -0.721905,  1.522473,  1.094446 )     0.86639587
  WF centre and spread    5  ( -0.957621, -1.386356,  1.094597 )     0.86640241
  WF centre and spread    6  (  0.961854,  1.387031, -1.093180 )     0.86729760
  WF centre and spread    7  ( -0.943885, -1.373827,  1.091097 )     0.89586441
  WF centre and spread    8  ( -1.684919,  0.117018, -1.094580 )     0.89585210
  WF centre and spread    9  (  0.926093,  1.344731, -1.094073 )     0.89520596
  WF centre and spread   10  (  1.700961, -0.087275,  1.092006 )     0.89521966
  WF centre and spread   11  ( -0.757147,  1.490975,  1.093368 )     0.89781594
  WF centre and spread   12  (  0.741132, -1.517693, -1.094554 )     0.89585431
  WF centre and spread   13  (  0.925979,  1.429513, -1.091811 )     0.89514906
  WF centre and spread   14  ( -0.717725,  1.504244,  1.091229 )     0.89586079
  WF centre and spread   15  (  1.627463, -0.129582,  1.094334 )     0.89510936
  WF centre and spread   16  (  0.732740, -1.476668, -1.092708 )     0.89775891
  WF centre and spread   17  ( -0.912543, -1.401128,  1.093349 )     0.89779563
  WF centre and spread   18  ( -1.645221,  0.103790, -1.092702 )     0.89777184
  Sum of centres and spreads ( -0.000213,  0.000126, -0.000086 )    15.95551519
 
    494    -0.265E-05     0.0012904871       15.9555151852      12.90  <-- CONV
        O_D=      0.0006082 O_OD=      0.0943105 O_TOT=     15.9555152 <-- SPRD
 Delta: O_D= -0.1598314E-06 O_OD= -0.2485667E-05 O_TOT= -0.2645498E-05 <-- DLTA
 ------------------------------------------------------------------------------
 Cycle:    495
  WF centre and spread    1  (  1.682312, -0.139439,  1.092722 )     0.86731103
  WF centre and spread    2  ( -1.680626,  0.135614, -1.091802 )     0.86641855
  WF centre and spread    3  (  0.722841, -1.523298, -1.091822 )     0.86643421
  WF centre and spread    4  ( -0.721903,  1.522477,  1.094446 )     0.86639528
  WF centre and spread    5  ( -0.957625, -1.386356,  1.094597 )     0.86640226
  WF centre and spread    6  (  0.961858,  1.387031, -1.093180 )     0.86729807
  WF centre and spread    7  ( -0.943885, -1.373825,  1.091097 )     0.89586392
  WF centre and spread    8  ( -1.684920,  0.117017, -1.094580 )     0.89585248
  WF centre and spread    9  (  0.926091,  1.344730, -1.094075 )     0.89520561
  WF centre and spread   10  (  1.700961, -0.087272,  1.092004 )     0.89521784
  WF centre and spread   11  ( -0.757150,  1.490974,  1.093368 )     0.89781463
  WF centre and spread   12  (  0.741135, -1.517693, -1.094554 )     0.89585458
  WF centre and spread   13  (  0.925977,  1.429514, -1.091809 )     0.89514890
  WF centre and spread   14  ( -0.717724,  1.504243,  1.091230 )     0.89586242
  WF centre and spread   15  (  1.627461, -0.129581,  1.094336 )     0.89510968
  WF centre and spread   16  (  0.732740, -1.476664, -1.092708 )     0.89775764
  WF centre and spread   17  ( -0.912540, -1.401130,  1.093349 )     0.89779450
  WF centre and spread   18  ( -1.645217,  0.103788, -1.092703 )     0.89777053
  Sum of centres and spreads ( -0.000213,  0.000126, -0.000086 )    15.95551213
 
    495    -0.306E-05     0.0013477885       15.9555121271      12.92  <-- CONV
        O_D=      0.0006080 O_OD=      0.0943077 O_TOT=     15.9555121 <-- SPRD
 Delta: O_D= -0.1998267E-06 O_OD= -0.2858313E-05 O_TOT= -0.3058140E-05 <-- DLTA
 ------------------------------------------------------------------------------
 Cycle:    496
  WF centre and spread    1  (  1.682315, -0.139444,  1.092722 )     0.86731329
  WF centre and spread    2  ( -1.680628,  0.135618, -1.091803 )     0.86641872
  WF centre and spread    3  (  0.722838, -1.523302, -1.091822 )     0.86643535
  WF centre and spread    4  ( -0.721900,  1.522481,  1.094446 )     0.86639476
  WF centre and spread    5  ( -0.957630, -1.386356,  1.094597 )     0.86640225
  WF centre and spread    6  (  0.961864,  1.387031, -1.093180 )     0.86729894
  WF centre and spread    7  ( -0.943884, -1.373823,  1.091098 )     0.89586354
  WF centre and spread    8  ( -1.684923,  0.117014, -1.094580 )     0.89585296
  WF centre and spread    9  (  0.926088,  1.344728, -1.094078 )     0.89520503
  WF centre and spread   10  (  1.700961, -0.087269,  1.092001 )     0.89521582
  WF centre and spread   11  ( -0.757155,  1.490971,  1.093367 )     0.89781305
  WF centre and spread   12  (  0.741138, -1.517694, -1.094553 )     0.89585493
  WF centre and spread   13  (  0.925974,  1.429515, -1.091806 )     0.89514855
  WF centre and spread   14  ( -0.717722,  1.504241,  1.091230 )     0.89586425
  WF centre and spread   15  (  1.627458, -0.129579,  1.094339 )     0.89510972
  WF centre and spread   16  (  0.732739, -1.476659, -1.092709 )     0.89775597
  WF centre and spread   17  ( -0.912535, -1.401133,  1.093348 )     0.89779298
  WF centre and spread   18  ( -1.645212,  0.103785, -1.092703 )     0.89776876
  Sum of centres and spreads ( -0.000213,  0.000126, -0.000086 )    15.95550887
 
    496    -0.325E-05     0.0014156694       15.9555088722      12.95  <-- CONV
        O_D=      0.0006083 O_OD=      0.0943042 O_TOT=     15.9555089 <-- SPRD
 Delta: O_D=  0.2836830E-06 O_OD= -0.3538531E-05 O_TOT= -0.3254848E-05 <-- DLTA
 ------------------------------------------------------------------------------
 Cycle:    497
  WF centre and spread    1  (  1.682319, -0.139450,  1.092722 )     0.86731606
  WF centre and spread    2  ( -1.680632,  0.135625, -1.091803 )     0.86641947
  WF centre and spread    3  (  0.722834, -1.523309, -1.091822 )     0.86643683
  WF centre and spread    4  ( -0.721896,  1.522487,  1.094446 )     0.86639487
  WF centre and spread    5  ( -0.957638, -1.386355,  1.094597 )     0.86640279
  WF centre and spread    6  (  0.961872,  1.387031, -1.093180 )     0.86730053
  WF centre and spread    7  ( -0.943883, -1.373819,  1.091098 )     0.89586335
  WF centre and spread    8  ( -1.684926,  0.117012, -1.094579 )     0.89585340
  WF centre and spread    9  (  0.926084,  1.344726, -1.094082 )     0.89520405
  WF centre and spread   10  (  1.700960, -0.087264,  1.091997 )     0.89521372
  WF centre and spread   11  ( -0.757162,  1.490967,  1.093366 )     0.89781105
  WF centre and spread   12  (  0.741142, -1.517695, -1.094552 )     0.89585525
  WF centre and spread   13  (  0.925970,  1.429517, -1.091801 )     0.89514771
  WF centre and spread   14  ( -0.717719,  1.504238,  1.091231 )     0.89586582
  WF centre and spread   15  (  1.627455, -0.129577,  1.094343 )     0.89510916
  WF centre and spread   16  (  0.732739, -1.476651, -1.092710 )     0.89775379
  WF centre and spread   17  ( -0.912528, -1.401137,  1.093347 )     0.89779094
  WF centre and spread   18  ( -1.645205,  0.103782, -1.092705 )     0.89776648
  Sum of centres and spreads ( -0.000213,  0.000126, -0.000086 )    15.95550526
 
    497    -0.362E-05     0.0014562791       15.9555052551      12.97  <-- CONV
        O_D=      0.0006087 O_OD=      0.0943002 O_TOT=     15.9555053 <-- SPRD
 Delta: O_D=  0.3443593E-06 O_OD= -0.3961482E-05 O_TOT= -0.3617122E-05 <-- DLTA
 ------------------------------------------------------------------------------
 Cycle:    498
  WF centre and spread    1  (  1.682324, -0.139458,  1.092722 )     0.86731880
  WF centre and spread    2  ( -1.680636,  0.135632, -1.091802 )     0.86642092
  WF centre and spread    3  (  0.722830, -1.523316, -1.091822 )     0.86643855
  WF centre and spread    4  ( -0.721892,  1.522495,  1.094446 )     0.86639607
  WF centre and spread    5  ( -0.957646, -1.386355,  1.094598 )     0.86640416
  WF centre and spread    6  (  0.961881,  1.387031, -1.093180 )     0.86730284
  WF centre and spread    7  ( -0.943882, -1.373814,  1.091099 )     0.89586340
  WF centre and spread    8  ( -1.684929,  0.117008, -1.094578 )     0.89585365
  WF centre and spread    9  (  0.926080,  1.344724, -1.094088 )     0.89520259
  WF centre and spread   10  (  1.700960, -0.087259,  1.091992 )     0.89521188
  WF centre and spread   11  ( -0.757169,  1.490962,  1.093365 )     0.89780873
  WF centre and spread   12  (  0.741146, -1.517697, -1.094551 )     0.89585546
  WF centre and spread   13  (  0.925966,  1.429519, -1.091796 )     0.89514624
  WF centre and spread   14  ( -0.717716,  1.504235,  1.091232 )     0.89586649
  WF centre and spread   15  (  1.627451, -0.129574,  1.094348 )     0.89510784
  WF centre and spread   16  (  0.732739, -1.476642, -1.092711 )     0.89775143
  WF centre and spread   17  ( -0.912520, -1.401142,  1.093346 )     0.89778862
  WF centre and spread   18  ( -1.645197,  0.103777, -1.092706 )     0.89776406
  Sum of centres and spreads ( -0.000213,  0.000126, -0.000086 )    15.95550174
 
    498    -0.352E-05     0.0015065365       15.9555017360      13.00  <-- CONV
        O_D=      0.0006090 O_OD=      0.0942964 O_TOT=     15.9555017 <-- SPRD
 Delta: O_D=  0.2979412E-06 O_OD= -0.3817059E-05 O_TOT= -0.3519117E-05 <-- DLTA
 ------------------------------------------------------------------------------
 Cycle:    499
  WF centre and spread    1  (  1.682324, -0.139459,  1.092722 )     0.86731857
  WF centre and spread    2  ( -1.680637,  0.135633, -1.091802 )     0.86642110
  WF centre and spread    3  (  0.722830, -1.523317, -1.091822 )     0.86643851
  WF centre and spread    4  ( -0.721892,  1.522495,  1.094447 )     0.86639649
  WF centre and spread    5  ( -0.957647, -1.386356,  1.094598 )     0.86640442
  WF centre and spread    6  (  0.961881,  1.387031, -1.093180 )     0.86730304
  WF centre and spread    7  ( -0.943882, -1.373814,  1.091100 )     0.89586336
  WF centre and spread    8  ( -1.684930,  0.117008, -1.094578 )     0.89585337
  WF centre and spread    9  (  0.926079,  1.344724, -1.094088 )     0.89520212
  WF centre and spread   10  (  1.700960, -0.087259,  1.091991 )     0.89521181
  WF centre and spread   11  ( -0.757170,  1.490962,  1.093365 )     0.89780834
  WF centre and spread   12  (  0.741146, -1.517697, -1.094551 )     0.89585523
  WF centre and spread   13  (  0.925966,  1.429519, -1.091796 )     0.89514573
  WF centre and spread   14  ( -0.717715,  1.504235,  1.091232 )     0.89586576
  WF centre and spread   15  (  1.627451, -0.129574,  1.094349 )     0.89510718
  WF centre and spread   16  (  0.732739, -1.476641, -1.092711 )     0.89775111
  WF centre and spread   17  ( -0.912520, -1.401142,  1.093345 )     0.89778827
  WF centre and spread   18  ( -1.645197,  0.103777, -1.092706 )     0.89776379
  Sum of centres and spreads ( -0.000213,  0.000126, -0.000086 )    15.95549823
 
    499    -0.351E-05     0.0020911366       15.9554982275      13.02  <-- CONV
        O_D=      0.0006087 O_OD=      0.0942931 O_TOT=     15.9554982 <-- SPRD
 Delta: O_D= -0.2649780E-06 O_OD= -0.3243495E-05 O_TOT= -0.3508473E-05 <-- DLTA
 ------------------------------------------------------------------------------
 Cycle:    500
  WF centre and spread    1  (  1.682325, -0.139461,  1.092722 )     0.86731838
  WF centre and spread    2  ( -1.680638,  0.135635, -1.091802 )     0.86642203
  WF centre and spread    3  (  0.722829, -1.523319, -1.091822 )     0.86643872
  WF centre and spread    4  ( -0.721891,  1.522497,  1.094447 )     0.86639803
  WF centre and spread    5  ( -0.957649, -1.386356,  1.094598 )     0.86640554
  WF centre and spread    6  (  0.961884,  1.387031, -1.093180 )     0.86730404
  WF centre and spread    7  ( -0.943882, -1.373813,  1.091100 )     0.89586357
  WF centre and spread    8  ( -1.684931,  0.117008, -1.094577 )     0.89585290
  WF centre and spread    9  (  0.926078,  1.344724, -1.094089 )     0.89520114
  WF centre and spread   10  (  1.700959, -0.087258,  1.091990 )     0.89521195
  WF centre and spread   11  ( -0.757172,  1.490961,  1.093364 )     0.89780759
  WF centre and spread   12  (  0.741147, -1.517698, -1.094551 )     0.89585489
  WF centre and spread   13  (  0.925965,  1.429519, -1.091794 )     0.89514455
  WF centre and spread   14  ( -0.717714,  1.504234,  1.091232 )     0.89586412
  WF centre and spread   15  (  1.627450, -0.129573,  1.094350 )     0.89510571
  WF centre and spread   16  (  0.732739, -1.476639, -1.092712 )     0.89775054
  WF centre and spread   17  ( -0.912518, -1.401143,  1.093345 )     0.89778757
  WF centre and spread   18  ( -1.645195,  0.103776, -1.092706 )     0.89776332
  Sum of centres and spreads ( -0.000213,  0.000126, -0.000086 )    15.95549461
 
    500    -0.362E-05     0.0015053981       15.9554946106      13.05  <-- CONV
        O_D=      0.0006084 O_OD=      0.0942898 O_TOT=     15.9554946 <-- SPRD
 Delta: O_D= -0.2953520E-06 O_OD= -0.3321553E-05 O_TOT= -0.3616905E-05 <-- DLTA
 ------------------------------------------------------------------------------

 Writing checkpoint file mp-1143.chk... done

 Final State
  WF centre and spread    1  (  1.682325, -0.139461,  1.092722 )     0.86731838
  WF centre and spread    2  ( -1.680638,  0.135635, -1.091802 )     0.86642203
  WF centre and spread    3  (  0.722829, -1.523319, -1.091822 )     0.86643872
  WF centre and spread    4  ( -0.721891,  1.522497,  1.094447 )     0.86639803
  WF centre and spread    5  ( -0.957649, -1.386356,  1.094598 )     0.86640554
  WF centre and spread    6  (  0.961884,  1.387031, -1.093180 )     0.86730404
  WF centre and spread    7  ( -0.943882, -1.373813,  1.091100 )     0.89586357
  WF centre and spread    8  ( -1.684931,  0.117008, -1.094577 )     0.89585290
  WF centre and spread    9  (  0.926078,  1.344724, -1.094089 )     0.89520114
  WF centre and spread   10  (  1.700959, -0.087258,  1.091990 )     0.89521195
  WF centre and spread   11  ( -0.757172,  1.490961,  1.093364 )     0.89780759
  WF centre and spread   12  (  0.741147, -1.517698, -1.094551 )     0.89585489
  WF centre and spread   13  (  0.925965,  1.429519, -1.091794 )     0.89514455
  WF centre and spread   14  ( -0.717714,  1.504234,  1.091232 )     0.89586412
  WF centre and spread   15  (  1.627450, -0.129573,  1.094350 )     0.89510571
  WF centre and spread   16  (  0.732739, -1.476639, -1.092712 )     0.89775054
  WF centre and spread   17  ( -0.912518, -1.401143,  1.093345 )     0.89778757
  WF centre and spread   18  ( -1.645195,  0.103776, -1.092706 )     0.89776332
  Sum of centres and spreads ( -0.000213,  0.000126, -0.000086 )    15.95549461
 
         Spreads (Ang^2)       Omega I      =    15.860596390
        ================       Omega D      =     0.000608414
                               Omega OD     =     0.094289807
    Final Spread (Ang^2)       Omega Total  =    15.955494611
 ------------------------------------------------------------------------------
 Time for wannierise           13.049 (sec)

 Writing checkpoint file mp-1143.chk... done

 Time for plotting              0.000 (sec)
 Total Execution Time          14.843 (sec)

 *===========================================================================*
 |                             TIMING INFORMATION                            |
 *===========================================================================*
 |    Tag                                                Ncalls      Time (s)|
 |---------------------------------------------------------------------------|
 |kmesh: get                                        :         1         0.365|
 |overlap: allocate                                 :         1         0.009|
 |overlap: read                                     :         1         1.365|
 |wann: main                                        :         1        13.049|
 |plot: main                                        :         1         0.000|
 *---------------------------------------------------------------------------*
 
 All done: wannier90 exiting
