
     Program PWSCF v.7.1 starts on  3Jan2024 at 14:35:48 

     This program is part of the open-source Quantum ESPRESSO suite
     for quantum simulation of materials; please cite
         "P. Giannozzi et al., J. Phys.:Condens. Matter 21 395502 (2009);
         "P. Giannozzi et al., J. Phys.:Condens. Matter 29 465901 (2017);
         "P. Giannozzi et al., J. Chem. Phys. 152 154105 (2020);
          URL http://www.quantum-espresso.org", 
     in publications or presentations arising from this work. More details at
     http://www.quantum-espresso.org/quote

     Parallel version (MPI), running on     8 processors

     MPI processes distributed on     1 nodes
     248455 MiB available memory on the printing compute node when the environment starts
 
     Reading input from pw_mp-1143_nscf_k4500_E75.in
Warning: card &IONS ignored
Warning: card / ignored
Warning: card &CELL ignored
Warning: card / ignored

     Current dimensions of program PWSCF are:
     Max number of different atomic species (ntypx) = 10
     Max number of k-points (npk) =  40000
     Max angular momentum in pseudopotentials (lmaxx) =  4

     Atomic positions and unit cell read from directory:
     out/mp-1143.save/
     Atomic positions from file used, from input discarded
 
 
     R & G space division:  proc/nbgrp/npool/nimage =       8
     Subspace diagonalization in iterative solution of the eigenvalue problem:
     a serial algorithm will be used

 
     Parallelization info
     --------------------
     sticks:   dense  smooth     PW     G-vecs:    dense   smooth      PW
     Min         233     233     69                 6462     6462    1064
     Max         234     234     70                 6464     6464    1068
     Sum        1867    1867    559                51705    51705    8533
 
     Using Slab Decomposition
 


     bravais-lattice index     =            5
     lattice parameter (alat)  =       9.7849  a.u.
     unit-cell volume          =     589.9394 (a.u.)^3
     number of atoms/cell      =           10
     number of atomic types    =            2
     number of electrons       =        80.00
     number of Kohn-Sham states=           80
     kinetic-energy cutoff     =      75.0000  Ry
     charge density cutoff     =     300.0000  Ry
     Exchange-correlation= PBE
                           (   1   4   3   4   0   0   0)

     celldm(1)=   9.784916  celldm(2)=   0.000000  celldm(3)=   0.000000
     celldm(4)=   0.569429  celldm(5)=   0.000000  celldm(6)=   0.000000

     crystal axes: (cart. coord. in units of alat)
               a(1) = (   0.463989  -0.267884   0.844365 )  
               a(2) = (   0.000000   0.535768   0.844365 )  
               a(3) = (  -0.463989  -0.267884   0.844365 )  

     reciprocal axes: (cart. coord. in units 2 pi/alat)
               b(1) = (  1.077612 -0.622160  0.394774 )  
               b(2) = (  0.000000  1.244319  0.394774 )  
               b(3) = ( -1.077612 -0.622160  0.394774 )  


     PseudoPot. # 1 for Al read from file:
     /usr/scratch4/magr4985/MG/devEb/pseudo/SG15/Al.upf
     MD5 check sum: 61098d588df6d88baccfd5e59f8f1e90
     Pseudo is Norm-conserving, Zval = 11.0
     Generated using ONCVPSP code by D. R. Hamann
     Using radial grid of  602 points,  4 beta functions with: 
                l(1) =   0
                l(2) =   0
                l(3) =   1
                l(4) =   1

     PseudoPot. # 2 for O  read from file:
     /usr/scratch4/magr4985/MG/devEb/pseudo/SG15/O.upf
     MD5 check sum: 9d2d0a8c71a1ad34a0c43284618bc51d
     Pseudo is Norm-conserving, Zval =  6.0
     Generated using ONCVPSP code by D. R. Hamann
     Using radial grid of  602 points,  4 beta functions with: 
                l(1) =   0
                l(2) =   0
                l(3) =   1
                l(4) =   1

     atomic species   valence    mass     pseudopotential
        Al            11.00    26.98150     Al( 1.00)
        O              6.00    15.99940     O ( 1.00)

     No symmetry found



   Cartesian axes

     site n.     atom                  positions (alat units)
         1           Al  tau(   1) = (   0.0000000   0.0000000   1.6412026  )
         2           Al  tau(   2) = (   0.0000000  -0.0000000   2.1584404  )
         3           Al  tau(   3) = (   0.0000000  -0.0000000   0.3746550  )
         4           Al  tau(   4) = (   0.0000000  -0.0000000   0.8918928  )
         5           O   tau(   5) = (  -0.1420481  -0.2897336   1.0554564  )
         6           O   tau(   6) = (   0.1798927  -0.2678841   1.4776390  )
         7           O   tau(   7) = (  -0.1798926   0.2678841   1.0554564  )
         8           O   tau(   8) = (   0.3219408   0.0218496   1.0554564  )
         9           O   tau(   9) = (  -0.3219408  -0.0218495   1.4776390  )
        10           O   tau(  10) = (   0.1420481   0.2897337   1.4776390  )

     number of k points=   512  Gaussian smearing, width (Ry)=  0.0005

     Number of k-points >= 100: set verbosity='high' to print them.

     Dense  grid:    51705 G-vectors     FFT dimensions: (  54,  54,  54)

     Estimated max dynamical RAM per process >     515.44 MB

     Estimated total dynamical RAM >       4.03 GB

     The potential is recalculated from file :
     out/mp-1143.save/charge-density

     Starting wfcs are random

     Band Structure Calculation
     Davidson diagonalization with overlap

     ethr =  5.00E-06,  avg # of iterations = 16.8

     total cpu time spent up to now is      445.7 secs

     End of band structure calculation

     Number of k-points >= 100: set verbosity='high' to print the bands.

     the Fermi energy is    15.2031 ev
     (compare with:    15.2028 eV, computed in scf)

     Writing all to output data dir out/mp-1143.save/
 
     init_run     :      0.11s CPU      0.14s WALL (       1 calls)
     electrons    :    435.78s CPU    445.24s WALL (       1 calls)

     Called by init_run:
     wfcinit      :      0.00s CPU      0.00s WALL (       1 calls)
     potinit      :      0.02s CPU      0.02s WALL (       1 calls)
     hinit0       :      0.03s CPU      0.06s WALL (       1 calls)

     Called by electrons:
     c_bands      :    435.77s CPU    445.24s WALL (       1 calls)
     v_of_rho     :      0.01s CPU      0.01s WALL (       1 calls)

     Called by c_bands:
     init_us_2    :      0.16s CPU      0.20s WALL (     512 calls)
     init_us_2:cp :      0.16s CPU      0.20s WALL (     512 calls)
     cegterg      :    407.94s CPU    414.79s WALL (     553 calls)

     Called by *egterg:
     cdiaghg      :     91.10s CPU     92.22s WALL (    9133 calls)
     h_psi        :    252.95s CPU    258.92s WALL (    9686 calls)
     g_psi        :      2.32s CPU      2.33s WALL (    8621 calls)

     Called by h_psi:
     h_psi:calbec :     10.39s CPU     10.50s WALL (    9686 calls)
     vloc_psi     :    232.33s CPU    237.82s WALL (    9686 calls)
     add_vuspsi   :      9.10s CPU      9.16s WALL (    9686 calls)

     General routines
     calbec       :     10.35s CPU     10.47s WALL (    9686 calls)
     fft          :      0.01s CPU      0.03s WALL (      10 calls)
     fftw         :    206.79s CPU    211.59s WALL (  983504 calls)
 
     Parallel routines
 
     PWSCF        :   7m19.90s CPU   7m32.83s WALL

 
   This run was terminated on:  14:43:21   3Jan2024            

=------------------------------------------------------------------------------=
   JOB DONE.
=------------------------------------------------------------------------------=
