
     Program PWSCF v.7.1 starts on  8Apr2024 at 15:15:30 

     This program is part of the open-source Quantum ESPRESSO suite
     for quantum simulation of materials; please cite
         "P. Giannozzi et al., J. Phys.:Condens. Matter 21 395502 (2009);
         "P. Giannozzi et al., J. Phys.:Condens. Matter 29 465901 (2017);
         "P. Giannozzi et al., J. Chem. Phys. 152 154105 (2020);
          URL http://www.quantum-espresso.org", 
     in publications or presentations arising from this work. More details at
     http://www.quantum-espresso.org/quote

     Parallel version (MPI), running on    16 processors

     MPI processes distributed on     1 nodes
     245001 MiB available memory on the printing compute node when the environment starts
 
     Reading input from pw_mp-1143_nscf_k4500_E75.in
Warning: card &IONS ignored
Warning: card / ignored
Warning: card &CELL ignored
Warning: card / ignored

     Current dimensions of program PWSCF are:
     Max number of different atomic species (ntypx) = 10
     Max number of k-points (npk) =  40000
     Max angular momentum in pseudopotentials (lmaxx) =  4

     Atomic positions and unit cell read from directory:
     out/mp-1143.save/
     Atomic positions from file used, from input discarded
 
 
     R & G space division:  proc/nbgrp/npool/nimage =      16
     Subspace diagonalization in iterative solution of the eigenvalue problem:
     a serial algorithm will be used

 
     Parallelization info
     --------------------
     sticks:   dense  smooth     PW     G-vecs:    dense   smooth      PW
     Min         116     116     34                 3231     3231     530
     Max         118     118     35                 3232     3232     534
     Sum        1867    1867    559                51705    51705    8533
 
     Using Slab Decomposition
 


     bravais-lattice index     =            5
     lattice parameter (alat)  =       9.7849  a.u.
     unit-cell volume          =     589.9394 (a.u.)^3
     number of atoms/cell      =           10
     number of atomic types    =            2
     number of electrons       =        80.00
     number of Kohn-Sham states=           80
     kinetic-energy cutoff     =      75.0000  Ry
     charge density cutoff     =     300.0000  Ry
     Exchange-correlation= PBE
                           (   1   4   3   4   0   0   0)

     celldm(1)=   9.784916  celldm(2)=   0.000000  celldm(3)=   0.000000
     celldm(4)=   0.569429  celldm(5)=   0.000000  celldm(6)=   0.000000

     crystal axes: (cart. coord. in units of alat)
               a(1) = (   0.463989  -0.267884   0.844365 )  
               a(2) = (   0.000000   0.535768   0.844365 )  
               a(3) = (  -0.463989  -0.267884   0.844365 )  

     reciprocal axes: (cart. coord. in units 2 pi/alat)
               b(1) = (  1.077612 -0.622160  0.394774 )  
               b(2) = (  0.000000  1.244319  0.394774 )  
               b(3) = ( -1.077612 -0.622160  0.394774 )  


     PseudoPot. # 1 for Al read from file:
     /usr/scratch4/magr4826/Promotion/Python/Code/devEb/pseudo/SG15/Al.upf
     MD5 check sum: 2d9e7bc02555220d62fad08c3c4858e7
     Pseudo is Norm-conserving, Zval = 11.0
     Generated using ONCVPSP code by D. R. Hamann
     Using radial grid of  602 points,  4 beta functions with: 
                l(1) =   0
                l(2) =   0
                l(3) =   1
                l(4) =   1

     PseudoPot. # 2 for O  read from file:
     /usr/scratch4/magr4826/Promotion/Python/Code/devEb/pseudo/SG15/O.upf
     MD5 check sum: e36c48deb68f4e355fffe4602be2c42c
     Pseudo is Norm-conserving, Zval =  6.0
     Generated using ONCVPSP code by D. R. Hamann
     Using radial grid of  602 points,  4 beta functions with: 
                l(1) =   0
                l(2) =   0
                l(3) =   1
                l(4) =   1

     atomic species   valence    mass     pseudopotential
        Al            11.00    26.98150     Al( 1.00)
        O              6.00    15.99940     O ( 1.00)

     No symmetry found



   Cartesian axes

     site n.     atom                  positions (alat units)
         1           Al  tau(   1) = (   0.0000000   0.0000000   1.6412026  )
         2           Al  tau(   2) = (   0.0000000  -0.0000000   2.1584404  )
         3           Al  tau(   3) = (   0.0000000  -0.0000000   0.3746550  )
         4           Al  tau(   4) = (   0.0000000  -0.0000000   0.8918928  )
         5           O   tau(   5) = (  -0.1420481  -0.2897336   1.0554564  )
         6           O   tau(   6) = (   0.1798927  -0.2678841   1.4776390  )
         7           O   tau(   7) = (  -0.1798926   0.2678841   1.0554564  )
         8           O   tau(   8) = (   0.3219408   0.0218496   1.0554564  )
         9           O   tau(   9) = (  -0.3219408  -0.0218495   1.4776390  )
        10           O   tau(  10) = (   0.1420481   0.2897337   1.4776390  )

     number of k points=   512  Gaussian smearing, width (Ry)=  0.0005

     Number of k-points >= 100: set verbosity='high' to print them.

     Dense  grid:    51705 G-vectors     FFT dimensions: (  54,  54,  54)

     Estimated max dynamical RAM per process >     258.84 MB

     Estimated total dynamical RAM >       4.04 GB

     The potential is recalculated from file :
     out/mp-1143.save/charge-density

     Starting wfcs are random

     Band Structure Calculation
     Davidson diagonalization with overlap

     ethr =  5.00E-06,  avg # of iterations = 16.8

     total cpu time spent up to now is      150.1 secs

     End of band structure calculation

     Number of k-points >= 100: set verbosity='high' to print the bands.

     the Fermi energy is    15.2030 ev
     (compare with:    15.2028 eV, computed in scf)

     Writing all to output data dir out/mp-1143.save/
 
     init_run     :      0.13s CPU      0.15s WALL (       1 calls)
     electrons    :    142.59s CPU    149.61s WALL (       1 calls)

     Called by init_run:
     wfcinit      :      0.00s CPU      0.00s WALL (       1 calls)
     potinit      :      0.04s CPU      0.04s WALL (       1 calls)
     hinit0       :      0.06s CPU      0.07s WALL (       1 calls)

     Called by electrons:
     c_bands      :    142.59s CPU    149.61s WALL (       1 calls)
     v_of_rho     :      0.02s CPU      0.02s WALL (       1 calls)

     Called by c_bands:
     init_us_2    :      0.03s CPU      0.05s WALL (     512 calls)
     init_us_2:cp :      0.03s CPU      0.05s WALL (     512 calls)
     cegterg      :    134.51s CPU    136.75s WALL (     558 calls)

     Called by *egterg:
     cdiaghg      :     45.50s CPU     45.94s WALL (    9137 calls)
     h_psi        :     76.37s CPU     78.24s WALL (    9695 calls)
     g_psi        :      0.37s CPU      0.37s WALL (    8625 calls)

     Called by h_psi:
     h_psi:calbec :      2.69s CPU      2.74s WALL (    9695 calls)
     vloc_psi     :     71.36s CPU     73.11s WALL (    9695 calls)
     add_vuspsi   :      1.91s CPU      1.94s WALL (    9695 calls)

     General routines
     calbec       :      2.67s CPU      2.73s WALL (    9695 calls)
     fft          :      0.02s CPU      0.02s WALL (      10 calls)
     fftw         :     66.03s CPU     67.64s WALL (  985184 calls)
 
     Parallel routines
 
     PWSCF        :   2m27.91s CPU   2m51.47s WALL

 
   This run was terminated on:  15:18:22   8Apr2024            

=------------------------------------------------------------------------------=
   JOB DONE.
=------------------------------------------------------------------------------=
