
     Program PWSCF v.7.1 starts on  4Jan2024 at  5:28:35 

     This program is part of the open-source Quantum ESPRESSO suite
     for quantum simulation of materials; please cite
         "P. Giannozzi et al., J. Phys.:Condens. Matter 21 395502 (2009);
         "P. Giannozzi et al., J. Phys.:Condens. Matter 29 465901 (2017);
         "P. Giannozzi et al., J. Chem. Phys. 152 154105 (2020);
          URL http://www.quantum-espresso.org", 
     in publications or presentations arising from this work. More details at
     http://www.quantum-espresso.org/quote

     Parallel version (MPI), running on     8 processors

     MPI processes distributed on     1 nodes
     248942 MiB available memory on the printing compute node when the environment starts
 
     Reading input from pw_mp-995214_emass_k3000_E130.in
Warning: card &IONS ignored
Warning: card / ignored
Warning: card &CELL ignored
Warning: card / ignored

     Current dimensions of program PWSCF are:
     Max number of different atomic species (ntypx) = 10
     Max number of k-points (npk) =  40000
     Max angular momentum in pseudopotentials (lmaxx) =  4

     Atomic positions and unit cell read from directory:
     out/mp-995214.save/
     Atomic positions from file used, from input discarded
 
 
     R & G space division:  proc/nbgrp/npool/nimage =       8
     Subspace diagonalization in iterative solution of the eigenvalue problem:
     one sub-group per band group will be used
     scalapack distributed-memory algorithm (size of sub-group:  2*  2 procs)

 
     Parallelization info
     --------------------
     sticks:   dense  smooth     PW     G-vecs:    dense   smooth      PW
     Min        1462    1462    366               173326   173326   21690
     Max        1463    1463    367               173331   173331   21694
     Sum       11699   11699   2929              1386623  1386623  173533
 
     Using Slab Decomposition
 


     bravais-lattice index     =            8
     lattice parameter (alat)  =      16.1699  a.u.
     unit-cell volume          =    6924.6011 (a.u.)^3
     number of atoms/cell      =           48
     number of atomic types    =            5
     number of electrons       =       320.00
     number of Kohn-Sham states=          320
     kinetic-energy cutoff     =     130.0000  Ry
     charge density cutoff     =     520.0000  Ry
     Exchange-correlation= PBE
                           (   1   4   3   4   0   0   0)

     celldm(1)=  16.169867  celldm(2)=   1.081075  celldm(3)=   1.515025
     celldm(4)=   0.000000  celldm(5)=   0.000000  celldm(6)=   0.000000

     crystal axes: (cart. coord. in units of alat)
               a(1) = (   1.000000   0.000000   0.000000 )  
               a(2) = (   0.000000   1.081075   0.000000 )  
               a(3) = (   0.000000   0.000000   1.515025 )  

     reciprocal axes: (cart. coord. in units 2 pi/alat)
               b(1) = (  1.000000  0.000000  0.000000 )  
               b(2) = (  0.000000  0.925005  0.000000 )  
               b(3) = (  0.000000  0.000000  0.660055 )  


     PseudoPot. # 1 for C  read from file:
     /usr/scratch4/magr4985/MG/devEb/pseudo/SG15/C.upf
     MD5 check sum: 3d2597e5eef38528f7293c089e88409c
     Pseudo is Norm-conserving, Zval =  4.0
     Generated using ONCVPSP code by D. R. Hamann
     Using radial grid of  602 points,  4 beta functions with: 
                l(1) =   0
                l(2) =   0
                l(3) =   1
                l(4) =   1

     PseudoPot. # 2 for H  read from file:
     /usr/scratch4/magr4985/MG/devEb/pseudo/SG15/H.upf
     MD5 check sum: ae0d01b4bdfb70e4e0e3a1de63306ab0
     Pseudo is Norm-conserving, Zval =  1.0
     Generated using ONCVPSP code by D. R. Hamann
     Using radial grid of  602 points,  2 beta functions with: 
                l(1) =   0
                l(2) =   0

     PseudoPot. # 3 for I  read from file:
     /usr/scratch4/magr4985/MG/devEb/pseudo/SG15/I.upf
     MD5 check sum: 2bc24df9af9f874725967c58cc477d99
     Pseudo is Norm-conserving, Zval = 17.0
     Generated using ONCVPSP code by D. R. Hamann
     Using radial grid of  602 points,  6 beta functions with: 
                l(1) =   0
                l(2) =   0
                l(3) =   1
                l(4) =   1
                l(5) =   2
                l(6) =   2

     PseudoPot. # 4 for N  read from file:
     /usr/scratch4/magr4985/MG/devEb/pseudo/SG15/N.upf
     MD5 check sum: 505747f69e3b1670e9a20de136ca1593
     Pseudo is Norm-conserving, Zval =  5.0
     Generated using ONCVPSP code by D. R. Hamann
     Using radial grid of  602 points,  4 beta functions with: 
                l(1) =   0
                l(2) =   0
                l(3) =   1
                l(4) =   1

     PseudoPot. # 5 for Pb read from file:
     /usr/scratch4/magr4985/MG/devEb/pseudo/SG15/Pb.upf
     MD5 check sum: 18da7c9819a8d2a15024df9e07e1e14a
     Pseudo is Norm-conserving, Zval = 14.0
     Generated using ONCVPSP code by D. R. Hamann
     Using radial grid of  602 points,  8 beta functions with: 
                l(1) =   0
                l(2) =   0
                l(3) =   1
                l(4) =   1
                l(5) =   2
                l(6) =   2
                l(7) =   3
                l(8) =   3

     atomic species   valence    mass     pseudopotential
        C              4.00    12.01070     C ( 1.00)
        H              1.00     1.00790     H ( 1.00)
        I             17.00   126.90450     I ( 1.00)
        N              5.00    14.00670     N ( 1.00)
        Pb            14.00   207.20000     Pb( 1.00)

      8 Sym. Ops., with inversion, found ( 6 have fractional translation)



   Cartesian axes

     site n.     atom                  positions (alat units)
         1           H   tau(   1) = (   0.4942640   0.1545656   1.0383615  )
         2           H   tau(   2) = (   0.5057360   0.9265092   0.4766631  )
         3           H   tau(   3) = (   0.0057360   0.6951030   0.4766631  )
         4           H   tau(   4) = (   0.9942641   0.3859718   1.0383615  )
         5           H   tau(   5) = (   0.5057360   0.9265092   0.2808492  )
         6           H   tau(   6) = (   0.4942640   0.1545656   1.2341755  )
         7           H   tau(   7) = (   0.9942641   0.3859718   1.2341755  )
         8           H   tau(   8) = (   0.0057360   0.6951030   0.2808492  )
         9           H   tau(   9) = (   0.3380590   0.0850071   1.1362685  )
        10           H   tau(  10) = (   0.6619410   0.9960677   0.3787562  )
        11           H   tau(  11) = (   0.1619410   0.6255445   0.3787562  )
        12           H   tau(  12) = (   0.8380591   0.4555303   1.1362685  )
        13           H   tau(  13) = (   0.4947750   0.9512258   1.0313697  )
        14           H   tau(  14) = (   0.5052250   0.1298490   0.4836550  )
        15           H   tau(  15) = (   0.0052250   0.4106884   0.4836550  )
        16           H   tau(  16) = (   0.9947751   0.6703864   1.0313697  )
        17           H   tau(  17) = (   0.5052250   0.1298490   0.2738574  )
        18           H   tau(  18) = (   0.4947750   0.9512258   1.2411673  )
        19           H   tau(  19) = (   0.9947751   0.6703864   1.2411673  )
        20           H   tau(  20) = (   0.0052250   0.4106884   0.2738574  )
        21           H   tau(  21) = (   0.6598480   1.0266567   1.1362685  )
        22           H   tau(  22) = (   0.3401520   0.0544181   0.3787562  )
        23           H   tau(  23) = (   0.8401521   0.4861193   0.3787562  )
        24           H   tau(  24) = (   0.1598480   0.5949555   1.1362685  )
        25           Pb  tau(  25) = (   0.5000000   0.5405374   0.0000000  )
        26           Pb  tau(  26) = (   0.0000000   0.0000000   0.0000000  )
        27           Pb  tau(  27) = (   0.5000000   0.5405374   0.7575123  )
        28           Pb  tau(  28) = (   0.0000000   0.0000000   0.7575123  )
        29           C   tau(  29) = (   0.5323550   1.0138730   1.1362685  )
        30           C   tau(  30) = (   0.4676450   0.0672018   0.3787562  )
        31           C   tau(  31) = (   0.9676451   0.4733356   0.3787562  )
        32           C   tau(  32) = (   0.0323550   0.6077392   1.1362685  )
        33           I   tau(  33) = (   0.5377330   0.5541546   1.1362685  )
        34           I   tau(  34) = (   0.4622670   0.5269202   0.3787562  )
        35           I   tau(  35) = (   0.9622671   0.0136172   0.3787562  )
        36           I   tau(  36) = (   0.0377330   1.0674576   1.1362685  )
        37           I   tau(  37) = (   0.8160661   0.7490108   0.0335532  )
        38           I   tau(  38) = (   0.1839340   0.3320640   1.4814714  )
        39           I   tau(  39) = (   0.6839340   0.2084734   1.4814714  )
        40           I   tau(  40) = (   0.3160660   0.8726014   0.0335532  )
        41           I   tau(  41) = (   0.1839340   0.3320640   0.7910656  )
        42           I   tau(  42) = (   0.8160661   0.7490108   0.7239591  )
        43           I   tau(  43) = (   0.3160660   0.8726014   0.7239591  )
        44           I   tau(  44) = (   0.6839340   0.2084734   0.7910656  )
        45           N   tau(  45) = (   0.4596090   0.0917433   1.1362685  )
        46           N   tau(  46) = (   0.5403910   0.9893315   0.3787562  )
        47           N   tau(  47) = (   0.0403910   0.6322806   0.3787562  )
        48           N   tau(  48) = (   0.9596091   0.4487941   1.1362685  )

     number of k points=     7  Gaussian smearing, width (Ry)=  0.0005
                       cart. coord. in units 2pi/alat
        k(    1) = (   0.0000000   0.0000000   0.0000000), wk =   0.2857143
        k(    2) = (   0.0100000   0.0000000   0.0000000), wk =   0.2857143
        k(    3) = (  -0.0100000   0.0000000   0.0000000), wk =   0.2857143
        k(    4) = (   0.0000000   0.0100000   0.0000000), wk =   0.2857143
        k(    5) = (   0.0000000  -0.0100000   0.0000000), wk =   0.2857143
        k(    6) = (   0.0000000   0.0000000   0.0100000), wk =   0.2857143
        k(    7) = (   0.0000000   0.0000000  -0.0100000), wk =   0.2857143

     Dense  grid:  1386623 G-vectors     FFT dimensions: ( 120, 128, 180)

     Estimated max dynamical RAM per process >       1.27 GB

     Estimated total dynamical RAM >      10.18 GB

     The potential is recalculated from file :
     out/mp-995214.save/charge-density

     Starting wfcs are random

     Band Structure Calculation
     ParO style diagonalization

     ethr =  5.00E-06,  avg # of iterations = 21.6

     total cpu time spent up to now is     1427.5 secs

     End of band structure calculation

          k = 0.0000 0.0000 0.0000 (173321 PWs)   bands (ev):

   -40.2621 -40.2621 -40.2621 -40.2621 -40.2277 -40.2277 -40.2277 -40.2276
   -40.2011 -40.2010 -40.2010 -40.2010 -40.1976 -40.1975 -40.1975 -40.1975
   -40.1975 -40.1975 -40.1975 -40.1975 -40.1656 -40.1656 -40.1656 -40.1656
   -40.1656 -40.1656 -40.1656 -40.1655 -40.1413 -40.1413 -40.1413 -40.1412
   -40.1412 -40.1412 -40.1412 -40.1412 -40.0933 -40.0933 -40.0933 -40.0932
   -40.0927 -40.0927 -40.0927 -40.0927 -40.0387 -40.0387 -40.0387 -40.0387
   -40.0387 -40.0387 -40.0387 -40.0386 -40.0384 -40.0384 -40.0384 -40.0384
   -40.0384 -40.0384 -40.0383 -40.0383 -15.9607 -15.9604 -15.9579 -15.9577
   -12.9085 -12.9049 -12.9015 -12.8979 -12.8951 -12.8950 -12.8844 -12.8843
   -12.8798 -12.8795 -12.8794 -12.8791 -12.8651 -12.8646 -12.8645 -12.8640
   -12.8576 -12.8575 -12.8573 -12.8571  -8.9537  -8.9470  -8.9422  -8.9415
    -8.1542  -7.9954  -7.8283  -7.7997  -7.7861  -7.7486  -7.7168  -7.6572
    -7.6380  -7.5785  -7.5525  -7.5349  -5.4731  -5.4635  -5.4549  -5.4529
    -5.4457  -5.4351  -5.4238  -5.4084  -4.4294  -3.9991  -3.6163  -3.3467
    -3.3274  -3.3204  -3.3195  -3.1730  -1.2833  -1.2688  -1.2559  -1.2557
    -1.2520  -1.2430  -1.2394  -1.2368   0.5456   0.5759   0.6640   0.8078
     0.8931   1.0075   1.7538   1.7835   1.8831   1.9627   1.9748   2.0945
     2.2868   2.2937   2.3631   2.3845   2.4343   2.4358   2.4951   2.4979
     2.5041   2.5258   2.5897   2.6473   2.6513   2.7355   2.8169   2.8534
     2.9216   2.9432   2.9902   3.0056   3.0850   3.0892   3.2850   3.5308
     5.3046   5.4507   5.5673   5.7872   5.8738   5.9300   7.6906   8.1026
     8.1968   8.2993   8.3234   8.5219   8.6776   8.8290   8.8388   8.9177
     9.0215   9.0278   9.1530   9.2318   9.3095   9.4116   9.6566   9.7367
     9.8124   9.8484   9.8676   9.9330  10.0250  10.0432  10.1025  10.1685
    10.4752  10.5717  10.5812  10.6039  10.6391  10.7250  10.9112  10.9635
    10.9642  10.9922  11.1949  11.2389  11.2429  11.2541  11.2945  11.3703
    11.3787  11.3963  11.4879  11.6154  11.7122  11.7238  11.8038  11.8157
    11.8682  11.8862  11.8915  12.2113  12.2668  12.3238  12.4044  12.4973
    12.5713  12.5832  12.6361  12.6789  12.9474  13.0382  13.0986  13.2340
    13.3828  13.4749  13.6740  13.6868  13.7136  13.8314  13.8451  13.8580
    13.9495  13.9539  14.0300  14.0898  14.1316  14.3756  14.5344  14.6131
    14.6763  14.6881  14.7548  14.8215  15.0395  15.1839  15.2257  15.2567
    15.3272  15.5059  15.5656  15.6935  15.7100  15.8999  15.9125  15.9262
    15.9389  16.0009  16.0295  16.0482  16.1033  16.1674  16.1913  16.2846
    16.3001  16.3246  16.4182  16.4757  16.4967  16.7057  16.7474  16.7549
    16.7814  16.8720  16.9659  17.0553  17.0809  17.1215  17.1639  17.2377
    17.3006  17.3236  17.3548  17.4137  17.4934  17.6471  17.6972  17.7771
    17.7807  17.8095  17.8799  17.9248  17.9814  18.0395  18.1040  18.1201
    18.1959  18.3192  18.3356  18.3455  18.4107  18.4307  18.6037  18.6042
    18.6053  18.6201  18.6985  18.6999  18.8816  18.9543  18.9795  18.9986

          k = 0.0100 0.0000 0.0000 (173327 PWs)   bands (ev):

   -40.2621 -40.2621 -40.2621 -40.2621 -40.2277 -40.2277 -40.2277 -40.2276
   -40.2011 -40.2010 -40.2010 -40.2010 -40.1976 -40.1975 -40.1975 -40.1975
   -40.1975 -40.1975 -40.1975 -40.1975 -40.1656 -40.1656 -40.1656 -40.1656
   -40.1656 -40.1656 -40.1656 -40.1655 -40.1413 -40.1413 -40.1413 -40.1412
   -40.1412 -40.1412 -40.1412 -40.1412 -40.0933 -40.0933 -40.0933 -40.0932
   -40.0927 -40.0927 -40.0927 -40.0927 -40.0387 -40.0387 -40.0387 -40.0387
   -40.0387 -40.0387 -40.0387 -40.0386 -40.0384 -40.0384 -40.0384 -40.0384
   -40.0384 -40.0384 -40.0383 -40.0383 -15.9607 -15.9604 -15.9579 -15.9577
   -12.9085 -12.9049 -12.9015 -12.8979 -12.8951 -12.8949 -12.8844 -12.8843
   -12.8798 -12.8795 -12.8794 -12.8791 -12.8651 -12.8646 -12.8645 -12.8640
   -12.8576 -12.8575 -12.8573 -12.8571  -8.9537  -8.9470  -8.9422  -8.9415
    -8.1541  -7.9953  -7.8286  -7.7996  -7.7861  -7.7485  -7.7168  -7.6573
    -7.6379  -7.5785  -7.5525  -7.5350  -5.4730  -5.4635  -5.4549  -5.4529
    -5.4457  -5.4351  -5.4238  -5.4084  -4.4292  -3.9989  -3.6165  -3.3467
    -3.3274  -3.3204  -3.3195  -3.1732  -1.2833  -1.2688  -1.2559  -1.2557
    -1.2521  -1.2430  -1.2394  -1.2368   0.5458   0.5760   0.6642   0.8082
     0.8931   1.0079   1.7540   1.7835   1.8833   1.9626   1.9746   2.0945
     2.2813   2.2987   2.3631   2.3828   2.4339   2.4375   2.4945   2.4979
     2.5041   2.5261   2.5897   2.6472   2.6515   2.7355   2.8169   2.8534
     2.9216   2.9423   2.9861   3.0093   3.0849   3.0898   3.2844   3.5301
     5.3047   5.4517   5.5681   5.7880   5.8741   5.9301   7.6909   8.1019
     8.1968   8.2991   8.3229   8.5212   8.6778   8.8281   8.8382   8.9175
     9.0219   9.0287   9.1532   9.2323   9.3100   9.4111   9.6568   9.7374
     9.8126   9.8472   9.8677   9.9326  10.0258  10.0418  10.1043  10.1689
    10.4751  10.5654  10.5820  10.6074  10.6390  10.7273  10.9099  10.9618
    10.9629  10.9943  11.1950  11.2355  11.2442  11.2478  11.3006  11.3704
    11.3786  11.3965  11.4899  11.6163  11.7128  11.7197  11.8086  11.8163
    11.8684  11.8862  11.8907  12.2119  12.2665  12.3234  12.4032  12.4974
    12.5667  12.5884  12.6360  12.6790  12.9481  13.0380  13.0988  13.2349
    13.3787  13.4741  13.6771  13.6835  13.7143  13.8334  13.8454  13.8572
    13.9484  13.9537  14.0308  14.0896  14.1345  14.3771  14.5336  14.6136
    14.6754  14.6886  14.7555  14.8213  15.0329  15.1905  15.2268  15.2533
    15.3269  15.5091  15.5655  15.6919  15.7099  15.8948  15.9174  15.9259
    15.9392  16.0014  16.0215  16.0483  16.1100  16.1692  16.1912  16.2841
    16.2988  16.3212  16.4194  16.4746  16.4927  16.7051  16.7492  16.7555
    16.7815  16.8748  16.9669  17.0552  17.0755  17.1210  17.1705  17.2397
    17.2982  17.3276  17.3562  17.4108  17.4932  17.6462  17.6958  17.7674
    17.7731  17.8088  17.8856  17.9253  17.9816  18.0399  18.1054  18.1226
    18.1941  18.3194  18.3298  18.3474  18.4265  18.4308  18.5954  18.5985
    18.6149  18.6211  18.6931  18.6991  18.8887  18.9508  18.9890  19.0003

          k =-0.0100 0.0000 0.0000 (173327 PWs)   bands (ev):

   -40.2621 -40.2621 -40.2621 -40.2621 -40.2277 -40.2277 -40.2277 -40.2276
   -40.2011 -40.2010 -40.2010 -40.2010 -40.1976 -40.1975 -40.1975 -40.1975
   -40.1975 -40.1975 -40.1975 -40.1975 -40.1656 -40.1656 -40.1656 -40.1656
   -40.1656 -40.1656 -40.1656 -40.1655 -40.1413 -40.1413 -40.1413 -40.1412
   -40.1412 -40.1412 -40.1412 -40.1412 -40.0933 -40.0933 -40.0933 -40.0932
   -40.0927 -40.0927 -40.0927 -40.0927 -40.0387 -40.0387 -40.0387 -40.0387
   -40.0387 -40.0387 -40.0387 -40.0386 -40.0384 -40.0384 -40.0384 -40.0384
   -40.0384 -40.0384 -40.0383 -40.0383 -15.9607 -15.9604 -15.9579 -15.9577
   -12.9085 -12.9049 -12.9015 -12.8979 -12.8951 -12.8949 -12.8844 -12.8843
   -12.8798 -12.8795 -12.8794 -12.8791 -12.8651 -12.8646 -12.8645 -12.8640
   -12.8576 -12.8575 -12.8573 -12.8571  -8.9537  -8.9470  -8.9422  -8.9415
    -8.1541  -7.9953  -7.8286  -7.7996  -7.7861  -7.7485  -7.7168  -7.6573
    -7.6379  -7.5785  -7.5525  -7.5350  -5.4731  -5.4635  -5.4549  -5.4529
    -5.4457  -5.4351  -5.4238  -5.4084  -4.4292  -3.9989  -3.6165  -3.3467
    -3.3274  -3.3204  -3.3195  -3.1732  -1.2833  -1.2688  -1.2559  -1.2557
    -1.2521  -1.2430  -1.2394  -1.2368   0.5458   0.5760   0.6642   0.8082
     0.8931   1.0079   1.7540   1.7835   1.8833   1.9626   1.9746   2.0945
     2.2813   2.2987   2.3631   2.3828   2.4339   2.4375   2.4945   2.4979
     2.5041   2.5261   2.5897   2.6472   2.6515   2.7355   2.8169   2.8534
     2.9216   2.9423   2.9861   3.0093   3.0849   3.0898   3.2844   3.5301
     5.3047   5.4517   5.5681   5.7880   5.8741   5.9301   7.6909   8.1019
     8.1968   8.2991   8.3229   8.5212   8.6778   8.8281   8.8382   8.9175
     9.0219   9.0287   9.1532   9.2323   9.3100   9.4111   9.6568   9.7374
     9.8126   9.8472   9.8677   9.9326  10.0258  10.0418  10.1043  10.1689
    10.4751  10.5654  10.5820  10.6074  10.6390  10.7273  10.9099  10.9618
    10.9629  10.9943  11.1950  11.2355  11.2442  11.2478  11.3006  11.3704
    11.3786  11.3965  11.4899  11.6163  11.7128  11.7197  11.8086  11.8163
    11.8684  11.8862  11.8907  12.2119  12.2665  12.3234  12.4032  12.4974
    12.5667  12.5884  12.6360  12.6790  12.9481  13.0380  13.0988  13.2349
    13.3787  13.4741  13.6771  13.6835  13.7143  13.8334  13.8454  13.8572
    13.9484  13.9537  14.0308  14.0896  14.1345  14.3771  14.5336  14.6136
    14.6754  14.6886  14.7555  14.8213  15.0329  15.1905  15.2268  15.2533
    15.3269  15.5091  15.5655  15.6919  15.7099  15.8948  15.9174  15.9259
    15.9392  16.0014  16.0215  16.0483  16.1100  16.1692  16.1912  16.2841
    16.2988  16.3212  16.4194  16.4746  16.4927  16.7051  16.7492  16.7555
    16.7815  16.8748  16.9669  17.0552  17.0755  17.1209  17.1705  17.2397
    17.2982  17.3276  17.3562  17.4108  17.4932  17.6462  17.6958  17.7674
    17.7731  17.8088  17.8856  17.9253  17.9816  18.0399  18.1054  18.1226
    18.1941  18.3194  18.3298  18.3474  18.4265  18.4308  18.5954  18.5985
    18.6149  18.6211  18.6931  18.6991  18.8887  18.9508  18.9890  19.0003

          k = 0.0000 0.0100 0.0000 (173325 PWs)   bands (ev):

   -40.2621 -40.2621 -40.2621 -40.2621 -40.2277 -40.2277 -40.2277 -40.2276
   -40.2011 -40.2010 -40.2010 -40.2010 -40.1976 -40.1975 -40.1975 -40.1975
   -40.1975 -40.1975 -40.1975 -40.1975 -40.1656 -40.1656 -40.1656 -40.1656
   -40.1656 -40.1656 -40.1656 -40.1655 -40.1413 -40.1413 -40.1413 -40.1412
   -40.1412 -40.1412 -40.1412 -40.1412 -40.0933 -40.0933 -40.0933 -40.0932
   -40.0927 -40.0927 -40.0927 -40.0927 -40.0387 -40.0387 -40.0387 -40.0387
   -40.0387 -40.0387 -40.0387 -40.0386 -40.0384 -40.0384 -40.0384 -40.0384
   -40.0384 -40.0384 -40.0383 -40.0383 -15.9607 -15.9604 -15.9579 -15.9577
   -12.9085 -12.9049 -12.9015 -12.8979 -12.8951 -12.8949 -12.8844 -12.8843
   -12.8798 -12.8795 -12.8794 -12.8791 -12.8651 -12.8646 -12.8645 -12.8640
   -12.8576 -12.8575 -12.8573 -12.8571  -8.9537  -8.9470  -8.9422  -8.9415
    -8.1541  -7.9953  -7.8286  -7.7997  -7.7860  -7.7486  -7.7167  -7.6571
    -7.6380  -7.5785  -7.5525  -7.5350  -5.4731  -5.4635  -5.4549  -5.4529
    -5.4457  -5.4351  -5.4238  -5.4084  -4.4292  -3.9989  -3.6165  -3.3468
    -3.3274  -3.3204  -3.3195  -3.1732  -1.2833  -1.2688  -1.2559  -1.2557
    -1.2520  -1.2430  -1.2394  -1.2368   0.5461   0.5761   0.6643   0.8081
     0.8931   1.0078   1.7539   1.7835   1.8832   1.9626   1.9749   2.0938
     2.2866   2.2933   2.3631   2.3850   2.4334   2.4361   2.4873   2.5041
     2.5058   2.5255   2.5898   2.6445   2.6537   2.7353   2.8170   2.8533
     2.9215   2.9432   2.9905   3.0055   3.0848   3.0893   3.2846   3.5302
     5.3048   5.4515   5.5685   5.7879   5.8744   5.9302   7.6908   8.1017
     8.1967   8.2991   8.3226   8.5209   8.6772   8.8282   8.8382   8.9175
     9.0210   9.0284   9.1535   9.2321   9.3101   9.4114   9.6563   9.7350
     9.8116   9.8502   9.8673   9.9348  10.0247  10.0434  10.1026  10.1683
    10.4743  10.5721  10.5804  10.6039  10.6389  10.7245  10.9105  10.9545
    10.9733  10.9931  11.1952  11.2383  11.2431  11.2547  11.2946  11.3691
    11.3794  11.3973  11.4881  11.6144  11.7147  11.7249  11.8041  11.8160
    11.8692  11.8862  11.8917  12.2119  12.2671  12.3241  12.4034  12.4952
    12.5708  12.5856  12.6366  12.6785  12.9466  13.0392  13.0994  13.2303
    13.3870  13.4744  13.6744  13.6873  13.7129  13.8304  13.8424  13.8579
    13.9496  13.9536  14.0344  14.0908  14.1315  14.3760  14.5346  14.6140
    14.6768  14.6791  14.7629  14.8210  15.0362  15.1812  15.2246  15.2559
    15.3301  15.5044  15.5637  15.6940  15.7071  15.9038  15.9134  15.9247
    15.9372  15.9997  16.0258  16.0499  16.0995  16.1680  16.1848  16.2751
    16.3082  16.3346  16.4188  16.4560  16.5176  16.6971  16.7546  16.7556
    16.7817  16.8703  16.9645  17.0501  17.0850  17.1198  17.1658  17.2426
    17.2939  17.3265  17.3638  17.4132  17.4935  17.6439  17.6910  17.7812
    17.7829  17.8118  17.8794  17.9223  17.9828  18.0324  18.1063  18.1218
    18.2011  18.3160  18.3387  18.3468  18.4110  18.4318  18.6002  18.6057
    18.6061  18.6257  18.6971  18.7003  18.8816  18.9551  18.9758  18.9969

          k = 0.0000-0.0100 0.0000 (173325 PWs)   bands (ev):

   -40.2621 -40.2621 -40.2621 -40.2621 -40.2277 -40.2277 -40.2277 -40.2276
   -40.2011 -40.2010 -40.2010 -40.2010 -40.1976 -40.1975 -40.1975 -40.1975
   -40.1975 -40.1975 -40.1975 -40.1975 -40.1656 -40.1656 -40.1656 -40.1656
   -40.1656 -40.1656 -40.1656 -40.1655 -40.1413 -40.1413 -40.1413 -40.1412
   -40.1412 -40.1412 -40.1412 -40.1412 -40.0933 -40.0933 -40.0933 -40.0932
   -40.0927 -40.0927 -40.0927 -40.0927 -40.0387 -40.0387 -40.0387 -40.0387
   -40.0387 -40.0387 -40.0387 -40.0386 -40.0384 -40.0384 -40.0384 -40.0384
   -40.0384 -40.0384 -40.0383 -40.0383 -15.9607 -15.9604 -15.9579 -15.9577
   -12.9085 -12.9049 -12.9015 -12.8979 -12.8951 -12.8949 -12.8844 -12.8843
   -12.8798 -12.8795 -12.8794 -12.8791 -12.8651 -12.8646 -12.8645 -12.8640
   -12.8576 -12.8575 -12.8573 -12.8571  -8.9537  -8.9470  -8.9422  -8.9415
    -8.1541  -7.9953  -7.8286  -7.7997  -7.7860  -7.7486  -7.7167  -7.6571
    -7.6380  -7.5785  -7.5525  -7.5350  -5.4731  -5.4635  -5.4549  -5.4529
    -5.4457  -5.4351  -5.4238  -5.4084  -4.4292  -3.9989  -3.6165  -3.3468
    -3.3274  -3.3204  -3.3195  -3.1732  -1.2833  -1.2688  -1.2559  -1.2557
    -1.2520  -1.2430  -1.2394  -1.2368   0.5461   0.5761   0.6643   0.8081
     0.8931   1.0078   1.7539   1.7835   1.8832   1.9626   1.9749   2.0938
     2.2866   2.2933   2.3631   2.3850   2.4334   2.4361   2.4873   2.5041
     2.5058   2.5255   2.5898   2.6445   2.6537   2.7353   2.8170   2.8533
     2.9215   2.9432   2.9905   3.0055   3.0848   3.0893   3.2846   3.5302
     5.3048   5.4515   5.5685   5.7879   5.8744   5.9302   7.6908   8.1017
     8.1967   8.2991   8.3226   8.5209   8.6772   8.8282   8.8382   8.9175
     9.0210   9.0284   9.1535   9.2321   9.3101   9.4114   9.6563   9.7350
     9.8116   9.8502   9.8673   9.9348  10.0247  10.0434  10.1026  10.1683
    10.4743  10.5721  10.5804  10.6039  10.6389  10.7245  10.9105  10.9545
    10.9733  10.9931  11.1952  11.2383  11.2431  11.2547  11.2946  11.3691
    11.3794  11.3973  11.4881  11.6144  11.7147  11.7249  11.8041  11.8160
    11.8692  11.8862  11.8917  12.2119  12.2671  12.3241  12.4034  12.4952
    12.5708  12.5856  12.6366  12.6785  12.9466  13.0392  13.0994  13.2303
    13.3870  13.4744  13.6744  13.6873  13.7129  13.8304  13.8424  13.8579
    13.9496  13.9536  14.0344  14.0908  14.1315  14.3760  14.5346  14.6140
    14.6768  14.6791  14.7629  14.8210  15.0362  15.1812  15.2246  15.2559
    15.3301  15.5044  15.5637  15.6940  15.7071  15.9038  15.9134  15.9247
    15.9372  15.9997  16.0258  16.0499  16.0995  16.1680  16.1848  16.2751
    16.3082  16.3346  16.4188  16.4560  16.5176  16.6971  16.7546  16.7556
    16.7817  16.8703  16.9645  17.0501  17.0850  17.1198  17.1658  17.2426
    17.2939  17.3265  17.3638  17.4132  17.4935  17.6439  17.6910  17.7812
    17.7829  17.8118  17.8794  17.9223  17.9828  18.0324  18.1063  18.1218
    18.2011  18.3160  18.3387  18.3468  18.4110  18.4318  18.6002  18.6057
    18.6061  18.6257  18.6971  18.7003  18.8816  18.9551  18.9758  18.9969

          k = 0.0000 0.0000 0.0100 (173341 PWs)   bands (ev):

   -40.2621 -40.2621 -40.2621 -40.2621 -40.2277 -40.2277 -40.2277 -40.2276
   -40.2011 -40.2010 -40.2010 -40.2010 -40.1976 -40.1975 -40.1975 -40.1975
   -40.1975 -40.1975 -40.1975 -40.1975 -40.1656 -40.1656 -40.1656 -40.1656
   -40.1656 -40.1656 -40.1656 -40.1655 -40.1413 -40.1413 -40.1413 -40.1412
   -40.1412 -40.1412 -40.1412 -40.1412 -40.0933 -40.0933 -40.0933 -40.0932
   -40.0927 -40.0927 -40.0927 -40.0927 -40.0387 -40.0387 -40.0387 -40.0387
   -40.0387 -40.0387 -40.0387 -40.0386 -40.0384 -40.0384 -40.0384 -40.0384
   -40.0384 -40.0384 -40.0383 -40.0383 -15.9607 -15.9604 -15.9579 -15.9577
   -12.9085 -12.9049 -12.9015 -12.8979 -12.8951 -12.8950 -12.8844 -12.8843
   -12.8798 -12.8795 -12.8794 -12.8791 -12.8651 -12.8646 -12.8645 -12.8640
   -12.8576 -12.8575 -12.8573 -12.8571  -8.9537  -8.9470  -8.9422  -8.9415
    -8.1541  -7.9956  -7.8283  -7.7997  -7.7859  -7.7485  -7.7168  -7.6572
    -7.6380  -7.5786  -7.5525  -7.5349  -5.4731  -5.4635  -5.4549  -5.4529
    -5.4457  -5.4351  -5.4238  -5.4084  -4.4292  -3.9994  -3.6161  -3.3468
    -3.3274  -3.3204  -3.3195  -3.1732  -1.2833  -1.2688  -1.2560  -1.2555
    -1.2520  -1.2431  -1.2393  -1.2368   0.5456   0.5766   0.6641   0.8079
     0.8936   1.0075   1.7538   1.7836   1.8830   1.9628   1.9744   2.0944
     2.2860   2.2937   2.3620   2.3852   2.4340   2.4359   2.4949   2.4978
     2.5047   2.5257   2.5899   2.6468   2.6513   2.7354   2.8166   2.8533
     2.9215   2.9431   2.9903   3.0057   3.0849   3.0891   3.2850   3.5299
     5.3070   5.4509   5.5675   5.7870   5.8743   5.9310   7.6910   8.1025
     8.1955   8.2993   8.3232   8.5212   8.6782   8.8288   8.8370   8.9152
     9.0217   9.0295   9.1537   9.2319   9.3095   9.4127   9.6559   9.7366
     9.8104   9.8482   9.8672   9.9327  10.0270  10.0407  10.1031  10.1708
    10.4741  10.5720  10.5806  10.6056  10.6392  10.7244  10.9115  10.9639
    10.9644  10.9915  11.1953  11.2377  11.2425  11.2537  11.2946  11.3706
    11.3792  11.3968  11.4876  11.6163  11.7098  11.7233  11.8049  11.8159
    11.8705  11.8861  11.8920  12.2114  12.2661  12.3232  12.4040  12.4974
    12.5717  12.5823  12.6373  12.6806  12.9477  13.0389  13.0980  13.2344
    13.3820  13.4736  13.6703  13.6870  13.7126  13.8140  13.8408  13.8846
    13.9500  13.9528  14.0315  14.0919  14.1333  14.3749  14.5339  14.6104
    14.6763  14.6869  14.7559  14.8219  15.0411  15.1796  15.2256  15.2629
    15.3255  15.5051  15.5643  15.6894  15.7139  15.8995  15.9125  15.9255
    15.9400  16.0038  16.0279  16.0469  16.1064  16.1467  16.2078  16.2843
    16.3006  16.3246  16.4185  16.4776  16.4967  16.7054  16.7336  16.7552
    16.7957  16.8714  16.9627  17.0563  17.0806  17.1170  17.1683  17.2334
    17.3061  17.3213  17.3573  17.4152  17.4939  17.6483  17.6962  17.7758
    17.7804  17.8084  17.8800  17.9263  17.9791  18.0396  18.1068  18.1211
    18.1961  18.3141  18.3360  18.3483  18.4107  18.4307  18.6040  18.6044
    18.6091  18.6219  18.6859  18.7125  18.8817  18.9523  18.9798  18.9996

          k = 0.0000 0.0000-0.0100 (173341 PWs)   bands (ev):

   -40.2621 -40.2621 -40.2621 -40.2621 -40.2277 -40.2277 -40.2277 -40.2276
   -40.2011 -40.2010 -40.2010 -40.2010 -40.1976 -40.1975 -40.1975 -40.1975
   -40.1975 -40.1975 -40.1975 -40.1975 -40.1656 -40.1656 -40.1656 -40.1656
   -40.1656 -40.1656 -40.1656 -40.1655 -40.1413 -40.1413 -40.1413 -40.1412
   -40.1412 -40.1412 -40.1412 -40.1412 -40.0933 -40.0933 -40.0933 -40.0932
   -40.0927 -40.0927 -40.0927 -40.0927 -40.0387 -40.0387 -40.0387 -40.0387
   -40.0387 -40.0387 -40.0387 -40.0386 -40.0384 -40.0384 -40.0384 -40.0384
   -40.0384 -40.0384 -40.0383 -40.0383 -15.9607 -15.9604 -15.9579 -15.9577
   -12.9085 -12.9049 -12.9015 -12.8979 -12.8951 -12.8950 -12.8844 -12.8843
   -12.8798 -12.8795 -12.8794 -12.8791 -12.8651 -12.8646 -12.8645 -12.8640
   -12.8576 -12.8575 -12.8573 -12.8571  -8.9537  -8.9470  -8.9422  -8.9415
    -8.1541  -7.9956  -7.8283  -7.7997  -7.7859  -7.7485  -7.7168  -7.6572
    -7.6380  -7.5786  -7.5525  -7.5349  -5.4731  -5.4635  -5.4549  -5.4529
    -5.4457  -5.4351  -5.4238  -5.4084  -4.4292  -3.9994  -3.6161  -3.3468
    -3.3274  -3.3204  -3.3195  -3.1732  -1.2833  -1.2688  -1.2560  -1.2555
    -1.2520  -1.2431  -1.2393  -1.2368   0.5456   0.5766   0.6641   0.8079
     0.8936   1.0075   1.7538   1.7836   1.8830   1.9628   1.9744   2.0944
     2.2860   2.2937   2.3620   2.3852   2.4340   2.4359   2.4949   2.4978
     2.5047   2.5257   2.5899   2.6468   2.6513   2.7354   2.8166   2.8533
     2.9215   2.9431   2.9903   3.0057   3.0849   3.0891   3.2850   3.5299
     5.3070   5.4509   5.5675   5.7870   5.8743   5.9310   7.6910   8.1025
     8.1955   8.2993   8.3232   8.5212   8.6782   8.8288   8.8370   8.9152
     9.0217   9.0295   9.1537   9.2319   9.3095   9.4127   9.6559   9.7366
     9.8104   9.8482   9.8672   9.9327  10.0270  10.0407  10.1031  10.1708
    10.4741  10.5720  10.5806  10.6056  10.6392  10.7244  10.9115  10.9639
    10.9644  10.9915  11.1953  11.2377  11.2425  11.2537  11.2946  11.3706
    11.3792  11.3968  11.4876  11.6163  11.7098  11.7233  11.8049  11.8159
    11.8705  11.8861  11.8920  12.2114  12.2661  12.3232  12.4040  12.4974
    12.5717  12.5823  12.6373  12.6806  12.9477  13.0389  13.0980  13.2344
    13.3820  13.4736  13.6703  13.6870  13.7126  13.8140  13.8408  13.8846
    13.9500  13.9528  14.0315  14.0919  14.1333  14.3749  14.5339  14.6104
    14.6763  14.6869  14.7559  14.8219  15.0411  15.1796  15.2256  15.2629
    15.3255  15.5051  15.5643  15.6894  15.7139  15.8995  15.9125  15.9255
    15.9400  16.0038  16.0279  16.0469  16.1064  16.1467  16.2078  16.2843
    16.3006  16.3246  16.4185  16.4776  16.4967  16.7054  16.7336  16.7552
    16.7957  16.8714  16.9627  17.0563  17.0806  17.1170  17.1683  17.2334
    17.3061  17.3213  17.3573  17.4152  17.4939  17.6483  17.6962  17.7758
    17.7804  17.8084  17.8800  17.9263  17.9791  18.0396  18.1068  18.1211
    18.1961  18.3141  18.3360  18.3483  18.4107  18.4307  18.6040  18.6044
    18.6091  18.6219  18.6859  18.7125  18.8817  18.9523  18.9798  18.9996

     the Fermi energy is     4.2159 ev
     (compare with:     4.2159 eV, computed in scf)

     Writing all to output data dir out/mp-995214.save/
 
     init_run     :      2.30s CPU      2.40s WALL (       1 calls)
     electrons    :   1382.92s CPU   1424.95s WALL (       1 calls)

     Called by init_run:
     wfcinit      :      0.00s CPU      0.00s WALL (       1 calls)
     potinit      :      0.24s CPU      0.28s WALL (       1 calls)
     hinit0       :      1.64s CPU      1.66s WALL (       1 calls)

     Called by electrons:
     c_bands      :   1382.92s CPU   1424.95s WALL (       1 calls)
     v_of_rho     :      0.21s CPU      0.24s WALL (       1 calls)

     Called by c_bands:
     init_us_2    :      0.37s CPU      0.41s WALL (       7 calls)
     init_us_2:cp :      0.37s CPU      0.41s WALL (       7 calls)
     paro_k       :   1337.23s CPU   1377.36s WALL (       7 calls)

     Called by paro_*:
     h_psi        :    655.54s CPU    688.94s WALL (     918 calls)
     g_psi        :      7.32s CPU      7.58s WALL (   56697 calls)

     Called by h_psi:
     h_psi:calbec :    120.04s CPU    120.36s WALL (     918 calls)
     vloc_psi     :    396.13s CPU    428.50s WALL (     918 calls)
     add_vuspsi   :    135.38s CPU    135.41s WALL (     918 calls)

     General routines
     calbec       :    120.04s CPU    120.36s WALL (     918 calls)
     fft          :      0.08s CPU      0.10s WALL (      10 calls)
     fftw         :    333.66s CPU    365.65s WALL (   96528 calls)
 
     Parallel routines
 
     PWSCF        :  23m 5.41s CPU  23m47.58s WALL

 
   This run was terminated on:   5:52:22   4Jan2024            

=------------------------------------------------------------------------------=
   JOB DONE.
=------------------------------------------------------------------------------=
