 
             +---------------------------------------------------+
             |                                                   |
             |                   WANNIER90                       |
             |                                                   |
             +---------------------------------------------------+
             |                                                   |
             |        Welcome to the Maximally-Localized         |
             |        Generalized Wannier Functions code         |
             |            http://www.wannier.org                 |
             |                                                   |
             |                                                   |
             |  Wannier90 Developer Group:                       |
             |    Giovanni Pizzi    (EPFL)                       |
             |    Valerio Vitale    (Cambridge)                  |
             |    David Vanderbilt  (Rutgers University)         |
             |    Nicola Marzari    (EPFL)                       |
             |    Ivo Souza         (Universidad del Pais Vasco) |
             |    Arash A. Mostofi  (Imperial College London)    |
             |    Jonathan R. Yates (University of Oxford)       |
             |                                                   |
             |  For the full list of Wannier90 3.x authors,      |
             |  please check the code documentation and the      |
             |  README on the GitHub page of the code            |
             |                                                   |
             |                                                   |
             |  Please cite                                      |
             |                                                   |
             |  [ref] "Wannier90 as a community code:            |
             |        new features and applications",            |
             |        G. Pizzi et al., J. Phys. Cond. Matt. 32,  |
             |        165902 (2020).                             |
             |        http://doi.org/10.1088/1361-648X/ab51ff    |
             |                                                   |
             |  in any publications arising from the use of      |
             |  this code. For the method please cite            |
             |                                                   |
             |  [ref] "Maximally Localized Generalised Wannier   |
             |         Functions for Composite Energy Bands"     |
             |         N. Marzari and D. Vanderbilt              |
             |         Phys. Rev. B 56 12847 (1997)              |
             |                                                   |
             |  [ref] "Maximally Localized Wannier Functions     |
             |         for Entangled Energy Bands"               |
             |         I. Souza, N. Marzari and D. Vanderbilt    |
             |         Phys. Rev. B 65 035109 (2001)             |
             |                                                   |
             |                                                   |
             | Copyright (c) 1996-2020                           |
             |        The Wannier90 Developer Group and          |
             |        individual contributors                    |
             |                                                   |
             |      Release: 3.1.0        5th March    2020      |
             |                                                   |
             | This program is free software; you can            |
             | redistribute it and/or modify it under the terms  |
             | of the GNU General Public License as published by |
             | the Free Software Foundation; either version 2 of |
             | the License, or (at your option) any later version|
             |                                                   |
             | This program is distributed in the hope that it   |
             | will be useful, but WITHOUT ANY WARRANTY; without |
             | even the implied warranty of MERCHANTABILITY or   |
             | FITNESS FOR A PARTICULAR PURPOSE. See the GNU     |
             | General Public License for more details.          |
             |                                                   |
             | You should have received a copy of the GNU General|
             | Public License along with this program; if not,   |
             | write to the Free Software Foundation, Inc.,      |
             | 675 Mass Ave, Cambridge, MA 02139, USA.           |
             |                                                   |
             +---------------------------------------------------+
             |    Execution started on  3Jan2024 at 14:32:54     |
             +---------------------------------------------------+
 
 ******************************************************************************
 * -> Using CODATA 2006 constant values                                       *
 *    (http://physics.nist.gov/cuu/Constants/index.html)                      *
 * -> Using Bohr value from CODATA                                            *
 ******************************************************************************
 

 Running in parallel on   8 CPUs

 
                                    ------
                                    SYSTEM
                                    ------
 
                              Lattice Vectors (Ang)
                    a_1    -2.008619   0.000000   2.008619
                    a_2     0.000000   2.008619   2.008619
                    a_3    -2.008619   2.008619   0.000000
 
                   Unit Cell Volume:      16.20775  (Ang^3)
 
                        Reciprocal-Space Vectors (Ang^-1)
                    b_1    -1.564056  -1.564056   1.564056
                    b_2     1.564056   1.564056   1.564056
                    b_3    -1.564056   1.564056  -1.564056
  
 *----------------------------------------------------------------------------*
 |   Site       Fractional Coordinate          Cartesian Coordinate (Ang)     |
 +----------------------------------------------------------------------------+
 | Li   1   0.00000   0.00000   0.00000   |    0.00000   0.00000   0.00000    |
 | H    1   0.50000   0.50000   0.50000   |   -2.00862   2.00862   2.00862    |
 *----------------------------------------------------------------------------*
                                ------------
                                K-POINT GRID
                                ------------
  
             Grid size = 12 x 12 x 12      Total points = 1728
  
  
 *---------------------------------- MAIN ------------------------------------*
 |  Number of Wannier Functions               :                 1             |
 |  Number of Objective Wannier Functions     :                 1             |
 |  Number of input Bloch states              :                 1             |
 |  Output verbosity (1=low, 5=high)          :                 1             |
 |  Timing Level (1=low, 5=high)              :                 1             |
 |  Optimisation (0=memory, 3=speed)          :                 3             |
 |  Length Unit                               :               Ang             |
 |  Post-processing setup (write *.nnkp)      :                 F             |
 |  Using Gamma-only branch of algorithms     :                 F             |
 *----------------------------------------------------------------------------*
 *------------------------------- WANNIERISE ---------------------------------*
 |  Total number of iterations                :               500             |
 |  Number of CG steps before reset           :                 5             |
 |  Trial step length for line search         :             2.000             |
 |  Convergence tolerence                     :         0.100E-09             |
 |  Convergence window                        :                -1             |
 |  Iterations between writing output         :                 1             |
 |  Iterations between backing up to disk     :               100             |
 |  Write r^2_nm to file                      :                 F             |
 |  Write xyz WF centres to file              :                 F             |
 |  Write on-site energies <0n|H|0n> to file  :                 F             |
 |  Use guiding centre to control phases      :                 F             |
 |  Use phases for initial projections        :                 F             |
 *----------------------------------------------------------------------------*
 Time to read parameters        0.104 (sec)

 *---------------------------------- K-MESH ----------------------------------*
 +----------------------------------------------------------------------------+
 |                    Distance to Nearest-Neighbour Shells                    |
 |                    ------------------------------------                    |
 |          Shell             Distance (Ang^-1)          Multiplicity         |
 |          -----             -----------------          ------------         |
 |             1                   0.225752                      8            |
 |             2                   0.260676                      6            |
 |             3                   0.368652                     12            |
 |             4                   0.432282                     24            |
 |             5                   0.451504                      8            |
 |             6                   0.521352                      6            |
 |             7                   0.568130                     24            |
 |             8                   0.582889                     24            |
 |             9                   0.638523                     24            |
 |            10                   0.677256                     32            |
 |            11                   0.737303                     12            |
 |            12                   0.771090                     48            |
 |            13                   0.782028                     30            |
 |            14                   0.824330                     24            |
 |            15                   0.854683                     24            |
 |            16                   0.864564                     24            |
 |            17                   0.903008                      8            |
 |            18                   0.930800                     48            |
 |            19                   0.939881                     24            |
 |            20                   0.975360                     48            |
 |            21                   1.001145                     72            |
 |            22                   1.042704                      6            |
 |            23                   1.066863                     24            |
 |            24                   1.074795                     48            |
 |            25                   1.105955                     36            |
 |            26                   1.128760                     56            |
 |            27                   1.136260                     24            |
 |            28                   1.165779                     24            |
 |            29                   1.187436                     72            |
 |            30                   1.194568                     48            |
 |            31                   1.222679                     24            |
 |            32                   1.243345                     48            |
 |            33                   1.277046                     24            |
 |            34                   1.296847                     72            |
 |            35                   1.303380                     30            |
 |            36                   1.329192                     72            |
 +----------------------------------------------------------------------------+
 | The b-vectors are chosen automatically                                     |
 | The following shells are used:   1                                         |
 +----------------------------------------------------------------------------+
 |                        Shell   # Nearest-Neighbours                        |
 |                        -----   --------------------                        |
 |                          1               8                                 |
 +----------------------------------------------------------------------------+
 | Completeness relation is fully satisfied [Eq. (B1), PRB 56, 12847 (1997)]  |
 +----------------------------------------------------------------------------+
 |                  b_k Vectors (Ang^-1) and Weights (Ang^2)                  |
 |                  ----------------------------------------                  |
 |            No.         b_k(x)      b_k(y)      b_k(z)        w_b           |
 |            ---        --------------------------------     --------        |
 |             1        -0.130338    0.130338   -0.130338     7.358138        |
 |             2         0.130338    0.130338    0.130338     7.358138        |
 |             3        -0.130338   -0.130338    0.130338     7.358138        |
 |             4        -0.130338    0.130338    0.130338     7.358138        |
 |             5         0.130338   -0.130338    0.130338     7.358138        |
 |             6        -0.130338   -0.130338   -0.130338     7.358138        |
 |             7         0.130338    0.130338   -0.130338     7.358138        |
 |             8         0.130338   -0.130338   -0.130338     7.358138        |
 +----------------------------------------------------------------------------+
 |                           b_k Directions (Ang^-1)                          |
 |                           -----------------------                          |
 |            No.           x           y           z                         |
 |            ---        --------------------------------                     |
 |             1        -0.130338    0.130338   -0.130338                     |
 |             2         0.130338    0.130338    0.130338                     |
 |             3        -0.130338   -0.130338    0.130338                     |
 |             4        -0.130338    0.130338    0.130338                     |
 +----------------------------------------------------------------------------+
  
 Time to get kmesh              1.039 (sec)
 *============================================================================*
 |                              MEMORY ESTIMATE                               |
 |         Maximum RAM allocated during each phase of the calculation         |
 *============================================================================*
 |                            Wannierise:            1.70 Mb                  |
 |                          plot_wannier:            1.70 Mb                  |
 *----------------------------------------------------------------------------*
  
 Starting a new Wannier90 calculation ...


 Reading overlaps from mp-23703.mmn    :  Created on  3Jan2024 at 14:32:49

 Reading projections from mp-23703.amn :  Created on  3Jan2024 at 14:32:49  with SCDM

 Time to read overlaps          0.055 (sec)

 Writing checkpoint file mp-23703.chk... done

 
 *------------------------------- WANNIERISE ---------------------------------*
 +--------------------------------------------------------------------+<-- CONV
 | Iter  Delta Spread     RMS Gradient      Spread (Ang^2)      Time  |<-- CONV
 +--------------------------------------------------------------------+<-- CONV
 
 ------------------------------------------------------------------------------
 Initial State
  WF centre and spread    1  (  0.000000, -0.000000, -2.008619 )     1.41791470
  Sum of centres and spreads (  0.000000, -0.000000, -2.008619 )     1.41791470
 
      0     0.142E+01     0.0000000000        1.4179150198       0.00  <-- CONV
        O_D=      0.0005259 O_OD=      0.0000000 O_TOT=      1.4179150 <-- SPRD
 ------------------------------------------------------------------------------
 Cycle:      1
  WF centre and spread    1  (  0.000000, -0.000000, -2.008619 )     1.41765560
  Sum of centres and spreads (  0.000000, -0.000000, -2.008619 )     1.41765560
 
      1    -0.259E-03     0.0039060340        1.4176559181       0.00  <-- CONV
        O_D=      0.0002668 O_OD=      0.0000000 O_TOT=      1.4176559 <-- SPRD
 Delta: O_D= -0.2591017E-03 O_OD=  0.0000000E+00 O_TOT= -0.2591017E-03 <-- DLTA
 ------------------------------------------------------------------------------
 Cycle:      2
  WF centre and spread    1  (  0.000000, -0.000000, -2.008619 )     1.41753137
  Sum of centres and spreads (  0.000000, -0.000000, -2.008619 )     1.41753137
 
      2    -0.124E-03     0.0043775461        1.4175316880       0.01  <-- CONV
        O_D=      0.0001425 O_OD=      0.0000000 O_TOT=      1.4175317 <-- SPRD
 Delta: O_D= -0.1242301E-03 O_OD=  0.0000000E+00 O_TOT= -0.1242301E-03 <-- DLTA
 ------------------------------------------------------------------------------
 Cycle:      3
  WF centre and spread    1  (  0.000000, -0.000000, -2.008619 )     1.41746170
  Sum of centres and spreads (  0.000000, -0.000000, -2.008619 )     1.41746170
 
      3    -0.697E-04     0.0035400871        1.4174620213       0.01  <-- CONV
        O_D=      0.0000729 O_OD=      0.0000000 O_TOT=      1.4174620 <-- SPRD
 Delta: O_D= -0.6966670E-04 O_OD=  0.0000000E+00 O_TOT= -0.6966670E-04 <-- DLTA
 ------------------------------------------------------------------------------
 Cycle:      4
  WF centre and spread    1  (  0.000000, -0.000000, -2.008619 )     1.41742098
  Sum of centres and spreads (  0.000000, -0.000000, -2.008619 )     1.41742098
 
      4    -0.407E-04     0.0026641205        1.4174213028       0.01  <-- CONV
        O_D=      0.0000321 O_OD=      0.0000000 O_TOT=      1.4174213 <-- SPRD
 Delta: O_D= -0.4071857E-04 O_OD=  0.0000000E+00 O_TOT= -0.4071857E-04 <-- DLTA
 ------------------------------------------------------------------------------
 Cycle:      5
  WF centre and spread    1  (  0.000000, -0.000000, -2.008619 )     1.41740191
  Sum of centres and spreads (  0.000000, -0.000000, -2.008619 )     1.41740191
 
      5    -0.191E-04     0.0019113078        1.4174022374       0.01  <-- CONV
        O_D=      0.0000131 O_OD=      0.0000000 O_TOT=      1.4174022 <-- SPRD
 Delta: O_D= -0.1906540E-04 O_OD=  0.0000000E+00 O_TOT= -0.1906540E-04 <-- DLTA
 ------------------------------------------------------------------------------
 Cycle:      6
  WF centre and spread    1  (  0.000000, -0.000000, -2.008619 )     1.41739431
  Sum of centres and spreads (  0.000000, -0.000000, -2.008619 )     1.41739431
 
      6    -0.760E-05     0.0012325892        1.4173946377       0.02  <-- CONV
        O_D=      0.0000055 O_OD=      0.0000000 O_TOT=      1.4173946 <-- SPRD
 Delta: O_D= -0.7599633E-05 O_OD=  0.0000000E+00 O_TOT= -0.7599633E-05 <-- DLTA
 ------------------------------------------------------------------------------
 Cycle:      7
  WF centre and spread    1  (  0.000000, -0.000000, -2.008619 )     1.41739205
  Sum of centres and spreads (  0.000000, -0.000000, -2.008619 )     1.41739205
 
      7    -0.226E-05     0.0008023944        1.4173923771       0.02  <-- CONV
        O_D=      0.0000032 O_OD=      0.0000000 O_TOT=      1.4173924 <-- SPRD
 Delta: O_D= -0.2260602E-05 O_OD=  0.0000000E+00 O_TOT= -0.2260602E-05 <-- DLTA
 ------------------------------------------------------------------------------
 Cycle:      8
  WF centre and spread    1  (  0.000000, -0.000000, -2.008619 )     1.41739041
  Sum of centres and spreads (  0.000000, -0.000000, -2.008619 )     1.41739041
 
      8    -0.165E-05     0.0005209124        1.4173907293       0.02  <-- CONV
        O_D=      0.0000016 O_OD=      0.0000000 O_TOT=      1.4173907 <-- SPRD
 Delta: O_D= -0.1647844E-05 O_OD=  0.0000000E+00 O_TOT= -0.1647844E-05 <-- DLTA
 ------------------------------------------------------------------------------
 Cycle:      9
  WF centre and spread    1  (  0.000000, -0.000000, -2.008619 )     1.41738951
  Sum of centres and spreads (  0.000000, -0.000000, -2.008619 )     1.41738951
 
      9    -0.900E-06     0.0004031738        1.4173898293       0.02  <-- CONV
        O_D=      0.0000007 O_OD=      0.0000000 O_TOT=      1.4173898 <-- SPRD
 Delta: O_D= -0.9000151E-06 O_OD=  0.0000000E+00 O_TOT= -0.9000151E-06 <-- DLTA
 ------------------------------------------------------------------------------
 Cycle:     10
  WF centre and spread    1  (  0.000000, -0.000000, -2.008619 )     1.41738914
  Sum of centres and spreads (  0.000000, -0.000000, -2.008619 )     1.41738914
 
     10    -0.362E-06     0.0002724118        1.4173894673       0.02  <-- CONV
        O_D=      0.0000003 O_OD=      0.0000000 O_TOT=      1.4173895 <-- SPRD
 Delta: O_D= -0.3619157E-06 O_OD=  0.0000000E+00 O_TOT= -0.3619157E-06 <-- DLTA
 ------------------------------------------------------------------------------
 Cycle:     11
  WF centre and spread    1  (  0.000000, -0.000000, -2.008619 )     1.41738900
  Sum of centres and spreads (  0.000000, -0.000000, -2.008619 )     1.41738900
 
     11    -0.145E-06     0.0001698976        1.4173893222       0.03  <-- CONV
        O_D=      0.0000002 O_OD=      0.0000000 O_TOT=      1.4173893 <-- SPRD
 Delta: O_D= -0.1451734E-06 O_OD=  0.0000000E+00 O_TOT= -0.1451734E-06 <-- DLTA
 ------------------------------------------------------------------------------
 Cycle:     12
  WF centre and spread    1  (  0.000000, -0.000000, -2.008619 )     1.41738890
  Sum of centres and spreads (  0.000000, -0.000000, -2.008619 )     1.41738890
 
     12    -0.947E-07     0.0001207074        1.4173892275       0.03  <-- CONV
        O_D=      0.0000001 O_OD=      0.0000000 O_TOT=      1.4173892 <-- SPRD
 Delta: O_D= -0.9465824E-07 O_OD=  0.0000000E+00 O_TOT= -0.9465824E-07 <-- DLTA
 ------------------------------------------------------------------------------
 Cycle:     13
  WF centre and spread    1  (  0.000000, -0.000000, -2.008619 )     1.41738889
  Sum of centres and spreads (  0.000000, -0.000000, -2.008619 )     1.41738889
 
     13    -0.173E-07     0.0000752129        1.4173892102       0.03  <-- CONV
        O_D=      0.0000001 O_OD=      0.0000000 O_TOT=      1.4173892 <-- SPRD
 Delta: O_D= -0.1732686E-07 O_OD=  0.0000000E+00 O_TOT= -0.1732686E-07 <-- DLTA
 ------------------------------------------------------------------------------
 Cycle:     14
  WF centre and spread    1  (  0.000000, -0.000000, -2.008619 )     1.41738886
  Sum of centres and spreads (  0.000000, -0.000000, -2.008619 )     1.41738886
 
     14    -0.241E-07     0.0000499377        1.4173891860       0.03  <-- CONV
        O_D=      0.0000000 O_OD=      0.0000000 O_TOT=      1.4173892 <-- SPRD
 Delta: O_D= -0.2414883E-07 O_OD=  0.0000000E+00 O_TOT= -0.2414883E-07 <-- DLTA
 ------------------------------------------------------------------------------
 Cycle:     15
  WF centre and spread    1  (  0.000000, -0.000000, -2.008619 )     1.41738885
  Sum of centres and spreads (  0.000000, -0.000000, -2.008619 )     1.41738885
 
     15    -0.137E-07     0.0000501375        1.4173891724       0.04  <-- CONV
        O_D=      0.0000000 O_OD=      0.0000000 O_TOT=      1.4173892 <-- SPRD
 Delta: O_D= -0.1367203E-07 O_OD=  0.0000000E+00 O_TOT= -0.1367203E-07 <-- DLTA
 ------------------------------------------------------------------------------
 Cycle:     16
  WF centre and spread    1  (  0.000000, -0.000000, -2.008619 )     1.41738884
  Sum of centres and spreads (  0.000000, -0.000000, -2.008619 )     1.41738884
 
     16    -0.109E-07     0.0000387001        1.4173891615       0.04  <-- CONV
        O_D=      0.0000000 O_OD=      0.0000000 O_TOT=      1.4173892 <-- SPRD
 Delta: O_D= -0.1086995E-07 O_OD=  0.0000000E+00 O_TOT= -0.1086995E-07 <-- DLTA
 ------------------------------------------------------------------------------
 Cycle:     17
  WF centre and spread    1  (  0.000000, -0.000000, -2.008619 )     1.41738883
  Sum of centres and spreads (  0.000000, -0.000000, -2.008619 )     1.41738883
 
     17    -0.474E-08     0.0000316023        1.4173891568       0.04  <-- CONV
        O_D=      0.0000000 O_OD=      0.0000000 O_TOT=      1.4173892 <-- SPRD
 Delta: O_D= -0.4742354E-08 O_OD=  0.0000000E+00 O_TOT= -0.4742354E-08 <-- DLTA
 ------------------------------------------------------------------------------
 Cycle:     18
  WF centre and spread    1  (  0.000000, -0.000000, -2.008619 )     1.41738883
  Sum of centres and spreads (  0.000000, -0.000000, -2.008619 )     1.41738883
 
     18    -0.177E-08     0.0000182634        1.4173891550       0.04  <-- CONV
        O_D=      0.0000000 O_OD=      0.0000000 O_TOT=      1.4173892 <-- SPRD
 Delta: O_D= -0.1766713E-08 O_OD=  0.0000000E+00 O_TOT= -0.1766713E-08 <-- DLTA
 ------------------------------------------------------------------------------
 Cycle:     19
  WF centre and spread    1  (  0.000000, -0.000000, -2.008619 )     1.41738883
  Sum of centres and spreads (  0.000000, -0.000000, -2.008619 )     1.41738883
 
     19    -0.781E-09     0.0000144090        1.4173891542       0.04  <-- CONV
        O_D=      0.0000000 O_OD=      0.0000000 O_TOT=      1.4173892 <-- SPRD
 Delta: O_D= -0.7810403E-09 O_OD=  0.0000000E+00 O_TOT= -0.7810403E-09 <-- DLTA
 ------------------------------------------------------------------------------
 Cycle:     20
  WF centre and spread    1  (  0.000000, -0.000000, -2.008619 )     1.41738883
  Sum of centres and spreads (  0.000000, -0.000000, -2.008619 )     1.41738883
 
     20    -0.967E-12     0.0000110369        1.4173891542       0.05  <-- CONV
        O_D=      0.0000000 O_OD=      0.0000000 O_TOT=      1.4173892 <-- SPRD
 Delta: O_D= -0.9671771E-12 O_OD=  0.0000000E+00 O_TOT= -0.9672263E-12 <-- DLTA
 ------------------------------------------------------------------------------
 Cycle:     21
  WF centre and spread    1  (  0.000000, -0.000000, -2.008619 )     1.41738883
  Sum of centres and spreads (  0.000000, -0.000000, -2.008619 )     1.41738883
 
     21    -0.585E-09     0.0000110296        1.4173891536       0.05  <-- CONV
        O_D=      0.0000000 O_OD=      0.0000000 O_TOT=      1.4173892 <-- SPRD
 Delta: O_D= -0.5850936E-09 O_OD=  0.0000000E+00 O_TOT= -0.5850935E-09 <-- DLTA
 ------------------------------------------------------------------------------
 Cycle:     22
  WF centre and spread    1  (  0.000000, -0.000000, -2.008619 )     1.41738883
  Sum of centres and spreads (  0.000000, -0.000000, -2.008619 )     1.41738883
 
     22    -0.615E-12     0.0000090917        1.4173891536       0.05  <-- CONV
        O_D=      0.0000000 O_OD=      0.0000000 O_TOT=      1.4173892 <-- SPRD
 Delta: O_D= -0.6150379E-12 O_OD=  0.0000000E+00 O_TOT= -0.6150636E-12 <-- DLTA
 ------------------------------------------------------------------------------
 Cycle:     23
  WF centre and spread    1  (  0.000000, -0.000000, -2.008619 )     1.41738883
  Sum of centres and spreads (  0.000000, -0.000000, -2.008619 )     1.41738883
 
     23    -0.415E-09     0.0000090901        1.4173891532       0.05  <-- CONV
        O_D=      0.0000000 O_OD=      0.0000000 O_TOT=      1.4173892 <-- SPRD
 Delta: O_D= -0.4154020E-09 O_OD=  0.0000000E+00 O_TOT= -0.4154019E-09 <-- DLTA
 ------------------------------------------------------------------------------
 Cycle:     24
  WF centre and spread    1  (  0.000000, -0.000000, -2.008619 )     1.41738883
  Sum of centres and spreads (  0.000000, -0.000000, -2.008619 )     1.41738883
 
     24    -0.238E-12     0.0000057562        1.4173891532       0.05  <-- CONV
        O_D=      0.0000000 O_OD=      0.0000000 O_TOT=      1.4173892 <-- SPRD
 Delta: O_D= -0.2379242E-12 O_OD=  0.0000000E+00 O_TOT= -0.2380318E-12 <-- DLTA
 ------------------------------------------------------------------------------
 Cycle:     25
  WF centre and spread    1  (  0.000000, -0.000000, -2.008619 )     1.41738883
  Sum of centres and spreads (  0.000000, -0.000000, -2.008619 )     1.41738883
 
     25    -0.281E-12     0.0000057524        1.4173891532       0.05  <-- CONV
        O_D=      0.0000000 O_OD=      0.0000000 O_TOT=      1.4173892 <-- SPRD
 Delta: O_D= -0.2808317E-12 O_OD=  0.0000000E+00 O_TOT= -0.2808864E-12 <-- DLTA
 ------------------------------------------------------------------------------
 Cycle:     26
  WF centre and spread    1  (  0.000000, -0.000000, -2.008619 )     1.41738883
  Sum of centres and spreads (  0.000000, -0.000000, -2.008619 )     1.41738883
 
     26    -0.850E-10     0.0000057429        1.4173891531       0.05  <-- CONV
        O_D=      0.0000000 O_OD=      0.0000000 O_TOT=      1.4173892 <-- SPRD
 Delta: O_D= -0.8502545E-10 O_OD=  0.0000000E+00 O_TOT= -0.8502532E-10 <-- DLTA
 ------------------------------------------------------------------------------
 Cycle:     27
  WF centre and spread    1  (  0.000000, -0.000000, -2.008619 )     1.41738883
  Sum of centres and spreads (  0.000000, -0.000000, -2.008619 )     1.41738883
 
     27    -0.713E-13     0.0000028750        1.4173891531       0.06  <-- CONV
        O_D=      0.0000000 O_OD=      0.0000000 O_TOT=      1.4173892 <-- SPRD
 Delta: O_D= -0.7113712E-13 O_OD=  0.0000000E+00 O_TOT= -0.7127632E-13 <-- DLTA
 ------------------------------------------------------------------------------
 Cycle:     28
  WF centre and spread    1  (  0.000000, -0.000000, -2.008619 )     1.41738883
  Sum of centres and spreads (  0.000000, -0.000000, -2.008619 )     1.41738883
 
     28    -0.141E-12     0.0000028748        1.4173891531       0.06  <-- CONV
        O_D=      0.0000000 O_OD=      0.0000000 O_TOT=      1.4173892 <-- SPRD
 Delta: O_D= -0.1412306E-12 O_OD=  0.0000000E+00 O_TOT= -0.1412204E-12 <-- DLTA
 ------------------------------------------------------------------------------
 Cycle:     29
  WF centre and spread    1  (  0.000000, -0.000000, -2.008619 )     1.41738883
  Sum of centres and spreads (  0.000000, -0.000000, -2.008619 )     1.41738883
 
     29    -0.211E-12     0.0000028722        1.4173891531       0.06  <-- CONV
        O_D=      0.0000000 O_OD=      0.0000000 O_TOT=      1.4173892 <-- SPRD
 Delta: O_D= -0.2108088E-12 O_OD=  0.0000000E+00 O_TOT= -0.2107203E-12 <-- DLTA
 ------------------------------------------------------------------------------
 Cycle:     30
  WF centre and spread    1  (  0.000000, -0.000000, -2.008619 )     1.41738883
  Sum of centres and spreads (  0.000000, -0.000000, -2.008619 )     1.41738883
 
     30    -0.603E-10     0.0000028670        1.4173891531       0.06  <-- CONV
        O_D=      0.0000000 O_OD=      0.0000000 O_TOT=      1.4173892 <-- SPRD
 Delta: O_D= -0.6029215E-10 O_OD=  0.0000000E+00 O_TOT= -0.6029222E-10 <-- DLTA
 ------------------------------------------------------------------------------
 Cycle:     31
  WF centre and spread    1  (  0.000000, -0.000000, -2.008619 )     1.41738883
  Sum of centres and spreads (  0.000000, -0.000000, -2.008619 )     1.41738883
 
     31    -0.542E-13     0.0000025293        1.4173891531       0.06  <-- CONV
        O_D=      0.0000000 O_OD=      0.0000000 O_TOT=      1.4173892 <-- SPRD
 Delta: O_D= -0.5430409E-13 O_OD=  0.0000000E+00 O_TOT= -0.5417888E-13 <-- DLTA
 ------------------------------------------------------------------------------
 Cycle:     32
  WF centre and spread    1  (  0.000000, -0.000000, -2.008619 )     1.41738883
  Sum of centres and spreads (  0.000000, -0.000000, -2.008619 )     1.41738883
 
     32    -0.108E-12     0.0000025259        1.4173891531       0.06  <-- CONV
        O_D=      0.0000000 O_OD=      0.0000000 O_TOT=      1.4173892 <-- SPRD
 Delta: O_D= -0.1081678E-12 O_OD=  0.0000000E+00 O_TOT= -0.1081357E-12 <-- DLTA
 ------------------------------------------------------------------------------
 Cycle:     33
  WF centre and spread    1  (  0.000000, -0.000000, -2.008619 )     1.41738883
  Sum of centres and spreads (  0.000000, -0.000000, -2.008619 )     1.41738883
 
     33    -0.161E-12     0.0000025191        1.4173891531       0.06  <-- CONV
        O_D=      0.0000000 O_OD=      0.0000000 O_TOT=      1.4173892 <-- SPRD
 Delta: O_D= -0.1610136E-12 O_OD=  0.0000000E+00 O_TOT= -0.1612044E-12 <-- DLTA
 ------------------------------------------------------------------------------
 Cycle:     34
  WF centre and spread    1  (  0.000000, -0.000000, -2.008619 )     1.41738883
  Sum of centres and spreads (  0.000000, -0.000000, -2.008619 )     1.41738883
 
     34    -0.198E-10     0.0000025089        1.4173891530       0.06  <-- CONV
        O_D=      0.0000000 O_OD=      0.0000000 O_TOT=      1.4173892 <-- SPRD
 Delta: O_D= -0.1980673E-10 O_OD=  0.0000000E+00 O_TOT= -0.1980660E-10 <-- DLTA
 ------------------------------------------------------------------------------
 Cycle:     35
  WF centre and spread    1  (  0.000000, -0.000000, -2.008619 )     1.41738883
  Sum of centres and spreads (  0.000000, -0.000000, -2.008619 )     1.41738883
 
     35    -0.338E-13     0.0000019072        1.4173891530       0.07  <-- CONV
        O_D=      0.0000000 O_OD=      0.0000000 O_TOT=      1.4173892 <-- SPRD
 Delta: O_D= -0.3378455E-13 O_OD=  0.0000000E+00 O_TOT= -0.3375078E-13 <-- DLTA
 ------------------------------------------------------------------------------
 Cycle:     36
  WF centre and spread    1  (  0.000000, -0.000000, -2.008619 )     1.41738883
  Sum of centres and spreads (  0.000000, -0.000000, -2.008619 )     1.41738883
 
     36    -0.648E-13     0.0000019112        1.4173891530       0.07  <-- CONV
        O_D=      0.0000000 O_OD=      0.0000000 O_TOT=      1.4173892 <-- SPRD
 Delta: O_D= -0.6477790E-13 O_OD=  0.0000000E+00 O_TOT= -0.6483702E-13 <-- DLTA
 ------------------------------------------------------------------------------
 Cycle:     37
  WF centre and spread    1  (  0.000000, -0.000000, -2.008619 )     1.41738883
  Sum of centres and spreads (  0.000000, -0.000000, -2.008619 )     1.41738883
 
     37    -0.311E-13     0.0000019134        1.4173891530       0.07  <-- CONV
        O_D=      0.0000000 O_OD=      0.0000000 O_TOT=      1.4173892 <-- SPRD
 Delta: O_D= -0.3108313E-13 O_OD=  0.0000000E+00 O_TOT= -0.3108624E-13 <-- DLTA
 ------------------------------------------------------------------------------
 Cycle:     38
  WF centre and spread    1  (  0.000000, -0.000000, -2.008619 )     1.41738883
  Sum of centres and spreads (  0.000000, -0.000000, -2.008619 )     1.41738883
 
     38    -0.620E-13     0.0000019116        1.4173891530       0.07  <-- CONV
        O_D=      0.0000000 O_OD=      0.0000000 O_TOT=      1.4173892 <-- SPRD
 Delta: O_D= -0.6198855E-13 O_OD=  0.0000000E+00 O_TOT= -0.6195044E-13 <-- DLTA
 ------------------------------------------------------------------------------
 Cycle:     39
  WF centre and spread    1  (  0.000000, -0.000000, -2.008619 )     1.41738883
  Sum of centres and spreads (  0.000000, -0.000000, -2.008619 )     1.41738883
 
     39    -0.926E-13     0.0000019080        1.4173891530       0.07  <-- CONV
        O_D=      0.0000000 O_OD=      0.0000000 O_TOT=      1.4173892 <-- SPRD
 Delta: O_D= -0.9248264E-13 O_OD=  0.0000000E+00 O_TOT= -0.9259260E-13 <-- DLTA
 ------------------------------------------------------------------------------
 Cycle:     40
  WF centre and spread    1  (  0.000000, -0.000000, -2.008619 )     1.41738883
  Sum of centres and spreads (  0.000000, -0.000000, -2.008619 )     1.41738883
 
     40    -0.122E-12     0.0000019025        1.4173891530       0.07  <-- CONV
        O_D=      0.0000000 O_OD=      0.0000000 O_TOT=      1.4173892 <-- SPRD
 Delta: O_D= -0.1223404E-12 O_OD=  0.0000000E+00 O_TOT= -0.1223466E-12 <-- DLTA
 ------------------------------------------------------------------------------
 Cycle:     41
  WF centre and spread    1  (  0.000000, -0.000000, -2.008619 )     1.41738883
  Sum of centres and spreads (  0.000000, -0.000000, -2.008619 )     1.41738883
 
     41    -0.149E-10     0.0000018954        1.4173891530       0.07  <-- CONV
        O_D=      0.0000000 O_OD=      0.0000000 O_TOT=      1.4173892 <-- SPRD
 Delta: O_D= -0.1487804E-10 O_OD=  0.0000000E+00 O_TOT= -0.1487788E-10 <-- DLTA
 ------------------------------------------------------------------------------
 Cycle:     42
  WF centre and spread    1  (  0.000000, -0.000000, -2.008619 )     1.41738883
  Sum of centres and spreads (  0.000000, -0.000000, -2.008619 )     1.41738883
 
     42    -0.544E-13     0.0000016385        1.4173891530       0.07  <-- CONV
        O_D=      0.0000000 O_OD=      0.0000000 O_TOT=      1.4173892 <-- SPRD
 Delta: O_D= -0.5431889E-13 O_OD=  0.0000000E+00 O_TOT= -0.5440093E-13 <-- DLTA
 ------------------------------------------------------------------------------
 Cycle:     43
  WF centre and spread    1  (  0.000000, -0.000000, -2.008619 )     1.41738883
  Sum of centres and spreads (  0.000000, -0.000000, -2.008619 )     1.41738883
 
     43    -0.229E-13     0.0000016423        1.4173891530       0.08  <-- CONV
        O_D=      0.0000000 O_OD=      0.0000000 O_TOT=      1.4173892 <-- SPRD
 Delta: O_D= -0.2290103E-13 O_OD=  0.0000000E+00 O_TOT= -0.2287059E-13 <-- DLTA
 ------------------------------------------------------------------------------
 Cycle:     44
  WF centre and spread    1  (  0.000000, -0.000000, -2.008619 )     1.41738883
  Sum of centres and spreads (  0.000000, -0.000000, -2.008619 )     1.41738883
 
     44    -0.457E-13     0.0000016411        1.4173891530       0.08  <-- CONV
        O_D=      0.0000000 O_OD=      0.0000000 O_TOT=      1.4173892 <-- SPRD
 Delta: O_D= -0.4570243E-13 O_OD=  0.0000000E+00 O_TOT= -0.4574119E-13 <-- DLTA
 ------------------------------------------------------------------------------
 Cycle:     45
  WF centre and spread    1  (  0.000000, -0.000000, -2.008619 )     1.41738883
  Sum of centres and spreads (  0.000000, -0.000000, -2.008619 )     1.41738883
 
     45    -0.684E-13     0.0000016387        1.4173891530       0.08  <-- CONV
        O_D=      0.0000000 O_OD=      0.0000000 O_TOT=      1.4173892 <-- SPRD
 Delta: O_D= -0.6827299E-13 O_OD=  0.0000000E+00 O_TOT= -0.6838974E-13 <-- DLTA
 ------------------------------------------------------------------------------
 Cycle:     46
  WF centre and spread    1  (  0.000000, -0.000000, -2.008619 )     1.41738883
  Sum of centres and spreads (  0.000000, -0.000000, -2.008619 )     1.41738883
 
     46    -0.904E-13     0.0000016352        1.4173891530       0.08  <-- CONV
        O_D=      0.0000000 O_OD=      0.0000000 O_TOT=      1.4173892 <-- SPRD
 Delta: O_D= -0.9048580E-13 O_OD=  0.0000000E+00 O_TOT= -0.9037215E-13 <-- DLTA
 ------------------------------------------------------------------------------
 Cycle:     47
  WF centre and spread    1  (  0.000000, -0.000000, -2.008619 )     1.41738883
  Sum of centres and spreads (  0.000000, -0.000000, -2.008619 )     1.41738883
 
     47    -0.112E-12     0.0000016305        1.4173891530       0.08  <-- CONV
        O_D=      0.0000000 O_OD=      0.0000000 O_TOT=      1.4173892 <-- SPRD
 Delta: O_D= -0.1122208E-12 O_OD=  0.0000000E+00 O_TOT= -0.1121325E-12 <-- DLTA
 ------------------------------------------------------------------------------
 Cycle:     48
  WF centre and spread    1  (  0.000000, -0.000000, -2.008619 )     1.41738883
  Sum of centres and spreads (  0.000000, -0.000000, -2.008619 )     1.41738883
 
     48    -0.133E-12     0.0000016248        1.4173891530       0.08  <-- CONV
        O_D=      0.0000000 O_OD=      0.0000000 O_TOT=      1.4173892 <-- SPRD
 Delta: O_D= -0.1333669E-12 O_OD=  0.0000000E+00 O_TOT= -0.1334488E-12 <-- DLTA
 ------------------------------------------------------------------------------
 Cycle:     49
  WF centre and spread    1  (  0.000000, -0.000000, -2.008619 )     1.41738883
  Sum of centres and spreads (  0.000000, -0.000000, -2.008619 )     1.41738883
 
     49    -0.222E-13     0.0000016179        1.4173891530       0.08  <-- CONV
        O_D=      0.0000000 O_OD=      0.0000000 O_TOT=      1.4173892 <-- SPRD
 Delta: O_D= -0.2222749E-13 O_OD=  0.0000000E+00 O_TOT= -0.2220446E-13 <-- DLTA
 ------------------------------------------------------------------------------
 Cycle:     50
  WF centre and spread    1  (  0.000000, -0.000000, -2.008619 )     1.41738883
  Sum of centres and spreads (  0.000000, -0.000000, -2.008619 )     1.41738883
 
     50    -0.444E-13     0.0000016168        1.4173891530       0.08  <-- CONV
        O_D=      0.0000000 O_OD=      0.0000000 O_TOT=      1.4173892 <-- SPRD
 Delta: O_D= -0.4436375E-13 O_OD=  0.0000000E+00 O_TOT= -0.4440892E-13 <-- DLTA
 ------------------------------------------------------------------------------
 Cycle:     51
  WF centre and spread    1  (  0.000000, -0.000000, -2.008619 )     1.41738883
  Sum of centres and spreads (  0.000000, -0.000000, -2.008619 )     1.41738883
 
     51    -0.662E-13     0.0000016146        1.4173891530       0.08  <-- CONV
        O_D=      0.0000000 O_OD=      0.0000000 O_TOT=      1.4173892 <-- SPRD
 Delta: O_D= -0.6628863E-13 O_OD=  0.0000000E+00 O_TOT= -0.6616929E-13 <-- DLTA
 ------------------------------------------------------------------------------
 Cycle:     52
  WF centre and spread    1  (  0.000000, -0.000000, -2.008619 )     1.41738883
  Sum of centres and spreads (  0.000000, -0.000000, -2.008619 )     1.41738883
 
     52    -0.879E-13     0.0000016113        1.4173891530       0.08  <-- CONV
        O_D=      0.0000000 O_OD=      0.0000000 O_TOT=      1.4173892 <-- SPRD
 Delta: O_D= -0.8788580E-13 O_OD=  0.0000000E+00 O_TOT= -0.8792966E-13 <-- DLTA
 ------------------------------------------------------------------------------
 Cycle:     53
  WF centre and spread    1  (  0.000000, -0.000000, -2.008619 )     1.41738883
  Sum of centres and spreads (  0.000000, -0.000000, -2.008619 )     1.41738883
 
     53    -0.109E-12     0.0000016070        1.4173891530       0.09  <-- CONV
        O_D=      0.0000000 O_OD=      0.0000000 O_TOT=      1.4173892 <-- SPRD
 Delta: O_D= -0.1090450E-12 O_OD=  0.0000000E+00 O_TOT= -0.1090239E-12 <-- DLTA
 ------------------------------------------------------------------------------
 Cycle:     54
  WF centre and spread    1  (  0.000000, -0.000000, -2.008619 )     1.41738883
  Sum of centres and spreads (  0.000000, -0.000000, -2.008619 )     1.41738883
 
     54    -0.130E-12     0.0000016016        1.4173891530       0.09  <-- CONV
        O_D=      0.0000000 O_OD=      0.0000000 O_TOT=      1.4173892 <-- SPRD
 Delta: O_D= -0.1296642E-12 O_OD=  0.0000000E+00 O_TOT= -0.1296740E-12 <-- DLTA
 ------------------------------------------------------------------------------
 Cycle:     55
  WF centre and spread    1  (  0.000000, -0.000000, -2.008619 )     1.41738883
  Sum of centres and spreads (  0.000000, -0.000000, -2.008619 )     1.41738883
 
     55    -0.218E-13     0.0000015953        1.4173891530       0.09  <-- CONV
        O_D=      0.0000000 O_OD=      0.0000000 O_TOT=      1.4173892 <-- SPRD
 Delta: O_D= -0.2161045E-13 O_OD=  0.0000000E+00 O_TOT= -0.2176037E-13 <-- DLTA
 ------------------------------------------------------------------------------
 Cycle:     56
  WF centre and spread    1  (  0.000000, -0.000000, -2.008619 )     1.41738883
  Sum of centres and spreads (  0.000000, -0.000000, -2.008619 )     1.41738883
 
     56    -0.431E-13     0.0000015943        1.4173891530       0.09  <-- CONV
        O_D=      0.0000000 O_OD=      0.0000000 O_TOT=      1.4173892 <-- SPRD
 Delta: O_D= -0.4313732E-13 O_OD=  0.0000000E+00 O_TOT= -0.4307665E-13 <-- DLTA
 ------------------------------------------------------------------------------
 Cycle:     57
  WF centre and spread    1  (  0.000000, -0.000000, -2.008619 )     1.41738883
  Sum of centres and spreads (  0.000000, -0.000000, -2.008619 )     1.41738883
 
     57    -0.644E-13     0.0000015922        1.4173891530       0.09  <-- CONV
        O_D=      0.0000000 O_OD=      0.0000000 O_TOT=      1.4173892 <-- SPRD
 Delta: O_D= -0.6447049E-13 O_OD=  0.0000000E+00 O_TOT= -0.6439294E-13 <-- DLTA
 ------------------------------------------------------------------------------
 Cycle:     58
  WF centre and spread    1  (  0.000000, -0.000000, -2.008619 )     1.41738883
  Sum of centres and spreads (  0.000000, -0.000000, -2.008619 )     1.41738883
 
     58    -0.855E-13     0.0000015892        1.4173891530       0.09  <-- CONV
        O_D=      0.0000000 O_OD=      0.0000000 O_TOT=      1.4173892 <-- SPRD
 Delta: O_D= -0.8550325E-13 O_OD=  0.0000000E+00 O_TOT= -0.8548717E-13 <-- DLTA
 ------------------------------------------------------------------------------
 Cycle:     59
  WF centre and spread    1  (  0.000000, -0.000000, -2.008619 )     1.41738883
  Sum of centres and spreads (  0.000000, -0.000000, -2.008619 )     1.41738883
 
     59    -0.106E-12     0.0000015851        1.4173891530       0.09  <-- CONV
        O_D=      0.0000000 O_OD=      0.0000000 O_TOT=      1.4173892 <-- SPRD
 Delta: O_D= -0.1061343E-12 O_OD=  0.0000000E+00 O_TOT= -0.1061373E-12 <-- DLTA
 ------------------------------------------------------------------------------
 Cycle:     60
  WF centre and spread    1  (  0.000000, -0.000000, -2.008619 )     1.41738883
  Sum of centres and spreads (  0.000000, -0.000000, -2.008619 )     1.41738883
 
     60    -0.126E-12     0.0000015802        1.4173891530       0.09  <-- CONV
        O_D=      0.0000000 O_OD=      0.0000000 O_TOT=      1.4173892 <-- SPRD
 Delta: O_D= -0.1262698E-12 O_OD=  0.0000000E+00 O_TOT= -0.1263434E-12 <-- DLTA
 ------------------------------------------------------------------------------
 Cycle:     61
  WF centre and spread    1  (  0.000000, -0.000000, -2.008619 )     1.41738883
  Sum of centres and spreads (  0.000000, -0.000000, -2.008619 )     1.41738883
 
     61    -0.211E-13     0.0000015743        1.4173891530       0.09  <-- CONV
        O_D=      0.0000000 O_OD=      0.0000000 O_TOT=      1.4173892 <-- SPRD
 Delta: O_D= -0.2104479E-13 O_OD=  0.0000000E+00 O_TOT= -0.2109424E-13 <-- DLTA
 ------------------------------------------------------------------------------
 Cycle:     62
  WF centre and spread    1  (  0.000000, -0.000000, -2.008619 )     1.41738883
  Sum of centres and spreads (  0.000000, -0.000000, -2.008619 )     1.41738883
 
     62    -0.420E-13     0.0000015733        1.4173891530       0.09  <-- CONV
        O_D=      0.0000000 O_OD=      0.0000000 O_TOT=      1.4173892 <-- SPRD
 Delta: O_D= -0.4201294E-13 O_OD=  0.0000000E+00 O_TOT= -0.4196643E-13 <-- DLTA
 ------------------------------------------------------------------------------
 Cycle:     63
  WF centre and spread    1  (  0.000000, -0.000000, -2.008619 )     1.41738883
  Sum of centres and spreads (  0.000000, -0.000000, -2.008619 )     1.41738883
 
     63    -0.628E-13     0.0000015714        1.4173891530       0.09  <-- CONV
        O_D=      0.0000000 O_OD=      0.0000000 O_TOT=      1.4173892 <-- SPRD
 Delta: O_D= -0.6280346E-13 O_OD=  0.0000000E+00 O_TOT= -0.6283862E-13 <-- DLTA
 ------------------------------------------------------------------------------
 Cycle:     64
  WF centre and spread    1  (  0.000000, -0.000000, -2.008619 )     1.41738883
  Sum of centres and spreads (  0.000000, -0.000000, -2.008619 )     1.41738883
 
     64    -0.833E-13     0.0000015686        1.4173891530       0.10  <-- CONV
        O_D=      0.0000000 O_OD=      0.0000000 O_TOT=      1.4173892 <-- SPRD
 Delta: O_D= -0.8331839E-13 O_OD=  0.0000000E+00 O_TOT= -0.8326673E-13 <-- DLTA
 ------------------------------------------------------------------------------
 Cycle:     65
  WF centre and spread    1  (  0.000000, -0.000000, -2.008619 )     1.41738883
  Sum of centres and spreads (  0.000000, -0.000000, -2.008619 )     1.41738883
 
     65    -0.103E-12     0.0000015648        1.4173891530       0.10  <-- CONV
        O_D=      0.0000000 O_OD=      0.0000000 O_TOT=      1.4173892 <-- SPRD
 Delta: O_D= -0.1034646E-12 O_OD=  0.0000000E+00 O_TOT= -0.1034728E-12 <-- DLTA
 ------------------------------------------------------------------------------
 Cycle:     66
  WF centre and spread    1  (  0.000000, -0.000000, -2.008619 )     1.41738883
  Sum of centres and spreads (  0.000000, -0.000000, -2.008619 )     1.41738883
 
     66    -0.123E-12     0.0000015602        1.4173891530       0.10  <-- CONV
        O_D=      0.0000000 O_OD=      0.0000000 O_TOT=      1.4173892 <-- SPRD
 Delta: O_D= -0.1231557E-12 O_OD=  0.0000000E+00 O_TOT= -0.1232348E-12 <-- DLTA
 ------------------------------------------------------------------------------
 Cycle:     67
  WF centre and spread    1  (  0.000000, -0.000000, -2.008619 )     1.41738883
  Sum of centres and spreads (  0.000000, -0.000000, -2.008619 )     1.41738883
 
     67    -0.204E-13     0.0000015547        1.4173891530       0.10  <-- CONV
        O_D=      0.0000000 O_OD=      0.0000000 O_TOT=      1.4173892 <-- SPRD
 Delta: O_D= -0.2052583E-13 O_OD=  0.0000000E+00 O_TOT= -0.2042810E-13 <-- DLTA
 ------------------------------------------------------------------------------
 Cycle:     68
  WF centre and spread    1  (  0.000000, -0.000000, -2.008619 )     1.41738883
  Sum of centres and spreads (  0.000000, -0.000000, -2.008619 )     1.41738883
 
     68    -0.411E-13     0.0000015538        1.4173891530       0.10  <-- CONV
        O_D=      0.0000000 O_OD=      0.0000000 O_TOT=      1.4173892 <-- SPRD
 Delta: O_D= -0.4098133E-13 O_OD=  0.0000000E+00 O_TOT= -0.4107825E-13 <-- DLTA
 ------------------------------------------------------------------------------
 Cycle:     69
  WF centre and spread    1  (  0.000000, -0.000000, -2.008619 )     1.41738883
  Sum of centres and spreads (  0.000000, -0.000000, -2.008619 )     1.41738883
 
     69    -0.613E-13     0.0000015521        1.4173891530       0.10  <-- CONV
        O_D=      0.0000000 O_OD=      0.0000000 O_TOT=      1.4173892 <-- SPRD
 Delta: O_D= -0.6127380E-13 O_OD=  0.0000000E+00 O_TOT= -0.6128431E-13 <-- DLTA
 ------------------------------------------------------------------------------
 Cycle:     70
  WF centre and spread    1  (  0.000000, -0.000000, -2.008619 )     1.41738883
  Sum of centres and spreads (  0.000000, -0.000000, -2.008619 )     1.41738883
 
     70    -0.813E-13     0.0000015494        1.4173891530       0.10  <-- CONV
        O_D=      0.0000000 O_OD=      0.0000000 O_TOT=      1.4173892 <-- SPRD
 Delta: O_D= -0.8131326E-13 O_OD=  0.0000000E+00 O_TOT= -0.8126833E-13 <-- DLTA
 ------------------------------------------------------------------------------
 Cycle:     71
  WF centre and spread    1  (  0.000000, -0.000000, -2.008619 )     1.41738883
  Sum of centres and spreads (  0.000000, -0.000000, -2.008619 )     1.41738883
 
     71    -0.101E-12     0.0000015460        1.4173891530       0.10  <-- CONV
        O_D=      0.0000000 O_OD=      0.0000000 O_TOT=      1.4173892 <-- SPRD
 Delta: O_D= -0.1010141E-12 O_OD=  0.0000000E+00 O_TOT= -0.1010303E-12 <-- DLTA
 ------------------------------------------------------------------------------
 Cycle:     72
  WF centre and spread    1  (  0.000000, -0.000000, -2.008619 )     1.41738883
  Sum of centres and spreads (  0.000000, -0.000000, -2.008619 )     1.41738883
 
     72    -0.120E-12     0.0000015417        1.4173891530       0.10  <-- CONV
        O_D=      0.0000000 O_OD=      0.0000000 O_TOT=      1.4173892 <-- SPRD
 Delta: O_D= -0.1202964E-12 O_OD=  0.0000000E+00 O_TOT= -0.1203482E-12 <-- DLTA
 ------------------------------------------------------------------------------
 Cycle:     73
  WF centre and spread    1  (  0.000000, -0.000000, -2.008619 )     1.41738883
  Sum of centres and spreads (  0.000000, -0.000000, -2.008619 )     1.41738883
 
     73    -0.200E-13     0.0000015366        1.4173891530       0.10  <-- CONV
        O_D=      0.0000000 O_OD=      0.0000000 O_TOT=      1.4173892 <-- SPRD
 Delta: O_D= -0.2004932E-13 O_OD=  0.0000000E+00 O_TOT= -0.1998401E-13 <-- DLTA
 ------------------------------------------------------------------------------
 Cycle:     74
  WF centre and spread    1  (  0.000000, -0.000000, -2.008619 )     1.41738883
  Sum of centres and spreads (  0.000000, -0.000000, -2.008619 )     1.41738883
 
     74    -0.400E-13     0.0000015357        1.4173891530       0.10  <-- CONV
        O_D=      0.0000000 O_OD=      0.0000000 O_TOT=      1.4173892 <-- SPRD
 Delta: O_D= -0.4003406E-13 O_OD=  0.0000000E+00 O_TOT= -0.3996803E-13 <-- DLTA
 ------------------------------------------------------------------------------
 Cycle:     75
  WF centre and spread    1  (  0.000000, -0.000000, -2.008619 )     1.41738883
  Sum of centres and spreads (  0.000000, -0.000000, -2.008619 )     1.41738883
 
     75    -0.600E-13     0.0000015341        1.4173891530       0.11  <-- CONV
        O_D=      0.0000000 O_OD=      0.0000000 O_TOT=      1.4173892 <-- SPRD
 Delta: O_D= -0.5986904E-13 O_OD=  0.0000000E+00 O_TOT= -0.5995204E-13 <-- DLTA
 ------------------------------------------------------------------------------
 Cycle:     76
  WF centre and spread    1  (  0.000000, -0.000000, -2.008619 )     1.41738883
  Sum of centres and spreads (  0.000000, -0.000000, -2.008619 )     1.41738883
 
     76    -0.795E-13     0.0000015316        1.4173891530       0.11  <-- CONV
        O_D=      0.0000000 O_OD=      0.0000000 O_TOT=      1.4173892 <-- SPRD
 Delta: O_D= -0.7947152E-13 O_OD=  0.0000000E+00 O_TOT= -0.7949197E-13 <-- DLTA
 ------------------------------------------------------------------------------
 Cycle:     77
  WF centre and spread    1  (  0.000000, -0.000000, -2.008619 )     1.41738883
  Sum of centres and spreads (  0.000000, -0.000000, -2.008619 )     1.41738883
 
     77    -0.986E-13     0.0000015284        1.4173891530       0.11  <-- CONV
        O_D=      0.0000000 O_OD=      0.0000000 O_TOT=      1.4173892 <-- SPRD
 Delta: O_D= -0.9876267E-13 O_OD=  0.0000000E+00 O_TOT= -0.9858780E-13 <-- DLTA
 ------------------------------------------------------------------------------
 Cycle:     78
  WF centre and spread    1  (  0.000000, -0.000000, -2.008619 )     1.41738883
  Sum of centres and spreads (  0.000000, -0.000000, -2.008619 )     1.41738883
 
     78    -0.118E-12     0.0000015244        1.4173891530       0.11  <-- CONV
        O_D=      0.0000000 O_OD=      0.0000000 O_TOT=      1.4173892 <-- SPRD
 Delta: O_D= -0.1176689E-12 O_OD=  0.0000000E+00 O_TOT= -0.1176836E-12 <-- DLTA
 ------------------------------------------------------------------------------
 Cycle:     79
  WF centre and spread    1  (  0.000000, -0.000000, -2.008619 )     1.41738883
  Sum of centres and spreads (  0.000000, -0.000000, -2.008619 )     1.41738883
 
     79    -0.198E-13     0.0000015197        1.4173891530       0.11  <-- CONV
        O_D=      0.0000000 O_OD=      0.0000000 O_TOT=      1.4173892 <-- SPRD
 Delta: O_D= -0.1961142E-13 O_OD=  0.0000000E+00 O_TOT= -0.1976197E-13 <-- DLTA
 ------------------------------------------------------------------------------
 Cycle:     80
  WF centre and spread    1  (  0.000000, -0.000000, -2.008619 )     1.41738883
  Sum of centres and spreads (  0.000000, -0.000000, -2.008619 )     1.41738883
 
     80    -0.391E-13     0.0000015189        1.4173891530       0.11  <-- CONV
        O_D=      0.0000000 O_OD=      0.0000000 O_TOT=      1.4173892 <-- SPRD
 Delta: O_D= -0.3916347E-13 O_OD=  0.0000000E+00 O_TOT= -0.3907985E-13 <-- DLTA
 ------------------------------------------------------------------------------
 Cycle:     81
  WF centre and spread    1  (  0.000000, -0.000000, -2.008619 )     1.41738883
  Sum of centres and spreads (  0.000000, -0.000000, -2.008619 )     1.41738883
 
     81    -0.586E-13     0.0000015174        1.4173891530       0.11  <-- CONV
        O_D=      0.0000000 O_OD=      0.0000000 O_TOT=      1.4173892 <-- SPRD
 Delta: O_D= -0.5857781E-13 O_OD=  0.0000000E+00 O_TOT= -0.5861978E-13 <-- DLTA
 ------------------------------------------------------------------------------
 Cycle:     82
  WF centre and spread    1  (  0.000000, -0.000000, -2.008619 )     1.41738883
  Sum of centres and spreads (  0.000000, -0.000000, -2.008619 )     1.41738883
 
     82    -0.777E-13     0.0000015151        1.4173891530       0.11  <-- CONV
        O_D=      0.0000000 O_OD=      0.0000000 O_TOT=      1.4173892 <-- SPRD
 Delta: O_D= -0.7777832E-13 O_OD=  0.0000000E+00 O_TOT= -0.7771561E-13 <-- DLTA
 ------------------------------------------------------------------------------
 Cycle:     83
  WF centre and spread    1  (  0.000000, -0.000000, -2.008619 )     1.41738883
  Sum of centres and spreads (  0.000000, -0.000000, -2.008619 )     1.41738883
 
     83    -0.968E-13     0.0000015121        1.4173891530       0.11  <-- CONV
        O_D=      0.0000000 O_OD=      0.0000000 O_TOT=      1.4173892 <-- SPRD
 Delta: O_D= -0.9669233E-13 O_OD=  0.0000000E+00 O_TOT= -0.9681145E-13 <-- DLTA
 ------------------------------------------------------------------------------
 Cycle:     84
  WF centre and spread    1  (  0.000000, -0.000000, -2.008619 )     1.41738883
  Sum of centres and spreads (  0.000000, -0.000000, -2.008619 )     1.41738883
 
     84    -0.115E-12     0.0000015084        1.4173891530       0.11  <-- CONV
        O_D=      0.0000000 O_OD=      0.0000000 O_TOT=      1.4173892 <-- SPRD
 Delta: O_D= -0.1152519E-12 O_OD=  0.0000000E+00 O_TOT= -0.1152411E-12 <-- DLTA
 ------------------------------------------------------------------------------
 Cycle:     85
  WF centre and spread    1  (  0.000000, -0.000000, -2.008619 )     1.41738883
  Sum of centres and spreads (  0.000000, -0.000000, -2.008619 )     1.41738883
 
     85    -0.191E-13     0.0000015040        1.4173891530       0.11  <-- CONV
        O_D=      0.0000000 O_OD=      0.0000000 O_TOT=      1.4173892 <-- SPRD
 Delta: O_D= -0.1920861E-13 O_OD=  0.0000000E+00 O_TOT= -0.1909584E-13 <-- DLTA
 ------------------------------------------------------------------------------
 Cycle:     86
  WF centre and spread    1  (  0.000000, -0.000000, -2.008619 )     1.41738883
  Sum of centres and spreads (  0.000000, -0.000000, -2.008619 )     1.41738883
 
     86    -0.384E-13     0.0000015033        1.4173891530       0.11  <-- CONV
        O_D=      0.0000000 O_OD=      0.0000000 O_TOT=      1.4173892 <-- SPRD
 Delta: O_D= -0.3836257E-13 O_OD=  0.0000000E+00 O_TOT= -0.3841372E-13 <-- DLTA
 ------------------------------------------------------------------------------
 Cycle:     87
  WF centre and spread    1  (  0.000000, -0.000000, -2.008619 )     1.41738883
  Sum of centres and spreads (  0.000000, -0.000000, -2.008619 )     1.41738883
 
     87    -0.573E-13     0.0000015018        1.4173891530       0.12  <-- CONV
        O_D=      0.0000000 O_OD=      0.0000000 O_TOT=      1.4173892 <-- SPRD
 Delta: O_D= -0.5738980E-13 O_OD=  0.0000000E+00 O_TOT= -0.5728751E-13 <-- DLTA
 ------------------------------------------------------------------------------
 Cycle:     88
  WF centre and spread    1  (  0.000000, -0.000000, -2.008619 )     1.41738883
  Sum of centres and spreads (  0.000000, -0.000000, -2.008619 )     1.41738883
 
     88    -0.764E-13     0.0000014997        1.4173891530       0.12  <-- CONV
        O_D=      0.0000000 O_OD=      0.0000000 O_TOT=      1.4173892 <-- SPRD
 Delta: O_D= -0.7622015E-13 O_OD=  0.0000000E+00 O_TOT= -0.7638334E-13 <-- DLTA
 ------------------------------------------------------------------------------
 Cycle:     89
  WF centre and spread    1  (  0.000000, -0.000000, -2.008619 )     1.41738883
  Sum of centres and spreads (  0.000000, -0.000000, -2.008619 )     1.41738883
 
     89    -0.948E-13     0.0000014969        1.4173891530       0.12  <-- CONV
        O_D=      0.0000000 O_OD=      0.0000000 O_TOT=      1.4173892 <-- SPRD
 Delta: O_D= -0.9478660E-13 O_OD=  0.0000000E+00 O_TOT= -0.9481305E-13 <-- DLTA
 ------------------------------------------------------------------------------
 Cycle:     90
  WF centre and spread    1  (  0.000000, -0.000000, -2.008619 )     1.41738883
  Sum of centres and spreads (  0.000000, -0.000000, -2.008619 )     1.41738883
 
     90    -0.113E-12     0.0000014935        1.4173891530       0.12  <-- CONV
        O_D=      0.0000000 O_OD=      0.0000000 O_TOT=      1.4173892 <-- SPRD
 Delta: O_D= -0.1130263E-12 O_OD=  0.0000000E+00 O_TOT= -0.1130207E-12 <-- DLTA
 ------------------------------------------------------------------------------
 Cycle:     91
  WF centre and spread    1  (  0.000000, -0.000000, -2.008619 )     1.41738883
  Sum of centres and spreads (  0.000000, -0.000000, -2.008619 )     1.41738883
 
     91    -0.187E-13     0.0000014894        1.4173891530       0.12  <-- CONV
        O_D=      0.0000000 O_OD=      0.0000000 O_TOT=      1.4173892 <-- SPRD
 Delta: O_D= -0.1883769E-13 O_OD=  0.0000000E+00 O_TOT= -0.1865175E-13 <-- DLTA
 ------------------------------------------------------------------------------
 Cycle:     92
  WF centre and spread    1  (  0.000000, -0.000000, -2.008619 )     1.41738883
  Sum of centres and spreads (  0.000000, -0.000000, -2.008619 )     1.41738883
 
     92    -0.377E-13     0.0000014887        1.4173891530       0.12  <-- CONV
        O_D=      0.0000000 O_OD=      0.0000000 O_TOT=      1.4173892 <-- SPRD
 Delta: O_D= -0.3762504E-13 O_OD=  0.0000000E+00 O_TOT= -0.3774758E-13 <-- DLTA
 ------------------------------------------------------------------------------
 Cycle:     93
  WF centre and spread    1  (  0.000000, -0.000000, -2.008619 )     1.41738883
  Sum of centres and spreads (  0.000000, -0.000000, -2.008619 )     1.41738883
 
     93    -0.562E-13     0.0000014874        1.4173891530       0.12  <-- CONV
        O_D=      0.0000000 O_OD=      0.0000000 O_TOT=      1.4173892 <-- SPRD
 Delta: O_D= -0.5629562E-13 O_OD=  0.0000000E+00 O_TOT= -0.5617729E-13 <-- DLTA
 ------------------------------------------------------------------------------
 Cycle:     94
  WF centre and spread    1  (  0.000000, -0.000000, -2.008619 )     1.41738883
  Sum of centres and spreads (  0.000000, -0.000000, -2.008619 )     1.41738883
 
     94    -0.748E-13     0.0000014854        1.4173891530       0.12  <-- CONV
        O_D=      0.0000000 O_OD=      0.0000000 O_TOT=      1.4173892 <-- SPRD
 Delta: O_D= -0.7478473E-13 O_OD=  0.0000000E+00 O_TOT= -0.7482903E-13 <-- DLTA
 ------------------------------------------------------------------------------
 Cycle:     95
  WF centre and spread    1  (  0.000000, -0.000000, -2.008619 )     1.41738883
  Sum of centres and spreads (  0.000000, -0.000000, -2.008619 )     1.41738883
 
     95    -0.930E-13     0.0000014828        1.4173891530       0.12  <-- CONV
        O_D=      0.0000000 O_OD=      0.0000000 O_TOT=      1.4173892 <-- SPRD
 Delta: O_D= -0.9303051E-13 O_OD=  0.0000000E+00 O_TOT= -0.9303669E-13 <-- DLTA
 ------------------------------------------------------------------------------
 Cycle:     96
  WF centre and spread    1  (  0.000000, -0.000000, -2.008619 )     1.41738883
  Sum of centres and spreads (  0.000000, -0.000000, -2.008619 )     1.41738883
 
     96    -0.111E-12     0.0000014796        1.4173891530       0.12  <-- CONV
        O_D=      0.0000000 O_OD=      0.0000000 O_TOT=      1.4173892 <-- SPRD
 Delta: O_D= -0.1109748E-12 O_OD=  0.0000000E+00 O_TOT= -0.1110223E-12 <-- DLTA
 ------------------------------------------------------------------------------
 Cycle:     97
  WF centre and spread    1  (  0.000000, -0.000000, -2.008619 )     1.41738883
  Sum of centres and spreads (  0.000000, -0.000000, -2.008619 )     1.41738883
 
     97    -0.184E-13     0.0000014758        1.4173891530       0.12  <-- CONV
        O_D=      0.0000000 O_OD=      0.0000000 O_TOT=      1.4173892 <-- SPRD
 Delta: O_D= -0.1849577E-13 O_OD=  0.0000000E+00 O_TOT= -0.1842970E-13 <-- DLTA
 ------------------------------------------------------------------------------
 Cycle:     98
  WF centre and spread    1  (  0.000000, -0.000000, -2.008619 )     1.41738883
  Sum of centres and spreads (  0.000000, -0.000000, -2.008619 )     1.41738883
 
     98    -0.371E-13     0.0000014752        1.4173891530       0.12  <-- CONV
        O_D=      0.0000000 O_OD=      0.0000000 O_TOT=      1.4173892 <-- SPRD
 Delta: O_D= -0.3694511E-13 O_OD=  0.0000000E+00 O_TOT= -0.3708145E-13 <-- DLTA
 ------------------------------------------------------------------------------
 Cycle:     99
  WF centre and spread    1  (  0.000000, -0.000000, -2.008619 )     1.41738883
  Sum of centres and spreads (  0.000000, -0.000000, -2.008619 )     1.41738883
 
     99    -0.553E-13     0.0000014739        1.4173891530       0.13  <-- CONV
        O_D=      0.0000000 O_OD=      0.0000000 O_TOT=      1.4173892 <-- SPRD
 Delta: O_D= -0.5528673E-13 O_OD=  0.0000000E+00 O_TOT= -0.5528911E-13 <-- DLTA
 ------------------------------------------------------------------------------
 Cycle:    100
  WF centre and spread    1  (  0.000000, -0.000000, -2.008619 )     1.41738883
  Sum of centres and spreads (  0.000000, -0.000000, -2.008619 )     1.41738883
 
    100    -0.733E-13     0.0000014721        1.4173891530       0.13  <-- CONV
        O_D=      0.0000000 O_OD=      0.0000000 O_TOT=      1.4173892 <-- SPRD
 Delta: O_D= -0.7346092E-13 O_OD=  0.0000000E+00 O_TOT= -0.7327472E-13 <-- DLTA
 ------------------------------------------------------------------------------

 Writing checkpoint file mp-23703.chk... done

 Cycle:    101
  WF centre and spread    1  (  0.000000, -0.000000, -2.008619 )     1.41738883
  Sum of centres and spreads (  0.000000, -0.000000, -2.008619 )     1.41738883
 
    101    -0.915E-13     0.0000014697        1.4173891530       0.13  <-- CONV
        O_D=      0.0000000 O_OD=      0.0000000 O_TOT=      1.4173892 <-- SPRD
 Delta: O_D= -0.9141045E-13 O_OD=  0.0000000E+00 O_TOT= -0.9148238E-13 <-- DLTA
 ------------------------------------------------------------------------------
 Cycle:    102
  WF centre and spread    1  (  0.000000, -0.000000, -2.008619 )     1.41738883
  Sum of centres and spreads (  0.000000, -0.000000, -2.008619 )     1.41738883
 
    102    -0.109E-12     0.0000014667        1.4173891530       0.13  <-- CONV
        O_D=      0.0000000 O_OD=      0.0000000 O_TOT=      1.4173892 <-- SPRD
 Delta: O_D= -0.1090815E-12 O_OD=  0.0000000E+00 O_TOT= -0.1090239E-12 <-- DLTA
 ------------------------------------------------------------------------------
 Cycle:    103
  WF centre and spread    1  (  0.000000, -0.000000, -2.008619 )     1.41738883
  Sum of centres and spreads (  0.000000, -0.000000, -2.008619 )     1.41738883
 
    103    -0.182E-13     0.0000014631        1.4173891530       0.13  <-- CONV
        O_D=      0.0000000 O_OD=      0.0000000 O_TOT=      1.4173892 <-- SPRD
 Delta: O_D= -0.1818021E-13 O_OD=  0.0000000E+00 O_TOT= -0.1820766E-13 <-- DLTA
 ------------------------------------------------------------------------------
 Cycle:    104
  WF centre and spread    1  (  0.000000, -0.000000, -2.008619 )     1.41738883
  Sum of centres and spreads (  0.000000, -0.000000, -2.008619 )     1.41738883
 
    104    -0.364E-13     0.0000014626        1.4173891530       0.13  <-- CONV
        O_D=      0.0000000 O_OD=      0.0000000 O_TOT=      1.4173892 <-- SPRD
 Delta: O_D= -0.3631755E-13 O_OD=  0.0000000E+00 O_TOT= -0.3641532E-13 <-- DLTA
 ------------------------------------------------------------------------------
 Cycle:    105
  WF centre and spread    1  (  0.000000, -0.000000, -2.008619 )     1.41738883
  Sum of centres and spreads (  0.000000, -0.000000, -2.008619 )     1.41738883
 
    105    -0.544E-13     0.0000014614        1.4173891530       0.13  <-- CONV
        O_D=      0.0000000 O_OD=      0.0000000 O_TOT=      1.4173892 <-- SPRD
 Delta: O_D= -0.5435540E-13 O_OD=  0.0000000E+00 O_TOT= -0.5440093E-13 <-- DLTA
 ------------------------------------------------------------------------------
 Cycle:    106
  WF centre and spread    1  (  0.000000, -0.000000, -2.008619 )     1.41738883
  Sum of centres and spreads (  0.000000, -0.000000, -2.008619 )     1.41738883
 
    106    -0.722E-13     0.0000014597        1.4173891530       0.13  <-- CONV
        O_D=      0.0000000 O_OD=      0.0000000 O_TOT=      1.4173892 <-- SPRD
 Delta: O_D= -0.7223855E-13 O_OD=  0.0000000E+00 O_TOT= -0.7216450E-13 <-- DLTA
 ------------------------------------------------------------------------------
 Cycle:    107
  WF centre and spread    1  (  0.000000, -0.000000, -2.008619 )     1.41738883
  Sum of centres and spreads (  0.000000, -0.000000, -2.008619 )     1.41738883
 
    107    -0.899E-13     0.0000014574        1.4173891530       0.13  <-- CONV
        O_D=      0.0000000 O_OD=      0.0000000 O_TOT=      1.4173892 <-- SPRD
 Delta: O_D= -0.8991406E-13 O_OD=  0.0000000E+00 O_TOT= -0.8992806E-13 <-- DLTA
 ------------------------------------------------------------------------------
 Cycle:    108
  WF centre and spread    1  (  0.000000, -0.000000, -2.008619 )     1.41738883
  Sum of centres and spreads (  0.000000, -0.000000, -2.008619 )     1.41738883
 
    108    -0.107E-12     0.0000014547        1.4173891530       0.13  <-- CONV
        O_D=      0.0000000 O_OD=      0.0000000 O_TOT=      1.4173892 <-- SPRD
 Delta: O_D= -0.1073320E-12 O_OD=  0.0000000E+00 O_TOT= -0.1072475E-12 <-- DLTA
 ------------------------------------------------------------------------------
 Cycle:    109
  WF centre and spread    1  (  0.000000, -0.000000, -2.008619 )     1.41738883
  Sum of centres and spreads (  0.000000, -0.000000, -2.008619 )     1.41738883
 
    109    -0.180E-13     0.0000014514        1.4173891530       0.14  <-- CONV
        O_D=      0.0000000 O_OD=      0.0000000 O_TOT=      1.4173892 <-- SPRD
 Delta: O_D= -0.1788862E-13 O_OD=  0.0000000E+00 O_TOT= -0.1798561E-13 <-- DLTA
 ------------------------------------------------------------------------------
 Cycle:    110
  WF centre and spread    1  (  0.000000, -0.000000, -2.008619 )     1.41738883
  Sum of centres and spreads (  0.000000, -0.000000, -2.008619 )     1.41738883
 
    110    -0.357E-13     0.0000014508        1.4173891530       0.14  <-- CONV
        O_D=      0.0000000 O_OD=      0.0000000 O_TOT=      1.4173892 <-- SPRD
 Delta: O_D= -0.3573760E-13 O_OD=  0.0000000E+00 O_TOT= -0.3574918E-13 <-- DLTA
 ------------------------------------------------------------------------------
 Cycle:    111
  WF centre and spread    1  (  0.000000, -0.000000, -2.008619 )     1.41738883
  Sum of centres and spreads (  0.000000, -0.000000, -2.008619 )     1.41738883
 
    111    -0.535E-13     0.0000014497        1.4173891530       0.14  <-- CONV
        O_D=      0.0000000 O_OD=      0.0000000 O_TOT=      1.4173892 <-- SPRD
 Delta: O_D= -0.5349456E-13 O_OD=  0.0000000E+00 O_TOT= -0.5351275E-13 <-- DLTA
 ------------------------------------------------------------------------------
 Cycle:    112
  WF centre and spread    1  (  0.000000, -0.000000, -2.008619 )     1.41738883
  Sum of centres and spreads (  0.000000, -0.000000, -2.008619 )     1.41738883
 
    112    -0.711E-13     0.0000014482        1.4173891530       0.14  <-- CONV
        O_D=      0.0000000 O_OD=      0.0000000 O_TOT=      1.4173892 <-- SPRD
 Delta: O_D= -0.7110842E-13 O_OD=  0.0000000E+00 O_TOT= -0.7105427E-13 <-- DLTA
 ------------------------------------------------------------------------------
 Cycle:    113
  WF centre and spread    1  (  0.000000, -0.000000, -2.008619 )     1.41738883
  Sum of centres and spreads (  0.000000, -0.000000, -2.008619 )     1.41738883
 
    113    -0.886E-13     0.0000014460        1.4173891530       0.14  <-- CONV
        O_D=      0.0000000 O_OD=      0.0000000 O_TOT=      1.4173892 <-- SPRD
 Delta: O_D= -0.8853010E-13 O_OD=  0.0000000E+00 O_TOT= -0.8859580E-13 <-- DLTA
 ------------------------------------------------------------------------------
 Cycle:    114
  WF centre and spread    1  (  0.000000, -0.000000, -2.008619 )     1.41738883
  Sum of centres and spreads (  0.000000, -0.000000, -2.008619 )     1.41738883
 
    114    -0.106E-12     0.0000014434        1.4173891530       0.14  <-- CONV
        O_D=      0.0000000 O_OD=      0.0000000 O_TOT=      1.4173892 <-- SPRD
 Delta: O_D= -0.1057133E-12 O_OD=  0.0000000E+00 O_TOT= -0.1056932E-12 <-- DLTA
 ------------------------------------------------------------------------------
 Cycle:    115
  WF centre and spread    1  (  0.000000, -0.000000, -2.008619 )     1.41738883
  Sum of centres and spreads (  0.000000, -0.000000, -2.008619 )     1.41738883
 
    115    -0.175E-13     0.0000014404        1.4173891530       0.14  <-- CONV
        O_D=      0.0000000 O_OD=      0.0000000 O_TOT=      1.4173892 <-- SPRD
 Delta: O_D= -0.1761881E-13 O_OD=  0.0000000E+00 O_TOT= -0.1754152E-13 <-- DLTA
 ------------------------------------------------------------------------------
 Cycle:    116
  WF centre and spread    1  (  0.000000, -0.000000, -2.008619 )     1.41738883
  Sum of centres and spreads (  0.000000, -0.000000, -2.008619 )     1.41738883
 
    116    -0.353E-13     0.0000014399        1.4173891530       0.14  <-- CONV
        O_D=      0.0000000 O_OD=      0.0000000 O_TOT=      1.4173892 <-- SPRD
 Delta: O_D= -0.3520092E-13 O_OD=  0.0000000E+00 O_TOT= -0.3530509E-13 <-- DLTA
 ------------------------------------------------------------------------------
 Cycle:    117
  WF centre and spread    1  (  0.000000, -0.000000, -2.008619 )     1.41738883
  Sum of centres and spreads (  0.000000, -0.000000, -2.008619 )     1.41738883
 
    117    -0.526E-13     0.0000014389        1.4173891530       0.14  <-- CONV
        O_D=      0.0000000 O_OD=      0.0000000 O_TOT=      1.4173892 <-- SPRD
 Delta: O_D= -0.5269781E-13 O_OD=  0.0000000E+00 O_TOT= -0.5262457E-13 <-- DLTA
 ------------------------------------------------------------------------------
 Cycle:    118
  WF centre and spread    1  (  0.000000, -0.000000, -2.008619 )     1.41738883
  Sum of centres and spreads (  0.000000, -0.000000, -2.008619 )     1.41738883
 
    118    -0.702E-13     0.0000014374        1.4173891530       0.14  <-- CONV
        O_D=      0.0000000 O_OD=      0.0000000 O_TOT=      1.4173892 <-- SPRD
 Delta: O_D= -0.7006213E-13 O_OD=  0.0000000E+00 O_TOT= -0.7016610E-13 <-- DLTA
 ------------------------------------------------------------------------------
 Cycle:    119
  WF centre and spread    1  (  0.000000, -0.000000, -2.008619 )     1.41738883
  Sum of centres and spreads (  0.000000, -0.000000, -2.008619 )     1.41738883
 
    119    -0.870E-13     0.0000014354        1.4173891530       0.14  <-- CONV
        O_D=      0.0000000 O_OD=      0.0000000 O_TOT=      1.4173892 <-- SPRD
 Delta: O_D= -0.8724835E-13 O_OD=  0.0000000E+00 O_TOT= -0.8704149E-13 <-- DLTA
 ------------------------------------------------------------------------------
 Cycle:    120
  WF centre and spread    1  (  0.000000, -0.000000, -2.008619 )     1.41738883
  Sum of centres and spreads (  0.000000, -0.000000, -2.008619 )     1.41738883
 
    120    -0.104E-12     0.0000014330        1.4173891530       0.14  <-- CONV
        O_D=      0.0000000 O_OD=      0.0000000 O_TOT=      1.4173892 <-- SPRD
 Delta: O_D= -0.1042134E-12 O_OD=  0.0000000E+00 O_TOT= -0.1043610E-12 <-- DLTA
 ------------------------------------------------------------------------------
 Cycle:    121
  WF centre and spread    1  (  0.000000, -0.000000, -2.008619 )     1.41738883
  Sum of centres and spreads (  0.000000, -0.000000, -2.008619 )     1.41738883
 
    121    -0.173E-13     0.0000014301        1.4173891530       0.15  <-- CONV
        O_D=      0.0000000 O_OD=      0.0000000 O_TOT=      1.4173892 <-- SPRD
 Delta: O_D= -0.1736882E-13 O_OD=  0.0000000E+00 O_TOT= -0.1731948E-13 <-- DLTA
 ------------------------------------------------------------------------------
 Cycle:    122
  WF centre and spread    1  (  0.000000, -0.000000, -2.008619 )     1.41738883
  Sum of centres and spreads (  0.000000, -0.000000, -2.008619 )     1.41738883
 
    122    -0.346E-13     0.0000014296        1.4173891530       0.15  <-- CONV
        O_D=      0.0000000 O_OD=      0.0000000 O_TOT=      1.4173892 <-- SPRD
 Delta: O_D= -0.3470359E-13 O_OD=  0.0000000E+00 O_TOT= -0.3463896E-13 <-- DLTA
 ------------------------------------------------------------------------------
 Cycle:    123
  WF centre and spread    1  (  0.000000, -0.000000, -2.008619 )     1.41738883
  Sum of centres and spreads (  0.000000, -0.000000, -2.008619 )     1.41738883
 
    123    -0.520E-13     0.0000014287        1.4173891530       0.15  <-- CONV
        O_D=      0.0000000 O_OD=      0.0000000 O_TOT=      1.4173892 <-- SPRD
 Delta: O_D= -0.5195934E-13 O_OD=  0.0000000E+00 O_TOT= -0.5195844E-13 <-- DLTA
 ------------------------------------------------------------------------------
 Cycle:    124
  WF centre and spread    1  (  0.000000, -0.000000, -2.008619 )     1.41738883
  Sum of centres and spreads (  0.000000, -0.000000, -2.008619 )     1.41738883
 
    124    -0.691E-13     0.0000014273        1.4173891530       0.15  <-- CONV
        O_D=      0.0000000 O_OD=      0.0000000 O_TOT=      1.4173892 <-- SPRD
 Delta: O_D= -0.6909209E-13 O_OD=  0.0000000E+00 O_TOT= -0.6905587E-13 <-- DLTA
 ------------------------------------------------------------------------------
 Cycle:    125
  WF centre and spread    1  (  0.000000, -0.000000, -2.008619 )     1.41738883
  Sum of centres and spreads (  0.000000, -0.000000, -2.008619 )     1.41738883
 
    125    -0.862E-13     0.0000014255        1.4173891530       0.15  <-- CONV
        O_D=      0.0000000 O_OD=      0.0000000 O_TOT=      1.4173892 <-- SPRD
 Delta: O_D= -0.8605952E-13 O_OD=  0.0000000E+00 O_TOT= -0.8615331E-13 <-- DLTA
 ------------------------------------------------------------------------------
 Cycle:    126
  WF centre and spread    1  (  0.000000, -0.000000, -2.008619 )     1.41738883
  Sum of centres and spreads (  0.000000, -0.000000, -2.008619 )     1.41738883
 
    126    -0.103E-12     0.0000014232        1.4173891530       0.15  <-- CONV
        O_D=      0.0000000 O_OD=      0.0000000 O_TOT=      1.4173892 <-- SPRD
 Delta: O_D= -0.1028215E-12 O_OD=  0.0000000E+00 O_TOT= -0.1028067E-12 <-- DLTA
 ------------------------------------------------------------------------------
 Cycle:    127
  WF centre and spread    1  (  0.000000, -0.000000, -2.008619 )     1.41738883
  Sum of centres and spreads (  0.000000, -0.000000, -2.008619 )     1.41738883
 
    127    -0.171E-13     0.0000014205        1.4173891530       0.15  <-- CONV
        O_D=      0.0000000 O_OD=      0.0000000 O_TOT=      1.4173892 <-- SPRD
 Delta: O_D= -0.1713683E-13 O_OD=  0.0000000E+00 O_TOT= -0.1709743E-13 <-- DLTA
 ------------------------------------------------------------------------------
 Cycle:    128
  WF centre and spread    1  (  0.000000, -0.000000, -2.008619 )     1.41738883
  Sum of centres and spreads (  0.000000, -0.000000, -2.008619 )     1.41738883
 
    128    -0.342E-13     0.0000014201        1.4173891530       0.15  <-- CONV
        O_D=      0.0000000 O_OD=      0.0000000 O_TOT=      1.4173892 <-- SPRD
 Delta: O_D= -0.3424204E-13 O_OD=  0.0000000E+00 O_TOT= -0.3419487E-13 <-- DLTA
[...]
  Sum of centres and spreads (  0.000000, -0.000000, -2.008619 )     1.41738883
 
    464    -0.251E-13     0.0000012171        1.4173891530       0.44  <-- CONV
        O_D=      0.0000000 O_OD=      0.0000000 O_TOT=      1.4173892 <-- SPRD
 Delta: O_D= -0.2516263E-13 O_OD=  0.0000000E+00 O_TOT= -0.2509104E-13 <-- DLTA
 ------------------------------------------------------------------------------
 Cycle:    465
  WF centre and spread    1  (  0.000000, -0.000000, -2.008619 )     1.41738883
  Sum of centres and spreads (  0.000000, -0.000000, -2.008619 )     1.41738883
 
    465    -0.377E-13     0.0000012169        1.4173891530       0.44  <-- CONV
        O_D=      0.0000000 O_OD=      0.0000000 O_TOT=      1.4173892 <-- SPRD
 Delta: O_D= -0.3772542E-13 O_OD=  0.0000000E+00 O_TOT= -0.3774758E-13 <-- DLTA
 ------------------------------------------------------------------------------
 Cycle:    466
  WF centre and spread    1  (  0.000000, -0.000000, -2.008619 )     1.41738883
  Sum of centres and spreads (  0.000000, -0.000000, -2.008619 )     1.41738883
 
    466    -0.502E-13     0.0000012166        1.4173891530       0.45  <-- CONV
        O_D=      0.0000000 O_OD=      0.0000000 O_TOT=      1.4173892 <-- SPRD
 Delta: O_D= -0.5026425E-13 O_OD=  0.0000000E+00 O_TOT= -0.5018208E-13 <-- DLTA
 ------------------------------------------------------------------------------
 Cycle:    467
  WF centre and spread    1  (  0.000000, -0.000000, -2.008619 )     1.41738883
  Sum of centres and spreads (  0.000000, -0.000000, -2.008619 )     1.41738883
 
    467    -0.628E-13     0.0000012162        1.4173891530       0.45  <-- CONV
        O_D=      0.0000000 O_OD=      0.0000000 O_TOT=      1.4173892 <-- SPRD
 Delta: O_D= -0.6277048E-13 O_OD=  0.0000000E+00 O_TOT= -0.6283862E-13 <-- DLTA
 ------------------------------------------------------------------------------
 Cycle:    468
  WF centre and spread    1  (  0.000000, -0.000000, -2.008619 )     1.41738883
  Sum of centres and spreads (  0.000000, -0.000000, -2.008619 )     1.41738883
 
    468    -0.753E-13     0.0000012156        1.4173891530       0.45  <-- CONV
        O_D=      0.0000000 O_OD=      0.0000000 O_TOT=      1.4173892 <-- SPRD
 Delta: O_D= -0.7523550E-13 O_OD=  0.0000000E+00 O_TOT= -0.7527312E-13 <-- DLTA
 ------------------------------------------------------------------------------
 Cycle:    469
  WF centre and spread    1  (  0.000000, -0.000000, -2.008619 )     1.41738883
  Sum of centres and spreads (  0.000000, -0.000000, -2.008619 )     1.41738883
 
    469    -0.124E-13     0.0000012150        1.4173891530       0.45  <-- CONV
        O_D=      0.0000000 O_OD=      0.0000000 O_TOT=      1.4173892 <-- SPRD
 Delta: O_D= -0.1253890E-13 O_OD=  0.0000000E+00 O_TOT= -0.1243450E-13 <-- DLTA
 ------------------------------------------------------------------------------
 Cycle:    470
  WF centre and spread    1  (  0.000000, -0.000000, -2.008619 )     1.41738883
  Sum of centres and spreads (  0.000000, -0.000000, -2.008619 )     1.41738883
 
    470    -0.251E-13     0.0000012149        1.4173891530       0.45  <-- CONV
        O_D=      0.0000000 O_OD=      0.0000000 O_TOT=      1.4173892 <-- SPRD
 Delta: O_D= -0.2507129E-13 O_OD=  0.0000000E+00 O_TOT= -0.2509104E-13 <-- DLTA
 ------------------------------------------------------------------------------
 Cycle:    471
  WF centre and spread    1  (  0.000000, -0.000000, -2.008619 )     1.41738883
  Sum of centres and spreads (  0.000000, -0.000000, -2.008619 )     1.41738883
 
    471    -0.375E-13     0.0000012147        1.4173891530       0.45  <-- CONV
        O_D=      0.0000000 O_OD=      0.0000000 O_TOT=      1.4173892 <-- SPRD
 Delta: O_D= -0.3758850E-13 O_OD=  0.0000000E+00 O_TOT= -0.3752554E-13 <-- DLTA
 ------------------------------------------------------------------------------
 Cycle:    472
  WF centre and spread    1  (  0.000000, -0.000000, -2.008619 )     1.41738883
  Sum of centres and spreads (  0.000000, -0.000000, -2.008619 )     1.41738883
 
    472    -0.502E-13     0.0000012144        1.4173891530       0.45  <-- CONV
        O_D=      0.0000000 O_OD=      0.0000000 O_TOT=      1.4173892 <-- SPRD
 Delta: O_D= -0.5008189E-13 O_OD=  0.0000000E+00 O_TOT= -0.5018208E-13 <-- DLTA
 ------------------------------------------------------------------------------
 Cycle:    473
  WF centre and spread    1  (  0.000000, -0.000000, -2.008619 )     1.41738883
  Sum of centres and spreads (  0.000000, -0.000000, -2.008619 )     1.41738883
 
    473    -0.626E-13     0.0000012140        1.4173891530       0.45  <-- CONV
        O_D=      0.0000000 O_OD=      0.0000000 O_TOT=      1.4173892 <-- SPRD
 Delta: O_D= -0.6254285E-13 O_OD=  0.0000000E+00 O_TOT= -0.6261658E-13 <-- DLTA
 ------------------------------------------------------------------------------
 Cycle:    474
  WF centre and spread    1  (  0.000000, -0.000000, -2.008619 )     1.41738883
  Sum of centres and spreads (  0.000000, -0.000000, -2.008619 )     1.41738883
 
    474    -0.748E-13     0.0000012134        1.4173891530       0.45  <-- CONV
        O_D=      0.0000000 O_OD=      0.0000000 O_TOT=      1.4173892 <-- SPRD
 Delta: O_D= -0.7496283E-13 O_OD=  0.0000000E+00 O_TOT= -0.7482903E-13 <-- DLTA
 ------------------------------------------------------------------------------
 Cycle:    475
  WF centre and spread    1  (  0.000000, -0.000000, -2.008619 )     1.41738883
  Sum of centres and spreads (  0.000000, -0.000000, -2.008619 )     1.41738883
 
    475    -0.124E-13     0.0000012128        1.4173891530       0.45  <-- CONV
        O_D=      0.0000000 O_OD=      0.0000000 O_TOT=      1.4173892 <-- SPRD
 Delta: O_D= -0.1249346E-13 O_OD=  0.0000000E+00 O_TOT= -0.1243450E-13 <-- DLTA
 ------------------------------------------------------------------------------
 Cycle:    476
  WF centre and spread    1  (  0.000000, -0.000000, -2.008619 )     1.41738883
  Sum of centres and spreads (  0.000000, -0.000000, -2.008619 )     1.41738883
 
    476    -0.251E-13     0.0000012127        1.4173891530       0.45  <-- CONV
        O_D=      0.0000000 O_OD=      0.0000000 O_TOT=      1.4173892 <-- SPRD
 Delta: O_D= -0.2498044E-13 O_OD=  0.0000000E+00 O_TOT= -0.2509104E-13 <-- DLTA
 ------------------------------------------------------------------------------
 Cycle:    477
  WF centre and spread    1  (  0.000000, -0.000000, -2.008619 )     1.41738883
  Sum of centres and spreads (  0.000000, -0.000000, -2.008619 )     1.41738883
 
    477    -0.375E-13     0.0000012125        1.4173891530       0.46  <-- CONV
        O_D=      0.0000000 O_OD=      0.0000000 O_TOT=      1.4173892 <-- SPRD
 Delta: O_D= -0.3745232E-13 O_OD=  0.0000000E+00 O_TOT= -0.3752554E-13 <-- DLTA
 ------------------------------------------------------------------------------
 Cycle:    478
  WF centre and spread    1  (  0.000000, -0.000000, -2.008619 )     1.41738883
  Sum of centres and spreads (  0.000000, -0.000000, -2.008619 )     1.41738883
 
    478    -0.497E-13     0.0000012122        1.4173891530       0.46  <-- CONV
        O_D=      0.0000000 O_OD=      0.0000000 O_TOT=      1.4173892 <-- SPRD
 Delta: O_D= -0.4990051E-13 O_OD=  0.0000000E+00 O_TOT= -0.4973799E-13 <-- DLTA
 ------------------------------------------------------------------------------
 Cycle:    479
  WF centre and spread    1  (  0.000000, -0.000000, -2.008619 )     1.41738883
  Sum of centres and spreads (  0.000000, -0.000000, -2.008619 )     1.41738883
 
    479    -0.624E-13     0.0000012118        1.4173891530       0.46  <-- CONV
        O_D=      0.0000000 O_OD=      0.0000000 O_TOT=      1.4173892 <-- SPRD
 Delta: O_D= -0.6231644E-13 O_OD=  0.0000000E+00 O_TOT= -0.6239453E-13 <-- DLTA
 ------------------------------------------------------------------------------
 Cycle:    480
  WF centre and spread    1  (  0.000000, -0.000000, -2.008619 )     1.41738883
  Sum of centres and spreads (  0.000000, -0.000000, -2.008619 )     1.41738883
 
    480    -0.746E-13     0.0000012112        1.4173891530       0.46  <-- CONV
        O_D=      0.0000000 O_OD=      0.0000000 O_TOT=      1.4173892 <-- SPRD
 Delta: O_D= -0.7469159E-13 O_OD=  0.0000000E+00 O_TOT= -0.7460699E-13 <-- DLTA
 ------------------------------------------------------------------------------
 Cycle:    481
  WF centre and spread    1  (  0.000000, -0.000000, -2.008619 )     1.41738883
  Sum of centres and spreads (  0.000000, -0.000000, -2.008619 )     1.41738883
 
    481    -0.124E-13     0.0000012106        1.4173891530       0.46  <-- CONV
        O_D=      0.0000000 O_OD=      0.0000000 O_TOT=      1.4173892 <-- SPRD
 Delta: O_D= -0.1244825E-13 O_OD=  0.0000000E+00 O_TOT= -0.1243450E-13 <-- DLTA
 ------------------------------------------------------------------------------
 Cycle:    482
  WF centre and spread    1  (  0.000000, -0.000000, -2.008619 )     1.41738883
  Sum of centres and spreads (  0.000000, -0.000000, -2.008619 )     1.41738883
 
    482    -0.251E-13     0.0000012105        1.4173891530       0.46  <-- CONV
        O_D=      0.0000000 O_OD=      0.0000000 O_TOT=      1.4173892 <-- SPRD
 Delta: O_D= -0.2489006E-13 O_OD=  0.0000000E+00 O_TOT= -0.2509104E-13 <-- DLTA
 ------------------------------------------------------------------------------
 Cycle:    483
  WF centre and spread    1  (  0.000000, -0.000000, -2.008619 )     1.41738883
  Sum of centres and spreads (  0.000000, -0.000000, -2.008619 )     1.41738883
 
    483    -0.373E-13     0.0000012103        1.4173891530       0.46  <-- CONV
        O_D=      0.0000000 O_OD=      0.0000000 O_TOT=      1.4173892 <-- SPRD
 Delta: O_D= -0.3731686E-13 O_OD=  0.0000000E+00 O_TOT= -0.3730349E-13 <-- DLTA
 ------------------------------------------------------------------------------
 Cycle:    484
  WF centre and spread    1  (  0.000000, -0.000000, -2.008619 )     1.41738883
  Sum of centres and spreads (  0.000000, -0.000000, -2.008619 )     1.41738883
 
    484    -0.497E-13     0.0000012100        1.4173891530       0.46  <-- CONV
        O_D=      0.0000000 O_OD=      0.0000000 O_TOT=      1.4173892 <-- SPRD
 Delta: O_D= -0.4972007E-13 O_OD=  0.0000000E+00 O_TOT= -0.4973799E-13 <-- DLTA
 ------------------------------------------------------------------------------
 Cycle:    485
  WF centre and spread    1  (  0.000000, -0.000000, -2.008619 )     1.41738883
  Sum of centres and spreads (  0.000000, -0.000000, -2.008619 )     1.41738883
 
    485    -0.620E-13     0.0000012096        1.4173891530       0.46  <-- CONV
        O_D=      0.0000000 O_OD=      0.0000000 O_TOT=      1.4173892 <-- SPRD
 Delta: O_D= -0.6209120E-13 O_OD=  0.0000000E+00 O_TOT= -0.6195044E-13 <-- DLTA
 ------------------------------------------------------------------------------
 Cycle:    486
  WF centre and spread    1  (  0.000000, -0.000000, -2.008619 )     1.41738883
  Sum of centres and spreads (  0.000000, -0.000000, -2.008619 )     1.41738883
 
    486    -0.744E-13     0.0000012091        1.4173891530       0.46  <-- CONV
        O_D=      0.0000000 O_OD=      0.0000000 O_TOT=      1.4173892 <-- SPRD
 Delta: O_D= -0.7442176E-13 O_OD=  0.0000000E+00 O_TOT= -0.7438494E-13 <-- DLTA
 ------------------------------------------------------------------------------
 Cycle:    487
  WF centre and spread    1  (  0.000000, -0.000000, -2.008619 )     1.41738883
  Sum of centres and spreads (  0.000000, -0.000000, -2.008619 )     1.41738883
 
    487    -0.124E-13     0.0000012084        1.4173891530       0.46  <-- CONV
        O_D=      0.0000000 O_OD=      0.0000000 O_TOT=      1.4173892 <-- SPRD
 Delta: O_D= -0.1240328E-13 O_OD=  0.0000000E+00 O_TOT= -0.1243450E-13 <-- DLTA
 ------------------------------------------------------------------------------
 Cycle:    488
  WF centre and spread    1  (  0.000000, -0.000000, -2.008619 )     1.41738883
  Sum of centres and spreads (  0.000000, -0.000000, -2.008619 )     1.41738883
 
    488    -0.249E-13     0.0000012083        1.4173891530       0.46  <-- CONV
        O_D=      0.0000000 O_OD=      0.0000000 O_TOT=      1.4173892 <-- SPRD
 Delta: O_D= -0.2480015E-13 O_OD=  0.0000000E+00 O_TOT= -0.2486900E-13 <-- DLTA
 ------------------------------------------------------------------------------
 Cycle:    489
  WF centre and spread    1  (  0.000000, -0.000000, -2.008619 )     1.41738883
  Sum of centres and spreads (  0.000000, -0.000000, -2.008619 )     1.41738883
 
    489    -0.371E-13     0.0000012081        1.4173891530       0.47  <-- CONV
        O_D=      0.0000000 O_OD=      0.0000000 O_TOT=      1.4173892 <-- SPRD
 Delta: O_D= -0.3718208E-13 O_OD=  0.0000000E+00 O_TOT= -0.3708145E-13 <-- DLTA
 ------------------------------------------------------------------------------
 Cycle:    490
  WF centre and spread    1  (  0.000000, -0.000000, -2.008619 )     1.41738883
  Sum of centres and spreads (  0.000000, -0.000000, -2.008619 )     1.41738883
 
    490    -0.495E-13     0.0000012078        1.4173891530       0.47  <-- CONV
        O_D=      0.0000000 O_OD=      0.0000000 O_TOT=      1.4173892 <-- SPRD
 Delta: O_D= -0.4954056E-13 O_OD=  0.0000000E+00 O_TOT= -0.4951595E-13 <-- DLTA
 ------------------------------------------------------------------------------
 Cycle:    491
  WF centre and spread    1  (  0.000000, -0.000000, -2.008619 )     1.41738883
  Sum of centres and spreads (  0.000000, -0.000000, -2.008619 )     1.41738883
 
    491    -0.620E-13     0.0000012074        1.4173891530       0.47  <-- CONV
        O_D=      0.0000000 O_OD=      0.0000000 O_TOT=      1.4173892 <-- SPRD
 Delta: O_D= -0.6186710E-13 O_OD=  0.0000000E+00 O_TOT= -0.6195044E-13 <-- DLTA
 ------------------------------------------------------------------------------
 Cycle:    492
  WF centre and spread    1  (  0.000000, -0.000000, -2.008619 )     1.41738883
  Sum of centres and spreads (  0.000000, -0.000000, -2.008619 )     1.41738883
 
    492    -0.742E-13     0.0000012069        1.4173891530       0.47  <-- CONV
        O_D=      0.0000000 O_OD=      0.0000000 O_TOT=      1.4173892 <-- SPRD
 Delta: O_D= -0.7415328E-13 O_OD=  0.0000000E+00 O_TOT= -0.7416290E-13 <-- DLTA
 ------------------------------------------------------------------------------
 Cycle:    493
  WF centre and spread    1  (  0.000000, -0.000000, -2.008619 )     1.41738883
  Sum of centres and spreads (  0.000000, -0.000000, -2.008619 )     1.41738883
 
    493    -0.124E-13     0.0000012062        1.4173891530       0.47  <-- CONV
        O_D=      0.0000000 O_OD=      0.0000000 O_TOT=      1.4173892 <-- SPRD
 Delta: O_D= -0.1235853E-13 O_OD=  0.0000000E+00 O_TOT= -0.1243450E-13 <-- DLTA
 ------------------------------------------------------------------------------
 Cycle:    494
  WF centre and spread    1  (  0.000000, -0.000000, -2.008619 )     1.41738883
  Sum of centres and spreads (  0.000000, -0.000000, -2.008619 )     1.41738883
 
    494    -0.246E-13     0.0000012061        1.4173891530       0.47  <-- CONV
        O_D=      0.0000000 O_OD=      0.0000000 O_TOT=      1.4173892 <-- SPRD
 Delta: O_D= -0.2471069E-13 O_OD=  0.0000000E+00 O_TOT= -0.2464695E-13 <-- DLTA
 ------------------------------------------------------------------------------
 Cycle:    495
  WF centre and spread    1  (  0.000000, -0.000000, -2.008619 )     1.41738883
  Sum of centres and spreads (  0.000000, -0.000000, -2.008619 )     1.41738883
 
    495    -0.371E-13     0.0000012059        1.4173891530       0.47  <-- CONV
        O_D=      0.0000000 O_OD=      0.0000000 O_TOT=      1.4173892 <-- SPRD
 Delta: O_D= -0.3704798E-13 O_OD=  0.0000000E+00 O_TOT= -0.3708145E-13 <-- DLTA
 ------------------------------------------------------------------------------
 Cycle:    496
  WF centre and spread    1  (  0.000000, -0.000000, -2.008619 )     1.41738883
  Sum of centres and spreads (  0.000000, -0.000000, -2.008619 )     1.41738883
 
    496    -0.493E-13     0.0000012056        1.4173891530       0.47  <-- CONV
        O_D=      0.0000000 O_OD=      0.0000000 O_TOT=      1.4173892 <-- SPRD
 Delta: O_D= -0.4936194E-13 O_OD=  0.0000000E+00 O_TOT= -0.4929390E-13 <-- DLTA
 ------------------------------------------------------------------------------
 Cycle:    497
  WF centre and spread    1  (  0.000000, -0.000000, -2.008619 )     1.41738883
  Sum of centres and spreads (  0.000000, -0.000000, -2.008619 )     1.41738883
 
    497    -0.617E-13     0.0000012052        1.4173891530       0.47  <-- CONV
        O_D=      0.0000000 O_OD=      0.0000000 O_TOT=      1.4173892 <-- SPRD
 Delta: O_D= -0.6164411E-13 O_OD=  0.0000000E+00 O_TOT= -0.6172840E-13 <-- DLTA
 ------------------------------------------------------------------------------
 Cycle:    498
  WF centre and spread    1  (  0.000000, -0.000000, -2.008619 )     1.41738883
  Sum of centres and spreads (  0.000000, -0.000000, -2.008619 )     1.41738883
 
    498    -0.739E-13     0.0000012047        1.4173891530       0.47  <-- CONV
        O_D=      0.0000000 O_OD=      0.0000000 O_TOT=      1.4173892 <-- SPRD
 Delta: O_D= -0.7388613E-13 O_OD=  0.0000000E+00 O_TOT= -0.7394085E-13 <-- DLTA
 ------------------------------------------------------------------------------
 Cycle:    499
  WF centre and spread    1  (  0.000000, -0.000000, -2.008619 )     1.41738883
  Sum of centres and spreads (  0.000000, -0.000000, -2.008619 )     1.41738883
 
    499    -0.122E-13     0.0000012041        1.4173891530       0.47  <-- CONV
        O_D=      0.0000000 O_OD=      0.0000000 O_TOT=      1.4173892 <-- SPRD
 Delta: O_D= -0.1231401E-13 O_OD=  0.0000000E+00 O_TOT= -0.1221245E-13 <-- DLTA
 ------------------------------------------------------------------------------
 Cycle:    500
  WF centre and spread    1  (  0.000000, -0.000000, -2.008619 )     1.41738883
  Sum of centres and spreads (  0.000000, -0.000000, -2.008619 )     1.41738883
 
    500    -0.246E-13     0.0000012040        1.4173891530       0.47  <-- CONV
        O_D=      0.0000000 O_OD=      0.0000000 O_TOT=      1.4173892 <-- SPRD
 Delta: O_D= -0.2462168E-13 O_OD=  0.0000000E+00 O_TOT= -0.2464695E-13 <-- DLTA
 ------------------------------------------------------------------------------

 Writing checkpoint file mp-23703.chk... done

 Final State
  WF centre and spread    1  (  0.000000, -0.000000, -2.008619 )     1.41738883
  Sum of centres and spreads (  0.000000, -0.000000, -2.008619 )     1.41738883
 
         Spreads (Ang^2)       Omega I      =     1.417389153
        ================       Omega D      =     0.000000000
                               Omega OD     =     0.000000000
    Final Spread (Ang^2)       Omega Total  =     1.417389153
 ------------------------------------------------------------------------------
 Time for wannierise            0.475 (sec)

 Writing checkpoint file mp-23703.chk... done

 Time for plotting              0.000 (sec)
 Total Execution Time           1.674 (sec)

 *===========================================================================*
 |                             TIMING INFORMATION                            |
 *===========================================================================*
 |    Tag                                                Ncalls      Time (s)|
 |---------------------------------------------------------------------------|
 |kmesh: get                                        :         1         1.039|
 |overlap: allocate                                 :         1         0.000|
 |overlap: read                                     :         1         0.053|
 |wann: main                                        :         1         0.475|
 |plot: main                                        :         1         0.000|
 *---------------------------------------------------------------------------*
 
 All done: wannier90 exiting
