
     Program PWSCF v.7.1 starts on  3Jan2024 at 19:39:53 

     This program is part of the open-source Quantum ESPRESSO suite
     for quantum simulation of materials; please cite
         "P. Giannozzi et al., J. Phys.:Condens. Matter 21 395502 (2009);
         "P. Giannozzi et al., J. Phys.:Condens. Matter 29 465901 (2017);
         "P. Giannozzi et al., J. Chem. Phys. 152 154105 (2020);
          URL http://www.quantum-espresso.org", 
     in publications or presentations arising from this work. More details at
     http://www.quantum-espresso.org/quote

     Parallel version (MPI), running on     8 processors

     MPI processes distributed on     1 nodes
     123380 MiB available memory on the printing compute node when the environment starts
 
     Reading input from pw_mp-28077_emass_k3000_E130.in
Warning: card &IONS ignored
Warning: card / ignored
Warning: card &CELL ignored
Warning: card / ignored

     Current dimensions of program PWSCF are:
     Max number of different atomic species (ntypx) = 10
     Max number of k-points (npk) =  40000
     Max angular momentum in pseudopotentials (lmaxx) =  4

     Atomic positions and unit cell read from directory:
     out/mp-28077.save/
     Atomic positions from file used, from input discarded
 
 
     R & G space division:  proc/nbgrp/npool/nimage =       8
     Subspace diagonalization in iterative solution of the eigenvalue problem:
     a serial algorithm will be used

 
     Parallelization info
     --------------------
     sticks:   dense  smooth     PW     G-vecs:    dense   smooth      PW
     Min         713     713    186                64359    64359    8627
     Max         715     715    187                64361    64361    8629
     Sum        5707    5707   1493               514885   514885   69021
 
     Using Slab Decomposition
 


     bravais-lattice index     =            8
     lattice parameter (alat)  =       8.9632  a.u.
     unit-cell volume          =    2570.9457 (a.u.)^3
     number of atoms/cell      =           12
     number of atomic types    =            2
     number of electrons       =       112.00
     number of Kohn-Sham states=          112
     kinetic-energy cutoff     =     130.0000  Ry
     charge density cutoff     =     520.0000  Ry
     Exchange-correlation= PBE
                           (   1   4   3   4   0   0   0)

     celldm(1)=   8.963181  celldm(2)=   1.714105  celldm(3)=   2.082902
     celldm(4)=   0.000000  celldm(5)=   0.000000  celldm(6)=   0.000000

     crystal axes: (cart. coord. in units of alat)
               a(1) = (   1.000000   0.000000   0.000000 )  
               a(2) = (   0.000000   1.714105   0.000000 )  
               a(3) = (   0.000000   0.000000   2.082902 )  

     reciprocal axes: (cart. coord. in units 2 pi/alat)
               b(1) = (  1.000000  0.000000  0.000000 )  
               b(2) = (  0.000000  0.583395  0.000000 )  
               b(3) = (  0.000000  0.000000  0.480099 )  


     PseudoPot. # 1 for Br read from file:
     /usr/scratch4/magr4985/MG/devEb/pseudo/SG15/Br.upf
     MD5 check sum: d26c51d81abb03042b648ee3fecf55db
     Pseudo is Norm-conserving, Zval =  7.0
     Generated using ONCVPSP code by D. R. Hamann
     Using radial grid of  602 points,  6 beta functions with: 
                l(1) =   0
                l(2) =   0
                l(3) =   1
                l(4) =   1
                l(5) =   2
                l(6) =   2

     PseudoPot. # 2 for Pb read from file:
     /usr/scratch4/magr4985/MG/devEb/pseudo/SG15/Pb.upf
     MD5 check sum: 18da7c9819a8d2a15024df9e07e1e14a
     Pseudo is Norm-conserving, Zval = 14.0
     Generated using ONCVPSP code by D. R. Hamann
     Using radial grid of  602 points,  8 beta functions with: 
                l(1) =   0
                l(2) =   0
                l(3) =   1
                l(4) =   1
                l(5) =   2
                l(6) =   2
                l(7) =   3
                l(8) =   3

     atomic species   valence    mass     pseudopotential
        Br             7.00    79.90400     Br( 1.00)
        Pb            14.00   207.20000     Pb( 1.00)

      8 Sym. Ops., with inversion, found ( 6 have fractional translation)



   Cartesian axes

     site n.     atom                  positions (alat units)
         1           Pb  tau(   1) = (   0.2500000   0.4002162   0.8800438  )
         2           Pb  tau(   2) = (   0.7500001   1.3138890   1.2028587  )
         3           Pb  tau(   3) = (   0.2500000   1.2572689   0.1614075  )
         4           Pb  tau(   4) = (   0.7500001   0.4568364   1.9214951  )
         5           Br  tau(   5) = (   0.2500000   0.0155238   1.3667680  )
         6           Br  tau(   6) = (   0.7500001   1.6985814   0.7161345  )
         7           Br  tau(   7) = (   0.2500000   0.8725765   1.7575858  )
         8           Br  tau(   8) = (   0.7500001   0.8415288   0.3253167  )
         9           Br  tau(   9) = (   0.7500001   1.4719393   1.9032959  )
        10           Br  tau(  10) = (   0.2500000   0.2421660   0.1796067  )
        11           Br  tau(  11) = (   0.7500001   0.6148866   1.2210579  )
        12           Br  tau(  12) = (   0.2500000   1.0992186   0.8618446  )

     number of k points=     7  Gaussian smearing, width (Ry)=  0.0005
                       cart. coord. in units 2pi/alat
        k(    1) = (   0.0000000  -0.2916974  -0.2400497), wk =   0.2857143
        k(    2) = (   0.0100000  -0.2916974  -0.2400497), wk =   0.2857143
        k(    3) = (  -0.0100000  -0.2916974  -0.2400497), wk =   0.2857143
        k(    4) = (   0.0000000  -0.2816974  -0.2400497), wk =   0.2857143
        k(    5) = (   0.0000000  -0.3016974  -0.2400497), wk =   0.2857143
        k(    6) = (   0.0000000  -0.2916974  -0.2300497), wk =   0.2857143
        k(    7) = (   0.0000000  -0.2916974  -0.2500497), wk =   0.2857143

     Dense  grid:   514885 G-vectors     FFT dimensions: (  72, 120, 144)

     Estimated max dynamical RAM per process >     201.43 MB

     Estimated total dynamical RAM >       1.57 GB

     The potential is recalculated from file :
     out/mp-28077.save/charge-density

     Starting wfcs are random

     Band Structure Calculation
     ParO style diagonalization

     ethr =  5.00E-06,  avg # of iterations = 29.7

     total cpu time spent up to now is      153.4 secs

     End of band structure calculation

          k = 0.0000-0.2917-0.2400 ( 64420 PWs)   bands (ev):

   -11.1786 -11.1786 -11.1513 -11.1513 -11.1207 -11.1207 -11.1188 -11.1188
   -11.1172 -11.1172 -11.1158 -11.1158 -11.1155 -11.1155 -11.1130 -11.1130
   -11.1067 -11.1067 -11.0991 -11.0991  -8.9331  -8.9331  -8.8619  -8.8618
    -8.3592  -8.3592  -8.3015  -8.3014  -2.0679  -2.0679  -1.9997  -1.9997
     2.1600   2.1600   2.1867   2.1867   2.5169   2.5169   2.6081   2.6082
     3.0348   3.0348   3.2272   3.2272   3.7412   3.7412   3.9587   3.9587
     3.9855   3.9855   4.0155   4.0155   4.3971   4.3971   4.4000   4.4000
     7.6676   7.6677   8.0439   8.0439   8.8810   8.8810   8.9463   8.9463
     9.0441   9.0442   9.0529   9.0529  12.6368  12.6369  13.0926  13.0926
    13.4391  13.4391  13.8225  13.8225  13.9646  13.9646  14.1404  14.1404
    14.3895  14.3895  14.9316  14.9316  15.5899  15.5899  15.7946  15.7946
    15.9507  15.9507  16.0363  16.0363  16.9460  16.9460  16.9617  16.9617
    18.0558  18.0558  18.0602  18.0602  18.1120  18.1120  18.9326  18.9326
    19.2727  19.2727  19.3813  19.3814  20.1335  20.1335  20.1867  20.1868

          k = 0.0100-0.2917-0.2400 ( 64424 PWs)   bands (ev):

   -11.1786 -11.1786 -11.1513 -11.1513 -11.1207 -11.1207 -11.1188 -11.1188
   -11.1172 -11.1172 -11.1159 -11.1158 -11.1155 -11.1155 -11.1130 -11.1129
   -11.1067 -11.1067 -11.0991 -11.0991  -8.9329  -8.9329  -8.8616  -8.8616
    -8.3592  -8.3592  -8.3015  -8.3014  -2.0682  -2.0682  -2.0000  -2.0000
     2.1577   2.1577   2.1853   2.1853   2.5186   2.5186   2.6092   2.6092
     3.0365   3.0365   3.2266   3.2266   3.7381   3.7381   3.9565   3.9565
     3.9873   3.9873   4.0168   4.0168   4.3968   4.3968   4.4001   4.4002
     7.6692   7.6692   8.0452   8.0452   8.8807   8.8807   8.9477   8.9477
     9.0281   9.0281   9.0688   9.0688  12.6374  12.6374  13.0914  13.0914
    13.4356  13.4356  13.8282  13.8283  13.9480  13.9480  14.1586  14.1586
    14.3908  14.3908  14.9243  14.9243  15.5960  15.5960  15.7952  15.7952
    15.9506  15.9506  16.0388  16.0388  16.9470  16.9470  16.9601  16.9602
    18.0512  18.0512  18.0575  18.0575  18.1176  18.1176  18.9342  18.9343
    19.2726  19.2726  19.3828  19.3828  20.1157  20.1157  20.1853  20.1853

          k =-0.0100-0.2917-0.2400 ( 64424 PWs)   bands (ev):

   -11.1786 -11.1786 -11.1513 -11.1513 -11.1207 -11.1207 -11.1188 -11.1188
   -11.1172 -11.1172 -11.1159 -11.1158 -11.1155 -11.1155 -11.1130 -11.1129
   -11.1067 -11.1067 -11.0991 -11.0991  -8.9329  -8.9329  -8.8616  -8.8616
    -8.3592  -8.3592  -8.3015  -8.3014  -2.0682  -2.0682  -2.0000  -2.0000
     2.1577   2.1577   2.1853   2.1853   2.5186   2.5186   2.6092   2.6092
     3.0365   3.0365   3.2266   3.2266   3.7381   3.7381   3.9565   3.9565
     3.9873   3.9873   4.0168   4.0168   4.3968   4.3968   4.4001   4.4002
     7.6692   7.6692   8.0452   8.0452   8.8807   8.8807   8.9477   8.9477
     9.0281   9.0281   9.0688   9.0688  12.6374  12.6374  13.0914  13.0914
    13.4356  13.4356  13.8282  13.8283  13.9480  13.9480  14.1586  14.1586
    14.3908  14.3908  14.9243  14.9243  15.5960  15.5960  15.7952  15.7952
    15.9506  15.9506  16.0388  16.0388  16.9470  16.9470  16.9601  16.9602
    18.0512  18.0512  18.0575  18.0575  18.1176  18.1176  18.9342  18.9343
    19.2726  19.2726  19.3828  19.3828  20.1157  20.1157  20.1853  20.1853

          k = 0.0000-0.2817-0.2400 ( 64412 PWs)   bands (ev):

   -11.1786 -11.1786 -11.1513 -11.1512 -11.1207 -11.1207 -11.1188 -11.1188
   -11.1172 -11.1172 -11.1158 -11.1158 -11.1155 -11.1155 -11.1130 -11.1130
   -11.1067 -11.1067 -11.0991 -11.0991  -8.9346  -8.9346  -8.8601  -8.8601
    -8.3594  -8.3594  -8.3014  -8.3013  -2.0731  -2.0731  -1.9945  -1.9945
     2.1481   2.1481   2.1992   2.1992   2.5116   2.5116   2.6140   2.6140
     3.0343   3.0343   3.2276   3.2276   3.7411   3.7411   3.9583   3.9583
     3.9826   3.9826   4.0182   4.0182   4.3859   4.3860   4.4099   4.4099
     7.6676   7.6676   8.0461   8.0461   8.8773   8.8773   8.9388   8.9388
     9.0517   9.0517   9.0568   9.0568  12.6327  12.6327  13.0946  13.0946
    13.4380  13.4380  13.8175  13.8175  13.9664  13.9664  14.1462  14.1462
    14.3873  14.3873  14.9315  14.9316  15.5908  15.5908  15.7961  15.7961
    15.9398  15.9398  16.0435  16.0435  16.9299  16.9299  16.9838  16.9838
    18.0532  18.0532  18.0617  18.0617  18.1018  18.1018  18.9424  18.9424
    19.2748  19.2749  19.3841  19.3841  20.1185  20.1185  20.1650  20.1650

          k = 0.0000-0.3017-0.2400 ( 64412 PWs)   bands (ev):

   -11.1786 -11.1786 -11.1513 -11.1512 -11.1207 -11.1207 -11.1188 -11.1188
   -11.1172 -11.1172 -11.1158 -11.1158 -11.1155 -11.1155 -11.1130 -11.1130
   -11.1067 -11.1067 -11.0991 -11.0991  -8.9346  -8.9346  -8.8601  -8.8601
    -8.3594  -8.3594  -8.3014  -8.3013  -2.0731  -2.0731  -1.9945  -1.9945
     2.1481   2.1481   2.1992   2.1992   2.5116   2.5116   2.6140   2.6140
     3.0343   3.0343   3.2276   3.2276   3.7411   3.7411   3.9583   3.9583
     3.9826   3.9826   4.0182   4.0182   4.3859   4.3860   4.4099   4.4099
     7.6676   7.6676   8.0461   8.0461   8.8773   8.8773   8.9388   8.9388
     9.0517   9.0517   9.0568   9.0568  12.6327  12.6327  13.0946  13.0946
    13.4380  13.4380  13.8175  13.8175  13.9664  13.9664  14.1462  14.1462
    14.3873  14.3873  14.9315  14.9316  15.5908  15.5908  15.7961  15.7961
    15.9398  15.9398  16.0435  16.0435  16.9299  16.9299  16.9838  16.9838
    18.0532  18.0532  18.0617  18.0617  18.1018  18.1018  18.9424  18.9424
    19.2748  19.2749  19.3841  19.3841  20.1185  20.1185  20.1650  20.1650

          k = 0.0000-0.2917-0.2300 ( 64432 PWs)   bands (ev):

   -11.1786 -11.1786 -11.1513 -11.1513 -11.1207 -11.1207 -11.1188 -11.1188
   -11.1172 -11.1172 -11.1158 -11.1158 -11.1155 -11.1155 -11.1130 -11.1129
   -11.1067 -11.1067 -11.0991 -11.0991  -8.9338  -8.9338  -8.8610  -8.8610
    -8.3597  -8.3597  -8.3011  -8.3010  -2.0699  -2.0698  -1.9977  -1.9977
     2.1578   2.1578   2.1893   2.1893   2.5144   2.5144   2.6111   2.6112
     3.0346   3.0346   3.2261   3.2261   3.7397   3.7397   3.9597   3.9597
     3.9865   3.9865   4.0152   4.0152   4.3912   4.3912   4.4057   4.4057
     7.6679   7.6679   8.0447   8.0447   8.8788   8.8788   8.9455   8.9456
     9.0451   9.0451   9.0541   9.0541  12.6314  12.6314  13.0975  13.0975
    13.4419  13.4419  13.8206  13.8206  13.9664  13.9664  14.1416  14.1417
    14.3888  14.3888  14.9328  14.9328  15.5808  15.5808  15.8055  15.8056
    15.9430  15.9430  16.0370  16.0370  16.9317  16.9317  16.9786  16.9786
    18.0160  18.0160  18.0991  18.0991  18.1117  18.1117  18.9316  18.9316
    19.2666  19.2666  19.3822  19.3822  20.1290  20.1290  20.1809  20.1809

          k = 0.0000-0.2917-0.2500 ( 64432 PWs)   bands (ev):

   -11.1786 -11.1786 -11.1513 -11.1513 -11.1207 -11.1207 -11.1188 -11.1188
   -11.1172 -11.1172 -11.1158 -11.1158 -11.1155 -11.1155 -11.1130 -11.1129
   -11.1067 -11.1067 -11.0991 -11.0991  -8.9338  -8.9338  -8.8610  -8.8610
    -8.3597  -8.3597  -8.3011  -8.3010  -2.0699  -2.0698  -1.9977  -1.9977
     2.1578   2.1578   2.1893   2.1893   2.5144   2.5144   2.6111   2.6112
     3.0346   3.0346   3.2261   3.2261   3.7397   3.7397   3.9597   3.9597
     3.9865   3.9865   4.0152   4.0152   4.3912   4.3912   4.4057   4.4057
     7.6679   7.6679   8.0447   8.0447   8.8788   8.8788   8.9455   8.9456
     9.0451   9.0451   9.0541   9.0541  12.6314  12.6314  13.0975  13.0975
    13.4419  13.4419  13.8206  13.8206  13.9664  13.9664  14.1416  14.1417
    14.3888  14.3888  14.9328  14.9328  15.5808  15.5808  15.8055  15.8056
    15.9430  15.9430  16.0370  16.0370  16.9317  16.9317  16.9786  16.9786
    18.0160  18.0160  18.0991  18.0991  18.1117  18.1117  18.9316  18.9316
    19.2666  19.2666  19.3822  19.3822  20.1290  20.1290  20.1809  20.1809

     the Fermi energy is     4.5041 ev
     (compare with:     6.5446 eV, computed in scf)

     Writing all to output data dir out/mp-28077.save/
 
     init_run     :      0.56s CPU      0.62s WALL (       1 calls)
     electrons    :    151.70s CPU    152.66s WALL (       1 calls)

     Called by init_run:
     wfcinit      :      0.00s CPU      0.00s WALL (       1 calls)
     potinit      :      0.11s CPU      0.13s WALL (       1 calls)
     hinit0       :      0.29s CPU      0.31s WALL (       1 calls)

     Called by electrons:
     c_bands      :    151.70s CPU    152.66s WALL (       1 calls)
     v_of_rho     :      0.09s CPU      0.11s WALL (       1 calls)

     Called by c_bands:
     init_us_2    :      0.07s CPU      0.09s WALL (       7 calls)
     init_us_2:cp :      0.07s CPU      0.09s WALL (       7 calls)
     paro_k       :    145.96s CPU    146.82s WALL (       7 calls)

     Called by paro_*:
     h_psi        :     98.05s CPU     98.56s WALL (     497 calls)
     g_psi        :      1.24s CPU      1.29s WALL (   25216 calls)

     Called by h_psi:
     h_psi:calbec :     12.67s CPU     12.71s WALL (     497 calls)
     vloc_psi     :     70.23s CPU     70.64s WALL (     497 calls)
     add_vuspsi   :     14.44s CPU     14.45s WALL (     497 calls)

     General routines
     calbec       :     12.66s CPU     12.71s WALL (     497 calls)
     fft          :      0.04s CPU      0.05s WALL (      10 calls)
     fftw         :     61.86s CPU     62.23s WALL (   43984 calls)
 
     Parallel routines
 
     PWSCF        :   2m32.38s CPU   2m33.45s WALL

 
   This run was terminated on:  19:42:27   3Jan2024            

=------------------------------------------------------------------------------=
   JOB DONE.
=------------------------------------------------------------------------------=
