 
             +---------------------------------------------------+
             |                                                   |
             |                   WANNIER90                       |
             |                                                   |
             +---------------------------------------------------+
             |                                                   |
             |        Welcome to the Maximally-Localized         |
             |        Generalized Wannier Functions code         |
             |            http://www.wannier.org                 |
             |                                                   |
             |                                                   |
             |  Wannier90 Developer Group:                       |
             |    Giovanni Pizzi    (EPFL)                       |
             |    Valerio Vitale    (Cambridge)                  |
             |    David Vanderbilt  (Rutgers University)         |
             |    Nicola Marzari    (EPFL)                       |
             |    Ivo Souza         (Universidad del Pais Vasco) |
             |    Arash A. Mostofi  (Imperial College London)    |
             |    Jonathan R. Yates (University of Oxford)       |
             |                                                   |
             |  For the full list of Wannier90 3.x authors,      |
             |  please check the code documentation and the      |
             |  README on the GitHub page of the code            |
             |                                                   |
             |                                                   |
             |  Please cite                                      |
             |                                                   |
             |  [ref] "Wannier90 as a community code:            |
             |        new features and applications",            |
             |        G. Pizzi et al., J. Phys. Cond. Matt. 32,  |
             |        165902 (2020).                             |
             |        http://doi.org/10.1088/1361-648X/ab51ff    |
             |                                                   |
             |  in any publications arising from the use of      |
             |  this code. For the method please cite            |
             |                                                   |
             |  [ref] "Maximally Localized Generalised Wannier   |
             |         Functions for Composite Energy Bands"     |
             |         N. Marzari and D. Vanderbilt              |
             |         Phys. Rev. B 56 12847 (1997)              |
             |                                                   |
             |  [ref] "Maximally Localized Wannier Functions     |
             |         for Entangled Energy Bands"               |
             |         I. Souza, N. Marzari and D. Vanderbilt    |
             |         Phys. Rev. B 65 035109 (2001)             |
             |                                                   |
             |                                                   |
             | Copyright (c) 1996-2020                           |
             |        The Wannier90 Developer Group and          |
             |        individual contributors                    |
             |                                                   |
             |      Release: 3.1.0        5th March    2020      |
             |                                                   |
             | This program is free software; you can            |
             | redistribute it and/or modify it under the terms  |
             | of the GNU General Public License as published by |
             | the Free Software Foundation; either version 2 of |
             | the License, or (at your option) any later version|
             |                                                   |
             | This program is distributed in the hope that it   |
             | will be useful, but WITHOUT ANY WARRANTY; without |
             | even the implied warranty of MERCHANTABILITY or   |
             | FITNESS FOR A PARTICULAR PURPOSE. See the GNU     |
             | General Public License for more details.          |
             |                                                   |
             | You should have received a copy of the GNU General|
             | Public License along with this program; if not,   |
             | write to the Free Software Foundation, Inc.,      |
             | 675 Mass Ave, Cambridge, MA 02139, USA.           |
             |                                                   |
             +---------------------------------------------------+
             |    Execution started on  8Apr2024 at 15:12:51     |
             +---------------------------------------------------+
 
 ******************************************************************************
 * -> Using CODATA 2006 constant values                                       *
 *    (http://physics.nist.gov/cuu/Constants/index.html)                      *
 * -> Using Bohr value from CODATA                                            *
 ******************************************************************************
 

 Running in parallel on  16 CPUs

 
                                    ------
                                    SYSTEM
                                    ------
 
                              Lattice Vectors (Ang)
                    a_1    -2.794063   0.000000   2.794063
                    a_2     0.000000   2.794063   2.794063
                    a_3    -2.794063   2.794063   0.000000
 
                   Unit Cell Volume:      43.62532  (Ang^3)
 
                        Reciprocal-Space Vectors (Ang^-1)
                    b_1    -1.124381  -1.124381   1.124381
                    b_2     1.124381   1.124381   1.124381
                    b_3    -1.124381   1.124381  -1.124381
  
 *----------------------------------------------------------------------------*
 |   Site       Fractional Coordinate          Cartesian Coordinate (Ang)     |
 +----------------------------------------------------------------------------+
 | Na   1   0.00000   0.00000   0.00000   |    0.00000   0.00000   0.00000    |
 | Cl   1   0.50000   0.50000   0.50000   |   -2.79406   2.79406   2.79406    |
 *----------------------------------------------------------------------------*
                                ------------
                                K-POINT GRID
                                ------------
  
             Grid size = 12 x 12 x 12      Total points = 1728
  
  
 *---------------------------------- MAIN ------------------------------------*
 |  Number of Wannier Functions               :                 3             |
 |  Number of Objective Wannier Functions     :                 3             |
 |  Number of input Bloch states              :                 3             |
 |  Output verbosity (1=low, 5=high)          :                 1             |
 |  Timing Level (1=low, 5=high)              :                 1             |
 |  Optimisation (0=memory, 3=speed)          :                 3             |
 |  Length Unit                               :               Ang             |
 |  Post-processing setup (write *.nnkp)      :                 F             |
 |  Using Gamma-only branch of algorithms     :                 F             |
 *----------------------------------------------------------------------------*
 *------------------------------- WANNIERISE ---------------------------------*
 |  Total number of iterations                :               500             |
 |  Number of CG steps before reset           :                 5             |
 |  Trial step length for line search         :             2.000             |
 |  Convergence tolerence                     :         0.100E-09             |
 |  Convergence window                        :                -1             |
 |  Iterations between writing output         :                 1             |
 |  Iterations between backing up to disk     :               100             |
 |  Write r^2_nm to file                      :                 F             |
 |  Write xyz WF centres to file              :                 F             |
 |  Write on-site energies <0n|H|0n> to file  :                 F             |
 |  Use guiding centre to control phases      :                 F             |
 |  Use phases for initial projections        :                 F             |
 *----------------------------------------------------------------------------*
 Time to read parameters        0.166 (sec)

 *---------------------------------- K-MESH ----------------------------------*
 +----------------------------------------------------------------------------+
 |                    Distance to Nearest-Neighbour Shells                    |
 |                    ------------------------------------                    |
 |          Shell             Distance (Ang^-1)          Multiplicity         |
 |          -----             -----------------          ------------         |
 |             1                   0.162290                      8            |
 |             2                   0.187397                      6            |
 |             3                   0.265019                     12            |
 |             4                   0.310763                     24            |
 |             5                   0.324581                      8            |
 |             6                   0.374794                      6            |
 |             7                   0.408422                     24            |
 |             8                   0.419032                     24            |
 |             9                   0.459027                     24            |
 |            10                   0.486871                     32            |
 |            11                   0.530039                     12            |
 |            12                   0.554328                     48            |
 |            13                   0.562191                     30            |
 |            14                   0.592601                     24            |
 |            15                   0.614422                     24            |
 |            16                   0.621525                     24            |
 |            17                   0.649162                      8            |
 |            18                   0.669141                     48            |
 |            19                   0.675669                     24            |
 |            20                   0.701175                     48            |
 |            21                   0.719711                     72            |
 |            22                   0.749588                      6            |
 |            23                   0.766955                     24            |
 |            24                   0.772657                     48            |
 |            25                   0.795058                     36            |
 |            26                   0.811452                     56            |
 |            27                   0.816844                     24            |
 |            28                   0.838064                     24            |
 |            29                   0.853634                     72            |
 |            30                   0.858761                     48            |
 |            31                   0.878969                     24            |
 |            32                   0.893826                     48            |
 |            33                   0.918054                     24            |
 |            34                   0.932288                     72            |
 |            35                   0.936985                     30            |
 |            36                   0.955540                     72            |
 +----------------------------------------------------------------------------+
 | The b-vectors are chosen automatically                                     |
 | The following shells are used:   1                                         |
 +----------------------------------------------------------------------------+
 |                        Shell   # Nearest-Neighbours                        |
 |                        -----   --------------------                        |
 |                          1               8                                 |
 +----------------------------------------------------------------------------+
 | Completeness relation is fully satisfied [Eq. (B1), PRB 56, 12847 (1997)]  |
 +----------------------------------------------------------------------------+
 |                  b_k Vectors (Ang^-1) and Weights (Ang^2)                  |
 |                  ----------------------------------------                  |
 |            No.         b_k(x)      b_k(y)      b_k(z)        w_b           |
 |            ---        --------------------------------     --------        |
 |             1        -0.093698    0.093698   -0.093698    14.237875        |
 |             2         0.093698    0.093698    0.093698    14.237875        |
 |             3        -0.093698   -0.093698    0.093698    14.237875        |
 |             4        -0.093698    0.093698    0.093698    14.237875        |
 |             5         0.093698   -0.093698    0.093698    14.237875        |
 |             6        -0.093698   -0.093698   -0.093698    14.237875        |
 |             7         0.093698    0.093698   -0.093698    14.237875        |
 |             8         0.093698   -0.093698   -0.093698    14.237875        |
 +----------------------------------------------------------------------------+
 |                           b_k Directions (Ang^-1)                          |
 |                           -----------------------                          |
 |            No.           x           y           z                         |
 |            ---        --------------------------------                     |
 |             1        -0.093698    0.093698   -0.093698                     |
 |             2         0.093698    0.093698    0.093698                     |
 |             3        -0.093698   -0.093698    0.093698                     |
 |             4        -0.093698    0.093698    0.093698                     |
 +----------------------------------------------------------------------------+
  
 Time to get kmesh              0.729 (sec)
 *============================================================================*
 |                              MEMORY ESTIMATE                               |
 |         Maximum RAM allocated during each phase of the calculation         |
 *============================================================================*
 |                            Wannierise:            7.00 Mb                  |
 |                          plot_wannier:            7.00 Mb                  |
 *----------------------------------------------------------------------------*
  
 Starting a new Wannier90 calculation ...


 Reading overlaps from mp-22862.mmn    :  Created on  8Apr2024 at 15:12:36

 Reading projections from mp-22862.amn :  Created on  8Apr2024 at 15:12:35  with SCDM

 Time to read overlaps          0.092 (sec)

 Writing checkpoint file mp-22862.chk... done

 
 *------------------------------- WANNIERISE ---------------------------------*
 +--------------------------------------------------------------------+<-- CONV
 | Iter  Delta Spread     RMS Gradient      Spread (Ang^2)      Time  |<-- CONV
 +--------------------------------------------------------------------+<-- CONV
 
 ------------------------------------------------------------------------------
 Initial State
  WF centre and spread    1  (  0.000505,  2.795240, -0.000504 )     1.40438247
  WF centre and spread    2  (  0.000505, -0.000504,  2.795240 )     1.40438321
  WF centre and spread    3  ( -2.795240, -0.000504, -0.000504 )     1.40438433
  Sum of centres and spreads ( -2.794231,  2.794232,  2.794232 )     4.21315001
 
      0     0.421E+01     0.0000000000        4.2131518890       0.00  <-- CONV
        O_D=      0.0439158 O_OD=      0.0596846 O_TOT=      4.2131519 <-- SPRD
 ------------------------------------------------------------------------------
 Cycle:      1
  WF centre and spread    1  (  0.000034,  2.794141, -0.000033 )     1.37509385
  WF centre and spread    2  (  0.000034, -0.000033,  2.794141 )     1.37508940
  WF centre and spread    3  ( -2.794140, -0.000033, -0.000033 )     1.37509690
  Sum of centres and spreads ( -2.794073,  2.794074,  2.794074 )     4.12528016
 
      1    -0.879E-01     0.0580489881        4.1252820312       0.00  <-- CONV
        O_D=      0.0023137 O_OD=      0.0134169 O_TOT=      4.1252820 <-- SPRD
 Delta: O_D= -0.4160215E-01 O_OD= -0.4626771E-01 O_TOT= -0.8786986E-01 <-- DLTA
 ------------------------------------------------------------------------------
 Cycle:      2
  WF centre and spread    1  (  0.000015,  2.794099, -0.000015 )     1.37376919
  WF centre and spread    2  (  0.000015, -0.000015,  2.794099 )     1.37377175
  WF centre and spread    3  ( -2.794099, -0.000015, -0.000015 )     1.37378398
  Sum of centres and spreads ( -2.794068,  2.794069,  2.794069 )     4.12132493
 
      2    -0.396E-02     0.0306837327        4.1213268002       0.01  <-- CONV
        O_D=      0.0008200 O_OD=      0.0109554 O_TOT=      4.1213268 <-- SPRD
 Delta: O_D= -0.1493679E-02 O_OD= -0.2461552E-02 O_TOT= -0.3955231E-02 <-- DLTA
 ------------------------------------------------------------------------------
 Cycle:      3
  WF centre and spread    1  (  0.000006,  2.794079, -0.000006 )     1.37320178
  WF centre and spread    2  (  0.000006, -0.000006,  2.794079 )     1.37320274
  WF centre and spread    3  ( -2.794078, -0.000006, -0.000006 )     1.37320277
  Sum of centres and spreads ( -2.794066,  2.794067,  2.794067 )     4.11960729
 
      3    -0.172E-02     0.0285369881        4.1196091675       0.01  <-- CONV
        O_D=      0.0002352 O_OD=      0.0098225 O_TOT=      4.1196092 <-- SPRD
 Delta: O_D= -0.5847429E-03 O_OD= -0.1132890E-02 O_TOT= -0.1717633E-02 <-- DLTA
 ------------------------------------------------------------------------------
 Cycle:      4
  WF centre and spread    1  (  0.000004,  2.794073, -0.000003 )     1.37305620
  WF centre and spread    2  (  0.000004, -0.000003,  2.794073 )     1.37305678
  WF centre and spread    3  ( -2.794073, -0.000003, -0.000004 )     1.37305718
  Sum of centres and spreads ( -2.794065,  2.794066,  2.794066 )     4.11917017
 
      4    -0.437E-03     0.0135361433        4.1191720393       0.02  <-- CONV
        O_D=      0.0000833 O_OD=      0.0095373 O_TOT=      4.1191720 <-- SPRD
 Delta: O_D= -0.1519510E-03 O_OD= -0.2851772E-03 O_TOT= -0.4371282E-03 <-- DLTA
 ------------------------------------------------------------------------------
 Cycle:      5
  WF centre and spread    1  (  0.000003,  2.794070, -0.000002 )     1.37299701
  WF centre and spread    2  (  0.000003, -0.000002,  2.794070 )     1.37299717
  WF centre and spread    3  ( -2.794070, -0.000002, -0.000002 )     1.37299760
  Sum of centres and spreads ( -2.794064,  2.794065,  2.794065 )     4.11899178
 
      5    -0.178E-03     0.0084701994        4.1189936528       0.02  <-- CONV
        O_D=      0.0000238 O_OD=      0.0094184 O_TOT=      4.1189937 <-- SPRD
 Delta: O_D= -0.5950176E-04 O_OD= -0.1188848E-03 O_TOT= -0.1783866E-03 <-- DLTA
 ------------------------------------------------------------------------------
 Cycle:      6
  WF centre and spread    1  (  0.000002,  2.794068, -0.000002 )     1.37297850
  WF centre and spread    2  (  0.000002, -0.000002,  2.794068 )     1.37297859
  WF centre and spread    3  ( -2.794068, -0.000002, -0.000002 )     1.37297881
  Sum of centres and spreads ( -2.794064,  2.794065,  2.794065 )     4.11893590
 
      6    -0.559E-04     0.0048942556        4.1189377724       0.02  <-- CONV
        O_D=      0.0000093 O_OD=      0.0093771 O_TOT=      4.1189378 <-- SPRD
 Delta: O_D= -0.1453012E-04 O_OD= -0.4135029E-04 O_TOT= -0.5588040E-04 <-- DLTA
 ------------------------------------------------------------------------------
 Cycle:      7
  WF centre and spread    1  (  0.000002,  2.794068, -0.000002 )     1.37297252
  WF centre and spread    2  (  0.000002, -0.000002,  2.794068 )     1.37297267
  WF centre and spread    3  ( -2.794068, -0.000002, -0.000002 )     1.37297280
  Sum of centres and spreads ( -2.794063,  2.794065,  2.794065 )     4.11891799
 
      7    -0.179E-04     0.0029929909        4.1189198621       0.03  <-- CONV
        O_D=      0.0000048 O_OD=      0.0093637 O_TOT=      4.1189199 <-- SPRD
 Delta: O_D= -0.4483807E-05 O_OD= -0.1342643E-04 O_TOT= -0.1791023E-04 <-- DLTA
 ------------------------------------------------------------------------------
 Cycle:      8
  WF centre and spread    1  (  0.000002,  2.794067, -0.000001 )     1.37296706
  WF centre and spread    2  (  0.000002, -0.000001,  2.794067 )     1.37296716
  WF centre and spread    3  ( -2.794067, -0.000001, -0.000002 )     1.37296728
  Sum of centres and spreads ( -2.794063,  2.794064,  2.794064 )     4.11890151
 
      8    -0.165E-04     0.0022067770        4.1189033794       0.03  <-- CONV
        O_D=      0.0000027 O_OD=      0.0093493 O_TOT=      4.1189034 <-- SPRD
 Delta: O_D= -0.2086318E-05 O_OD= -0.1439644E-04 O_TOT= -0.1648276E-04 <-- DLTA
 ------------------------------------------------------------------------------
 Cycle:      9
  WF centre and spread    1  (  0.000002,  2.794066, -0.000001 )     1.37296454
  WF centre and spread    2  (  0.000002, -0.000001,  2.794066 )     1.37296460
  WF centre and spread    3  ( -2.794066, -0.000001, -0.000001 )     1.37296469
  Sum of centres and spreads ( -2.794063,  2.794064,  2.794064 )     4.11889384
 
      9    -0.767E-05     0.0017206362        4.1188957094       0.03  <-- CONV
        O_D=      0.0000014 O_OD=      0.0093428 O_TOT=      4.1188957 <-- SPRD
 Delta: O_D= -0.1257868E-05 O_OD= -0.6412147E-05 O_TOT= -0.7670015E-05 <-- DLTA
 ------------------------------------------------------------------------------
 Cycle:     10
  WF centre and spread    1  (  0.000002,  2.794066, -0.000001 )     1.37296344
  WF centre and spread    2  (  0.000002, -0.000001,  2.794066 )     1.37296348
  WF centre and spread    3  ( -2.794066, -0.000001, -0.000001 )     1.37296356
  Sum of centres and spreads ( -2.794063,  2.794064,  2.794064 )     4.11889047
 
     10    -0.336E-05     0.0011294391        4.1188923469       0.04  <-- CONV
        O_D=      0.0000006 O_OD=      0.0093403 O_TOT=      4.1188923 <-- SPRD
 Delta: O_D= -0.8319031E-06 O_OD= -0.2530598E-05 O_TOT= -0.3362501E-05 <-- DLTA
 ------------------------------------------------------------------------------
 Cycle:     11
  WF centre and spread    1  (  0.000001,  2.794065, -0.000001 )     1.37296309
  WF centre and spread    2  (  0.000001, -0.000001,  2.794066 )     1.37296313
  WF centre and spread    3  ( -2.794065, -0.000001, -0.000001 )     1.37296319
  Sum of centres and spreads ( -2.794063,  2.794064,  2.794064 )     4.11888941
 
     11    -0.106E-05     0.0007034749        4.1188912855       0.04  <-- CONV
        O_D=      0.0000003 O_OD=      0.0093395 O_TOT=      4.1188913 <-- SPRD
 Delta: O_D= -0.2882423E-06 O_OD= -0.7731403E-06 O_TOT= -0.1061383E-05 <-- DLTA
 ------------------------------------------------------------------------------
 Cycle:     12
  WF centre and spread    1  (  0.000001,  2.794065, -0.000001 )     1.37296293
  WF centre and spread    2  (  0.000001, -0.000001,  2.794065 )     1.37296297
  WF centre and spread    3  ( -2.794065, -0.000001, -0.000001 )     1.37296303
  Sum of centres and spreads ( -2.794062,  2.794064,  2.794064 )     4.11888894
 
     12    -0.477E-06     0.0003764577        4.1188908088       0.04  <-- CONV
        O_D=      0.0000002 O_OD=      0.0093392 O_TOT=      4.1188908 <-- SPRD
 Delta: O_D= -0.1500962E-06 O_OD= -0.3265745E-06 O_TOT= -0.4766707E-06 <-- DLTA
 ------------------------------------------------------------------------------
 Cycle:     13
  WF centre and spread    1  (  0.000001,  2.794065, -0.000001 )     1.37296288
  WF centre and spread    2  (  0.000001, -0.000001,  2.794065 )     1.37296293
  WF centre and spread    3  ( -2.794065, -0.000001, -0.000001 )     1.37296299
  Sum of centres and spreads ( -2.794062,  2.794064,  2.794064 )     4.11888880
 
     13    -0.139E-06     0.0002980765        4.1188906697       0.05  <-- CONV
        O_D=      0.0000001 O_OD=      0.0093391 O_TOT=      4.1188907 <-- SPRD
 Delta: O_D= -0.5432593E-07 O_OD= -0.8478235E-07 O_TOT= -0.1391083E-06 <-- DLTA
 ------------------------------------------------------------------------------
 Cycle:     14
  WF centre and spread    1  (  0.000001,  2.794065, -0.000001 )     1.37296285
  WF centre and spread    2  (  0.000001, -0.000001,  2.794065 )     1.37296290
  WF centre and spread    3  ( -2.794065, -0.000001, -0.000001 )     1.37296296
  Sum of centres and spreads ( -2.794062,  2.794064,  2.794064 )     4.11888870
 
     14    -0.934E-07     0.0001655667        4.1188905763       0.05  <-- CONV
        O_D=      0.0000001 O_OD=      0.0093391 O_TOT=      4.1188906 <-- SPRD
 Delta: O_D= -0.3663062E-07 O_OD= -0.5674684E-07 O_TOT= -0.9337746E-07 <-- DLTA
 ------------------------------------------------------------------------------
 Cycle:     15
  WF centre and spread    1  (  0.000001,  2.794064, -0.000000 )     1.37296283
  WF centre and spread    2  (  0.000001, -0.000000,  2.794064 )     1.37296287
  WF centre and spread    3  ( -2.794064, -0.000000, -0.000001 )     1.37296293
  Sum of centres and spreads ( -2.794062,  2.794064,  2.794064 )     4.11888864
 
     15    -0.666E-07     0.0001507411        4.1188905097       0.05  <-- CONV
        O_D=      0.0000000 O_OD=      0.0093390 O_TOT=      4.1188905 <-- SPRD
 Delta: O_D= -0.2840602E-07 O_OD= -0.3823220E-07 O_TOT= -0.6663822E-07 <-- DLTA
 ------------------------------------------------------------------------------
 Cycle:     16
  WF centre and spread    1  (  0.000001,  2.794064, -0.000000 )     1.37296281
  WF centre and spread    2  (  0.000001, -0.000000,  2.794064 )     1.37296286
  WF centre and spread    3  ( -2.794064, -0.000000, -0.000000 )     1.37296292
  Sum of centres and spreads ( -2.794062,  2.794063,  2.794063 )     4.11888859
 
     16    -0.448E-07     0.0001155803        4.1188904649       0.06  <-- CONV
        O_D=      0.0000000 O_OD=      0.0093390 O_TOT=      4.1188905 <-- SPRD
 Delta: O_D= -0.2011036E-07 O_OD= -0.2469079E-07 O_TOT= -0.4480114E-07 <-- DLTA
 ------------------------------------------------------------------------------
 Cycle:     17
  WF centre and spread    1  (  0.000001,  2.794064, -0.000000 )     1.37296280
  WF centre and spread    2  (  0.000001, -0.000000,  2.794064 )     1.37296285
  WF centre and spread    3  ( -2.794063, -0.000000, -0.000000 )     1.37296291
  Sum of centres and spreads ( -2.794062,  2.794063,  2.794063 )     4.11888856
 
     17    -0.320E-07     0.0001067070        4.1188904329       0.06  <-- CONV
        O_D=      0.0000000 O_OD=      0.0093390 O_TOT=      4.1188904 <-- SPRD
 Delta: O_D= -0.1353220E-07 O_OD= -0.1845301E-07 O_TOT= -0.3198521E-07 <-- DLTA
 ------------------------------------------------------------------------------
 Cycle:     18
  WF centre and spread    1  (  0.000001,  2.794063,  0.000000 )     1.37296280
  WF centre and spread    2  (  0.000001, -0.000000,  2.794063 )     1.37296284
  WF centre and spread    3  ( -2.794063,  0.000000, -0.000000 )     1.37296290
  Sum of centres and spreads ( -2.794062,  2.794063,  2.794063 )     4.11888854
 
     18    -0.148E-07     0.0000743447        4.1188904181       0.06  <-- CONV
        O_D=      0.0000000 O_OD=      0.0093390 O_TOT=      4.1188904 <-- SPRD
 Delta: O_D= -0.5533649E-08 O_OD= -0.9312641E-08 O_TOT= -0.1484629E-07 <-- DLTA
 ------------------------------------------------------------------------------
 Cycle:     19
  WF centre and spread    1  (  0.000001,  2.794063,  0.000000 )     1.37296279
  WF centre and spread    2  (  0.000001, -0.000000,  2.794063 )     1.37296284
  WF centre and spread    3  ( -2.794063,  0.000000, -0.000000 )     1.37296290
  Sum of centres and spreads ( -2.794062,  2.794063,  2.794063 )     4.11888854
 
     19    -0.634E-08     0.0000593402        4.1188904117       0.07  <-- CONV
        O_D=      0.0000000 O_OD=      0.0093390 O_TOT=      4.1188904 <-- SPRD
 Delta: O_D= -0.2317744E-08 O_OD= -0.4017499E-08 O_TOT= -0.6335243E-08 <-- DLTA
 ------------------------------------------------------------------------------
 Cycle:     20
  WF centre and spread    1  (  0.000001,  2.794063,  0.000000 )     1.37296279
  WF centre and spread    2  (  0.000001, -0.000000,  2.794063 )     1.37296284
  WF centre and spread    3  ( -2.794063,  0.000000, -0.000000 )     1.37296290
  Sum of centres and spreads ( -2.794062,  2.794063,  2.794063 )     4.11888854
 
     20    -0.236E-08     0.0000379923        4.1188904094       0.07  <-- CONV
        O_D=      0.0000000 O_OD=      0.0093390 O_TOT=      4.1188904 <-- SPRD
 Delta: O_D= -0.4994493E-09 O_OD= -0.1858318E-08 O_TOT= -0.2357768E-08 <-- DLTA
 ------------------------------------------------------------------------------
 Cycle:     21
  WF centre and spread    1  (  0.000001,  2.794063,  0.000000 )     1.37296279
  WF centre and spread    2  (  0.000001, -0.000000,  2.794063 )     1.37296284
  WF centre and spread    3  ( -2.794063,  0.000000, -0.000000 )     1.37296290
  Sum of centres and spreads ( -2.794062,  2.794063,  2.794063 )     4.11888853
 
     21    -0.903E-09     0.0000447342        4.1188904085       0.07  <-- CONV
        O_D=      0.0000000 O_OD=      0.0093390 O_TOT=      4.1188904 <-- SPRD
 Delta: O_D= -0.6454002E-09 O_OD= -0.2577546E-09 O_TOT= -0.9031549E-09 <-- DLTA
 ------------------------------------------------------------------------------
 Cycle:     22
  WF centre and spread    1  (  0.000001,  2.794063,  0.000000 )     1.37296279
  WF centre and spread    2  (  0.000001, -0.000000,  2.794063 )     1.37296284
  WF centre and spread    3  ( -2.794063,  0.000000, -0.000000 )     1.37296290
  Sum of centres and spreads ( -2.794062,  2.794063,  2.794063 )     4.11888853
 
     22    -0.106E-08     0.0000312917        4.1188904074       0.07  <-- CONV
        O_D=      0.0000000 O_OD=      0.0093390 O_TOT=      4.1188904 <-- SPRD
 Delta: O_D= -0.4387920E-09 O_OD= -0.6220715E-09 O_TOT= -0.1060863E-08 <-- DLTA
 ------------------------------------------------------------------------------
 Cycle:     23
  WF centre and spread    1  (  0.000000,  2.794063,  0.000000 )     1.37296279
  WF centre and spread    2  (  0.000000, -0.000000,  2.794063 )     1.37296284
  WF centre and spread    3  ( -2.794063,  0.000000, -0.000000 )     1.37296290
  Sum of centres and spreads ( -2.794062,  2.794063,  2.794063 )     4.11888853
 
     23    -0.976E-09     0.0000226534        4.1188904064       0.08  <-- CONV
        O_D=      0.0000000 O_OD=      0.0093390 O_TOT=      4.1188904 <-- SPRD
 Delta: O_D= -0.3981308E-09 O_OD= -0.5782058E-09 O_TOT= -0.9763363E-09 <-- DLTA
 ------------------------------------------------------------------------------
 Cycle:     24
  WF centre and spread    1  (  0.000000,  2.794063,  0.000000 )     1.37296279
  WF centre and spread    2  (  0.000000, -0.000000,  2.794063 )     1.37296284
  WF centre and spread    3  ( -2.794063,  0.000000, -0.000000 )     1.37296290
  Sum of centres and spreads ( -2.794062,  2.794063,  2.794063 )     4.11888853
 
     24    -0.406E-09     0.0000194109        4.1188904060       0.08  <-- CONV
        O_D=      0.0000000 O_OD=      0.0093390 O_TOT=      4.1188904 <-- SPRD
 Delta: O_D= -0.1366454E-09 O_OD= -0.2693182E-09 O_TOT= -0.4059633E-09 <-- DLTA
 ------------------------------------------------------------------------------
 Cycle:     25
  WF centre and spread    1  (  0.000000,  2.794063,  0.000000 )     1.37296279
  WF centre and spread    2  (  0.000000, -0.000000,  2.794063 )     1.37296284
  WF centre and spread    3  ( -2.794063,  0.000000, -0.000000 )     1.37296290
  Sum of centres and spreads ( -2.794062,  2.794063,  2.794063 )     4.11888853
 
     25    -0.103E-11     0.0000152929        4.1188904060       0.08  <-- CONV
        O_D=      0.0000000 O_OD=      0.0093390 O_TOT=      4.1188904 <-- SPRD
 Delta: O_D= -0.4712654E-12 O_OD= -0.5547958E-12 O_TOT= -0.1026734E-11 <-- DLTA
 ------------------------------------------------------------------------------
 Cycle:     26
  WF centre and spread    1  (  0.000000,  2.794063,  0.000000 )     1.37296279
  WF centre and spread    2  (  0.000000, -0.000000,  2.794063 )     1.37296284
  WF centre and spread    3  ( -2.794063,  0.000000, -0.000000 )     1.37296290
  Sum of centres and spreads ( -2.794062,  2.794063,  2.794063 )     4.11888853
 
     26    -0.443E-09     0.0000152756        4.1188904056       0.08  <-- CONV
        O_D=      0.0000000 O_OD=      0.0093390 O_TOT=      4.1188904 <-- SPRD
 Delta: O_D= -0.1509265E-09 O_OD= -0.2917619E-09 O_TOT= -0.4426886E-09 <-- DLTA
 ------------------------------------------------------------------------------
 Cycle:     27
  WF centre and spread    1  (  0.000000,  2.794063,  0.000000 )     1.37296279
  WF centre and spread    2  (  0.000000, -0.000000,  2.794063 )     1.37296284
  WF centre and spread    3  ( -2.794063,  0.000000, -0.000000 )     1.37296290
  Sum of centres and spreads ( -2.794062,  2.794063,  2.794063 )     4.11888853
 
     27    -0.468E-10     0.0000109685        4.1188904055       0.09  <-- CONV
        O_D=      0.0000000 O_OD=      0.0093390 O_TOT=      4.1188904 <-- SPRD
 Delta: O_D= -0.2141074E-10 O_OD= -0.2537344E-10 O_TOT= -0.4678391E-10 <-- DLTA
 ------------------------------------------------------------------------------
 Cycle:     28
  WF centre and spread    1  (  0.000000,  2.794063,  0.000000 )     1.37296279
  WF centre and spread    2  (  0.000000, -0.000000,  2.794063 )     1.37296284
  WF centre and spread    3  ( -2.794063,  0.000000, -0.000000 )     1.37296290
  Sum of centres and spreads ( -2.794062,  2.794063,  2.794063 )     4.11888853
 
     28    -0.718E-12     0.0000105190        4.1188904055       0.09  <-- CONV
        O_D=      0.0000000 O_OD=      0.0093390 O_TOT=      4.1188904 <-- SPRD
 Delta: O_D= -0.4123202E-12 O_OD= -0.3047944E-12 O_TOT= -0.7176482E-12 <-- DLTA
 ------------------------------------------------------------------------------
 Cycle:     29
  WF centre and spread    1  (  0.000000,  2.794063,  0.000000 )     1.37296279
  WF centre and spread    2  (  0.000000,  0.000000,  2.794063 )     1.37296284
  WF centre and spread    3  ( -2.794063,  0.000000, -0.000000 )     1.37296290
  Sum of centres and spreads ( -2.794062,  2.794063,  2.794063 )     4.11888853
 
     29    -0.155E-09     0.0000104999        4.1188904054       0.09  <-- CONV
        O_D=      0.0000000 O_OD=      0.0093390 O_TOT=      4.1188904 <-- SPRD
 Delta: O_D= -0.8197652E-10 O_OD= -0.7327766E-10 O_TOT= -0.1552536E-09 <-- DLTA
 ------------------------------------------------------------------------------
 Cycle:     30
  WF centre and spread    1  (  0.000000,  2.794063,  0.000000 )     1.37296279
  WF centre and spread    2  (  0.000000,  0.000000,  2.794063 )     1.37296284
  WF centre and spread    3  ( -2.794063,  0.000000, -0.000000 )     1.37296290
  Sum of centres and spreads ( -2.794062,  2.794063,  2.794063 )     4.11888853
 
     30    -0.239E-12     0.0000054894        4.1188904054       0.09  <-- CONV
        O_D=      0.0000000 O_OD=      0.0093390 O_TOT=      4.1188904 <-- SPRD
 Delta: O_D= -0.8204909E-13 O_OD= -0.1575285E-12 O_TOT= -0.2389200E-12 <-- DLTA
 ------------------------------------------------------------------------------
 Cycle:     31
  WF centre and spread    1  (  0.000000,  2.794063,  0.000000 )     1.37296279
  WF centre and spread    2  (  0.000000,  0.000000,  2.794063 )     1.37296284
  WF centre and spread    3  ( -2.794063,  0.000000, -0.000000 )     1.37296290
  Sum of centres and spreads ( -2.794062,  2.794063,  2.794063 )     4.11888853
 
     31    -0.133E-12     0.0000054841        4.1188904054       0.09  <-- CONV
        O_D=      0.0000000 O_OD=      0.0093390 O_TOT=      4.1188904 <-- SPRD
 Delta: O_D= -0.4745851E-13 O_OD= -0.8454001E-13 O_TOT= -0.1332268E-12 <-- DLTA
 ------------------------------------------------------------------------------
 Cycle:     32
  WF centre and spread    1  (  0.000000,  2.794063,  0.000000 )     1.37296279
  WF centre and spread    2  (  0.000000,  0.000000,  2.794063 )     1.37296284
  WF centre and spread    3  ( -2.794063,  0.000000, -0.000000 )     1.37296290
  Sum of centres and spreads ( -2.794062,  2.794063,  2.794063 )     4.11888853
 
     32    -0.264E-12     0.0000054803        4.1188904054       0.10  <-- CONV
        O_D=      0.0000000 O_OD=      0.0093390 O_TOT=      4.1188904 <-- SPRD
 Delta: O_D= -0.9471507E-13 O_OD= -0.1686914E-12 O_TOT= -0.2637890E-12 <-- DLTA
 ------------------------------------------------------------------------------
 Cycle:     33
  WF centre and spread    1  (  0.000000,  2.794063,  0.000000 )     1.37296279
  WF centre and spread    2  (  0.000000,  0.000000,  2.794063 )     1.37296284
  WF centre and spread    3  ( -2.794063,  0.000000, -0.000000 )     1.37296290
  Sum of centres and spreads ( -2.794062,  2.794063,  2.794063 )     4.11888853
 
     33    -0.472E-10     0.0000054728        4.1188904053       0.10  <-- CONV
        O_D=      0.0000000 O_OD=      0.0093390 O_TOT=      4.1188904 <-- SPRD
 Delta: O_D= -0.1686698E-10 O_OD= -0.3038172E-10 O_TOT= -0.4724754E-10 <-- DLTA
 ------------------------------------------------------------------------------
 Cycle:     34
  WF centre and spread    1  (  0.000000,  2.794063,  0.000000 )     1.37296279
  WF centre and spread    2  (  0.000000,  0.000000,  2.794063 )     1.37296284
  WF centre and spread    3  ( -2.794063,  0.000000, -0.000000 )     1.37296290
  Sum of centres and spreads ( -2.794062,  2.794063,  2.794063 )     4.11888853
 
     34    -0.229E-12     0.0000040869        4.1188904053       0.10  <-- CONV
        O_D=      0.0000000 O_OD=      0.0093390 O_TOT=      4.1188904 <-- SPRD
 Delta: O_D= -0.8066981E-13 O_OD= -0.1484490E-12 O_TOT= -0.2291500E-12 <-- DLTA
 ------------------------------------------------------------------------------
 Cycle:     35
  WF centre and spread    1  (  0.000000,  2.794063,  0.000000 )     1.37296279
  WF centre and spread    2  (  0.000000,  0.000000,  2.794063 )     1.37296284
  WF centre and spread    3  ( -2.794063,  0.000000, -0.000000 )     1.37296290
  Sum of centres and spreads ( -2.794062,  2.794063,  2.794063 )     4.11888853
 
     35    -0.301E-12     0.0000040809        4.1188904053       0.10  <-- CONV
        O_D=      0.0000000 O_OD=      0.0093390 O_TOT=      4.1188904 <-- SPRD
 Delta: O_D= -0.1057717E-12 O_OD= -0.1952154E-12 O_TOT= -0.3010925E-12 <-- DLTA
 ------------------------------------------------------------------------------
 Cycle:     36
  WF centre and spread    1  (  0.000000,  2.794063,  0.000000 )     1.37296279
  WF centre and spread    2  (  0.000000,  0.000000,  2.794063 )     1.37296284
  WF centre and spread    3  ( -2.794063,  0.000000, -0.000000 )     1.37296290
  Sum of centres and spreads ( -2.794062,  2.794063,  2.794063 )     4.11888853
 
     36    -0.372E-12     0.0000040734        4.1188904053       0.10  <-- CONV
        O_D=      0.0000000 O_OD=      0.0093390 O_TOT=      4.1188904 <-- SPRD
 Delta: O_D= -0.1305283E-12 O_OD= -0.2413694E-12 O_TOT= -0.3721468E-12 <-- DLTA
 ------------------------------------------------------------------------------
 Cycle:     37
  WF centre and spread    1  (  0.000000,  2.794063,  0.000000 )     1.37296279
  WF centre and spread    2  (  0.000000,  0.000000,  2.794063 )     1.37296284
  WF centre and spread    3  ( -2.794063,  0.000000, -0.000000 )     1.37296290
  Sum of centres and spreads ( -2.794062,  2.794063,  2.794063 )     4.11888853
 
     37    -0.719E-13     0.0000040644        4.1188904053       0.10  <-- CONV
        O_D=      0.0000000 O_OD=      0.0093390 O_TOT=      4.1188904 <-- SPRD
 Delta: O_D= -0.2532590E-13 O_OD= -0.4718101E-13 O_TOT= -0.7194245E-13 <-- DLTA
 ------------------------------------------------------------------------------
 Cycle:     38
  WF centre and spread    1  (  0.000000,  2.794063,  0.000000 )     1.37296279
  WF centre and spread    2  (  0.000000,  0.000000,  2.794063 )     1.37296284
  WF centre and spread    3  ( -2.794063,  0.000000, -0.000000 )     1.37296290
  Sum of centres and spreads ( -2.794062,  2.794063,  2.794063 )     4.11888853
 
     38    -0.145E-12     0.0000040629        4.1188904053       0.11  <-- CONV
        O_D=      0.0000000 O_OD=      0.0093390 O_TOT=      4.1188904 <-- SPRD
 Delta: O_D= -0.5059397E-13 O_OD= -0.9426487E-13 O_TOT= -0.1447731E-12 <-- DLTA
 ------------------------------------------------------------------------------
 Cycle:     39
  WF centre and spread    1  (  0.000000,  2.794063,  0.000000 )     1.37296279
  WF centre and spread    2  (  0.000000,  0.000000,  2.794063 )     1.37296284
  WF centre and spread    3  ( -2.794063,  0.000000, -0.000000 )     1.37296290
  Sum of centres and spreads ( -2.794062,  2.794063,  2.794063 )     4.11888853
 
     39    -0.218E-12     0.0000040599        4.1188904053       0.11  <-- CONV
        O_D=      0.0000000 O_OD=      0.0093390 O_TOT=      4.1188904 <-- SPRD
 Delta: O_D= -0.7572791E-13 O_OD= -0.1410833E-12 O_TOT= -0.2176037E-12 <-- DLTA
 ------------------------------------------------------------------------------
 Cycle:     40
  WF centre and spread    1  (  0.000000,  2.794063,  0.000000 )     1.37296279
  WF centre and spread    2  (  0.000000,  0.000000,  2.794063 )     1.37296284
  WF centre and spread    3  ( -2.794063,  0.000000, -0.000000 )     1.37296290
  Sum of centres and spreads ( -2.794062,  2.794063,  2.794063 )     4.11888853
 
     40    -0.288E-12     0.0000040554        4.1188904053       0.11  <-- CONV
        O_D=      0.0000000 O_OD=      0.0093390 O_TOT=      4.1188904 <-- SPRD
 Delta: O_D= -0.1006525E-12 O_OD= -0.1875618E-12 O_TOT= -0.2877698E-12 <-- DLTA
 ------------------------------------------------------------------------------
 Cycle:     41
  WF centre and spread    1  (  0.000000,  2.794063,  0.000000 )     1.37296279
  WF centre and spread    2  (  0.000000,  0.000000,  2.794063 )     1.37296284
  WF centre and spread    3  ( -2.794063,  0.000000, -0.000000 )     1.37296290
  Sum of centres and spreads ( -2.794062,  2.794063,  2.794063 )     4.11888853
 
     41    -0.359E-12     0.0000040493        4.1188904053       0.11  <-- CONV
        O_D=      0.0000000 O_OD=      0.0093390 O_TOT=      4.1188904 <-- SPRD
 Delta: O_D= -0.1252945E-12 O_OD= -0.2334764E-12 O_TOT= -0.3588241E-12 <-- DLTA
 ------------------------------------------------------------------------------
 Cycle:     42
  WF centre and spread    1  (  0.000000,  2.794063,  0.000000 )     1.37296279
  WF centre and spread    2  (  0.000000,  0.000000,  2.794063 )     1.37296284
  WF centre and spread    3  ( -2.794063,  0.000000, -0.000000 )     1.37296290
  Sum of centres and spreads ( -2.794062,  2.794063,  2.794063 )     4.11888853
 
     42    -0.428E-12     0.0000040419        4.1188904053       0.11  <-- CONV
        O_D=      0.0000000 O_OD=      0.0093390 O_TOT=      4.1188904 <-- SPRD
 Delta: O_D= -0.1495827E-12 O_OD= -0.2788013E-12 O_TOT= -0.4281020E-12 <-- DLTA
 ------------------------------------------------------------------------------
 Cycle:     43
  WF centre and spread    1  (  0.000000,  2.794063,  0.000000 )     1.37296279
  WF centre and spread    2  (  0.000000,  0.000000,  2.794063 )     1.37296284
  WF centre and spread    3  ( -2.794063,  0.000000, -0.000000 )     1.37296290
  Sum of centres and spreads ( -2.794062,  2.794063,  2.794063 )     4.11888853
 
     43    -0.719E-13     0.0000040329        4.1188904053       0.11  <-- CONV
        O_D=      0.0000000 O_OD=      0.0093390 O_TOT=      4.1188904 <-- SPRD
 Delta: O_D= -0.2492317E-13 O_OD= -0.4646457E-13 O_TOT= -0.7194245E-13 <-- DLTA
 ------------------------------------------------------------------------------
 Cycle:     44
  WF centre and spread    1  (  0.000000,  2.794063,  0.000000 )     1.37296279
  WF centre and spread    2  (  0.000000,  0.000000,  2.794063 )     1.37296284
  WF centre and spread    3  ( -2.794063,  0.000000, -0.000000 )     1.37296290
  Sum of centres and spreads ( -2.794062,  2.794063,  2.794063 )     4.11888853
 
     44    -0.143E-12     0.0000040315        4.1188904053       0.12  <-- CONV
        O_D=      0.0000000 O_OD=      0.0093390 O_TOT=      4.1188904 <-- SPRD
 Delta: O_D= -0.4979055E-13 O_OD= -0.9282679E-13 O_TOT= -0.1429967E-12 <-- DLTA
 ------------------------------------------------------------------------------
 Cycle:     45
  WF centre and spread    1  (  0.000000,  2.794063,  0.000000 )     1.37296279
  WF centre and spread    2  (  0.000000,  0.000000,  2.794063 )     1.37296284
  WF centre and spread    3  ( -2.794063,  0.000000, -0.000000 )     1.37296290
  Sum of centres and spreads ( -2.794062,  2.794063,  2.794063 )     4.11888853
 
     45    -0.166E-10     0.0000040285        4.1188904053       0.12  <-- CONV
        O_D=      0.0000000 O_OD=      0.0093390 O_TOT=      4.1188904 <-- SPRD
 Delta: O_D= -0.5777417E-11 O_OD= -0.1079522E-10 O_TOT= -0.1657163E-10 <-- DLTA
 ------------------------------------------------------------------------------
 Cycle:     46
  WF centre and spread    1  (  0.000000,  2.794063,  0.000000 )     1.37296279
  WF centre and spread    2  (  0.000000,  0.000000,  2.794063 )     1.37296284
  WF centre and spread    3  ( -2.794063,  0.000000, -0.000000 )     1.37296290
  Sum of centres and spreads ( -2.794062,  2.794063,  2.794063 )     4.11888853
 
     46    -0.224E-12     0.0000036921        4.1188904053       0.12  <-- CONV
        O_D=      0.0000000 O_OD=      0.0093390 O_TOT=      4.1188904 <-- SPRD
 Delta: O_D= -0.7763516E-13 O_OD= -0.1455121E-12 O_TOT= -0.2238210E-12 <-- DLTA
 ------------------------------------------------------------------------------
 Cycle:     47
  WF centre and spread    1  (  0.000000,  2.794063,  0.000000 )     1.37296279
  WF centre and spread    2  (  0.000000,  0.000000,  2.794063 )     1.37296284
  WF centre and spread    3  ( -2.794063,  0.000000, -0.000000 )     1.37296290
  Sum of centres and spreads ( -2.794062,  2.794063,  2.794063 )     4.11888853
 
     47    -0.282E-12     0.0000036879        4.1188904053       0.12  <-- CONV
        O_D=      0.0000000 O_OD=      0.0093390 O_TOT=      4.1188904 <-- SPRD
 Delta: O_D= -0.9806761E-13 O_OD= -0.1839241E-12 O_TOT= -0.2815526E-12 <-- DLTA
 ------------------------------------------------------------------------------
 Cycle:     48
  WF centre and spread    1  (  0.000000,  2.794063,  0.000000 )     1.37296279
  WF centre and spread    2  (  0.000000,  0.000000,  2.794063 )     1.37296284
  WF centre and spread    3  ( -2.794063,  0.000000, -0.000000 )     1.37296290
  Sum of centres and spreads ( -2.794062,  2.794063,  2.794063 )     4.11888853
 
     48    -0.340E-12     0.0000036826        4.1188904053       0.12  <-- CONV
        O_D=      0.0000000 O_OD=      0.0093390 O_TOT=      4.1188904 <-- SPRD
 Delta: O_D= -0.1182775E-12 O_OD= -0.2219093E-12 O_TOT= -0.3401723E-12 <-- DLTA
 ------------------------------------------------------------------------------
 Cycle:     49
  WF centre and spread    1  (  0.000000,  2.794063,  0.000000 )     1.37296279
  WF centre and spread    2  (  0.000000,  0.000000,  2.794063 )     1.37296284
  WF centre and spread    3  ( -2.794063,  0.000000, -0.000000 )     1.37296290
  Sum of centres and spreads ( -2.794062,  2.794063,  2.794063 )     4.11888853
 
     49    -0.604E-13     0.0000036762        4.1188904053       0.12  <-- CONV
        O_D=      0.0000000 O_OD=      0.0093390 O_TOT=      4.1188904 <-- SPRD
 Delta: O_D= -0.2060625E-13 O_OD= -0.3872423E-13 O_TOT= -0.6039613E-13 <-- DLTA
 ------------------------------------------------------------------------------
 Cycle:     50
  WF centre and spread    1  (  0.000000,  2.794063,  0.000000 )     1.37296279
  WF centre and spread    2  (  0.000000,  0.000000,  2.794063 )     1.37296284
  WF centre and spread    3  ( -2.794063,  0.000000, -0.000000 )     1.37296290
  Sum of centres and spreads ( -2.794062,  2.794063,  2.794063 )     4.11888853
 
     50    -0.118E-12     0.0000036752        4.1188904053       0.12  <-- CONV
        O_D=      0.0000000 O_OD=      0.0093390 O_TOT=      4.1188904 <-- SPRD
 Delta: O_D= -0.4117755E-13 O_OD= -0.7737214E-13 O_TOT= -0.1181277E-12 <-- DLTA
 ------------------------------------------------------------------------------
 Cycle:     51
  WF centre and spread    1  (  0.000000,  2.794063,  0.000000 )     1.37296279
  WF centre and spread    2  (  0.000000,  0.000000,  2.794063 )     1.37296284
  WF centre and spread    3  ( -2.794063,  0.000000, -0.000000 )     1.37296290
  Sum of centres and spreads ( -2.794062,  2.794063,  2.794063 )     4.11888853
 
     51    -0.177E-12     0.0000036732        4.1188904053       0.13  <-- CONV
        O_D=      0.0000000 O_OD=      0.0093390 O_TOT=      4.1188904 <-- SPRD
 Delta: O_D= -0.6166758E-13 O_OD= -0.1158639E-12 O_TOT= -0.1767475E-12 <-- DLTA
 ------------------------------------------------------------------------------
 Cycle:     52
  WF centre and spread    1  (  0.000000,  2.794063,  0.000000 )     1.37296279
  WF centre and spread    2  (  0.000000,  0.000000,  2.794063 )     1.37296284
  WF centre and spread    3  ( -2.794063,  0.000000, -0.000000 )     1.37296290
  Sum of centres and spreads ( -2.794062,  2.794063,  2.794063 )     4.11888853
 
     52    -0.237E-12     0.0000036701        4.1188904053       0.13  <-- CONV
        O_D=      0.0000000 O_OD=      0.0093390 O_TOT=      4.1188904 <-- SPRD
 Delta: O_D= -0.8203057E-13 O_OD= -0.1541458E-12 O_TOT= -0.2371436E-12 <-- DLTA
 ------------------------------------------------------------------------------
 Cycle:     53
  WF centre and spread    1  (  0.000000,  2.794063,  0.000000 )     1.37296279
  WF centre and spread    2  (  0.000000,  0.000000,  2.794063 )     1.37296284
  WF centre and spread    3  ( -2.794063,  0.000000, -0.000000 )     1.37296290
  Sum of centres and spreads ( -2.794062,  2.794063,  2.794063 )     4.11888853
 
     53    -0.294E-12     0.0000036660        4.1188904053       0.13  <-- CONV
        O_D=      0.0000000 O_OD=      0.0093390 O_TOT=      4.1188904 <-- SPRD
 Delta: O_D= -0.1022216E-12 O_OD= -0.1920686E-12 O_TOT= -0.2939871E-12 <-- DLTA
 ------------------------------------------------------------------------------
 Cycle:     54
  WF centre and spread    1  (  0.000000,  2.794063,  0.000000 )     1.37296279
  WF centre and spread    2  (  0.000000,  0.000000,  2.794063 )     1.37296284
  WF centre and spread    3  ( -2.794063,  0.000000, -0.000000 )     1.37296290
  Sum of centres and spreads ( -2.794062,  2.794063,  2.794063 )     4.11888853
 
     54    -0.352E-12     0.0000036609        4.1188904053       0.13  <-- CONV
        O_D=      0.0000000 O_OD=      0.0093390 O_TOT=      4.1188904 <-- SPRD
 Delta: O_D= -0.1221968E-12 O_OD= -0.2296271E-12 O_TOT= -0.3517187E-12 <-- DLTA
 ------------------------------------------------------------------------------
 Cycle:     55
  WF centre and spread    1  (  0.000000,  2.794063,  0.000000 )     1.37296279
  WF centre and spread    2  (  0.000000,  0.000000,  2.794063 )     1.37296284
  WF centre and spread    3  ( -2.794063,  0.000000, -0.000000 )     1.37296290
  Sum of centres and spreads ( -2.794062,  2.794063,  2.794063 )     4.11888853
 
     55    -0.586E-13     0.0000036548        4.1188904053       0.13  <-- CONV
        O_D=      0.0000000 O_OD=      0.0093390 O_TOT=      4.1188904 <-- SPRD
 Delta: O_D= -0.2036348E-13 O_OD= -0.3826973E-13 O_TOT= -0.5861978E-13 <-- DLTA
 ------------------------------------------------------------------------------
 Cycle:     56
  WF centre and spread    1  (  0.000000,  2.794063,  0.000000 )     1.37296279
  WF centre and spread    2  (  0.000000,  0.000000,  2.794063 )     1.37296284
  WF centre and spread    3  ( -2.794063,  0.000000, -0.000000 )     1.37296290
  Sum of centres and spreads ( -2.794062,  2.794063,  2.794063 )     4.11888853
 
     56    -0.117E-12     0.0000036538        4.1188904053       0.13  <-- CONV
        O_D=      0.0000000 O_OD=      0.0093390 O_TOT=      4.1188904 <-- SPRD
 Delta: O_D= -0.4069299E-13 O_OD= -0.7647875E-13 O_TOT= -0.1172396E-12 <-- DLTA
 ------------------------------------------------------------------------------
 Cycle:     57
  WF centre and spread    1  (  0.000000,  2.794063,  0.000000 )     1.37296279
  WF centre and spread    2  (  0.000000,  0.000000,  2.794063 )     1.37296284
  WF centre and spread    3  ( -2.794063,  0.000000, -0.000000 )     1.37296290
  Sum of centres and spreads ( -2.794062,  2.794063,  2.794063 )     4.11888853
 
     57    -0.176E-12     0.0000036518        4.1188904053       0.13  <-- CONV
        O_D=      0.0000000 O_OD=      0.0093390 O_TOT=      4.1188904 <-- SPRD
 Delta: O_D= -0.6094353E-13 O_OD= -0.1145403E-12 O_TOT= -0.1758593E-12 <-- DLTA
 ------------------------------------------------------------------------------
 Cycle:     58
  WF centre and spread    1  (  0.000000,  2.794063,  0.000000 )     1.37296279
  WF centre and spread    2  (  0.000000,  0.000000,  2.794063 )     1.37296284
  WF centre and spread    3  ( -2.794063,  0.000000, -0.000000 )     1.37296290
  Sum of centres and spreads ( -2.794062,  2.794063,  2.794063 )     4.11888853
 
     58    -0.233E-12     0.0000036487        4.1188904053       0.13  <-- CONV
        O_D=      0.0000000 O_OD=      0.0093390 O_TOT=      4.1188904 <-- SPRD
 Delta: O_D= -0.8107059E-13 O_OD= -0.1523694E-12 O_TOT= -0.2327027E-12 <-- DLTA
 ------------------------------------------------------------------------------
 Cycle:     59
  WF centre and spread    1  (  0.000000,  2.794063,  0.000000 )     1.37296279
  WF centre and spread    2  (  0.000000,  0.000000,  2.794063 )     1.37296284
  WF centre and spread    3  ( -2.794063,  0.000000, -0.000000 )     1.37296290
  Sum of centres and spreads ( -2.794062,  2.794063,  2.794063 )     4.11888853
 
     59    -0.291E-12     0.0000036447        4.1188904053       0.14  <-- CONV
        O_D=      0.0000000 O_OD=      0.0093390 O_TOT=      4.1188904 <-- SPRD
 Delta: O_D= -0.1010305E-12 O_OD= -0.1898776E-12 O_TOT= -0.2913225E-12 <-- DLTA
 ------------------------------------------------------------------------------
 Cycle:     60
  WF centre and spread    1  (  0.000000,  2.794063,  0.000000 )     1.37296279
  WF centre and spread    2  (  0.000000,  0.000000,  2.794063 )     1.37296284
  WF centre and spread    3  ( -2.794063,  0.000000, -0.000000 )     1.37296290
  Sum of centres and spreads ( -2.794062,  2.794063,  2.794063 )     4.11888853
 
     60    -0.348E-12     0.0000036397        4.1188904053       0.14  <-- CONV
        O_D=      0.0000000 O_OD=      0.0093390 O_TOT=      4.1188904 <-- SPRD
 Delta: O_D= -0.1207806E-12 O_OD= -0.2270024E-12 O_TOT= -0.3481659E-12 <-- DLTA
 ------------------------------------------------------------------------------
 Cycle:     61
  WF centre and spread    1  (  0.000000,  2.794063,  0.000000 )     1.37296279
  WF centre and spread    2  (  0.000000,  0.000000,  2.794063 )     1.37296284
  WF centre and spread    3  ( -2.794063,  0.000000, -0.000000 )     1.37296290
  Sum of centres and spreads ( -2.794062,  2.794063,  2.794063 )     4.11888853
 
     61    -0.149E-11     0.0000036338        4.1188904053       0.14  <-- CONV
        O_D=      0.0000000 O_OD=      0.0093390 O_TOT=      4.1188904 <-- SPRD
 Delta: O_D= -0.5190684E-12 O_OD= -0.9757403E-12 O_TOT= -0.1493916E-11 <-- DLTA
 ------------------------------------------------------------------------------
 Cycle:     62
  WF centre and spread    1  (  0.000000,  2.794063,  0.000000 )     1.37296279
  WF centre and spread    2  (  0.000000,  0.000000,  2.794063 )     1.37296284
  WF centre and spread    3  ( -2.794063,  0.000000, -0.000000 )     1.37296290
  Sum of centres and spreads ( -2.794062,  2.794063,  2.794063 )     4.11888853
 
     62    -0.115E-12     0.0000036084        4.1188904053       0.14  <-- CONV
        O_D=      0.0000000 O_OD=      0.0093390 O_TOT=      4.1188904 <-- SPRD
 Delta: O_D= -0.3954492E-13 O_OD= -0.7432596E-13 O_TOT= -0.1145750E-12 <-- DLTA
 ------------------------------------------------------------------------------
 Cycle:     63
  WF centre and spread    1  (  0.000000,  2.794063,  0.000000 )     1.37296279
  WF centre and spread    2  (  0.000000,  0.000000,  2.794063 )     1.37296284
  WF centre and spread    3  ( -2.794063,  0.000000, -0.000000 )     1.37296290
  Sum of centres and spreads ( -2.794062,  2.794063,  2.794063 )     4.11888853
 
     63    -0.120E-10     0.0000036064        4.1188904053       0.14  <-- CONV
        O_D=      0.0000000 O_OD=      0.0093390 O_TOT=      4.1188904 <-- SPRD
 Delta: O_D= -0.4173959E-11 O_OD= -0.7850673E-11 O_TOT= -0.1202416E-10 <-- DLTA
 ------------------------------------------------------------------------------
 Cycle:     64
  WF centre and spread    1  (  0.000000,  2.794063,  0.000000 )     1.37296279
  WF centre and spread    2  (  0.000000,  0.000000,  2.794063 )     1.37296284
  WF centre and spread    3  ( -2.794063,  0.000000, -0.000000 )     1.37296290
  Sum of centres and spreads ( -2.794062,  2.794063,  2.794063 )     4.11888853
 
     64    -0.195E-12     0.0000034064        4.1188904053       0.14  <-- CONV
        O_D=      0.0000000 O_OD=      0.0093390 O_TOT=      4.1188904 <-- SPRD
 Delta: O_D= -0.6745701E-13 O_OD= -0.1269557E-12 O_TOT= -0.1945111E-12 <-- DLTA
 ------------------------------------------------------------------------------
 Cycle:     65
  WF centre and spread    1  (  0.000000,  2.794063,  0.000000 )     1.37296279
  WF centre and spread    2  (  0.000000,  0.000000,  2.794063 )     1.37296284
  WF centre and spread    3  ( -2.794063,  0.000000, -0.000000 )     1.37296290
  Sum of centres and spreads ( -2.794062,  2.794063,  2.794063 )     4.11888853
 
     65    -0.245E-12     0.0000034033        4.1188904053       0.15  <-- CONV
        O_D=      0.0000000 O_OD=      0.0093390 O_TOT=      4.1188904 <-- SPRD
 Delta: O_D= -0.8489359E-13 O_OD= -0.1597490E-12 O_TOT= -0.2451372E-12 <-- DLTA
 ------------------------------------------------------------------------------
 Cycle:     66
  WF centre and spread    1  (  0.000000,  2.794063,  0.000000 )     1.37296279
  WF centre and spread    2  (  0.000000,  0.000000,  2.794063 )     1.37296284
  WF centre and spread    3  ( -2.794063,  0.000000, -0.000000 )     1.37296290
  Sum of centres and spreads ( -2.794062,  2.794063,  2.794063 )     4.11888853
 
     66    -0.294E-12     0.0000033994        4.1188904053       0.15  <-- CONV
        O_D=      0.0000000 O_OD=      0.0093390 O_TOT=      4.1188904 <-- SPRD
 Delta: O_D= -0.1021812E-12 O_OD= -0.1922802E-12 O_TOT= -0.2939871E-12 <-- DLTA
 ------------------------------------------------------------------------------
 Cycle:     67
  WF centre and spread    1  (  0.000000,  2.794063,  0.000000 )     1.37296279
  WF centre and spread    2  (  0.000000,  0.000000,  2.794063 )     1.37296284
  WF centre and spread    3  ( -2.794063,  0.000000, -0.000000 )     1.37296290
  Sum of centres and spreads ( -2.794062,  2.794063,  2.794063 )     4.11888853
 
     67    -0.506E-13     0.0000033948        4.1188904053       0.15  <-- CONV
        O_D=      0.0000000 O_OD=      0.0093390 O_TOT=      4.1188904 <-- SPRD
 Delta: O_D= -0.1755473E-13 O_OD= -0.3304301E-13 O_TOT= -0.5062617E-13 <-- DLTA
 ------------------------------------------------------------------------------
 Cycle:     68
  WF centre and spread    1  (  0.000000,  2.794063,  0.000000 )     1.37296279
  WF centre and spread    2  (  0.000000,  0.000000,  2.794063 )     1.37296284
  WF centre and spread    3  ( -2.794063,  0.000000, -0.000000 )     1.37296290
  Sum of centres and spreads ( -2.794062,  2.794063,  2.794063 )     4.11888853
 
     68    -0.101E-12     0.0000033941        4.1188904053       0.15  <-- CONV
        O_D=      0.0000000 O_OD=      0.0093390 O_TOT=      4.1188904 <-- SPRD
 Delta: O_D= -0.3508607E-13 O_OD= -0.6602184E-13 O_TOT= -0.1012523E-12 <-- DLTA
 ------------------------------------------------------------------------------
 Cycle:     69
  WF centre and spread    1  (  0.000000,  2.794063,  0.000000 )     1.37296279
  WF centre and spread    2  (  0.000000,  0.000000,  2.794063 )     1.37296284
  WF centre and spread    3  ( -2.794063,  0.000000, -0.000000 )     1.37296290
  Sum of centres and spreads ( -2.794062,  2.794063,  2.794063 )     4.11888853
 
     69    -0.151E-12     0.0000033926        4.1188904053       0.15  <-- CONV
        O_D=      0.0000000 O_OD=      0.0093390 O_TOT=      4.1188904 <-- SPRD
 Delta: O_D= -0.5256293E-13 O_OD= -0.9892781E-13 O_TOT= -0.1509903E-12 <-- DLTA
 ------------------------------------------------------------------------------
 Cycle:     70
  WF centre and spread    1  (  0.000000,  2.794063,  0.000000 )     1.37296279
  WF centre and spread    2  (  0.000000,  0.000000,  2.794063 )     1.37296284
  WF centre and spread    3  ( -2.794063,  0.000000, -0.000000 )     1.37296290
  Sum of centres and spreads ( -2.794062,  2.794063,  2.794063 )     4.11888853
 
     70    -0.202E-12     0.0000033903        4.1188904053       0.15  <-- CONV
        O_D=      0.0000000 O_OD=      0.0093390 O_TOT=      4.1188904 <-- SPRD
 Delta: O_D= -0.6995447E-13 O_OD= -0.1316343E-12 O_TOT= -0.2016165E-12 <-- DLTA
 ------------------------------------------------------------------------------
 Cycle:     71
  WF centre and spread    1  (  0.000000,  2.794063,  0.000000 )     1.37296279
  WF centre and spread    2  (  0.000000,  0.000000,  2.794063 )     1.37296284
  WF centre and spread    3  ( -2.794063,  0.000000, -0.000000 )     1.37296290
  Sum of centres and spreads ( -2.794062,  2.794063,  2.794063 )     4.11888853
 
     71    -0.251E-12     0.0000033873        4.1188904053       0.15  <-- CONV
        O_D=      0.0000000 O_OD=      0.0093390 O_TOT=      4.1188904 <-- SPRD
 Delta: O_D= -0.8723030E-13 O_OD= -0.1641551E-12 O_TOT= -0.2513545E-12 <-- DLTA
 ------------------------------------------------------------------------------
 Cycle:     72
  WF centre and spread    1  (  0.000000,  2.794063,  0.000000 )     1.37296279
  WF centre and spread    2  (  0.000000,  0.000000,  2.794063 )     1.37296284
  WF centre and spread    3  ( -2.794063,  0.000000, -0.000000 )     1.37296290
  Sum of centres and spreads ( -2.794062,  2.794063,  2.794063 )     4.11888853
 
     72    -0.301E-12     0.0000033835        4.1188904053       0.16  <-- CONV
        O_D=      0.0000000 O_OD=      0.0093390 O_TOT=      4.1188904 <-- SPRD
 Delta: O_D= -0.1043606E-12 O_OD= -0.1963880E-12 O_TOT= -0.3010925E-12 <-- DLTA
 ------------------------------------------------------------------------------
 Cycle:     73
  WF centre and spread    1  (  0.000000,  2.794063,  0.000000 )     1.37296279
  WF centre and spread    2  (  0.000000,  0.000000,  2.794063 )     1.37296284
  WF centre and spread    3  ( -2.794063,  0.000000, -0.000000 )     1.37296290
  Sum of centres and spreads ( -2.794062,  2.794063,  2.794063 )     4.11888853
 
     73    -0.497E-13     0.0000033790        4.1188904053       0.16  <-- CONV
        O_D=      0.0000000 O_OD=      0.0093390 O_TOT=      4.1188904 <-- SPRD
 Delta: O_D= -0.1739299E-13 O_OD= -0.3272903E-13 O_TOT= -0.4973799E-13 <-- DLTA
 ------------------------------------------------------------------------------
 Cycle:     74
  WF centre and spread    1  (  0.000000,  2.794063,  0.000000 )     1.37296279
  WF centre and spread    2  (  0.000000,  0.000000,  2.794063 )     1.37296284
  WF centre and spread    3  ( -2.794063,  0.000000, -0.000000 )     1.37296290
  Sum of centres and spreads ( -2.794062,  2.794063,  2.794063 )     4.11888853
 
     74    -0.100E-12     0.0000033783        4.1188904053       0.16  <-- CONV
        O_D=      0.0000000 O_OD=      0.0093390 O_TOT=      4.1188904 <-- SPRD
 Delta: O_D= -0.3476311E-13 O_OD= -0.6539908E-13 O_TOT= -0.1003642E-12 <-- DLTA
 ------------------------------------------------------------------------------
 Cycle:     75
  WF centre and spread    1  (  0.000000,  2.794063,  0.000000 )     1.37296279
  WF centre and spread    2  (  0.000000,  0.000000,  2.794063 )     1.37296284
  WF centre and spread    3  ( -2.794063,  0.000000, -0.000000 )     1.37296290
  Sum of centres and spreads ( -2.794062,  2.794063,  2.794063 )     4.11888853
 
     75    -0.150E-12     0.0000033768        4.1188904053       0.16  <-- CONV
        O_D=      0.0000000 O_OD=      0.0093390 O_TOT=      4.1188904 <-- SPRD
 Delta: O_D= -0.5207990E-13 O_OD= -0.9799973E-13 O_TOT= -0.1501022E-12 <-- DLTA
 ------------------------------------------------------------------------------
 Cycle:     76
  WF centre and spread    1  (  0.000000,  2.794063,  0.000000 )     1.37296279
  WF centre and spread    2  (  0.000000,  0.000000,  2.794063 )     1.37296284
  WF centre and spread    3  ( -2.794063,  0.000000, -0.000000 )     1.37296290
  Sum of centres and spreads ( -2.794062,  2.794063,  2.794063 )     4.11888853
 
     76    -0.200E-12     0.0000033746        4.1188904053       0.16  <-- CONV
        O_D=      0.0000000 O_OD=      0.0093390 O_TOT=      4.1188904 <-- SPRD
 Delta: O_D= -0.6931320E-13 O_OD= -0.1304044E-12 O_TOT= -0.1998401E-12 <-- DLTA
 ------------------------------------------------------------------------------
 Cycle:     77
  WF centre and spread    1  (  0.000000,  2.794063,  0.000000 )     1.37296279
  WF centre and spread    2  (  0.000000,  0.000000,  2.794063 )     1.37296284
  WF centre and spread    3  ( -2.794063,  0.000000, -0.000000 )     1.37296290
  Sum of centres and spreads ( -2.794062,  2.794063,  2.794063 )     4.11888853
 
     77    -0.249E-12     0.0000033716        4.1188904053       0.16  <-- CONV
        O_D=      0.0000000 O_OD=      0.0093390 O_TOT=      4.1188904 <-- SPRD
 Delta: O_D= -0.8643323E-13 O_OD= -0.1626217E-12 O_TOT= -0.2486900E-12 <-- DLTA
 ------------------------------------------------------------------------------
 Cycle:     78
  WF centre and spread    1  (  0.000000,  2.794063,  0.000000 )     1.37296279
  WF centre and spread    2  (  0.000000,  0.000000,  2.794063 )     1.37296284
  WF centre and spread    3  ( -2.794063,  0.000000, -0.000000 )     1.37296290
  Sum of centres and spreads ( -2.794062,  2.794063,  2.794063 )     4.11888853
 
     78    -0.298E-12     0.0000033679        4.1188904053       0.16  <-- CONV
        O_D=      0.0000000 O_OD=      0.0093390 O_TOT=      4.1188904 <-- SPRD
 Delta: O_D= -0.1034108E-12 O_OD= -0.1945839E-12 O_TOT= -0.2984279E-12 <-- DLTA
 ------------------------------------------------------------------------------
 Cycle:     79
  WF centre and spread    1  (  0.000000,  2.794063,  0.000000 )     1.37296279
  WF centre and spread    2  (  0.000000,  0.000000,  2.794063 )     1.37296284
  WF centre and spread    3  ( -2.794063,  0.000000, -0.000000 )     1.37296290
  Sum of centres and spreads ( -2.794062,  2.794063,  2.794063 )     4.11888853
 
     79    -0.497E-13     0.0000033635        4.1188904053       0.16  <-- CONV
        O_D=      0.0000000 O_OD=      0.0093390 O_TOT=      4.1188904 <-- SPRD
 Delta: O_D= -0.1723478E-13 O_OD= -0.3241851E-13 O_TOT= -0.4973799E-13 <-- DLTA
 ------------------------------------------------------------------------------
 Cycle:     80
  WF centre and spread    1  (  0.000000,  2.794063,  0.000000 )     1.37296279
  WF centre and spread    2  (  0.000000,  0.000000,  2.794063 )     1.37296284
  WF centre and spread    3  ( -2.794063,  0.000000, -0.000000 )     1.37296290
  Sum of centres and spreads ( -2.794062,  2.794063,  2.794063 )     4.11888853
 
     80    -0.995E-13     0.0000033628        4.1188904053       0.17  <-- CONV
        O_D=      0.0000000 O_OD=      0.0093390 O_TOT=      4.1188904 <-- SPRD
 Delta: O_D= -0.3444716E-13 O_OD= -0.6480406E-13 O_TOT= -0.9947598E-13 <-- DLTA
 ------------------------------------------------------------------------------
 Cycle:     81
  WF centre and spread    1  (  0.000000,  2.794063,  0.000000 )     1.37296279
  WF centre and spread    2  (  0.000000,  0.000000,  2.794063 )     1.37296284
  WF centre and spread    3  ( -2.794063,  0.000000, -0.000000 )     1.37296290
  Sum of centres and spreads ( -2.794062,  2.794063,  2.794063 )     4.11888853
 
     81    -0.148E-12     0.0000033613        4.1188904053       0.17  <-- CONV
        O_D=      0.0000000 O_OD=      0.0093390 O_TOT=      4.1188904 <-- SPRD
 Delta: O_D= -0.5160735E-13 O_OD= -0.9709941E-13 O_TOT= -0.1483258E-12 <-- DLTA
 ------------------------------------------------------------------------------
 Cycle:     82
  WF centre and spread    1  (  0.000000,  2.794063,  0.000000 )     1.37296279
  WF centre and spread    2  (  0.000000,  0.000000,  2.794063 )     1.37296284
  WF centre and spread    3  ( -2.794063,  0.000000, -0.000000 )     1.37296290
  Sum of centres and spreads ( -2.794062,  2.794063,  2.794063 )     4.11888853
 
     82    -0.197E-12     0.0000033591        4.1188904053       0.17  <-- CONV
        O_D=      0.0000000 O_OD=      0.0093390 O_TOT=      4.1188904 <-- SPRD
 Delta: O_D= -0.6868579E-13 O_OD= -0.1292334E-12 O_TOT= -0.1971756E-12 <-- DLTA
 ------------------------------------------------------------------------------
 Cycle:     83
  WF centre and spread    1  (  0.000000,  2.794063,  0.000000 )     1.37296279
  WF centre and spread    2  (  0.000000,  0.000000,  2.794063 )     1.37296284
  WF centre and spread    3  ( -2.794063,  0.000000, -0.000000 )     1.37296290
  Sum of centres and spreads ( -2.794062,  2.794063,  2.794063 )     4.11888853
 
     83    -0.248E-12     0.0000033562        4.1188904053       0.17  <-- CONV
        O_D=      0.0000000 O_OD=      0.0093390 O_TOT=      4.1188904 <-- SPRD
 Delta: O_D= -0.8565333E-13 O_OD= -0.1611437E-12 O_TOT= -0.2478018E-12 <-- DLTA
 ------------------------------------------------------------------------------
 Cycle:     84
  WF centre and spread    1  (  0.000000,  2.794063,  0.000000 )     1.37296279
  WF centre and spread    2  (  0.000000,  0.000000,  2.794063 )     1.37296284
  WF centre and spread    3  ( -2.794063,  0.000000, -0.000000 )     1.37296290
  Sum of centres and spreads ( -2.794062,  2.794063,  2.794063 )     4.11888853
 
     84    -0.295E-12     0.0000033525        4.1188904053       0.17  <-- CONV
        O_D=      0.0000000 O_OD=      0.0093390 O_TOT=      4.1188904 <-- SPRD
 Delta: O_D= -0.1024814E-12 O_OD= -0.1927972E-12 O_TOT= -0.2948752E-12 <-- DLTA
 ------------------------------------------------------------------------------
 Cycle:     85
  WF centre and spread    1  (  0.000000,  2.794063,  0.000000 )     1.37296279
  WF centre and spread    2  (  0.000000,  0.000000,  2.794063 )     1.37296284
  WF centre and spread    3  ( -2.794063,  0.000000, -0.000000 )     1.37296290
  Sum of centres and spreads ( -2.794062,  2.794063,  2.794063 )     4.11888853
 
     85    -0.488E-13     0.0000033482        4.1188904053       0.17  <-- CONV
        O_D=      0.0000000 O_OD=      0.0093390 O_TOT=      4.1188904 <-- SPRD
 Delta: O_D= -0.1707995E-13 O_OD= -0.3213055E-13 O_TOT= -0.4884981E-13 <-- DLTA
 ------------------------------------------------------------------------------
 Cycle:     86
  WF centre and spread    1  (  0.000000,  2.794063,  0.000000 )     1.37296279
  WF centre and spread    2  (  0.000000,  0.000000,  2.794063 )     1.37296284
  WF centre and spread    3  ( -2.794063,  0.000000, -0.000000 )     1.37296290
  Sum of centres and spreads ( -2.794062,  2.794063,  2.794063 )     4.11888853
 
     86    -0.986E-13     0.0000033475        4.1188904053       0.17  <-- CONV
        O_D=      0.0000000 O_OD=      0.0093390 O_TOT=      4.1188904 <-- SPRD
 Delta: O_D= -0.3413797E-13 O_OD= -0.6422640E-13 O_TOT= -0.9858780E-13 <-- DLTA
 ------------------------------------------------------------------------------
 Cycle:     87
  WF centre and spread    1  (  0.000000,  2.794063,  0.000000 )     1.37296279
  WF centre and spread    2  (  0.000000,  0.000000,  2.794063 )     1.37296284
  WF centre and spread    3  ( -2.794063,  0.000000, -0.000000 )     1.37296290
  Sum of centres and spreads ( -2.794062,  2.794063,  2.794063 )     4.11888853
 
     87    -0.148E-12     0.0000033460        4.1188904053       0.17  <-- CONV
        O_D=      0.0000000 O_OD=      0.0093390 O_TOT=      4.1188904 <-- SPRD
 Delta: O_D= -0.5114488E-13 O_OD= -0.9620429E-13 O_TOT= -0.1483258E-12 <-- DLTA
 ------------------------------------------------------------------------------
 Cycle:     88
  WF centre and spread    1  (  0.000000,  2.794063,  0.000000 )     1.37296279
  WF centre and spread    2  (  0.000000,  0.000000,  2.794063 )     1.37296284
  WF centre and spread    3  ( -2.794063,  0.000000, -0.000000 )     1.37296290
  Sum of centres and spreads ( -2.794062,  2.794063,  2.794063 )     4.11888853
 
     88    -0.195E-12     0.0000033439        4.1188904053       0.18  <-- CONV
        O_D=      0.0000000 O_OD=      0.0093390 O_TOT=      4.1188904 <-- SPRD
 Delta: O_D= -0.6807172E-13 O_OD= -0.1280503E-12 O_TOT= -0.1953993E-12 <-- DLTA
 ------------------------------------------------------------------------------
 Cycle:     89
  WF centre and spread    1  (  0.000000,  2.794063,  0.000000 )     1.37296279
  WF centre and spread    2  (  0.000000,  0.000000,  2.794063 )     1.37296284
  WF centre and spread    3  ( -2.794063,  0.000000, -0.000000 )     1.37296290
  Sum of centres and spreads ( -2.794062,  2.794063,  2.794063 )     4.11888853
 
     89    -0.245E-12     0.0000033410        4.1188904053       0.18  <-- CONV
        O_D=      0.0000000 O_OD=      0.0093390 O_TOT=      4.1188904 <-- SPRD
 Delta: O_D= -0.8488995E-13 O_OD= -0.1596882E-12 O_TOT= -0.2451372E-12 <-- DLTA
 ------------------------------------------------------------------------------
 Cycle:     90
  WF centre and spread    1  (  0.000000,  2.794063,  0.000000 )     1.37296279
  WF centre and spread    2  (  0.000000,  0.000000,  2.794063 )     1.37296284
  WF centre and spread    3  ( -2.794063,  0.000000, -0.000000 )     1.37296290
  Sum of centres and spreads ( -2.794062,  2.794063,  2.794063 )     4.11888853
 
     90    -0.292E-12     0.0000033374        4.1188904053       0.18  <-- CONV
        O_D=      0.0000000 O_OD=      0.0093390 O_TOT=      4.1188904 <-- SPRD
 Delta: O_D= -0.1015715E-12 O_OD= -0.1910538E-12 O_TOT= -0.2922107E-12 <-- DLTA
 ------------------------------------------------------------------------------
 Cycle:     91
  WF centre and spread    1  (  0.000000,  2.794063,  0.000000 )     1.37296279
  WF centre and spread    2  (  0.000000,  0.000000,  2.794063 )     1.37296284
  WF centre and spread    3  ( -2.794063,  0.000000, -0.000000 )     1.37296290
  Sum of centres and spreads ( -2.794062,  2.794063,  2.794063 )     4.11888853
 
     91    -0.488E-13     0.0000033331        4.1188904053       0.18  <-- CONV
        O_D=      0.0000000 O_OD=      0.0093390 O_TOT=      4.1188904 <-- SPRD
 Delta: O_D= -0.1692838E-13 O_OD= -0.3184952E-13 O_TOT= -0.4884981E-13 <-- DLTA
 ------------------------------------------------------------------------------
 Cycle:     92
  WF centre and spread    1  (  0.000000,  2.794063,  0.000000 )     1.37296279
  WF centre and spread    2  (  0.000000,  0.000000,  2.794063 )     1.37296284
  WF centre and spread    3  ( -2.794063,  0.000000, -0.000000 )     1.37296290
  Sum of centres and spreads ( -2.794062,  2.794063,  2.794063 )     4.11888853
 
     92    -0.968E-13     0.0000033324        4.1188904053       0.18  <-- CONV
        O_D=      0.0000000 O_OD=      0.0093390 O_TOT=      4.1188904 <-- SPRD
 Delta: O_D= -0.3383528E-13 O_OD= -0.6361578E-13 O_TOT= -0.9681145E-13 <-- DLTA
 ------------------------------------------------------------------------------
 Cycle:     93
  WF centre and spread    1  (  0.000000,  2.794063,  0.000000 )     1.37296279
  WF centre and spread    2  (  0.000000,  0.000000,  2.794063 )     1.37296284
  WF centre and spread    3  ( -2.794063,  0.000000, -0.000000 )     1.37296290
  Sum of centres and spreads ( -2.794062,  2.794063,  2.794063 )     4.11888853
 
     93    -0.147E-12     0.0000033310        4.1188904053       0.18  <-- CONV
        O_D=      0.0000000 O_OD=      0.0093390 O_TOT=      4.1188904 <-- SPRD
 Delta: O_D= -0.5069210E-13 O_OD= -0.9535601E-13 O_TOT= -0.1465494E-12 <-- DLTA
 ------------------------------------------------------------------------------
 Cycle:     94
  WF centre and spread    1  (  0.000000,  2.794063,  0.000000 )     1.37296279
  WF centre and spread    2  (  0.000000,  0.000000,  2.794063 )     1.37296284
  WF centre and spread    3  ( -2.794063,  0.000000, -0.000000 )     1.37296290
  Sum of centres and spreads ( -2.794062,  2.794063,  2.794063 )     4.11888853
 
     94    -0.194E-12     0.0000033289        4.1188904053       0.18  <-- CONV
        O_D=      0.0000000 O_OD=      0.0093390 O_TOT=      4.1188904 <-- SPRD
 Delta: O_D= -0.6747049E-13 O_OD= -0.1268950E-12 O_TOT= -0.1936229E-12 <-- DLTA
 ------------------------------------------------------------------------------
 Cycle:     95
  WF centre and spread    1  (  0.000000,  2.794063,  0.000000 )     1.37296279
  WF centre and spread    2  (  0.000000,  0.000000,  2.794063 )     1.37296284
  WF centre and spread    3  ( -2.794063,  0.000000, -0.000000 )     1.37296290
  Sum of centres and spreads ( -2.794062,  2.794063,  2.794063 )     4.11888853
 
     95    -0.243E-12     0.0000033260        4.1188904053       0.18  <-- CONV
        O_D=      0.0000000 O_OD=      0.0093390 O_TOT=      4.1188904 <-- SPRD
 Delta: O_D= -0.8414244E-13 O_OD= -0.1582484E-12 O_TOT= -0.2433609E-12 <-- DLTA
 ------------------------------------------------------------------------------
 Cycle:     96
  WF centre and spread    1  (  0.000000,  2.794063,  0.000000 )     1.37296279
  WF centre and spread    2  (  0.000000,  0.000000,  2.794063 )     1.37296284
  WF centre and spread    3  ( -2.794063,  0.000000, -0.000000 )     1.37296290
  Sum of centres and spreads ( -2.794062,  2.794063,  2.794063 )     4.11888853
 
     96    -0.290E-12     0.0000033225        4.1188904053       0.18  <-- CONV
        O_D=      0.0000000 O_OD=      0.0093390 O_TOT=      4.1188904 <-- SPRD
 Delta: O_D= -0.1006805E-12 O_OD= -0.1893572E-12 O_TOT= -0.2895462E-12 <-- DLTA
 ------------------------------------------------------------------------------
 Cycle:     97
  WF centre and spread    1  (  0.000000,  2.794063,  0.000000 )     1.37296279
  WF centre and spread    2  (  0.000000,  0.000000,  2.794063 )     1.37296284
  WF centre and spread    3  ( -2.794063,  0.000000, -0.000000 )     1.37296290
  Sum of centres and spreads ( -2.794062,  2.794063,  2.794063 )     4.11888853
 
[...]
  Sum of centres and spreads ( -2.794062,  2.794063,  2.794063 )     4.11888853
 
    473    -0.790E-13     0.0000019000        4.1188904052       0.89  <-- CONV
        O_D=      0.0000000 O_OD=      0.0093390 O_TOT=      4.1188904 <-- SPRD
 Delta: O_D= -0.2848998E-13 O_OD= -0.5070423E-13 O_TOT= -0.7904788E-13 <-- DLTA
 ------------------------------------------------------------------------------
 Cycle:    474
  WF centre and spread    1  (  0.000000,  2.794063,  0.000000 )     1.37296279
  WF centre and spread    2  (  0.000000,  0.000000,  2.794063 )     1.37296284
  WF centre and spread    3  ( -2.794063,  0.000000, -0.000000 )     1.37296290
  Sum of centres and spreads ( -2.794062,  2.794063,  2.794063 )     4.11888853
 
    474    -0.950E-13     0.0000018991        4.1188904052       0.89  <-- CONV
        O_D=      0.0000000 O_OD=      0.0093390 O_TOT=      4.1188904 <-- SPRD
 Delta: O_D= -0.3414080E-13 O_OD= -0.6075002E-13 O_TOT= -0.9503509E-13 <-- DLTA
 ------------------------------------------------------------------------------
 Cycle:    475
  WF centre and spread    1  (  0.000000,  2.794063,  0.000000 )     1.37296279
  WF centre and spread    2  (  0.000000,  0.000000,  2.794063 )     1.37296284
  WF centre and spread    3  ( -2.794063,  0.000000, -0.000000 )     1.37296290
  Sum of centres and spreads ( -2.794062,  2.794063,  2.794063 )     4.11888853
 
    475    -0.160E-13     0.0000018979        4.1188904052       0.89  <-- CONV
        O_D=      0.0000000 O_OD=      0.0093390 O_TOT=      4.1188904 <-- SPRD
 Delta: O_D= -0.5690140E-14 O_OD= -0.1013079E-13 O_TOT= -0.1598721E-13 <-- DLTA
 ------------------------------------------------------------------------------
 Cycle:    476
  WF centre and spread    1  (  0.000000,  2.794063,  0.000000 )     1.37296279
  WF centre and spread    2  (  0.000000,  0.000000,  2.794063 )     1.37296284
  WF centre and spread    3  ( -2.794063,  0.000000, -0.000000 )     1.37296290
  Sum of centres and spreads ( -2.794062,  2.794063,  2.794063 )     4.11888853
 
    476    -0.311E-13     0.0000018977        4.1188904052       0.89  <-- CONV
        O_D=      0.0000000 O_OD=      0.0093390 O_TOT=      4.1188904 <-- SPRD
 Delta: O_D= -0.1137684E-13 O_OD= -0.2023035E-13 O_TOT= -0.3108624E-13 <-- DLTA
 ------------------------------------------------------------------------------
 Cycle:    477
  WF centre and spread    1  (  0.000000,  2.794063,  0.000000 )     1.37296279
  WF centre and spread    2  (  0.000000,  0.000000,  2.794063 )     1.37296284
  WF centre and spread    3  ( -2.794063,  0.000000, -0.000000 )     1.37296290
  Sum of centres and spreads ( -2.794062,  2.794063,  2.794063 )     4.11888853
 
    477    -0.471E-13     0.0000018973        4.1188904052       0.89  <-- CONV
        O_D=      0.0000000 O_OD=      0.0093390 O_TOT=      4.1188904 <-- SPRD
 Delta: O_D= -0.1705551E-13 O_OD= -0.3035419E-13 O_TOT= -0.4707346E-13 <-- DLTA
 ------------------------------------------------------------------------------
 Cycle:    478
  WF centre and spread    1  (  0.000000,  2.794063,  0.000000 )     1.37296279
  WF centre and spread    2  (  0.000000,  0.000000,  2.794063 )     1.37296284
  WF centre and spread    3  ( -2.794063,  0.000000, -0.000000 )     1.37296290
  Sum of centres and spreads ( -2.794062,  2.794063,  2.794063 )     4.11888853
 
    478    -0.639E-13     0.0000018968        4.1188904052       0.89  <-- CONV
        O_D=      0.0000000 O_OD=      0.0093390 O_TOT=      4.1188904 <-- SPRD
 Delta: O_D= -0.2272157E-13 O_OD= -0.4044334E-13 O_TOT= -0.6394885E-13 <-- DLTA
 ------------------------------------------------------------------------------
 Cycle:    479
  WF centre and spread    1  (  0.000000,  2.794063,  0.000000 )     1.37296279
  WF centre and spread    2  (  0.000000,  0.000000,  2.794063 )     1.37296284
  WF centre and spread    3  ( -2.794063,  0.000000, -0.000000 )     1.37296290
  Sum of centres and spreads ( -2.794062,  2.794063,  2.794063 )     4.11888853
 
    479    -0.790E-13     0.0000018960        4.1188904052       0.90  <-- CONV
        O_D=      0.0000000 O_OD=      0.0093390 O_TOT=      4.1188904 <-- SPRD
 Delta: O_D= -0.2837046E-13 O_OD= -0.5046484E-13 O_TOT= -0.7904788E-13 <-- DLTA
 ------------------------------------------------------------------------------
 Cycle:    480
  WF centre and spread    1  (  0.000000,  2.794063,  0.000000 )     1.37296279
  WF centre and spread    2  (  0.000000,  0.000000,  2.794063 )     1.37296284
  WF centre and spread    3  ( -2.794063,  0.000000, -0.000000 )     1.37296290
  Sum of centres and spreads ( -2.794062,  2.794063,  2.794063 )     4.11888853
 
    480    -0.941E-13     0.0000018950        4.1188904052       0.90  <-- CONV
        O_D=      0.0000000 O_OD=      0.0093390 O_TOT=      4.1188904 <-- SPRD
 Delta: O_D= -0.3399766E-13 O_OD= -0.6050022E-13 O_TOT= -0.9414691E-13 <-- DLTA
 ------------------------------------------------------------------------------
 Cycle:    481
  WF centre and spread    1  (  0.000000,  2.794063,  0.000000 )     1.37296279
  WF centre and spread    2  (  0.000000,  0.000000,  2.794063 )     1.37296284
  WF centre and spread    3  ( -2.794063,  0.000000, -0.000000 )     1.37296290
  Sum of centres and spreads ( -2.794062,  2.794063,  2.794063 )     4.11888853
 
    481    -0.151E-13     0.0000018939        4.1188904052       0.90  <-- CONV
        O_D=      0.0000000 O_OD=      0.0093390 O_TOT=      4.1188904 <-- SPRD
 Delta: O_D= -0.5666281E-14 O_OD= -0.1008048E-13 O_TOT= -0.1509903E-13 <-- DLTA
 ------------------------------------------------------------------------------
 Cycle:    482
  WF centre and spread    1  (  0.000000,  2.794063,  0.000000 )     1.37296279
  WF centre and spread    2  (  0.000000,  0.000000,  2.794063 )     1.37296284
  WF centre and spread    3  ( -2.794063,  0.000000, -0.000000 )     1.37296290
  Sum of centres and spreads ( -2.794062,  2.794063,  2.794063 )     4.11888853
 
    482    -0.320E-13     0.0000018937        4.1188904052       0.90  <-- CONV
        O_D=      0.0000000 O_OD=      0.0093390 O_TOT=      4.1188904 <-- SPRD
 Delta: O_D= -0.1132914E-13 O_OD= -0.2015922E-13 O_TOT= -0.3197442E-13 <-- DLTA
 ------------------------------------------------------------------------------
 Cycle:    483
  WF centre and spread    1  (  0.000000,  2.794063,  0.000000 )     1.37296279
  WF centre and spread    2  (  0.000000,  0.000000,  2.794063 )     1.37296284
  WF centre and spread    3  ( -2.794063,  0.000000, -0.000000 )     1.37296290
  Sum of centres and spreads ( -2.794062,  2.794063,  2.794063 )     4.11888853
 
    483    -0.471E-13     0.0000018933        4.1188904052       0.90  <-- CONV
        O_D=      0.0000000 O_OD=      0.0093390 O_TOT=      4.1188904 <-- SPRD
 Delta: O_D= -0.1698402E-13 O_OD= -0.3021541E-13 O_TOT= -0.4707346E-13 <-- DLTA
 ------------------------------------------------------------------------------
 Cycle:    484
  WF centre and spread    1  (  0.000000,  2.794063,  0.000000 )     1.37296279
  WF centre and spread    2  (  0.000000,  0.000000,  2.794063 )     1.37296284
  WF centre and spread    3  ( -2.794063,  0.000000, -0.000000 )     1.37296290
  Sum of centres and spreads ( -2.794062,  2.794063,  2.794063 )     4.11888853
 
    484    -0.631E-13     0.0000018927        4.1188904052       0.90  <-- CONV
        O_D=      0.0000000 O_OD=      0.0093390 O_TOT=      4.1188904 <-- SPRD
 Delta: O_D= -0.2262636E-13 O_OD= -0.4026467E-13 O_TOT= -0.6306067E-13 <-- DLTA
 ------------------------------------------------------------------------------
 Cycle:    485
  WF centre and spread    1  (  0.000000,  2.794063,  0.000000 )     1.37296279
  WF centre and spread    2  (  0.000000,  0.000000,  2.794063 )     1.37296284
  WF centre and spread    3  ( -2.794063,  0.000000, -0.000000 )     1.37296290
  Sum of centres and spreads ( -2.794062,  2.794063,  2.794063 )     4.11888853
 
    485    -0.790E-13     0.0000018919        4.1188904052       0.90  <-- CONV
        O_D=      0.0000000 O_OD=      0.0093390 O_TOT=      4.1188904 <-- SPRD
 Delta: O_D= -0.2825163E-13 O_OD= -0.5026708E-13 O_TOT= -0.7904788E-13 <-- DLTA
 ------------------------------------------------------------------------------
 Cycle:    486
  WF centre and spread    1  (  0.000000,  2.794063,  0.000000 )     1.37296279
  WF centre and spread    2  (  0.000000,  0.000000,  2.794063 )     1.37296284
  WF centre and spread    3  ( -2.794063,  0.000000, -0.000000 )     1.37296290
  Sum of centres and spreads ( -2.794062,  2.794063,  2.794063 )     4.11888853
 
    486    -0.941E-13     0.0000018910        4.1188904052       0.90  <-- CONV
        O_D=      0.0000000 O_OD=      0.0093390 O_TOT=      4.1188904 <-- SPRD
 Delta: O_D= -0.3385535E-13 O_OD= -0.6022093E-13 O_TOT= -0.9414691E-13 <-- DLTA
 ------------------------------------------------------------------------------
 Cycle:    487
  WF centre and spread    1  (  0.000000,  2.794063,  0.000000 )     1.37296279
  WF centre and spread    2  (  0.000000,  0.000000,  2.794063 )     1.37296284
  WF centre and spread    3  ( -2.794063,  0.000000, -0.000000 )     1.37296290
  Sum of centres and spreads ( -2.794062,  2.794063,  2.794063 )     4.11888853
 
    487    -0.151E-13     0.0000018898        4.1188904052       0.91  <-- CONV
        O_D=      0.0000000 O_OD=      0.0093390 O_TOT=      4.1188904 <-- SPRD
 Delta: O_D= -0.5642559E-14 O_OD= -0.1004925E-13 O_TOT= -0.1509903E-13 <-- DLTA
 ------------------------------------------------------------------------------
 Cycle:    488
  WF centre and spread    1  (  0.000000,  2.794063,  0.000000 )     1.37296279
  WF centre and spread    2  (  0.000000,  0.000000,  2.794063 )     1.37296284
  WF centre and spread    3  ( -2.794063,  0.000000, -0.000000 )     1.37296290
  Sum of centres and spreads ( -2.794062,  2.794063,  2.794063 )     4.11888853
 
    488    -0.320E-13     0.0000018896        4.1188904052       0.91  <-- CONV
        O_D=      0.0000000 O_OD=      0.0093390 O_TOT=      4.1188904 <-- SPRD
 Delta: O_D= -0.1128172E-13 O_OD= -0.2007075E-13 O_TOT= -0.3197442E-13 <-- DLTA
 ------------------------------------------------------------------------------
 Cycle:    489
  WF centre and spread    1  (  0.000000,  2.794063,  0.000000 )     1.37296279
  WF centre and spread    2  (  0.000000,  0.000000,  2.794063 )     1.37296284
  WF centre and spread    3  ( -2.794063,  0.000000, -0.000000 )     1.37296290
  Sum of centres and spreads ( -2.794062,  2.794063,  2.794063 )     4.11888853
 
    489    -0.471E-13     0.0000018893        4.1188904052       0.91  <-- CONV
        O_D=      0.0000000 O_OD=      0.0093390 O_TOT=      4.1188904 <-- SPRD
 Delta: O_D= -0.1691294E-13 O_OD= -0.3009919E-13 O_TOT= -0.4707346E-13 <-- DLTA
 ------------------------------------------------------------------------------
 Cycle:    490
  WF centre and spread    1  (  0.000000,  2.794063,  0.000000 )     1.37296279
  WF centre and spread    2  (  0.000000,  0.000000,  2.794063 )     1.37296284
  WF centre and spread    3  ( -2.794063,  0.000000, -0.000000 )     1.37296290
  Sum of centres and spreads ( -2.794062,  2.794063,  2.794063 )     4.11888853
 
    490    -0.622E-13     0.0000018887        4.1188904052       0.91  <-- CONV
        O_D=      0.0000000 O_OD=      0.0093390 O_TOT=      4.1188904 <-- SPRD
 Delta: O_D= -0.2253170E-13 O_OD= -0.4008772E-13 O_TOT= -0.6217249E-13 <-- DLTA
 ------------------------------------------------------------------------------
 Cycle:    491
  WF centre and spread    1  (  0.000000,  2.794063,  0.000000 )     1.37296279
  WF centre and spread    2  (  0.000000,  0.000000,  2.794063 )     1.37296284
  WF centre and spread    3  ( -2.794063,  0.000000, -0.000000 )     1.37296290
  Sum of centres and spreads ( -2.794062,  2.794063,  2.794063 )     4.11888853
 
    491    -0.782E-13     0.0000018879        4.1188904052       0.91  <-- CONV
        O_D=      0.0000000 O_OD=      0.0093390 O_TOT=      4.1188904 <-- SPRD
 Delta: O_D= -0.2813350E-13 O_OD= -0.5003636E-13 O_TOT= -0.7815970E-13 <-- DLTA
 ------------------------------------------------------------------------------
 Cycle:    492
  WF centre and spread    1  (  0.000000,  2.794063,  0.000000 )     1.37296279
  WF centre and spread    2  (  0.000000,  0.000000,  2.794063 )     1.37296284
  WF centre and spread    3  ( -2.794063,  0.000000, -0.000000 )     1.37296290
  Sum of centres and spreads ( -2.794062,  2.794063,  2.794063 )     4.11888853
 
    492    -0.941E-13     0.0000018870        4.1188904052       0.91  <-- CONV
        O_D=      0.0000000 O_OD=      0.0093390 O_TOT=      4.1188904 <-- SPRD
 Delta: O_D= -0.3371386E-13 O_OD= -0.5999021E-13 O_TOT= -0.9414691E-13 <-- DLTA
 ------------------------------------------------------------------------------
 Cycle:    493
  WF centre and spread    1  (  0.000000,  2.794063,  0.000000 )     1.37296279
  WF centre and spread    2  (  0.000000,  0.000000,  2.794063 )     1.37296284
  WF centre and spread    3  ( -2.794063,  0.000000, -0.000000 )     1.37296290
  Sum of centres and spreads ( -2.794062,  2.794063,  2.794063 )     4.11888853
 
    493    -0.151E-13     0.0000018858        4.1188904052       0.91  <-- CONV
        O_D=      0.0000000 O_OD=      0.0093390 O_TOT=      4.1188904 <-- SPRD
 Delta: O_D= -0.5618976E-14 O_OD= -0.9979864E-14 O_TOT= -0.1509903E-13 <-- DLTA
 ------------------------------------------------------------------------------
 Cycle:    494
  WF centre and spread    1  (  0.000000,  2.794063,  0.000000 )     1.37296279
  WF centre and spread    2  (  0.000000,  0.000000,  2.794063 )     1.37296284
  WF centre and spread    3  ( -2.794063,  0.000000, -0.000000 )     1.37296290
  Sum of centres and spreads ( -2.794062,  2.794063,  2.794063 )     4.11888853
 
    494    -0.311E-13     0.0000018856        4.1188904052       0.91  <-- CONV
        O_D=      0.0000000 O_OD=      0.0093390 O_TOT=      4.1188904 <-- SPRD
 Delta: O_D= -0.1123457E-13 O_OD= -0.1999442E-13 O_TOT= -0.3108624E-13 <-- DLTA
 ------------------------------------------------------------------------------
 Cycle:    495
  WF centre and spread    1  (  0.000000,  2.794063,  0.000000 )     1.37296279
  WF centre and spread    2  (  0.000000,  0.000000,  2.794063 )     1.37296284
  WF centre and spread    3  ( -2.794063,  0.000000, -0.000000 )     1.37296290
  Sum of centres and spreads ( -2.794062,  2.794063,  2.794063 )     4.11888853
 
    495    -0.471E-13     0.0000018852        4.1188904052       0.91  <-- CONV
        O_D=      0.0000000 O_OD=      0.0093390 O_TOT=      4.1188904 <-- SPRD
 Delta: O_D= -0.1684228E-13 O_OD= -0.2994480E-13 O_TOT= -0.4707346E-13 <-- DLTA
 ------------------------------------------------------------------------------
 Cycle:    496
  WF centre and spread    1  (  0.000000,  2.794063,  0.000000 )     1.37296279
  WF centre and spread    2  (  0.000000,  0.000000,  2.794063 )     1.37296284
  WF centre and spread    3  ( -2.794063,  0.000000, -0.000000 )     1.37296290
  Sum of centres and spreads ( -2.794062,  2.794063,  2.794063 )     4.11888853
 
    496    -0.622E-13     0.0000018847        4.1188904052       0.92  <-- CONV
        O_D=      0.0000000 O_OD=      0.0093390 O_TOT=      4.1188904 <-- SPRD
 Delta: O_D= -0.2243760E-13 O_OD= -0.3990731E-13 O_TOT= -0.6217249E-13 <-- DLTA
 ------------------------------------------------------------------------------
 Cycle:    497
  WF centre and spread    1  (  0.000000,  2.794063,  0.000000 )     1.37296279
  WF centre and spread    2  (  0.000000,  0.000000,  2.794063 )     1.37296284
  WF centre and spread    3  ( -2.794063,  0.000000, -0.000000 )     1.37296290
  Sum of centres and spreads ( -2.794062,  2.794063,  2.794063 )     4.11888853
 
    497    -0.782E-13     0.0000018839        4.1188904052       0.92  <-- CONV
        O_D=      0.0000000 O_OD=      0.0093390 O_TOT=      4.1188904 <-- SPRD
 Delta: O_D= -0.2801605E-13 O_OD= -0.4983514E-13 O_TOT= -0.7815970E-13 <-- DLTA
 ------------------------------------------------------------------------------
 Cycle:    498
  WF centre and spread    1  (  0.000000,  2.794063,  0.000000 )     1.37296279
  WF centre and spread    2  (  0.000000,  0.000000,  2.794063 )     1.37296284
  WF centre and spread    3  ( -2.794063,  0.000000, -0.000000 )     1.37296290
  Sum of centres and spreads ( -2.794062,  2.794063,  2.794063 )     4.11888853
 
    498    -0.464E-11     0.0000018829        4.1188904052       0.92  <-- CONV
        O_D=      0.0000000 O_OD=      0.0093390 O_TOT=      4.1188904 <-- SPRD
 Delta: O_D= -0.1669691E-11 O_OD= -0.2968835E-11 O_TOT= -0.4638068E-11 <-- DLTA
 ------------------------------------------------------------------------------
 Cycle:    499
  WF centre and spread    1  (  0.000000,  2.794063,  0.000000 )     1.37296279
  WF centre and spread    2  (  0.000000,  0.000000,  2.794063 )     1.37296284
  WF centre and spread    3  ( -2.794063,  0.000000, -0.000000 )     1.37296290
  Sum of centres and spreads ( -2.794062,  2.794063,  2.794063 )     4.11888853
 
    499    -0.142E-13     0.0000018256        4.1188904052       0.92  <-- CONV
        O_D=      0.0000000 O_OD=      0.0093390 O_TOT=      4.1188904 <-- SPRD
 Delta: O_D= -0.5271690E-14 O_OD= -0.9364037E-14 O_TOT= -0.1421085E-13 <-- DLTA
 ------------------------------------------------------------------------------
 Cycle:    500
  WF centre and spread    1  (  0.000000,  2.794063,  0.000000 )     1.37296279
  WF centre and spread    2  (  0.000000,  0.000000,  2.794063 )     1.37296284
  WF centre and spread    3  ( -2.794063,  0.000000, -0.000000 )     1.37296290
  Sum of centres and spreads ( -2.794062,  2.794063,  2.794063 )     4.11888853
 
    500    -0.293E-13     0.0000018255        4.1188904052       0.92  <-- CONV
        O_D=      0.0000000 O_OD=      0.0093390 O_TOT=      4.1188904 <-- SPRD
 Delta: O_D= -0.1054029E-13 O_OD= -0.1872807E-13 O_TOT= -0.2930989E-13 <-- DLTA
 ------------------------------------------------------------------------------

 Writing checkpoint file mp-22862.chk... done

 Final State
  WF centre and spread    1  (  0.000000,  2.794063,  0.000000 )     1.37296279
  WF centre and spread    2  (  0.000000,  0.000000,  2.794063 )     1.37296284
  WF centre and spread    3  ( -2.794063,  0.000000, -0.000000 )     1.37296290
  Sum of centres and spreads ( -2.794062,  2.794063,  2.794063 )     4.11888853
 
         Spreads (Ang^2)       Omega I      =     4.109551429
        ================       Omega D      =     0.000000000
                               Omega OD     =     0.009338976
    Final Spread (Ang^2)       Omega Total  =     4.118890405
 ------------------------------------------------------------------------------
 Time for wannierise            0.650 (sec)

 Writing checkpoint file mp-22862.chk... done

 Time for plotting              0.000 (sec)
 Total Execution Time           1.638 (sec)

 *===========================================================================*
 |                             TIMING INFORMATION                            |
 *===========================================================================*
 |    Tag                                                Ncalls      Time (s)|
 |---------------------------------------------------------------------------|
 |kmesh: get                                        :         1         0.729|
 |overlap: allocate                                 :         1         0.001|
 |overlap: read                                     :         1         0.090|
 |wann: main                                        :         1         0.650|
 |plot: main                                        :         1         0.000|
 *---------------------------------------------------------------------------*
 
 All done: wannier90 exiting
