
     Program PWSCF v.7.1 starts on  3Jan2024 at 14:31: 1 

     This program is part of the open-source Quantum ESPRESSO suite
     for quantum simulation of materials; please cite
         "P. Giannozzi et al., J. Phys.:Condens. Matter 21 395502 (2009);
         "P. Giannozzi et al., J. Phys.:Condens. Matter 29 465901 (2017);
         "P. Giannozzi et al., J. Chem. Phys. 152 154105 (2020);
          URL http://www.quantum-espresso.org", 
     in publications or presentations arising from this work. More details at
     http://www.quantum-espresso.org/quote

     Parallel version (MPI), running on     8 processors

     MPI processes distributed on     1 nodes
     120910 MiB available memory on the printing compute node when the environment starts
 
     Reading input from pw_mp-22898_scf_k3000_E65.in
Warning: card &CELL ignored
Warning: card / ignored

     Current dimensions of program PWSCF are:
     Max number of different atomic species (ntypx) = 10
     Max number of k-points (npk) =  40000
     Max angular momentum in pseudopotentials (lmaxx) =  4
 
     R & G space division:  proc/nbgrp/npool/nimage =       8
     Subspace diagonalization in iterative solution of the eigenvalue problem:
     a serial algorithm will be used

 
     Parallelization info
     --------------------
     sticks:   dense  smooth     PW     G-vecs:    dense   smooth      PW
     Min         201     201     57                 5325     5325     826
     Max         202     202     58                 5328     5328     828
     Sum        1615    1615    463                42615    42615    6615
 
     Using Slab Decomposition
 


     bravais-lattice index     =            2
     lattice parameter (alat)  =      13.3885  a.u.
     unit-cell volume          =     599.9740 (a.u.)^3
     number of atoms/cell      =            2
     number of atomic types    =            2
     number of electrons       =        26.00
     number of Kohn-Sham states=           26
     kinetic-energy cutoff     =      65.0000  Ry
     charge density cutoff     =     260.0000  Ry
     scf convergence threshold =      1.0E-10
     mixing beta               =       0.7000
     number of iterations used =            8  plain     mixing
     Exchange-correlation= PBE
                           (   1   4   3   4   0   0   0)

     celldm(1)=  13.388465  celldm(2)=   0.000000  celldm(3)=   0.000000
     celldm(4)=   0.000000  celldm(5)=   0.000000  celldm(6)=   0.000000

     crystal axes: (cart. coord. in units of alat)
               a(1) = (  -0.500000   0.000000   0.500000 )  
               a(2) = (   0.000000   0.500000   0.500000 )  
               a(3) = (  -0.500000   0.500000   0.000000 )  

     reciprocal axes: (cart. coord. in units 2 pi/alat)
               b(1) = ( -1.000000 -1.000000  1.000000 )  
               b(2) = (  1.000000  1.000000  1.000000 )  
               b(3) = ( -1.000000  1.000000 -1.000000 )  


     PseudoPot. # 1 for I  read from file:
     /usr/scratch4/magr4985/MG/devEb/pseudo/SG15/I.upf
     MD5 check sum: 2bc24df9af9f874725967c58cc477d99
     Pseudo is Norm-conserving, Zval = 17.0
     Generated using ONCVPSP code by D. R. Hamann
     Using radial grid of  602 points,  6 beta functions with: 
                l(1) =   0
                l(2) =   0
                l(3) =   1
                l(4) =   1
                l(5) =   2
                l(6) =   2

     PseudoPot. # 2 for K  read from file:
     /usr/scratch4/magr4985/MG/devEb/pseudo/SG15/K.upf
     MD5 check sum: 546a68abc2c0296de6abd828b0bae2fd
     Pseudo is Norm-conserving, Zval =  9.0
     Generated using ONCVPSP code by D. R. Hamann
     Using radial grid of  602 points,  6 beta functions with: 
                l(1) =   0
                l(2) =   0
                l(3) =   1
                l(4) =   1
                l(5) =   2
                l(6) =   2

     atomic species   valence    mass     pseudopotential
        I             17.00   126.90450     I ( 1.00)
        K              9.00    39.09830     K ( 1.00)

     48 Sym. Ops., with inversion, found



   Cartesian axes

     site n.     atom                  positions (alat units)
         1           K   tau(   1) = (   0.0000000   0.0000000   0.0000000  )
         2           I   tau(   2) = (  -0.5000000   0.5000000   0.5000000  )

     number of k points=    72  Gaussian smearing, width (Ry)=  0.0005
                       cart. coord. in units 2pi/alat
        k(    1) = (   0.0000000   0.0000000   0.0000000), wk =   0.0011574
        k(    2) = (  -0.0833333   0.0833333  -0.0833333), wk =   0.0092593
        k(    3) = (  -0.1666667   0.1666667  -0.1666667), wk =   0.0092593
        k(    4) = (  -0.2500000   0.2500000  -0.2500000), wk =   0.0092593
        k(    5) = (  -0.3333333   0.3333333  -0.3333333), wk =   0.0092593
        k(    6) = (  -0.4166667   0.4166667  -0.4166667), wk =   0.0092593
        k(    7) = (   0.5000000  -0.5000000   0.5000000), wk =   0.0046296
        k(    8) = (   0.0000000   0.1666667   0.0000000), wk =   0.0069444
        k(    9) = (  -0.0833333   0.2500000  -0.0833333), wk =   0.0277778
        k(   10) = (  -0.1666667   0.3333333  -0.1666667), wk =   0.0277778
        k(   11) = (  -0.2500000   0.4166667  -0.2500000), wk =   0.0277778
        k(   12) = (  -0.3333333   0.5000000  -0.3333333), wk =   0.0277778
        k(   13) = (   0.5833333  -0.4166667   0.5833333), wk =   0.0277778
        k(   14) = (   0.5000000  -0.3333333   0.5000000), wk =   0.0277778
        k(   15) = (   0.4166667  -0.2500000   0.4166667), wk =   0.0277778
        k(   16) = (   0.3333333  -0.1666667   0.3333333), wk =   0.0277778
        k(   17) = (   0.2500000  -0.0833333   0.2500000), wk =   0.0277778
        k(   18) = (   0.1666667  -0.0000000   0.1666667), wk =   0.0138889
        k(   19) = (   0.0000000   0.3333333   0.0000000), wk =   0.0069444
        k(   20) = (  -0.0833333   0.4166667  -0.0833333), wk =   0.0277778
        k(   21) = (  -0.1666667   0.5000000  -0.1666667), wk =   0.0277778
        k(   22) = (  -0.2500000   0.5833333  -0.2500000), wk =   0.0277778
        k(   23) = (   0.6666667  -0.3333333   0.6666667), wk =   0.0277778
        k(   24) = (   0.5833333  -0.2500000   0.5833333), wk =   0.0277778
        k(   25) = (   0.5000000  -0.1666667   0.5000000), wk =   0.0277778
        k(   26) = (   0.4166667  -0.0833333   0.4166667), wk =   0.0277778
        k(   27) = (   0.3333333   0.0000000   0.3333333), wk =   0.0138889
        k(   28) = (   0.0000000   0.5000000   0.0000000), wk =   0.0069444
        k(   29) = (  -0.0833333   0.5833333  -0.0833333), wk =   0.0277778
        k(   30) = (  -0.1666667   0.6666667  -0.1666667), wk =   0.0277778
        k(   31) = (   0.7500000  -0.2500000   0.7500000), wk =   0.0277778
        k(   32) = (   0.6666667  -0.1666667   0.6666667), wk =   0.0277778
        k(   33) = (   0.5833333  -0.0833333   0.5833333), wk =   0.0277778
        k(   34) = (   0.5000000   0.0000000   0.5000000), wk =   0.0138889
        k(   35) = (   0.0000000   0.6666667   0.0000000), wk =   0.0069444
        k(   36) = (  -0.0833333   0.7500000  -0.0833333), wk =   0.0277778
        k(   37) = (   0.8333333  -0.1666667   0.8333333), wk =   0.0277778
        k(   38) = (   0.7500000  -0.0833333   0.7500000), wk =   0.0277778
        k(   39) = (   0.6666667  -0.0000000   0.6666667), wk =   0.0138889
        k(   40) = (   0.0000000   0.8333333   0.0000000), wk =   0.0069444
        k(   41) = (   0.9166667  -0.0833333   0.9166667), wk =   0.0277778
        k(   42) = (   0.8333333   0.0000000   0.8333333), wk =   0.0138889
        k(   43) = (   0.0000000  -1.0000000   0.0000000), wk =   0.0034722
        k(   44) = (  -0.1666667   0.3333333   0.0000000), wk =   0.0277778
        k(   45) = (  -0.2500000   0.4166667  -0.0833333), wk =   0.0555556
        k(   46) = (  -0.3333333   0.5000000  -0.1666667), wk =   0.0555556
        k(   47) = (   0.5833333  -0.4166667   0.7500000), wk =   0.0555556
        k(   48) = (   0.5000000  -0.3333333   0.6666667), wk =   0.0277778
        k(   49) = (  -0.1666667   0.5000000   0.0000000), wk =   0.0277778
        k(   50) = (  -0.2500000   0.5833333  -0.0833333), wk =   0.0555556
        k(   51) = (   0.6666667  -0.3333333   0.8333333), wk =   0.0555556
        k(   52) = (   0.5833333  -0.2500000   0.7500000), wk =   0.0555556
        k(   53) = (   0.5000000  -0.1666667   0.6666667), wk =   0.0555556
        k(   54) = (   0.4166667  -0.0833333   0.5833333), wk =   0.0555556
        k(   55) = (   0.3333333   0.0000000   0.5000000), wk =   0.0277778
        k(   56) = (  -0.1666667   0.6666667  -0.0000000), wk =   0.0277778
        k(   57) = (   0.7500000  -0.2500000   0.9166667), wk =   0.0555556
        k(   58) = (   0.6666667  -0.1666667   0.8333333), wk =   0.0555556
        k(   59) = (   0.5833333  -0.0833333   0.7500000), wk =   0.0555556
        k(   60) = (   0.5000000   0.0000000   0.6666667), wk =   0.0277778
        k(   61) = (   0.8333333  -0.1666667   1.0000000), wk =   0.0277778
        k(   62) = (   0.7500000  -0.0833333   0.9166667), wk =   0.0555556
        k(   63) = (   0.6666667   0.0000000   0.8333333), wk =   0.0277778
        k(   64) = (  -0.1666667  -1.0000000  -0.0000000), wk =   0.0138889
        k(   65) = (   0.6666667  -0.3333333   1.0000000), wk =   0.0277778
        k(   66) = (   0.5833333  -0.2500000   0.9166667), wk =   0.0555556
        k(   67) = (   0.5000000  -0.1666667   0.8333333), wk =   0.0277778
        k(   68) = (   0.6666667  -0.1666667   1.0000000), wk =   0.0277778
        k(   69) = (   0.5833333  -0.0833333   0.9166667), wk =   0.0555556
        k(   70) = (   0.5000000   0.0000000   0.8333333), wk =   0.0277778
        k(   71) = (  -0.3333333  -1.0000000   0.0000000), wk =   0.0138889
        k(   72) = (  -0.5000000  -1.0000000   0.0000000), wk =   0.0069444

     Dense  grid:    42615 G-vectors     FFT dimensions: (  50,  50,  50)

     Estimated max dynamical RAM per process >      26.28 MB

     Estimated total dynamical RAM >     210.21 MB

     Initial potential from superposition of free atoms

     starting charge      25.7107, renormalised to      26.0000
     Starting wfcs are random

     total cpu time spent up to now is        1.0 secs

     Self-consistent Calculation

     iteration #  1     ecut=    65.00 Ry     beta= 0.70
     ParO style diagonalization
     ethr =  5.00E-06,  avg # of iterations = 20.8

     total cpu time spent up to now is       20.0 secs

     total energy              =    -255.72557483 Ry
     estimated scf accuracy    <       0.02065255 Ry

     iteration #  2     ecut=    65.00 Ry     beta= 0.70
     ParO style diagonalization
     ethr =  7.94E-05,  avg # of iterations =  5.5

     total cpu time spent up to now is       26.0 secs

     total energy              =    -255.72944497 Ry
     estimated scf accuracy    <       0.00110957 Ry

     iteration #  3     ecut=    65.00 Ry     beta= 0.70
     ParO style diagonalization
     ethr =  4.27E-06,  avg # of iterations =  4.9

     total cpu time spent up to now is       31.2 secs

     total energy              =    -255.72963197 Ry
     estimated scf accuracy    <       0.00006875 Ry

     iteration #  4     ecut=    65.00 Ry     beta= 0.70
     ParO style diagonalization
     ethr =  2.64E-07,  avg # of iterations =  5.4

     total cpu time spent up to now is       36.7 secs

     total energy              =    -255.72964414 Ry
     estimated scf accuracy    <       0.00000404 Ry

     iteration #  5     ecut=    65.00 Ry     beta= 0.70
     ParO style diagonalization
     ethr =  1.55E-08,  avg # of iterations =  5.4

     total cpu time spent up to now is       42.3 secs

     total energy              =    -255.72964544 Ry
     estimated scf accuracy    <       0.00000043 Ry

     iteration #  6     ecut=    65.00 Ry     beta= 0.70
     ParO style diagonalization
     ethr =  1.64E-09,  avg # of iterations =  5.6

     total cpu time spent up to now is       48.0 secs

     total energy              =    -255.72964557 Ry
     estimated scf accuracy    <          7.3E-09 Ry

     iteration #  7     ecut=    65.00 Ry     beta= 0.70
     ParO style diagonalization
     ethr =  2.82E-11,  avg # of iterations =  6.3

     total cpu time spent up to now is       55.2 secs

     End of self-consistent calculation

          k = 0.0000 0.0000 0.0000 (  5209 PWs)   bands (ev):

   -40.0311 -40.0311 -40.0262 -40.0262 -40.0262 -25.7701  -9.2573  -9.2573
    -9.2573  -7.7522   2.7464   2.7464   2.7464   6.6889   9.2536   9.2536
     9.2536   9.9669   9.9669  12.5639  15.4738  15.4738  15.4738  15.6900
    15.6900  15.6900

          k =-0.0833 0.0833-0.0833 (  5255 PWs)   bands (ev):

   -40.0311 -40.0311 -40.0262 -40.0262 -40.0262 -25.7699  -9.2680  -9.2575
    -9.2575  -7.7333   2.6259   2.7222   2.7222   6.8678   9.2116   9.3298
     9.3298  10.0452  10.0452  12.8043  14.7393  15.0619  15.0619  15.8486
    15.8486  16.2410

          k =-0.1667 0.1667-0.1667 (  5291 PWs)   bands (ev):

   -40.0311 -40.0311 -40.0262 -40.0262 -40.0262 -25.7696  -9.2959  -9.2579
    -9.2579  -7.6828   2.3349   2.6578   2.6578   7.3076   9.1724   9.5432
     9.5432  10.2792  10.2792  13.4002  13.9072  14.4332  14.4332  15.8217
    15.8217  16.6628

          k =-0.2500 0.2500-0.2500 (  5297 PWs)   bands (ev):

   -40.0311 -40.0311 -40.0262 -40.0262 -40.0262 -25.7691  -9.3318  -9.2584
    -9.2584  -7.6155   1.9982   2.5737   2.5737   7.7821   9.3173   9.8594
     9.8594  10.6545  10.6545  13.0103  13.7767  13.7767  14.3562  15.5640
    15.5640  16.9201

          k =-0.3333 0.3333-0.3333 (  5303 PWs)   bands (ev):

   -40.0311 -40.0311 -40.0262 -40.0262 -40.0262 -25.7686  -9.3654  -9.2590
    -9.2590  -7.5499   1.7067   2.4935   2.4935   8.0821   9.7505  10.2433
    10.2433  11.1042  11.1042  12.4007  13.1873  13.1873  15.0962  15.0962
    15.1283  16.7282

          k =-0.4167 0.4167-0.4167 (  5306 PWs)   bands (ev):

   -40.0311 -40.0311 -40.0262 -40.0262 -40.0262 -25.7683  -9.3887  -9.2594
    -9.2594  -7.5027   1.5135   2.4370   2.4370   8.2192  10.2403  10.6480
    10.6480  11.4236  11.4236  12.0788  12.8325  12.8325  14.5409  14.5409
    15.2251  16.3437

          k = 0.5000-0.5000 0.5000 (  5342 PWs)   bands (ev):

   -40.0311 -40.0311 -40.0262 -40.0262 -40.0262 -25.7681  -9.3970  -9.2596
    -9.2596  -7.4856   1.4462   2.4168   2.4168   8.2613  10.4350  10.8898
    10.8898  11.4325  11.4325  12.0310  12.8062  12.8062  14.2427  14.2427
    14.9729  16.3529

          k = 0.0000 0.1667 0.0000 (  5265 PWs)   bands (ev):

   -40.0311 -40.0311 -40.0262 -40.0262 -40.0262 -25.7699  -9.2690  -9.2585
    -9.2585  -7.7281   2.5894   2.7162   2.7162   6.9205   9.0742   9.4206
     9.4206  10.0139  10.1240  12.8760  14.7491  14.8422  14.8422  15.7288
    16.3045  16.3045

          k =-0.0833 0.2500-0.0833 (  5281 PWs)   bands (ev):

   -40.0311 -40.0311 -40.0262 -40.0262 -40.0262 -25.7696  -9.2889  -9.2596
    -9.2586  -7.6909   2.3740   2.6626   2.6675   7.2613   8.9530   9.6182
     9.6457  10.1455  10.3455  13.3484  13.9325  14.3962  14.5556  15.6278
    16.4014  16.6985

          k =-0.1667 0.3333-0.1667 (  5293 PWs)   bands (ev):

   -40.0311 -40.0311 -40.0262 -40.0262 -40.0262 -25.7692  -9.3199  -9.2606
    -9.2588  -7.6330   2.0802   2.5766   2.5922   7.7307   8.9844   9.8881
     9.9470  10.4612  10.6813  13.1256  13.8306  13.8926  14.3283  15.3901
    16.1283  16.9667

          k =-0.2500 0.4167-0.2500 (  5310 PWs)   bands (ev):

   -40.0311 -40.0311 -40.0262 -40.0262 -40.0262 -25.7687  -9.3521  -9.2612
    -9.2595  -7.5705   1.7984   2.4861   2.5121   8.0913   9.3086  10.2127
    10.2848  10.9242  11.0301  12.5914  13.2443  13.4403  14.9942  15.0743
    15.6164  16.9549

          k =-0.3333 0.5000-0.3333 (  5308 PWs)   bands (ev):

   -40.0311 -40.0311 -40.0262 -40.0262 -40.0262 -25.7683  -9.3772  -9.2612
    -9.2606  -7.5199   1.5890   2.4153   2.4479   8.2696   9.8405  10.5284
    10.6469  11.2068  11.3627  12.4480  12.7897  12.9615  14.5794  14.9621
    15.4498  16.4723

          k = 0.5833-0.4167 0.5833 (  5317 PWs)   bands (ev):

   -40.0311 -40.0311 -40.0262 -40.0262 -40.0262 -25.7681  -9.3898  -9.2618
    -9.2606  -7.4937   1.4870   2.3800   2.4145   8.3494  10.1968  10.7116
    10.9225  11.3412  11.4771  12.3407  12.7285  12.7359  14.4156  14.4566
    15.1427  16.4201

          k = 0.5000-0.3333 0.5000 (  5311 PWs)   bands (ev):

   -40.0311 -40.0311 -40.0262 -40.0262 -40.0262 -25.7681  -9.3875  -9.2627
    -9.2596  -7.4985   1.5071   2.3873   2.4192   8.3434  10.1810  10.6266
    10.7477  11.3813  11.5322  12.2922  12.7215  12.8205  14.3686  14.5174
    15.3670  16.4152

          k = 0.4167-0.2500 0.4167 (  5323 PWs)   bands (ev):

   -40.0311 -40.0311 -40.0262 -40.0262 -40.0262 -25.7684  -9.3707  -9.2631
    -9.2584  -7.5330   1.6468   2.4356   2.4611   8.2461   9.7650  10.3304
    10.4170  11.1968  11.3674  12.3410  13.0294  13.0535  14.7612  14.8819
    15.5761  16.6927

          k = 0.3333-0.1667 0.3333 (  5312 PWs)   bands (ev):

   -40.0311 -40.0311 -40.0262 -40.0262 -40.0262 -25.7689  -9.3429  -9.2627
    -9.2574  -7.5888   1.8849   2.5146   2.5311   8.0139   9.2753   9.9266
    10.1584  10.8230  10.9518  12.6637  13.5461  13.5711  14.8270  15.1647
    15.5664  17.1734

          k = 0.2500-0.0833 0.2500 (  5294 PWs)   bands (ev):

   -40.0311 -40.0311 -40.0262 -40.0262 -40.0262 -25.7693  -9.3106  -9.2616
    -9.2569  -7.6517   2.1792   2.6058   2.6126   7.5857   9.0689   9.6026
     9.8723  10.3994  10.5371  13.3183  13.7667  14.2034  14.3115  15.4122
    15.9631  17.0925

          k = 0.1667-0.0000 0.1667 (  5286 PWs)   bands (ev):

   -40.0311 -40.0311 -40.0262 -40.0262 -40.0262 -25.7697  -9.2826  -9.2597
    -9.2569  -7.7050   2.4589   2.6835   2.6838   7.1292   9.1069   9.3945
     9.5724  10.1273  10.2239  13.1621  14.1328  14.6496  14.8135  15.5419
    16.1060  16.7179

          k = 0.0000 0.3333 0.0000 (  5293 PWs)   bands (ev):

   -40.0311 -40.0311 -40.0262 -40.0262 -40.0262 -25.7694  -9.2935  -9.2616
    -9.2616  -7.6738   2.2629   2.6388   2.6388   7.4478   8.6862   9.9001
     9.9001  10.1485  10.5270  13.6079  13.6335  14.1645  14.1645  15.8698
    16.9010  16.9010

          k =-0.0833 0.4167-0.0833 (  5311 PWs)   bands (ev):

   -40.0311 -40.0311 -40.0262 -40.0262 -40.0262 -25.7691  -9.3115  -9.2634
    -9.2626  -7.6365   2.0699   2.5678   2.5811   7.8148   8.5610  10.1732
    10.2089  10.3966  10.7741  13.0541  13.7729  13.8136  14.2645  15.7974
    16.7503  17.0938

          k =-0.1667 0.5000-0.1667 (  5306 PWs)   bands (ev):

   -40.0311 -40.0311 -40.0262 -40.0262 -40.0262 -25.7686  -9.3351  -9.2644
    -9.2634  -7.5896   1.8661   2.4628   2.5115   8.1806   8.7210  10.4014
    10.4309  10.8959  10.9993  12.7173  13.2770  13.4862  14.8785  15.5545
    16.2194  17.0657

          k =-0.2500 0.5833-0.2500 (  5319 PWs)   bands (ev):

   -40.0311 -40.0311 -40.0262 -40.0262 -40.0262 -25.7682  -9.3564  -9.2652
    -9.2644  -7.5457   1.6983   2.3605   2.4488   8.3601   9.2606  10.4054
    10.6899  11.1757  11.4085  12.6688  12.8003  13.1934  14.8064  15.4901
    15.6822  16.6934

          k = 0.6667-0.3333 0.6667 (  5308 PWs)   bands (ev):

   -40.0311 -40.0311 -40.0262 -40.0262 -40.0262 -25.7680  -9.3702  -9.2677
    -9.2634  -7.5161   1.5972   2.2915   2.4083   8.5072   9.7747  10.3067
    10.9844  11.2781  11.6040  12.5829  12.6494  12.9437  14.7905  14.8304
    15.4839  16.6583

          k = 0.5833-0.2500 0.5833 (  5320 PWs)   bands (ev):

   -40.0311 -40.0311 -40.0262 -40.0262 -40.0262 -25.7679  -9.3736  -9.2700
    -9.2617  -7.5084   1.5797   2.2730   2.3993   8.6081   9.8612  10.3360
    10.9511  11.2885  11.6120  12.5622  12.7570  12.7784  14.4565  14.7533
    15.7590  16.6766

          k = 0.5000-0.1667 0.5000 (  5315 PWs)   bands (ev):

   -40.0311 -40.0311 -40.0262 -40.0262 -40.0262 -25.7681  -9.3664  -9.2710
    -9.2596  -7.5243   1.6482   2.3098   2.4239   8.5919   9.6898  10.1372
    10.5488  11.3311  11.6426  12.4466  12.8567  13.0543  14.6038  14.6317
    16.2667  16.8578

          k = 0.4167-0.0833 0.4167 (  5310 PWs)   bands (ev):

   -40.0311 -40.0311 -40.0262 -40.0262 -40.0262 -25.7685  -9.3506  -9.2699
    -9.2579  -7.5602   1.7903   2.3944   2.4769   8.4280   9.2086  10.1375
    10.1639  11.1814  11.3244  12.4004  13.2190  13.4494  14.9407  14.9730
    15.6935  17.5988

          k = 0.3333 0.0000 0.3333 (  5306 PWs)   bands (ev):

   -40.0311 -40.0311 -40.0262 -40.0262 -40.0262 -25.7689  -9.3302  -9.2665
    -9.2569  -7.6067   1.9801   2.5053   2.5458   8.0276   9.0104   9.8094
    10.0979  10.7871  10.9021  12.7197  13.7353  13.7418  14.8334  15.1776
    15.5820  17.7444

          k = 0.0000 0.5000 0.0000 (  5321 PWs)   bands (ev):

   -40.0311 -40.0311 -40.0262 -40.0262 -40.0262 -25.7688  -9.3118  -9.2660
    -9.2660  -7.6251   1.9759   2.5441   2.5441   8.0131   8.2863  10.3497
    10.6330  10.6330  10.8428  12.8440  13.5971  13.5971  14.4966  16.2441
    17.1745  17.1745

          k =-0.0833 0.5833-0.0833 (  5327 PWs)   bands (ev):

   -40.0311 -40.0311 -40.0262 -40.0262 -40.0262 -25.7684  -9.3206  -9.2679
    -9.2678  -7.6022   1.8630   2.4671   2.4923   8.1793   8.3550  10.4904
    10.7007  11.1119  11.1247  12.6902  13.2878  13.3823  14.9030  16.3157
    16.7461  17.0134

          k =-0.1667 0.6667-0.1667 (  5298 PWs)   bands (ev):

   -40.0311 -40.0311 -40.0262 -40.0262 -40.0262 -25.7681  -9.3325  -9.2708
    -9.2683  -7.5738   1.7759   2.3423   2.4398   8.2340   8.8412  10.4148
    10.7108  11.4534  11.6093  12.5576  12.9139  13.3746  15.0524  15.9534
    15.9865  17.0101

          k = 0.7500-0.2500 0.7500 (  5314 PWs)   bands (ev):

   -40.0311 -40.0311 -40.0262 -40.0262 -40.0262 -25.7678  -9.3428  -9.2754
    -9.2673  -7.5475   1.7307   2.2128   2.4002   8.4151   9.4343  10.0655
    10.9955  11.4463  11.7940  12.4822  12.7772  13.3481  15.0934  15.1385
    15.7471  17.1628

          k = 0.6667-0.1667 0.6667 (  5323 PWs)   bands (ev):

   -40.0311 -40.0311 -40.0262 -40.0262 -40.0262 -25.7677  -9.3499  -9.2796
    -9.2651  -7.5302   1.7188   2.1339   2.3829   8.6838   9.7718   9.9406
    11.1383  11.2007  11.5842  12.6276  12.9312  13.0455  14.6107  15.0988
    16.0181  17.2182

          k = 0.5833-0.0833 0.5833 (  5311 PWs)   bands (ev):

   -40.0311 -40.0311 -40.0262 -40.0262 -40.0262 -25.7678  -9.3536  -9.2805
    -9.2623  -7.5264   1.7193   2.1499   2.3923   8.9277   9.5951   9.8798
    10.8799  11.1907  11.7318  12.5556  12.8416  13.0957  14.5849  14.7279
    16.8496  17.1784

          k = 0.5000 0.0000 0.5000 (  5304 PWs)   bands (ev):

   -40.0311 -40.0311 -40.0262 -40.0262 -40.0262 -25.7681  -9.3540  -9.2768
    -9.2597  -7.5373   1.7361   2.2538   2.4263   8.8829   9.2747   9.9436
    10.4689  11.3273  11.6771  12.4443  12.8777  13.3158  14.6017  14.7707
    16.5850  17.4391

          k = 0.0000 0.6667 0.0000 (  5313 PWs)   bands (ev):

   -40.0311 -40.0311 -40.0262 -40.0262 -40.0262 -25.7681  -9.3141  -9.2705
    -9.2705  -7.6049   1.8167   2.4600   2.4600   7.9676   8.4234  10.5765
    10.7696  11.5080  11.5080  12.5859  13.2322  13.2322  15.0624  16.7593
    16.7593  17.1424

          k =-0.0833 0.7500-0.0833 (  5303 PWs)   bands (ev):

   -40.0311 -40.0311 -40.0262 -40.0261 -40.0261 -25.7678  -9.3141  -9.2738
    -9.2717  -7.5967   1.7831   2.3837   2.4235   7.9399   8.6172  10.6580
    10.7205  11.8415  11.9133  12.4081  13.1132  13.2975  15.1873  16.0876
    16.1551  17.1268

          k = 0.8333-0.1667 0.8333 (  5309 PWs)   bands (ev):

   -40.0311 -40.0311 -40.0262 -40.0261 -40.0261 -25.7676  -9.3162  -9.2815
    -9.2711  -7.5797   1.7938   2.2346   2.3923   8.0920   8.9537  10.4634
    10.9361  11.6103  12.0173  12.4959  13.1520  13.4566  15.2079  15.2501
    15.7940  17.3970

          k = 0.7500-0.0833 0.7500 (  5314 PWs)   bands (ev):

   -40.0311 -40.0311 -40.0262 -40.0262 -40.0261 -25.7676  -9.3218  -9.2893
    -9.2689  -7.5585   1.8551   2.0538   2.3744   8.3744   9.3897  10.2451
    11.1192  11.2131  11.7182  12.7596  13.2040  13.3255  14.6356  15.3286
    15.9318  17.6825

          k = 0.6667-0.0000 0.6667 (  5330 PWs)   bands (ev):

   -40.0311 -40.0311 -40.0262 -40.0262 -40.0262 -25.7676  -9.3362  -9.2883
    -9.2657  -7.5389   1.8457   2.0040   2.3743   8.7326   9.7244   9.9192
    10.9347  11.2857  11.5235  12.7923  13.0095  13.1411  14.5122  15.0804
    16.5856  17.5490

          k = 0.0000 0.8333 0.0000 (  5310 PWs)   bands (ev):

   -40.0311 -40.0311 -40.0262 -40.0261 -40.0261 -25.7676  -9.3060  -9.2738
    -9.2738  -7.6080   1.7671   2.4041   2.4041   7.7670   8.5276  10.7641
    10.9115  12.1367  12.1732  12.1732  13.3613  13.3613  15.2857  15.7801
    15.7801  16.8304

          k = 0.9167-0.0833 0.9167 (  5333 PWs)   bands (ev):

   -40.0311 -40.0311 -40.0262 -40.0261 -40.0261 -25.7675  -9.3024  -9.2794
    -9.2739  -7.6040   1.7771   2.3346   2.3868   7.8086   8.6140  10.8669
    11.0147  11.6362  12.2147  12.4369  13.6376  13.6415  15.1204  15.2201
    15.4681  17.0024

          k = 0.8333 0.0000 0.8333 (  5314 PWs)   bands (ev):

   -40.0311 -40.0311 -40.0262 -40.0261 -40.0261 -25.7675  -9.2974  -9.2961
    -9.2722  -7.5857   1.8261   2.1824   2.3759   8.0356   8.9102  10.8208
    11.0296  11.2032  12.0166  12.6941  13.4782  13.7187  14.6331  15.4322
    15.4768  17.6491

          k = 0.0000-1.0000 0.0000 (  5346 PWs)   bands (ev):

   -40.0311 -40.0311 -40.0262 -40.0261 -40.0261 -25.7675  -9.3009  -9.2750
    -9.2750  -7.6130   1.7624   2.3848   2.3848   7.6988   8.4974  10.8385
    11.4193  11.5134  12.2972  12.2972  13.9084  13.9084  15.0089  15.0089
    15.3431  16.6886

          k =-0.1667 0.3333 0.0000 (  5289 PWs)   bands (ev):

   -40.0311 -40.0311 -40.0262 -40.0262 -40.0262 -25.7693  -9.3069  -9.2629
    -9.2585  -7.6530   2.1757   2.6012   2.6090   7.6177   8.8166   9.8104
     9.9604  10.3371  10.6126  13.2979  13.7714  14.1021  14.2598  15.5533
    16.2539  17.2774

          k =-0.2500 0.4167-0.0833 (  5308 PWs)   bands (ev):

   -40.0311 -40.0311 -40.0262 -40.0262 -40.0262 -25.7689  -9.3318  -9.2656
    -9.2587  -7.6021   1.9432   2.5031   2.5352   8.0614   8.8653  10.0916
    10.1794  10.7608  10.9410  12.7347  13.5585  13.6740  14.7631  15.3431
    15.8572  17.4348

          k =-0.3333 0.5000-0.1667 (  5313 PWs)   bands (ev):

   -40.0311 -40.0311 -40.0262 -40.0262 -40.0262 -25.7684  -9.3559  -9.2668
    -9.2598  -7.5522   1.7356   2.4048   2.4651   8.3465   9.2593  10.2922
    10.4549  11.1755  11.2322  12.5485  13.0434  13.2733  14.8372  15.1511
    15.7763  17.0327

          k = 0.5833-0.4167 0.7500 (  5306 PWs)   bands (ev):

   -40.0311 -40.0311 -40.0262 -40.0262 -40.0262 -25.7681  -9.3730  -9.2669
    -9.2612  -7.5161   1.5945   2.3352   2.4155   8.4782   9.7807  10.3275
    10.8164  11.3187  11.5100  12.5915  12.7637  12.8575  14.5943  14.7193
    15.8202  16.5795

          k = 0.5000-0.3333 0.6667 (  5308 PWs)   bands (ev):

   -40.0311 -40.0311 -40.0262 -40.0262 -40.0262 -25.7680  -9.3791  -9.2667
    -9.2620  -7.5030   1.5447   2.3103   2.3977   8.5283   9.9340  10.4661
    10.9707  11.4031  11.5109  12.5782  12.6021  12.7893  14.4228  14.8224
    15.3807  16.5869

          k =-0.1667 0.5000 0.0000 (  5310 PWs)   bands (ev):

   -40.0311 -40.0311 -40.0262 -40.0262 -40.0262 -25.7687  -9.3233  -9.2675
    -9.2629  -7.6070   1.9278   2.5000   2.5160   8.1673   8.4475  10.3198
    10.5437  10.7215  10.9925  12.7608  13.4481  13.5532  14.7256  15.9188
    16.3021  17.4000

          k =-0.2500 0.5833-0.0833 (  5313 PWs)   bands (ev):

   -40.0311 -40.0311 -40.0262 -40.0262 -40.0262 -25.7683  -9.3378  -9.2704
    -9.2639  -7.5726   1.7994   2.3889   2.4506   8.4036   8.7350  10.3083
    10.7752  11.0352  11.3496  12.6783  13.0628  13.3307  14.9871  15.5549
    16.1802  17.1279

          k = 0.6667-0.3333 0.8333 (  5303 PWs)   bands (ev):

   -40.0311 -40.0311 -40.0262 -40.0262 -40.0262 -25.7680  -9.3503  -9.2722
    -9.2655  -7.5424   1.7097   2.2770   2.3998   8.5291   9.3307  10.0692
    10.9976  11.3208  11.5970  12.5967  12.7782  13.2342  14.8773  15.0371
    16.1498  16.9062

          k = 0.5833-0.2500 0.7500 (  5310 PWs)   bands (ev):

   -40.0311 -40.0311 -40.0262 -40.0262 -40.0262 -25.7678  -9.3577  -9.2740
    -9.2657  -7.5244   1.6674   2.2074   2.3735   8.7065   9.6585  10.0244
    11.0680  11.3571  11.6841  12.5011  12.7383  13.0726  14.6190  15.1392
    15.7392  16.9863

          k = 0.5000-0.1667 0.6667 (  5313 PWs)   bands (ev):

   -40.0311 -40.0311 -40.0262 -40.0262 -40.0262 -25.7678  -9.3586  -9.2756
    -9.2639  -7.5230   1.6727   2.2060   2.3776   8.8133   9.5861  10.0025
    11.0234  11.3282  11.6154  12.6098  12.7258  13.0296  14.5676  14.8675
    16.2397  16.9693

          k = 0.4167-0.0833 0.5833 (  5306 PWs)   bands (ev):

   -40.0311 -40.0311 -40.0262 -40.0262 -40.0262 -25.7681  -9.3534  -9.2750
    -9.2614  -7.5387   1.7233   2.2746   2.4115   8.7657   9.2513   9.9836
    10.7478  11.3383  11.4871  12.6444  12.8341  13.2134  14.7161  14.8001
    16.5451  17.1551

          k = 0.3333 0.0000 0.5000 (  5319 PWs)   bands (ev):

   -40.0311 -40.0311 -40.0262 -40.0262 -40.0262 -25.7685  -9.3437  -9.2714
    -9.2595  -7.5676   1.8164   2.3885   2.4682   8.5219   8.8684  10.1669
    10.3807  11.1606  11.2276  12.5515  13.1666  13.4640  14.9652  15.1733
    15.8442  17.4428

          k =-0.1667 0.6667-0.0000 (  5306 PWs)   bands (ev):

   -40.0311 -40.0311 -40.0262 -40.0262 -40.0262 -25.7681  -9.3226  -9.2721
    -9.2689  -7.5889   1.8035   2.4101   2.4253   8.1458   8.6016  10.4719
    10.7517  11.4323  11.5813  12.5716  13.1990  13.2131  15.0859  15.9724
    16.5739  17.3024

          k = 0.7500-0.2500 0.9167 (  5311 PWs)   bands (ev):

   -40.0311 -40.0311 -40.0262 -40.0262 -40.0261 -25.7678  -9.3263  -9.2761
    -9.2710  -7.5708   1.7814   2.2828   2.3766   8.2671   8.9866  10.2150
    10.9497  11.6015  11.8281  12.5070  12.9981  13.3523  15.0737  15.3077
    16.2495  17.4406

          k = 0.6667-0.1667 0.8333 (  5309 PWs)   bands (ev):

   -40.0311 -40.0311 -40.0262 -40.0262 -40.0261 -25.7676  -9.3306  -9.2819
    -9.2707  -7.5525   1.8010   2.1360   2.3498   8.5083   9.4519   9.9221
    11.1965  11.2475  11.9210  12.5799  12.9925  13.2651  14.8067  15.2551
    15.8796  17.6445

          k = 0.5833-0.0833 0.7500 (  5309 PWs)   bands (ev):

   -40.0311 -40.0311 -40.0262 -40.0262 -40.0261 -25.7676  -9.3371  -9.2852
    -9.2680  -7.5389   1.8155   2.0604   2.3470   8.8324   9.6209   9.7736
    10.9649  11.4613  11.6236  12.7073  12.8922  13.1549  14.5777  15.1426
    16.2686  17.5318

          k = 0.5000 0.0000 0.6667 (  5300 PWs)   bands (ev):

   -40.0311 -40.0311 -40.0262 -40.0262 -40.0262 -25.7678  -9.3459  -9.2823
    -9.2645  -7.5339   1.7637   2.1351   2.3690   9.1039   9.3253   9.7226
    11.1274  11.1963  11.6206  12.6694  12.8429  13.1195  14.6666  14.7898
    16.9288  17.3558

          k = 0.8333-0.1667 1.0000 (  5323 PWs)   bands (ev):

   -40.0311 -40.0311 -40.0262 -40.0261 -40.0261 -25.7676  -9.3095  -9.2764
    -9.2754  -7.5935   1.7848   2.3504   2.3543   7.9544   8.7257  10.6258
    10.8840  11.7421  12.1488  12.4463  13.2870  13.3899  15.1819  15.4034
    15.8863  17.2152

          k = 0.7500-0.0833 0.9167 (  5316 PWs)   bands (ev):

   -40.0311 -40.0311 -40.0262 -40.0262 -40.0261 -25.7675  -9.3061  -9.2876
    -9.2751  -7.5799   1.8301   2.2013   2.3331   8.1566   8.9790  10.4781
    11.0720  11.2889  12.1653  12.6480  13.3932  13.4377  14.8601  15.2379
    15.6160  17.6658

          k = 0.6667 0.0000 0.8333 (  5314 PWs)   bands (ev):

   -40.0311 -40.0311 -40.0262 -40.0262 -40.0261 -25.7675  -9.3145  -9.2927
    -9.2722  -7.5598   1.9175   2.0142   2.3310   8.4788   9.3605  10.1223
    10.9777  11.3188  11.8922  12.8671  13.0387  13.3854  14.5748  15.3708
    15.8114  17.7422

          k =-0.1667-1.0000-0.0000 (  5330 PWs)   bands (ev):

   -40.0311 -40.0311 -40.0262 -40.0261 -40.0261 -25.7675  -9.2992  -9.2827
    -9.2767  -7.5990   1.7945   2.3253   2.3297   7.8891   8.6921  10.9362
    11.0410  11.3137  12.3043  12.4874  13.7162  13.7439  14.9761  14.9765
    15.4261  17.2679

          k = 0.6667-0.3333 1.0000 (  5301 PWs)   bands (ev):

   -40.0311 -40.0311 -40.0262 -40.0262 -40.0262 -25.7680  -9.3387  -9.2764
    -9.2662  -7.5557   1.7702   2.2850   2.3763   8.6395   8.9923   9.9925
    11.1323  11.2597  11.5009  12.6387  13.0620  13.1770  14.9410  15.0069
    16.7062  17.2812

          k = 0.5833-0.2500 0.9167 (  5299 PWs)   bands (ev):

   -40.0311 -40.0311 -40.0262 -40.0262 -40.0261 -25.7677  -9.3383  -9.2799
    -9.2697  -7.5434   1.7793   2.1717   2.3269   8.8482   9.4047   9.6554
    11.2126  11.3749  11.6833  12.6954  12.8349  13.1498  14.7648  14.9917
    16.3752  17.4145

          k = 0.5000-0.1667 0.8333 (  5308 PWs)   bands (ev):

   -40.0311 -40.0311 -40.0262 -40.0262 -40.0261 -25.7676  -9.3379  -9.2808
    -9.2715  -7.5389   1.7942   2.1175   2.3099   9.0083   9.3518   9.7544
    10.9724  11.5137  11.9139  12.6021  12.6830  13.2050  14.6288  15.2761
    15.9304  17.5949

          k = 0.6667-0.1667 1.0000 (  5308 PWs)   bands (ev):

   -40.0311 -40.0311 -40.0262 -40.0262 -40.0261 -25.7676  -9.3192  -9.2800
    -9.2779  -7.5643   1.8297   2.2163   2.2735   8.4793   9.1795   9.9528
    11.2044  11.2986  12.0715  12.6977  13.1400  13.1537  14.9470  15.0517
    16.0303  17.6416

          k = 0.5833-0.0833 0.9167 (  5307 PWs)   bands (ev):

   -40.0311 -40.0311 -40.0262 -40.0262 -40.0261 -25.7675  -9.3155  -9.2869
    -9.2791  -7.5560   1.9140   2.0776   2.2444   8.7974   9.3955   9.6406
    10.9749  11.4535  12.1782  12.7854  12.8833  13.1980  14.7537  15.2864
    15.6487  17.7916

          k = 0.5000 0.0000 0.8333 (  5311 PWs)   bands (ev):

   -40.0311 -40.0311 -40.0262 -40.0262 -40.0261 -25.7676  -9.3238  -9.2864
    -9.2753  -7.5484   1.8963   2.0565   2.2677   9.1625   9.2493   9.5259
    10.9628  11.5570  11.9604  12.6854  13.0033  13.0365  14.7087  15.1685
    15.9971  17.6311

          k =-0.3333-1.0000 0.0000 (  5316 PWs)   bands (ev):

   -40.0311 -40.0311 -40.0262 -40.0262 -40.0261 -25.7675  -9.2978  -9.2944
    -9.2814  -7.5712   1.8876   2.1924   2.2115   8.4233   9.1205  10.1455
    11.0358  11.2782  12.3188  12.7579  13.1479  13.4050  14.9130  15.0766
    15.4683  17.8776

          k =-0.5000-1.0000 0.0000 (  5268 PWs)   bands (ev):

   -40.0311 -40.0311 -40.0262 -40.0262 -40.0261 -25.7675  -9.3052  -9.2878
    -9.2878  -7.5573   2.0293   2.0293   2.1570   9.2140   9.2140   9.3675
    10.9032  11.5603  12.3261  12.6902  13.0589  13.0589  14.8820  15.3056
    15.3056  17.8841

     the Fermi energy is     3.4366 ev

!    total energy              =    -255.72964558 Ry
     estimated scf accuracy    <          8.5E-11 Ry
     smearing contrib. (-TS)   =      -0.00000000 Ry
     internal energy E=F+TS    =    -255.72964558 Ry

     The total energy is F=E-TS. E is the sum of the following terms:
     one-electron contribution =    -150.90788751 Ry
     hartree contribution      =      75.16954258 Ry
     xc contribution           =     -28.37890998 Ry
     ewald contribution        =    -151.61239067 Ry

     convergence has been achieved in   7 iterations

     Writing all to output data dir out/mp-22898.save/
 
     init_run     :      0.90s CPU      0.96s WALL (       1 calls)
     electrons    :     51.20s CPU     54.25s WALL (       1 calls)

     Called by init_run:
     wfcinit      :      0.84s CPU      0.87s WALL (       1 calls)
     potinit      :      0.02s CPU      0.02s WALL (       1 calls)
     hinit0       :      0.01s CPU      0.02s WALL (       1 calls)

     Called by electrons:
     c_bands      :     48.38s CPU     51.23s WALL (       7 calls)
     sum_band     :      2.75s CPU      2.84s WALL (       7 calls)
     v_of_rho     :      0.06s CPU      0.07s WALL (       8 calls)
     mix_rho      :      0.01s CPU      0.01s WALL (       7 calls)

     Called by c_bands:
     init_us_2    :      0.23s CPU      0.24s WALL (    1080 calls)
     init_us_2:cp :      0.23s CPU      0.24s WALL (    1080 calls)
     paro_k       :     47.34s CPU     49.16s WALL (     504 calls)

     Called by paro_*:
     h_psi        :     37.15s CPU     38.47s WALL (   12063 calls)
     g_psi        :      0.60s CPU      0.63s WALL (  116835 calls)

     Called by h_psi:
     h_psi:calbec :      1.24s CPU      1.29s WALL (   12063 calls)
     vloc_psi     :     34.71s CPU     35.95s WALL (   12063 calls)
     add_vuspsi   :      0.99s CPU      1.03s WALL (   12063 calls)

     General routines
     calbec       :      1.21s CPU      1.27s WALL (   12063 calls)
     fft          :      0.02s CPU      0.03s WALL (      79 calls)
     ffts         :      0.00s CPU      0.00s WALL (       7 calls)
     fftw         :     32.87s CPU     34.01s WALL (  213092 calls)
 
     Parallel routines
 
     PWSCF        :     52.29s CPU     55.56s WALL

 
   This run was terminated on:  14:31:56   3Jan2024            

=------------------------------------------------------------------------------=
   JOB DONE.
=------------------------------------------------------------------------------=
