 
             +---------------------------------------------------+
             |                                                   |
             |                   WANNIER90                       |
             |                                                   |
             +---------------------------------------------------+
             |                                                   |
             |        Welcome to the Maximally-Localized         |
             |        Generalized Wannier Functions code         |
             |            http://www.wannier.org                 |
             |                                                   |
             |                                                   |
             |  Wannier90 Developer Group:                       |
             |    Giovanni Pizzi    (EPFL)                       |
             |    Valerio Vitale    (Cambridge)                  |
             |    David Vanderbilt  (Rutgers University)         |
             |    Nicola Marzari    (EPFL)                       |
             |    Ivo Souza         (Universidad del Pais Vasco) |
             |    Arash A. Mostofi  (Imperial College London)    |
             |    Jonathan R. Yates (University of Oxford)       |
             |                                                   |
             |  For the full list of Wannier90 3.x authors,      |
             |  please check the code documentation and the      |
             |  README on the GitHub page of the code            |
             |                                                   |
             |                                                   |
             |  Please cite                                      |
             |                                                   |
             |  [ref] "Wannier90 as a community code:            |
             |        new features and applications",            |
             |        G. Pizzi et al., J. Phys. Cond. Matt. 32,  |
             |        165902 (2020).                             |
             |        http://doi.org/10.1088/1361-648X/ab51ff    |
             |                                                   |
             |  in any publications arising from the use of      |
             |  this code. For the method please cite            |
             |                                                   |
             |  [ref] "Maximally Localized Generalised Wannier   |
             |         Functions for Composite Energy Bands"     |
             |         N. Marzari and D. Vanderbilt              |
             |         Phys. Rev. B 56 12847 (1997)              |
             |                                                   |
             |  [ref] "Maximally Localized Wannier Functions     |
             |         for Entangled Energy Bands"               |
             |         I. Souza, N. Marzari and D. Vanderbilt    |
             |         Phys. Rev. B 65 035109 (2001)             |
             |                                                   |
             |                                                   |
             | Copyright (c) 1996-2020                           |
             |        The Wannier90 Developer Group and          |
             |        individual contributors                    |
             |                                                   |
             |      Release: 3.1.0        5th March    2020      |
             |                                                   |
             | This program is free software; you can            |
             | redistribute it and/or modify it under the terms  |
             | of the GNU General Public License as published by |
             | the Free Software Foundation; either version 2 of |
             | the License, or (at your option) any later version|
             |                                                   |
             | This program is distributed in the hope that it   |
             | will be useful, but WITHOUT ANY WARRANTY; without |
             | even the implied warranty of MERCHANTABILITY or   |
             | FITNESS FOR A PARTICULAR PURPOSE. See the GNU     |
             | General Public License for more details.          |
             |                                                   |
             | You should have received a copy of the GNU General|
             | Public License along with this program; if not,   |
             | write to the Free Software Foundation, Inc.,      |
             | 675 Mass Ave, Cambridge, MA 02139, USA.           |
             |                                                   |
             +---------------------------------------------------+
             |    Execution started on  8Apr2024 at 15:13:45     |
             +---------------------------------------------------+
 
 ******************************************************************************
 * -> Using CODATA 2006 constant values                                       *
 *    (http://physics.nist.gov/cuu/Constants/index.html)                      *
 * -> Using Bohr value from CODATA                                            *
 ******************************************************************************
 

 Running in parallel on  16 CPUs

 
                                    ------
                                    SYSTEM
                                    ------
 
                              Lattice Vectors (Ang)
                    a_1    -3.024017   0.000000   3.024017
                    a_2     0.000000   3.024017   3.024017
                    a_3    -3.024017   3.024017   0.000000
 
                   Unit Cell Volume:      55.30733  (Ang^3)
 
                        Reciprocal-Space Vectors (Ang^-1)
                    b_1    -1.038881  -1.038881   1.038881
                    b_2     1.038881   1.038881   1.038881
                    b_3    -1.038881   1.038881  -1.038881
  
 *----------------------------------------------------------------------------*
 |   Site       Fractional Coordinate          Cartesian Coordinate (Ang)     |
 +----------------------------------------------------------------------------+
 | Sr   1   0.00000   0.00000   0.00000   |    0.00000   0.00000   0.00000    |
 | S    1   0.50000   0.50000   0.50000   |   -3.02402   3.02402   3.02402    |
 *----------------------------------------------------------------------------*
                                ------------
                                K-POINT GRID
                                ------------
  
             Grid size = 12 x 12 x 12      Total points = 1728
  
  
 *---------------------------------- MAIN ------------------------------------*
 |  Number of Wannier Functions               :                 3             |
 |  Number of Objective Wannier Functions     :                 3             |
 |  Number of input Bloch states              :                 3             |
 |  Output verbosity (1=low, 5=high)          :                 1             |
 |  Timing Level (1=low, 5=high)              :                 1             |
 |  Optimisation (0=memory, 3=speed)          :                 3             |
 |  Length Unit                               :               Ang             |
 |  Post-processing setup (write *.nnkp)      :                 F             |
 |  Using Gamma-only branch of algorithms     :                 F             |
 *----------------------------------------------------------------------------*
 *------------------------------- WANNIERISE ---------------------------------*
 |  Total number of iterations                :               500             |
 |  Number of CG steps before reset           :                 5             |
 |  Trial step length for line search         :             2.000             |
 |  Convergence tolerence                     :         0.100E-09             |
 |  Convergence window                        :                -1             |
 |  Iterations between writing output         :                 1             |
 |  Iterations between backing up to disk     :               100             |
 |  Write r^2_nm to file                      :                 F             |
 |  Write xyz WF centres to file              :                 F             |
 |  Write on-site energies <0n|H|0n> to file  :                 F             |
 |  Use guiding centre to control phases      :                 F             |
 |  Use phases for initial projections        :                 F             |
 *----------------------------------------------------------------------------*
 Time to read parameters        0.169 (sec)

 *---------------------------------- K-MESH ----------------------------------*
 +----------------------------------------------------------------------------+
 |                    Distance to Nearest-Neighbour Shells                    |
 |                    ------------------------------------                    |
 |          Shell             Distance (Ang^-1)          Multiplicity         |
 |          -----             -----------------          ------------         |
 |             1                   0.149949                      8            |
 |             2                   0.173147                      6            |
 |             3                   0.244867                     12            |
 |             4                   0.287131                     24            |
 |             5                   0.299899                      8            |
 |             6                   0.346294                      6            |
 |             7                   0.377365                     24            |
 |             8                   0.387168                     24            |
 |             9                   0.424121                     24            |
 |            10                   0.449849                     32            |
 |            11                   0.489733                     12            |
 |            12                   0.512175                     48            |
 |            13                   0.519440                     30            |
 |            14                   0.547538                     24            |
 |            15                   0.567700                     24            |
 |            16                   0.574263                     24            |
 |            17                   0.599798                      8            |
 |            18                   0.618258                     48            |
 |            19                   0.624290                     24            |
 |            20                   0.647856                     48            |
 |            21                   0.664983                     72            |
 |            22                   0.692587                      6            |
 |            23                   0.708634                     24            |
 |            24                   0.713902                     48            |
 |            25                   0.734600                     36            |
 |            26                   0.749748                     56            |
 |            27                   0.754729                     24            |
 |            28                   0.774336                     24            |
 |            29                   0.788721                     72            |
 |            30                   0.793458                     48            |
 |            31                   0.812130                     24            |
 |            32                   0.825857                     48            |
 |            33                   0.848242                     24            |
 |            34                   0.861394                     72            |
 |            35                   0.865734                     30            |
 |            36                   0.882879                     72            |
 +----------------------------------------------------------------------------+
 | The b-vectors are chosen automatically                                     |
 | The following shells are used:   1                                         |
 +----------------------------------------------------------------------------+
 |                        Shell   # Nearest-Neighbours                        |
 |                        -----   --------------------                        |
 |                          1               8                                 |
 +----------------------------------------------------------------------------+
 | Completeness relation is fully satisfied [Eq. (B1), PRB 56, 12847 (1997)]  |
 +----------------------------------------------------------------------------+
 |                  b_k Vectors (Ang^-1) and Weights (Ang^2)                  |
 |                  ----------------------------------------                  |
 |            No.         b_k(x)      b_k(y)      b_k(z)        w_b           |
 |            ---        --------------------------------     --------        |
 |             1        -0.086573    0.086573   -0.086573    16.677896        |
 |             2         0.086573    0.086573    0.086573    16.677896        |
 |             3        -0.086573   -0.086573    0.086573    16.677896        |
 |             4        -0.086573    0.086573    0.086573    16.677896        |
 |             5         0.086573   -0.086573    0.086573    16.677896        |
 |             6        -0.086573   -0.086573   -0.086573    16.677896        |
 |             7         0.086573    0.086573   -0.086573    16.677896        |
 |             8         0.086573   -0.086573   -0.086573    16.677896        |
 +----------------------------------------------------------------------------+
 |                           b_k Directions (Ang^-1)                          |
 |                           -----------------------                          |
 |            No.           x           y           z                         |
 |            ---        --------------------------------                     |
 |             1        -0.086573    0.086573   -0.086573                     |
 |             2         0.086573    0.086573    0.086573                     |
 |             3        -0.086573   -0.086573    0.086573                     |
 |             4        -0.086573    0.086573    0.086573                     |
 +----------------------------------------------------------------------------+
  
 Time to get kmesh              0.677 (sec)
 *============================================================================*
 |                              MEMORY ESTIMATE                               |
 |         Maximum RAM allocated during each phase of the calculation         |
 *============================================================================*
 |                            Wannierise:            7.00 Mb                  |
 |                          plot_wannier:            7.00 Mb                  |
 *----------------------------------------------------------------------------*
  
 Starting a new Wannier90 calculation ...


 Reading overlaps from mp-1087.mmn    :  Created on  8Apr2024 at 15:13:39

 Reading projections from mp-1087.amn :  Created on  8Apr2024 at 15:13:38  with SCDM

 Time to read overlaps          0.086 (sec)

 Writing checkpoint file mp-1087.chk... done

 
 *------------------------------- WANNIERISE ---------------------------------*
 +--------------------------------------------------------------------+<-- CONV
 | Iter  Delta Spread     RMS Gradient      Spread (Ang^2)      Time  |<-- CONV
 +--------------------------------------------------------------------+<-- CONV
 
 ------------------------------------------------------------------------------
 Initial State
  WF centre and spread    1  (  0.000295, -0.000294, -3.023769 )     2.41401521
  WF centre and spread    2  (  3.023770, -0.000294, -0.000294 )     2.41401699
  WF centre and spread    3  (  0.000295, -3.023770, -0.000294 )     2.41401689
  Sum of centres and spreads (  3.024359, -3.024358, -3.024358 )     7.24204909
 
      0     0.724E+01     0.0000000000        7.2420512874       0.00  <-- CONV
        O_D=      0.0637156 O_OD=      0.1954625 O_TOT=      7.2420513 <-- SPRD
 ------------------------------------------------------------------------------
 Cycle:      1
  WF centre and spread    1  ( -0.000063,  0.000064, -3.024273 )     2.35112848
  WF centre and spread    2  (  3.024273,  0.000064,  0.000064 )     2.35112974
  WF centre and spread    3  ( -0.000063, -3.024273,  0.000064 )     2.35112910
  Sum of centres and spreads (  3.024147, -3.024146, -3.024146 )     7.05338733
 
      1    -0.189E+00     0.1188242898        7.0533895210       0.01  <-- CONV
        O_D=      0.0148574 O_OD=      0.0556590 O_TOT=      7.0533895 <-- SPRD
 Delta: O_D= -0.4885826E-01 O_OD= -0.1398035E+00 O_TOT= -0.1886618E+00 <-- DLTA
 ------------------------------------------------------------------------------
 Cycle:      2
  WF centre and spread    1  ( -0.000114,  0.000114, -3.024342 )     2.34355773
  WF centre and spread    2  (  3.024342,  0.000114,  0.000114 )     2.34357367
  WF centre and spread    3  ( -0.000114, -3.024342,  0.000114 )     2.34355624
  Sum of centres and spreads (  3.024114, -3.024113, -3.024113 )     7.03068764
 
      2    -0.227E-01     0.0802196953        7.0306898334       0.01  <-- CONV
        O_D=      0.0068035 O_OD=      0.0410132 O_TOT=      7.0306898 <-- SPRD
 Delta: O_D= -0.8053913E-02 O_OD= -0.1464578E-01 O_TOT= -0.2269969E-01 <-- DLTA
 ------------------------------------------------------------------------------
 Cycle:      3
  WF centre and spread    1  ( -0.000108,  0.000108, -3.024307 )     2.34062999
  WF centre and spread    2  (  3.024307,  0.000108,  0.000108 )     2.34067468
  WF centre and spread    3  ( -0.000108, -3.024307,  0.000108 )     2.34063989
  Sum of centres and spreads (  3.024092, -3.024091, -3.024091 )     7.02194456
 
      3    -0.874E-02     0.0546834365        7.0219467558       0.02  <-- CONV
        O_D=      0.0036923 O_OD=      0.0353813 O_TOT=      7.0219468 <-- SPRD
 Delta: O_D= -0.3111163E-02 O_OD= -0.5631914E-02 O_TOT= -0.8743078E-02 <-- DLTA
 ------------------------------------------------------------------------------
 Cycle:      4
  WF centre and spread    1  ( -0.000078,  0.000079, -3.024224 )     2.33863310
  WF centre and spread    2  (  3.024224,  0.000079,  0.000079 )     2.33867042
  WF centre and spread    3  ( -0.000078, -3.024224,  0.000079 )     2.33864751
  Sum of centres and spreads (  3.024067, -3.024066, -3.024066 )     7.01595104
 
      4    -0.599E-02     0.0465810879        7.0159532321       0.03  <-- CONV
        O_D=      0.0017675 O_OD=      0.0313125 O_TOT=      7.0159532 <-- SPRD
 Delta: O_D= -0.1924773E-02 O_OD= -0.4068750E-02 O_TOT= -0.5993524E-02 <-- DLTA
 ------------------------------------------------------------------------------
 Cycle:      5
  WF centre and spread    1  ( -0.000042,  0.000042, -3.024127 )     2.33722809
  WF centre and spread    2  (  3.024127,  0.000042,  0.000042 )     2.33724237
  WF centre and spread    3  ( -0.000042, -3.024127,  0.000042 )     2.33723693
  Sum of centres and spreads (  3.024044, -3.024043, -3.024043 )     7.01170738
 
      5    -0.424E-02     0.0401888191        7.0117095770       0.03  <-- CONV
        O_D=      0.0006947 O_OD=      0.0281416 O_TOT=      7.0117096 <-- SPRD
 Delta: O_D= -0.1072777E-02 O_OD= -0.3170878E-02 O_TOT= -0.4243655E-02 <-- DLTA
 ------------------------------------------------------------------------------
 Cycle:      6
  WF centre and spread    1  ( -0.000018,  0.000019, -3.024066 )     2.33657099
  WF centre and spread    2  (  3.024066,  0.000019,  0.000019 )     2.33657620
  WF centre and spread    3  ( -0.000018, -3.024066,  0.000019 )     2.33657612
  Sum of centres and spreads (  3.024030, -3.024029, -3.024028 )     7.00972330
 
      6    -0.198E-02     0.0297155886        7.0097254994       0.04  <-- CONV
        O_D=      0.0002287 O_OD=      0.0266236 O_TOT=      7.0097255 <-- SPRD
 Delta: O_D= -0.4660470E-03 O_OD= -0.1518031E-02 O_TOT= -0.1984078E-02 <-- DLTA
 ------------------------------------------------------------------------------
 Cycle:      7
  WF centre and spread    1  ( -0.000016,  0.000017, -3.024062 )     2.33639059
  WF centre and spread    2  (  3.024062,  0.000017,  0.000017 )     2.33639330
  WF centre and spread    3  ( -0.000016, -3.024062,  0.000017 )     2.33639454
  Sum of centres and spreads (  3.024029, -3.024028, -3.024027 )     7.00917843
 
      7    -0.545E-03     0.0189366060        7.0091806259       0.04  <-- CONV
        O_D=      0.0001138 O_OD=      0.0261936 O_TOT=      7.0091806 <-- SPRD
 Delta: O_D= -0.1149000E-03 O_OD= -0.4299736E-03 O_TOT= -0.5448736E-03 <-- DLTA
 ------------------------------------------------------------------------------
 Cycle:      8
  WF centre and spread    1  ( -0.000012,  0.000013, -3.024051 )     2.33628909
  WF centre and spread    2  (  3.024051,  0.000013,  0.000013 )     2.33628943
  WF centre and spread    3  ( -0.000012, -3.024051,  0.000013 )     2.33629052
  Sum of centres and spreads (  3.024027, -3.024026, -3.024026 )     7.00886904
 
      8    -0.309E-03     0.0115159482        7.0088712357       0.05  <-- CONV
        O_D=      0.0000417 O_OD=      0.0259563 O_TOT=      7.0088712 <-- SPRD
 Delta: O_D= -0.7207175E-04 O_OD= -0.2373184E-03 O_TOT= -0.3093902E-03 <-- DLTA
 ------------------------------------------------------------------------------
 Cycle:      9
  WF centre and spread    1  ( -0.000009,  0.000009, -3.024043 )     2.33625401
  WF centre and spread    2  (  3.024043,  0.000009,  0.000009 )     2.33625409
  WF centre and spread    3  ( -0.000009, -3.024042,  0.000009 )     2.33625454
  Sum of centres and spreads (  3.024025, -3.024024, -3.024024 )     7.00876264
 
      9    -0.106E-03     0.0073609281        7.0087648379       0.05  <-- CONV
        O_D=      0.0000210 O_OD=      0.0258706 O_TOT=      7.0087648 <-- SPRD
 Delta: O_D= -0.2069038E-04 O_OD= -0.8570740E-04 O_TOT= -0.1063978E-03 <-- DLTA
 ------------------------------------------------------------------------------
 Cycle:     10
  WF centre and spread    1  ( -0.000006,  0.000007, -3.024036 )     2.33624160
  WF centre and spread    2  (  3.024036,  0.000006,  0.000007 )     2.33624154
  WF centre and spread    3  ( -0.000006, -3.024036,  0.000006 )     2.33624188
  Sum of centres and spreads (  3.024024, -3.024023, -3.024023 )     7.00872501
 
     10    -0.376E-04     0.0041637325        7.0087272091       0.06  <-- CONV
        O_D=      0.0000133 O_OD=      0.0258407 O_TOT=      7.0087272 <-- SPRD
 Delta: O_D= -0.7700279E-05 O_OD= -0.2992852E-04 O_TOT= -0.3762880E-04 <-- DLTA
 ------------------------------------------------------------------------------
 Cycle:     11
  WF centre and spread    1  ( -0.000002,  0.000003, -3.024027 )     2.33623231
  WF centre and spread    2  (  3.024027,  0.000003,  0.000003 )     2.33623227
  WF centre and spread    3  ( -0.000002, -3.024027,  0.000003 )     2.33623274
  Sum of centres and spreads (  3.024022, -3.024021, -3.024021 )     7.00869732
 
     11    -0.277E-04     0.0028433214        7.0086995182       0.06  <-- CONV
        O_D=      0.0000086 O_OD=      0.0258177 O_TOT=      7.0086995 <-- SPRD
 Delta: O_D= -0.4713225E-05 O_OD= -0.2297763E-04 O_TOT= -0.2769086E-04 <-- DLTA
 ------------------------------------------------------------------------------
 Cycle:     12
  WF centre and spread    1  ( -0.000000,  0.000001, -3.024022 )     2.33622781
  WF centre and spread    2  (  3.024022,  0.000001,  0.000001 )     2.33622773
  WF centre and spread    3  ( -0.000000, -3.024022,  0.000001 )     2.33622813
  Sum of centres and spreads (  3.024021, -3.024020, -3.024020 )     7.00868367
 
     12    -0.137E-04     0.0025401359        7.0086858635       0.07  <-- CONV
        O_D=      0.0000052 O_OD=      0.0258075 O_TOT=      7.0086859 <-- SPRD
 Delta: O_D= -0.3441307E-05 O_OD= -0.1021339E-04 O_TOT= -0.1365470E-04 <-- DLTA
 ------------------------------------------------------------------------------
 Cycle:     13
  WF centre and spread    1  ( -0.000000,  0.000001, -3.024022 )     2.33622585
  WF centre and spread    2  (  3.024022,  0.000001,  0.000001 )     2.33622576
  WF centre and spread    3  ( -0.000000, -3.024022,  0.000001 )     2.33622614
  Sum of centres and spreads (  3.024021, -3.024020, -3.024020 )     7.00867775
 
     13    -0.592E-05     0.0019499430        7.0086799399       0.07  <-- CONV
        O_D=      0.0000036 O_OD=      0.0258031 O_TOT=      7.0086799 <-- SPRD
 Delta: O_D= -0.1533852E-05 O_OD= -0.4389818E-05 O_TOT= -0.5923670E-05 <-- DLTA
 ------------------------------------------------------------------------------
 Cycle:     14
  WF centre and spread    1  ( -0.000000,  0.000001, -3.024021 )     2.33622450
  WF centre and spread    2  (  3.024021,  0.000001,  0.000001 )     2.33622439
  WF centre and spread    3  ( -0.000000, -3.024021,  0.000001 )     2.33622464
  Sum of centres and spreads (  3.024021, -3.024020, -3.024020 )     7.00867353
 
     14    -0.422E-05     0.0013302988        7.0086757236       0.08  <-- CONV
        O_D=      0.0000023 O_OD=      0.0258003 O_TOT=      7.0086757 <-- SPRD
 Delta: O_D= -0.1391208E-05 O_OD= -0.2825077E-05 O_TOT= -0.4216284E-05 <-- DLTA
 ------------------------------------------------------------------------------
 Cycle:     15
  WF centre and spread    1  (  0.000000,  0.000001, -3.024021 )     2.33622358
  WF centre and spread    2  (  3.024020,  0.000000,  0.000001 )     2.33622349
  WF centre and spread    3  ( -0.000000, -3.024020,  0.000001 )     2.33622372
  Sum of centres and spreads (  3.024020, -3.024019, -3.024019 )     7.00867078
 
     15    -0.275E-05     0.0009170085        7.0086729752       0.08  <-- CONV
        O_D=      0.0000015 O_OD=      0.0257983 O_TOT=      7.0086730 <-- SPRD
 Delta: O_D= -0.7866247E-06 O_OD= -0.1961741E-05 O_TOT= -0.2748366E-05 <-- DLTA
 ------------------------------------------------------------------------------
 Cycle:     16
  WF centre and spread    1  (  0.000000,  0.000000, -3.024019 )     2.33622270
  WF centre and spread    2  (  3.024019,  0.000000,  0.000001 )     2.33622262
  WF centre and spread    3  (  0.000000, -3.024019,  0.000000 )     2.33622284
  Sum of centres and spreads (  3.024020, -3.024019, -3.024018 )     7.00866816
 
     16    -0.262E-05     0.0009167514        7.0086703571       0.08  <-- CONV
        O_D=      0.0000007 O_OD=      0.0257965 O_TOT=      7.0086704 <-- SPRD
 Delta: O_D= -0.8076291E-06 O_OD= -0.1810472E-05 O_TOT= -0.2618101E-05 <-- DLTA
 ------------------------------------------------------------------------------
 Cycle:     17
  WF centre and spread    1  (  0.000000,  0.000000, -3.024018 )     2.33622220
  WF centre and spread    2  (  3.024018,  0.000000,  0.000000 )     2.33622211
  WF centre and spread    3  (  0.000000, -3.024018,  0.000000 )     2.33622232
  Sum of centres and spreads (  3.024019, -3.024018, -3.024018 )     7.00866663
 
     17    -0.153E-05     0.0008195806        7.0086688269       0.09  <-- CONV
        O_D=      0.0000003 O_OD=      0.0257954 O_TOT=      7.0086688 <-- SPRD
 Delta: O_D= -0.3919389E-06 O_OD= -0.1138239E-05 O_TOT= -0.1530178E-05 <-- DLTA
 ------------------------------------------------------------------------------
 Cycle:     18
  WF centre and spread    1  (  0.000000,  0.000000, -3.024018 )     2.33622203
  WF centre and spread    2  (  3.024018, -0.000000,  0.000000 )     2.33622193
  WF centre and spread    3  (  0.000000, -3.024018,  0.000000 )     2.33622214
  Sum of centres and spreads (  3.024019, -3.024018, -3.024017 )     7.00866609
 
     18    -0.538E-06     0.0005276675        7.0086682887       0.09  <-- CONV
        O_D=      0.0000001 O_OD=      0.0257950 O_TOT=      7.0086683 <-- SPRD
 Delta: O_D= -0.1535452E-06 O_OD= -0.3847254E-06 O_TOT= -0.5382707E-06 <-- DLTA
 ------------------------------------------------------------------------------
 Cycle:     19
  WF centre and spread    1  (  0.000000,  0.000000, -3.024018 )     2.33622195
  WF centre and spread    2  (  3.024018, -0.000000,  0.000000 )     2.33622185
  WF centre and spread    3  (  0.000000, -3.024018,  0.000000 )     2.33622206
  Sum of centres and spreads (  3.024019, -3.024018, -3.024017 )     7.00866586
 
     19    -0.229E-06     0.0003677872        7.0086680597       0.10  <-- CONV
        O_D=      0.0000001 O_OD=      0.0257948 O_TOT=      7.0086681 <-- SPRD
 Delta: O_D= -0.5501852E-07 O_OD= -0.1739728E-06 O_TOT= -0.2289913E-06 <-- DLTA
 ------------------------------------------------------------------------------
 Cycle:     20
  WF centre and spread    1  (  0.000001,  0.000000, -3.024018 )     2.33622191
  WF centre and spread    2  (  3.024018, -0.000000,  0.000000 )     2.33622181
  WF centre and spread    3  (  0.000000, -3.024018,  0.000000 )     2.33622201
  Sum of centres and spreads (  3.024019, -3.024018, -3.024017 )     7.00866573
 
     20    -0.136E-06     0.0002445109        7.0086679236       0.10  <-- CONV
        O_D=      0.0000000 O_OD=      0.0257947 O_TOT=      7.0086679 <-- SPRD
 Delta: O_D= -0.3729803E-07 O_OD= -0.9878469E-07 O_TOT= -0.1360827E-06 <-- DLTA
 ------------------------------------------------------------------------------
 Cycle:     21
  WF centre and spread    1  (  0.000001,  0.000000, -3.024018 )     2.33622189
  WF centre and spread    2  (  3.024018, -0.000000,  0.000000 )     2.33622179
  WF centre and spread    3  (  0.000001, -3.024017,  0.000000 )     2.33622200
  Sum of centres and spreads (  3.024019, -3.024017, -3.024017 )     7.00866568
 
     21    -0.523E-07     0.0001603251        7.0086678712       0.10  <-- CONV
        O_D=      0.0000000 O_OD=      0.0257947 O_TOT=      7.0086679 <-- SPRD
 Delta: O_D= -0.1305262E-07 O_OD= -0.3929209E-07 O_TOT= -0.5234471E-07 <-- DLTA
 ------------------------------------------------------------------------------
 Cycle:     22
  WF centre and spread    1  (  0.000001,  0.000000, -3.024018 )     2.33622188
  WF centre and spread    2  (  3.024018, -0.000000,  0.000000 )     2.33622178
  WF centre and spread    3  (  0.000001, -3.024017,  0.000000 )     2.33622199
  Sum of centres and spreads (  3.024019, -3.024017, -3.024017 )     7.00866566
 
     22    -0.179E-07     0.0000928722        7.0086678533       0.11  <-- CONV
        O_D=      0.0000000 O_OD=      0.0257947 O_TOT=      7.0086679 <-- SPRD
 Delta: O_D= -0.5131763E-08 O_OD= -0.1278558E-07 O_TOT= -0.1791735E-07 <-- DLTA
 ------------------------------------------------------------------------------
 Cycle:     23
  WF centre and spread    1  (  0.000001,  0.000000, -3.024017 )     2.33622188
  WF centre and spread    2  (  3.024017, -0.000000,  0.000000 )     2.33622178
  WF centre and spread    3  (  0.000001, -3.024017,  0.000000 )     2.33622199
  Sum of centres and spreads (  3.024019, -3.024017, -3.024017 )     7.00866565
 
     23    -0.105E-07     0.0000590962        7.0086678428       0.11  <-- CONV
        O_D=      0.0000000 O_OD=      0.0257947 O_TOT=      7.0086678 <-- SPRD
 Delta: O_D= -0.2353399E-08 O_OD= -0.8171507E-08 O_TOT= -0.1052491E-07 <-- DLTA
 ------------------------------------------------------------------------------
 Cycle:     24
  WF centre and spread    1  (  0.000001,  0.000000, -3.024017 )     2.33622188
  WF centre and spread    2  (  3.024017, -0.000000,  0.000000 )     2.33622178
  WF centre and spread    3  (  0.000001, -3.024017,  0.000000 )     2.33622198
  Sum of centres and spreads (  3.024018, -3.024017, -3.024017 )     7.00866564
 
     24    -0.561E-08     0.0000443575        7.0086678372       0.11  <-- CONV
        O_D=      0.0000000 O_OD=      0.0257946 O_TOT=      7.0086678 <-- SPRD
 Delta: O_D= -0.1428581E-08 O_OD= -0.4183270E-08 O_TOT= -0.5611851E-08 <-- DLTA
 ------------------------------------------------------------------------------
 Cycle:     25
  WF centre and spread    1  (  0.000001,  0.000000, -3.024017 )     2.33622188
  WF centre and spread    2  (  3.024017, -0.000000,  0.000000 )     2.33622178
  WF centre and spread    3  (  0.000001, -3.024017,  0.000000 )     2.33622198
  Sum of centres and spreads (  3.024018, -3.024017, -3.024017 )     7.00866564
 
     25    -0.298E-08     0.0000368417        7.0086678342       0.12  <-- CONV
        O_D=      0.0000000 O_OD=      0.0257946 O_TOT=      7.0086678 <-- SPRD
 Delta: O_D= -0.7466157E-09 O_OD= -0.2233700E-08 O_TOT= -0.2980316E-08 <-- DLTA
 ------------------------------------------------------------------------------
 Cycle:     26
  WF centre and spread    1  (  0.000001,  0.000000, -3.024017 )     2.33622188
  WF centre and spread    2  (  3.024017, -0.000000,  0.000000 )     2.33622178
  WF centre and spread    3  (  0.000001, -3.024017,  0.000000 )     2.33622198
  Sum of centres and spreads (  3.024018, -3.024017, -3.024017 )     7.00866564
 
     26    -0.384E-11     0.0000295841        7.0086678342       0.12  <-- CONV
        O_D=      0.0000000 O_OD=      0.0257946 O_TOT=      7.0086678 <-- SPRD
 Delta: O_D= -0.1108113E-11 O_OD= -0.2736693E-11 O_TOT= -0.3844924E-11 <-- DLTA
 ------------------------------------------------------------------------------
 Cycle:     27
  WF centre and spread    1  (  0.000001,  0.000000, -3.024017 )     2.33622188
  WF centre and spread    2  (  3.024017, -0.000000,  0.000000 )     2.33622178
  WF centre and spread    3  (  0.000001, -3.024017,  0.000000 )     2.33622198
  Sum of centres and spreads (  3.024018, -3.024017, -3.024017 )     7.00866564
 
     27    -0.279E-08     0.0000295677        7.0086678314       0.12  <-- CONV
        O_D=      0.0000000 O_OD=      0.0257946 O_TOT=      7.0086678 <-- SPRD
 Delta: O_D= -0.5845479E-09 O_OD= -0.2201712E-08 O_TOT= -0.2786259E-08 <-- DLTA
 ------------------------------------------------------------------------------
 Cycle:     28
  WF centre and spread    1  (  0.000001,  0.000000, -3.024017 )     2.33622188
  WF centre and spread    2  (  3.024017, -0.000000,  0.000000 )     2.33622178
  WF centre and spread    3  (  0.000001, -3.024017,  0.000000 )     2.33622198
  Sum of centres and spreads (  3.024018, -3.024017, -3.024017 )     7.00866563
 
     28    -0.232E-08     0.0000301478        7.0086678291       0.13  <-- CONV
        O_D=      0.0000000 O_OD=      0.0257946 O_TOT=      7.0086678 <-- SPRD
 Delta: O_D= -0.4112758E-09 O_OD= -0.1912928E-08 O_TOT= -0.2324205E-08 <-- DLTA
 ------------------------------------------------------------------------------
 Cycle:     29
  WF centre and spread    1  (  0.000001,  0.000000, -3.024017 )     2.33622188
  WF centre and spread    2  (  3.024017, -0.000000,  0.000000 )     2.33622178
  WF centre and spread    3  (  0.000001, -3.024017,  0.000000 )     2.33622198
  Sum of centres and spreads (  3.024018, -3.024017, -3.024017 )     7.00866563
 
     29    -0.159E-08     0.0000406358        7.0086678275       0.13  <-- CONV
        O_D=      0.0000000 O_OD=      0.0257946 O_TOT=      7.0086678 <-- SPRD
 Delta: O_D= -0.4732945E-09 O_OD= -0.1118064E-08 O_TOT= -0.1591358E-08 <-- DLTA
 ------------------------------------------------------------------------------
 Cycle:     30
  WF centre and spread    1  (  0.000001,  0.000000, -3.024017 )     2.33622188
  WF centre and spread    2  (  3.024017, -0.000000,  0.000000 )     2.33622178
  WF centre and spread    3  (  0.000001, -3.024017,  0.000000 )     2.33622198
  Sum of centres and spreads (  3.024018, -3.024017, -3.024017 )     7.00866563
 
     30    -0.869E-09     0.0000294382        7.0086678266       0.13  <-- CONV
        O_D=      0.0000000 O_OD=      0.0257946 O_TOT=      7.0086678 <-- SPRD
 Delta: O_D= -0.1782220E-09 O_OD= -0.6907658E-09 O_TOT= -0.8689875E-09 <-- DLTA
 ------------------------------------------------------------------------------
 Cycle:     31
  WF centre and spread    1  (  0.000001,  0.000000, -3.024017 )     2.33622187
  WF centre and spread    2  (  3.024017, -0.000000,  0.000000 )     2.33622178
  WF centre and spread    3  (  0.000001, -3.024017,  0.000000 )     2.33622198
  Sum of centres and spreads (  3.024018, -3.024017, -3.024017 )     7.00866563
 
     31    -0.132E-08     0.0000270218        7.0086678253       0.14  <-- CONV
        O_D=      0.0000000 O_OD=      0.0257946 O_TOT=      7.0086678 <-- SPRD
 Delta: O_D= -0.3983624E-09 O_OD= -0.9206854E-09 O_TOT= -0.1319047E-08 <-- DLTA
 ------------------------------------------------------------------------------
 Cycle:     32
  WF centre and spread    1  (  0.000001,  0.000000, -3.024017 )     2.33622187
  WF centre and spread    2  (  3.024017, -0.000000,  0.000000 )     2.33622178
  WF centre and spread    3  (  0.000001, -3.024017,  0.000000 )     2.33622198
  Sum of centres and spreads (  3.024018, -3.024017, -3.024017 )     7.00866563
 
     32    -0.153E-11     0.0000188570        7.0086678253       0.14  <-- CONV
        O_D=      0.0000000 O_OD=      0.0257946 O_TOT=      7.0086678 <-- SPRD
 Delta: O_D= -0.5341634E-12 O_OD= -0.9949749E-12 O_TOT= -0.1530331E-11 <-- DLTA
 ------------------------------------------------------------------------------
 Cycle:     33
  WF centre and spread    1  (  0.000001,  0.000000, -3.024017 )     2.33622187
  WF centre and spread    2  (  3.024017, -0.000000,  0.000000 )     2.33622177
  WF centre and spread    3  (  0.000001, -3.024017,  0.000000 )     2.33622198
  Sum of centres and spreads (  3.024018, -3.024017, -3.024017 )     7.00866563
 
     33    -0.747E-09     0.0000188403        7.0086678246       0.14  <-- CONV
        O_D=      0.0000000 O_OD=      0.0257946 O_TOT=      7.0086678 <-- SPRD
 Delta: O_D= -0.2347016E-09 O_OD= -0.5119858E-09 O_TOT= -0.7466863E-09 <-- DLTA
 ------------------------------------------------------------------------------
 Cycle:     34
  WF centre and spread    1  (  0.000001,  0.000000, -3.024017 )     2.33622187
  WF centre and spread    2  (  3.024017, -0.000000,  0.000000 )     2.33622177
  WF centre and spread    3  (  0.000001, -3.024017,  0.000000 )     2.33622198
  Sum of centres and spreads (  3.024018, -3.024017, -3.024017 )     7.00866563
 
     34    -0.475E-12     0.0000099028        7.0086678246       0.14  <-- CONV
        O_D=      0.0000000 O_OD=      0.0257946 O_TOT=      7.0086678 <-- SPRD
 Delta: O_D= -0.1456820E-12 O_OD= -0.3292262E-12 O_TOT= -0.4751755E-12 <-- DLTA
 ------------------------------------------------------------------------------
 Cycle:     35
  WF centre and spread    1  (  0.000001,  0.000000, -3.024017 )     2.33622187
  WF centre and spread    2  (  3.024017, -0.000000,  0.000000 )     2.33622177
  WF centre and spread    3  (  0.000001, -3.024017,  0.000000 )     2.33622198
  Sum of centres and spreads (  3.024018, -3.024017, -3.024017 )     7.00866563
 
     35    -0.840E-12     0.0000098971        7.0086678246       0.15  <-- CONV
        O_D=      0.0000000 O_OD=      0.0257946 O_TOT=      7.0086678 <-- SPRD
 Delta: O_D= -0.3145692E-12 O_OD= -0.5260514E-12 O_TOT= -0.8402168E-12 <-- DLTA
 ------------------------------------------------------------------------------
 Cycle:     36
  WF centre and spread    1  (  0.000001,  0.000000, -3.024017 )     2.33622187
  WF centre and spread    2  (  3.024017, -0.000000,  0.000000 )     2.33622177
  WF centre and spread    3  (  0.000001, -3.024017,  0.000000 )     2.33622198
  Sum of centres and spreads (  3.024018, -3.024017, -3.024017 )     7.00866563
 
     36    -0.120E-11     0.0000098797        7.0086678246       0.15  <-- CONV
        O_D=      0.0000000 O_OD=      0.0257946 O_TOT=      7.0086678 <-- SPRD
 Delta: O_D= -0.4809628E-12 O_OD= -0.7203960E-12 O_TOT= -0.1201705E-11 <-- DLTA
 ------------------------------------------------------------------------------
 Cycle:     37
  WF centre and spread    1  (  0.000001,  0.000000, -3.024017 )     2.33622187
  WF centre and spread    2  (  3.024017, -0.000000,  0.000000 )     2.33622177
  WF centre and spread    3  (  0.000001, -3.024017,  0.000000 )     2.33622198
  Sum of centres and spreads (  3.024018, -3.024017, -3.024017 )     7.00866563
 
     37    -0.363E-12     0.0000098509        7.0086678246       0.15  <-- CONV
        O_D=      0.0000000 O_OD=      0.0257946 O_TOT=      7.0086678 <-- SPRD
 Delta: O_D= -0.1671677E-12 O_OD= -0.1962423E-12 O_TOT= -0.3632650E-12 <-- DLTA
 ------------------------------------------------------------------------------
 Cycle:     38
  WF centre and spread    1  (  0.000001,  0.000000, -3.024017 )     2.33622187
  WF centre and spread    2  (  3.024017, -0.000000,  0.000000 )     2.33622177
  WF centre and spread    3  (  0.000001, -3.024017,  0.000000 )     2.33622198
  Sum of centres and spreads (  3.024018, -3.024017, -3.024017 )     7.00866563
 
     38    -0.725E-12     0.0000098393        7.0086678246       0.15  <-- CONV
        O_D=      0.0000000 O_OD=      0.0257946 O_TOT=      7.0086678 <-- SPRD
 Delta: O_D= -0.3328271E-12 O_OD= -0.3915479E-12 O_TOT= -0.7247536E-12 <-- DLTA
 ------------------------------------------------------------------------------
 Cycle:     39
  WF centre and spread    1  (  0.000001,  0.000000, -3.024017 )     2.33622187
  WF centre and spread    2  (  3.024017, -0.000000,  0.000000 )     2.33622177
  WF centre and spread    3  (  0.000001, -3.024017,  0.000000 )     2.33622198
  Sum of centres and spreads (  3.024018, -3.024017, -3.024017 )     7.00866563
 
     39    -0.153E-09     0.0000098164        7.0086678244       0.15  <-- CONV
        O_D=      0.0000000 O_OD=      0.0257946 O_TOT=      7.0086678 <-- SPRD
 Delta: O_D= -0.4512164E-10 O_OD= -0.1081409E-09 O_TOT= -0.1532623E-09 <-- DLTA
 ------------------------------------------------------------------------------
 Cycle:     40
  WF centre and spread    1  (  0.000001,  0.000000, -3.024017 )     2.33622187
  WF centre and spread    2  (  3.024017, -0.000000,  0.000000 )     2.33622177
  WF centre and spread    3  (  0.000001, -3.024017,  0.000000 )     2.33622198
  Sum of centres and spreads (  3.024018, -3.024017, -3.024017 )     7.00866563
 
     40    -0.285E-12     0.0000077035        7.0086678244       0.16  <-- CONV
        O_D=      0.0000000 O_OD=      0.0257946 O_TOT=      7.0086678 <-- SPRD
 Delta: O_D= -0.1243034E-13 O_OD= -0.2725563E-12 O_TOT= -0.2851053E-12 <-- DLTA
 ------------------------------------------------------------------------------
 Cycle:     41
  WF centre and spread    1  (  0.000001,  0.000000, -3.024017 )     2.33622187
  WF centre and spread    2  (  3.024017, -0.000000,  0.000000 )     2.33622177
  WF centre and spread    3  (  0.000001, -3.024017,  0.000000 )     2.33622198
  Sum of centres and spreads (  3.024018, -3.024017, -3.024017 )     7.00866563
 
     41    -0.508E-12     0.0000077104        7.0086678244       0.16  <-- CONV
        O_D=      0.0000000 O_OD=      0.0257946 O_TOT=      7.0086678 <-- SPRD
 Delta: O_D= -0.1162614E-12 O_OD= -0.3913571E-12 O_TOT= -0.5080381E-12 <-- DLTA
 ------------------------------------------------------------------------------
 Cycle:     42
  WF centre and spread    1  (  0.000001,  0.000000, -3.024017 )     2.33622187
  WF centre and spread    2  (  3.024017, -0.000000,  0.000000 )     2.33622177
  WF centre and spread    3  (  0.000001, -3.024017,  0.000000 )     2.33622198
  Sum of centres and spreads (  3.024018, -3.024017, -3.024017 )     7.00866563
 
     42    -0.729E-12     0.0000077088        7.0086678244       0.16  <-- CONV
        O_D=      0.0000000 O_OD=      0.0257946 O_TOT=      7.0086678 <-- SPRD
 Delta: O_D= -0.2200969E-12 O_OD= -0.5091864E-12 O_TOT= -0.7291945E-12 <-- DLTA
 ------------------------------------------------------------------------------
 Cycle:     43
  WF centre and spread    1  (  0.000001,  0.000000, -3.024017 )     2.33622187
  WF centre and spread    2  (  3.024017, -0.000000,  0.000000 )     2.33622177
  WF centre and spread    3  (  0.000001, -3.024017,  0.000000 )     2.33622198
  Sum of centres and spreads (  3.024018, -3.024017, -3.024017 )     7.00866563
 
     43    -0.222E-12     0.0000076985        7.0086678244       0.16  <-- CONV
        O_D=      0.0000000 O_OD=      0.0257946 O_TOT=      7.0086678 <-- SPRD
 Delta: O_D= -0.1037370E-12 O_OD= -0.1182630E-12 O_TOT= -0.2220446E-12 <-- DLTA
 ------------------------------------------------------------------------------
 Cycle:     44
  WF centre and spread    1  (  0.000001,  0.000000, -3.024017 )     2.33622187
  WF centre and spread    2  (  3.024017, -0.000000,  0.000000 )     2.33622177
  WF centre and spread    3  (  0.000001, -3.024017,  0.000000 )     2.33622198
  Sum of centres and spreads (  3.024018, -3.024017, -3.024017 )     7.00866563
 
     44    -0.442E-12     0.0000076899        7.0086678244       0.16  <-- CONV
        O_D=      0.0000000 O_OD=      0.0257946 O_TOT=      7.0086678 <-- SPRD
 Delta: O_D= -0.2065531E-12 O_OD= -0.2359397E-12 O_TOT= -0.4423129E-12 <-- DLTA
 ------------------------------------------------------------------------------
 Cycle:     45
  WF centre and spread    1  (  0.000001,  0.000000, -3.024017 )     2.33622187
  WF centre and spread    2  (  3.024017, -0.000000,  0.000000 )     2.33622177
  WF centre and spread    3  (  0.000001, -3.024017,  0.000000 )     2.33622198
  Sum of centres and spreads (  3.024018, -3.024017, -3.024017 )     7.00866563
 
     45    -0.896E-10     0.0000076727        7.0086678243       0.16  <-- CONV
        O_D=      0.0000000 O_OD=      0.0257946 O_TOT=      7.0086678 <-- SPRD
 Delta: O_D= -0.3087996E-10 O_OD= -0.5875664E-10 O_TOT= -0.8963674E-10 <-- DLTA
 ------------------------------------------------------------------------------
 Cycle:     46
  WF centre and spread    1  (  0.000001,  0.000000, -3.024017 )     2.33622187
  WF centre and spread    2  (  3.024017, -0.000000,  0.000000 )     2.33622177
  WF centre and spread    3  (  0.000001, -3.024017,  0.000000 )     2.33622198
  Sum of centres and spreads (  3.024018, -3.024017, -3.024017 )     7.00866563
 
     46    -0.207E-12     0.0000053793        7.0086678243       0.17  <-- CONV
        O_D=      0.0000000 O_OD=      0.0257946 O_TOT=      7.0086678 <-- SPRD
 Delta: O_D= -0.3120344E-13 O_OD= -0.1764387E-12 O_TOT= -0.2069456E-12 <-- DLTA
 ------------------------------------------------------------------------------
 Cycle:     47
  WF centre and spread    1  (  0.000001,  0.000000, -3.024017 )     2.33622187
  WF centre and spread    2  (  3.024017, -0.000000,  0.000000 )     2.33622177
  WF centre and spread    3  (  0.000001, -3.024017,  0.000000 )     2.33622198
  Sum of centres and spreads (  3.024018, -3.024017, -3.024017 )     7.00866563
 
     47    -0.316E-12     0.0000053812        7.0086678243       0.17  <-- CONV
        O_D=      0.0000000 O_OD=      0.0257946 O_TOT=      7.0086678 <-- SPRD
 Delta: O_D= -0.6779278E-13 O_OD= -0.2481834E-12 O_TOT= -0.3161915E-12 <-- DLTA
 ------------------------------------------------------------------------------
 Cycle:     48
  WF centre and spread    1  (  0.000001,  0.000000, -3.024017 )     2.33622187
  WF centre and spread    2  (  3.024017, -0.000000,  0.000000 )     2.33622177
  WF centre and spread    3  (  0.000001, -3.024017,  0.000000 )     2.33622198
  Sum of centres and spreads (  3.024018, -3.024017, -3.024017 )     7.00866563
 
     48    -0.424E-12     0.0000053801        7.0086678243       0.17  <-- CONV
        O_D=      0.0000000 O_OD=      0.0257946 O_TOT=      7.0086678 <-- SPRD
 Delta: O_D= -0.1044207E-12 O_OD= -0.3194008E-12 O_TOT= -0.4236611E-12 <-- DLTA
 ------------------------------------------------------------------------------
 Cycle:     49
  WF centre and spread    1  (  0.000001,  0.000000, -3.024017 )     2.33622187
  WF centre and spread    2  (  3.024017, -0.000000,  0.000000 )     2.33622177
  WF centre and spread    3  (  0.000001, -3.024017,  0.000000 )     2.33622198
  Sum of centres and spreads (  3.024018, -3.024017, -3.024017 )     7.00866563
 
     49    -0.108E-12     0.0000053761        7.0086678243       0.17  <-- CONV
        O_D=      0.0000000 O_OD=      0.0257946 O_TOT=      7.0086678 <-- SPRD
 Delta: O_D= -0.3673994E-13 O_OD= -0.7156428E-13 O_TOT= -0.1083578E-12 <-- DLTA
 ------------------------------------------------------------------------------
 Cycle:     50
  WF centre and spread    1  (  0.000001,  0.000000, -3.024017 )     2.33622187
  WF centre and spread    2  (  3.024017, -0.000000,  0.000000 )     2.33622177
  WF centre and spread    3  (  0.000001, -3.024017,  0.000000 )     2.33622198
  Sum of centres and spreads (  3.024018, -3.024017, -3.024017 )     7.00866563
 
     50    -0.217E-12     0.0000053731        7.0086678243       0.17  <-- CONV
        O_D=      0.0000000 O_OD=      0.0257946 O_TOT=      7.0086678 <-- SPRD
 Delta: O_D= -0.7329079E-13 O_OD= -0.1428579E-12 O_TOT= -0.2167155E-12 <-- DLTA
 ------------------------------------------------------------------------------
 Cycle:     51
  WF centre and spread    1  (  0.000001,  0.000000, -3.024017 )     2.33622187
  WF centre and spread    2  (  3.024017, -0.000000,  0.000000 )     2.33622177
  WF centre and spread    3  (  0.000001, -3.024017,  0.000000 )     2.33622198
  Sum of centres and spreads (  3.024018, -3.024017, -3.024017 )     7.00866563
 
     51    -0.323E-12     0.0000053672        7.0086678243       0.17  <-- CONV
        O_D=      0.0000000 O_OD=      0.0257946 O_TOT=      7.0086678 <-- SPRD
 Delta: O_D= -0.1094256E-12 O_OD= -0.2139365E-12 O_TOT= -0.3232969E-12 <-- DLTA
 ------------------------------------------------------------------------------
 Cycle:     52
  WF centre and spread    1  (  0.000001,  0.000000, -3.024017 )     2.33622187
  WF centre and spread    2  (  3.024017, -0.000000,  0.000000 )     2.33622177
  WF centre and spread    3  (  0.000001, -3.024017,  0.000000 )     2.33622198
  Sum of centres and spreads (  3.024018, -3.024017, -3.024017 )     7.00866563
 
     52    -0.429E-12     0.0000053584        7.0086678243       0.18  <-- CONV
        O_D=      0.0000000 O_OD=      0.0257946 O_TOT=      7.0086678 <-- SPRD
 Delta: O_D= -0.1449239E-12 O_OD= -0.2841616E-12 O_TOT= -0.4289902E-12 <-- DLTA
 ------------------------------------------------------------------------------
 Cycle:     53
  WF centre and spread    1  (  0.000001,  0.000000, -3.024017 )     2.33622187
  WF centre and spread    2  (  3.024017, -0.000000,  0.000000 )     2.33622177
  WF centre and spread    3  (  0.000001, -3.024017,  0.000000 )     2.33622198
  Sum of centres and spreads (  3.024018, -3.024017, -3.024017 )     7.00866563
 
     53    -0.533E-12     0.0000053467        7.0086678243       0.18  <-- CONV
        O_D=      0.0000000 O_OD=      0.0257946 O_TOT=      7.0086678 <-- SPRD
 Delta: O_D= -0.1795751E-12 O_OD= -0.3535922E-12 O_TOT= -0.5329071E-12 <-- DLTA
 ------------------------------------------------------------------------------
 Cycle:     54
  WF centre and spread    1  (  0.000001,  0.000000, -3.024017 )     2.33622187
  WF centre and spread    2  (  3.024017, -0.000000,  0.000000 )     2.33622177
  WF centre and spread    3  (  0.000001, -3.024017,  0.000000 )     2.33622198
  Sum of centres and spreads (  3.024018, -3.024017, -3.024017 )     7.00866563
 
     54    -0.635E-12     0.0000053323        7.0086678243       0.18  <-- CONV
        O_D=      0.0000000 O_OD=      0.0257946 O_TOT=      7.0086678 <-- SPRD
 Delta: O_D= -0.2131822E-12 O_OD= -0.4219056E-12 O_TOT= -0.6350476E-12 <-- DLTA
 ------------------------------------------------------------------------------
 Cycle:     55
  WF centre and spread    1  (  0.000001,  0.000000, -3.024017 )     2.33622187
  WF centre and spread    2  (  3.024017, -0.000000,  0.000000 )     2.33622177
  WF centre and spread    3  (  0.000001, -3.024017,  0.000000 )     2.33622198
  Sum of centres and spreads (  3.024018, -3.024017, -3.024017 )     7.00866563
 
     55    -0.106E-12     0.0000053151        7.0086678243       0.18  <-- CONV
        O_D=      0.0000000 O_OD=      0.0257946 O_TOT=      7.0086678 <-- SPRD
 Delta: O_D= -0.3522915E-13 O_OD= -0.7060671E-13 O_TOT= -0.1056932E-12 <-- DLTA
 ------------------------------------------------------------------------------
 Cycle:     56
  WF centre and spread    1  (  0.000001,  0.000000, -3.024017 )     2.33622187
  WF centre and spread    2  (  3.024017, -0.000000,  0.000000 )     2.33622177
  WF centre and spread    3  (  0.000001, -3.024017,  0.000000 )     2.33622198
  Sum of centres and spreads (  3.024018, -3.024017, -3.024017 )     7.00866563
 
     56    -0.211E-12     0.0000053123        7.0086678243       0.18  <-- CONV
        O_D=      0.0000000 O_OD=      0.0257946 O_TOT=      7.0086678 <-- SPRD
 Delta: O_D= -0.7028463E-13 O_OD= -0.1410712E-12 O_TOT= -0.2113865E-12 <-- DLTA
 ------------------------------------------------------------------------------
 Cycle:     57
  WF centre and spread    1  (  0.000001,  0.000000, -3.024017 )     2.33622187
  WF centre and spread    2  (  3.024017, -0.000000,  0.000000 )     2.33622177
  WF centre and spread    3  (  0.000001, -3.024017,  0.000000 )     2.33622198
  Sum of centres and spreads (  3.024018, -3.024017, -3.024017 )     7.00866563
 
     57    -0.316E-12     0.0000053067        7.0086678243       0.18  <-- CONV
        O_D=      0.0000000 O_OD=      0.0257946 O_TOT=      7.0086678 <-- SPRD
 Delta: O_D= -0.1049580E-12 O_OD= -0.2111020E-12 O_TOT= -0.3161915E-12 <-- DLTA
 ------------------------------------------------------------------------------
 Cycle:     58
  WF centre and spread    1  (  0.000001,  0.000000, -3.024017 )     2.33622187
  WF centre and spread    2  (  3.024017, -0.000000,  0.000000 )     2.33622177
  WF centre and spread    3  (  0.000001, -3.024017,  0.000000 )     2.33622198
  Sum of centres and spreads (  3.024018, -3.024017, -3.024017 )     7.00866563
 
     58    -0.420E-12     0.0000052984        7.0086678243       0.19  <-- CONV
        O_D=      0.0000000 O_OD=      0.0257946 O_TOT=      7.0086678 <-- SPRD
 Delta: O_D= -0.1390464E-12 O_OD= -0.2805846E-12 O_TOT= -0.4201084E-12 <-- DLTA
 ------------------------------------------------------------------------------
 Cycle:     59
  WF centre and spread    1  (  0.000001,  0.000000, -3.024017 )     2.33622187
  WF centre and spread    2  (  3.024017, -0.000000,  0.000000 )     2.33622177
  WF centre and spread    3  (  0.000001, -3.024017,  0.000000 )     2.33622198
  Sum of centres and spreads (  3.024018, -3.024017, -3.024017 )     7.00866563
 
     59    -0.521E-12     0.0000052873        7.0086678243       0.19  <-- CONV
        O_D=      0.0000000 O_OD=      0.0257946 O_TOT=      7.0086678 <-- SPRD
 Delta: O_D= -0.1723562E-12 O_OD= -0.3491096E-12 O_TOT= -0.5213607E-12 <-- DLTA
 ------------------------------------------------------------------------------
 Cycle:     60
  WF centre and spread    1  (  0.000001,  0.000000, -3.024017 )     2.33622187
  WF centre and spread    2  (  3.024017, -0.000000,  0.000000 )     2.33622177
  WF centre and spread    3  (  0.000001, -3.024017,  0.000000 )     2.33622198
  Sum of centres and spreads (  3.024018, -3.024017, -3.024017 )     7.00866563
 
     60    -0.621E-12     0.0000052736        7.0086678243       0.19  <-- CONV
        O_D=      0.0000000 O_OD=      0.0257946 O_TOT=      7.0086678 <-- SPRD
 Delta: O_D= -0.2047055E-12 O_OD= -0.4167118E-12 O_TOT= -0.6208367E-12 <-- DLTA
 ------------------------------------------------------------------------------
 Cycle:     61
  WF centre and spread    1  (  0.000001,  0.000000, -3.024017 )     2.33622187
  WF centre and spread    2  (  3.024017, -0.000000,  0.000000 )     2.33622177
  WF centre and spread    3  (  0.000001, -3.024017,  0.000000 )     2.33622198
  Sum of centres and spreads (  3.024018, -3.024017, -3.024017 )     7.00866563
 
     61    -0.104E-12     0.0000052574        7.0086678243       0.19  <-- CONV
        O_D=      0.0000000 O_OD=      0.0257946 O_TOT=      7.0086678 <-- SPRD
 Delta: O_D= -0.3384049E-13 O_OD= -0.6966303E-13 O_TOT= -0.1039169E-12 <-- DLTA
 ------------------------------------------------------------------------------
 Cycle:     62
  WF centre and spread    1  (  0.000001,  0.000000, -3.024017 )     2.33622187
  WF centre and spread    2  (  3.024017, -0.000000,  0.000000 )     2.33622177
  WF centre and spread    3  (  0.000001, -3.024017,  0.000000 )     2.33622198
  Sum of centres and spreads (  3.024018, -3.024017, -3.024017 )     7.00866563
 
     62    -0.207E-12     0.0000052547        7.0086678243       0.19  <-- CONV
        O_D=      0.0000000 O_OD=      0.0257946 O_TOT=      7.0086678 <-- SPRD
 Delta: O_D= -0.6752124E-13 O_OD= -0.1393122E-12 O_TOT= -0.2069456E-12 <-- DLTA
 ------------------------------------------------------------------------------
 Cycle:     63
  WF centre and spread    1  (  0.000001,  0.000000, -3.024017 )     2.33622187
  WF centre and spread    2  (  3.024017, -0.000000,  0.000000 )     2.33622177
  WF centre and spread    3  (  0.000001, -3.024017,  0.000000 )     2.33622198
  Sum of centres and spreads (  3.024018, -3.024017, -3.024017 )     7.00866563
 
     63    -0.309E-12     0.0000052494        7.0086678243       0.19  <-- CONV
        O_D=      0.0000000 O_OD=      0.0257946 O_TOT=      7.0086678 <-- SPRD
 Delta: O_D= -0.1008505E-12 O_OD= -0.2084860E-12 O_TOT= -0.3090861E-12 <-- DLTA
 ------------------------------------------------------------------------------
 Cycle:     64
  WF centre and spread    1  (  0.000001,  0.000000, -3.024017 )     2.33622187
  WF centre and spread    2  (  3.024017, -0.000000,  0.000000 )     2.33622177
  WF centre and spread    3  (  0.000001, -3.024017,  0.000000 )     2.33622198
  Sum of centres and spreads (  3.024018, -3.024017, -3.024017 )     7.00866563
 
     64    -0.411E-12     0.0000052415        7.0086678243       0.19  <-- CONV
        O_D=      0.0000000 O_OD=      0.0257946 O_TOT=      7.0086678 <-- SPRD
 Delta: O_D= -0.1336415E-12 O_OD= -0.2770457E-12 O_TOT= -0.4112266E-12 <-- DLTA
 ------------------------------------------------------------------------------
 Cycle:     65
  WF centre and spread    1  (  0.000001,  0.000000, -3.024017 )     2.33622187
  WF centre and spread    2  (  3.024017, -0.000000,  0.000000 )     2.33622177
  WF centre and spread    3  (  0.000001, -3.024017,  0.000000 )     2.33622198
  Sum of centres and spreads (  3.024018, -3.024017, -3.024017 )     7.00866563
 
     65    -0.510E-12     0.0000052310        7.0086678243       0.20  <-- CONV
        O_D=      0.0000000 O_OD=      0.0257946 O_TOT=      7.0086678 <-- SPRD
 Delta: O_D= -0.1657156E-12 O_OD= -0.3448387E-12 O_TOT= -0.5098144E-12 <-- DLTA
 ------------------------------------------------------------------------------
 Cycle:     66
  WF centre and spread    1  (  0.000001,  0.000000, -3.024017 )     2.33622187
  WF centre and spread    2  (  3.024017, -0.000000,  0.000000 )     2.33622177
  WF centre and spread    3  (  0.000001, -3.024017,  0.000000 )     2.33622198
  Sum of centres and spreads (  3.024018, -3.024017, -3.024017 )     7.00866563
 
     66    -0.609E-12     0.0000052181        7.0086678243       0.20  <-- CONV
        O_D=      0.0000000 O_OD=      0.0257946 O_TOT=      7.0086678 <-- SPRD
 Delta: O_D= -0.1969051E-12 O_OD= -0.4116187E-12 O_TOT= -0.6092904E-12 <-- DLTA
 ------------------------------------------------------------------------------
 Cycle:     67
  WF centre and spread    1  (  0.000001,  0.000000, -3.024017 )     2.33622187
  WF centre and spread    2  (  3.024017, -0.000000,  0.000000 )     2.33622177
  WF centre and spread    3  (  0.000001, -3.024017,  0.000000 )     2.33622198
  Sum of centres and spreads (  3.024018, -3.024017, -3.024017 )     7.00866563
 
     67    -0.101E-12     0.0000052027        7.0086678243       0.20  <-- CONV
        O_D=      0.0000000 O_OD=      0.0257946 O_TOT=      7.0086678 <-- SPRD
 Delta: O_D= -0.3256280E-13 O_OD= -0.6885117E-13 O_TOT= -0.1012523E-12 <-- DLTA
 ------------------------------------------------------------------------------
 Cycle:     68
  WF centre and spread    1  (  0.000001,  0.000000, -3.024017 )     2.33622187
  WF centre and spread    2  (  3.024017, -0.000000,  0.000000 )     2.33622177
  WF centre and spread    3  (  0.000001, -3.024017,  0.000000 )     2.33622198
  Sum of centres and spreads (  3.024018, -3.024017, -3.024017 )     7.00866563
 
     68    -0.203E-12     0.0000052002        7.0086678243       0.20  <-- CONV
        O_D=      0.0000000 O_OD=      0.0257946 O_TOT=      7.0086678 <-- SPRD
 Delta: O_D= -0.6497850E-13 O_OD= -0.1375428E-12 O_TOT= -0.2025047E-12 <-- DLTA
 ------------------------------------------------------------------------------
 Cycle:     69
  WF centre and spread    1  (  0.000001,  0.000000, -3.024017 )     2.33622187
  WF centre and spread    2  (  3.024017, -0.000000,  0.000000 )     2.33622177
  WF centre and spread    3  (  0.000001, -3.024017,  0.000000 )     2.33622198
  Sum of centres and spreads (  3.024018, -3.024017, -3.024017 )     7.00866563
 
     69    -0.303E-12     0.0000051951        7.0086678243       0.20  <-- CONV
        O_D=      0.0000000 O_OD=      0.0257946 O_TOT=      7.0086678 <-- SPRD
 Delta: O_D= -0.9707035E-13 O_OD= -0.2059013E-12 O_TOT= -0.3028688E-12 <-- DLTA
 ------------------------------------------------------------------------------
 Cycle:     70
  WF centre and spread    1  (  0.000001,  0.000000, -3.024017 )     2.33622187
  WF centre and spread    2  (  3.024017, -0.000000,  0.000000 )     2.33622177
  WF centre and spread    3  (  0.000001, -3.024017,  0.000000 )     2.33622198
  Sum of centres and spreads (  3.024018, -3.024017, -3.024017 )     7.00866563
 
     70    -0.402E-12     0.0000051876        7.0086678243       0.20  <-- CONV
        O_D=      0.0000000 O_OD=      0.0257946 O_TOT=      7.0086678 <-- SPRD
 Delta: O_D= -0.1286662E-12 O_OD= -0.2736908E-12 O_TOT= -0.4023448E-12 <-- DLTA
 ------------------------------------------------------------------------------
 Cycle:     71
  WF centre and spread    1  (  0.000001,  0.000000, -3.024017 )     2.33622187
  WF centre and spread    2  (  3.024017, -0.000000,  0.000000 )     2.33622177
  WF centre and spread    3  (  0.000001, -3.024017,  0.000000 )     2.33622198
  Sum of centres and spreads (  3.024018, -3.024017, -3.024017 )     7.00866563
 
     71    -0.500E-12     0.0000051777        7.0086678243       0.20  <-- CONV
        O_D=      0.0000000 O_OD=      0.0257946 O_TOT=      7.0086678 <-- SPRD
 Delta: O_D= -0.1596011E-12 O_OD= -0.3406685E-12 O_TOT= -0.5000445E-12 <-- DLTA
 ------------------------------------------------------------------------------
 Cycle:     72
  WF centre and spread    1  (  0.000001,  0.000000, -3.024017 )     2.33622187
  WF centre and spread    2  (  3.024017, -0.000000,  0.000000 )     2.33622177
  WF centre and spread    3  (  0.000001, -3.024017,  0.000000 )     2.33622198
  Sum of centres and spreads (  3.024018, -3.024017, -3.024017 )     7.00866563
 
     72    -0.596E-12     0.0000051654        7.0086678243       0.21  <-- CONV
        O_D=      0.0000000 O_OD=      0.0257946 O_TOT=      7.0086678 <-- SPRD
 Delta: O_D= -0.1897198E-12 O_OD= -0.4067094E-12 O_TOT= -0.5959677E-12 <-- DLTA
 ------------------------------------------------------------------------------
 Cycle:     73
  WF centre and spread    1  (  0.000001,  0.000000, -3.024017 )     2.33622187
  WF centre and spread    2  (  3.024017, -0.000000,  0.000000 )     2.33622177
  WF centre and spread    3  (  0.000001, -3.024017,  0.000000 )     2.33622198
  Sum of centres and spreads (  3.024018, -3.024017, -3.024017 )     7.00866563
 
     73    -0.100E-12     0.0000051507        7.0086678243       0.21  <-- CONV
        O_D=      0.0000000 O_OD=      0.0257946 O_TOT=      7.0086678 <-- SPRD
 Delta: O_D= -0.3138600E-13 O_OD= -0.6802198E-13 O_TOT= -0.1003642E-12 <-- DLTA
 ------------------------------------------------------------------------------
 Cycle:     74
  WF centre and spread    1  (  0.000001,  0.000000, -3.024017 )     2.33622187
  WF centre and spread    2  (  3.024017, -0.000000,  0.000000 )     2.33622177
  WF centre and spread    3  (  0.000001, -3.024017,  0.000000 )     2.33622198
  Sum of centres and spreads (  3.024018, -3.024017, -3.024017 )     7.00866563
 
     74    -0.198E-12     0.0000051484        7.0086678243       0.21  <-- CONV
        O_D=      0.0000000 O_OD=      0.0257946 O_TOT=      7.0086678 <-- SPRD
 Delta: O_D= -0.6263633E-13 O_OD= -0.1358705E-12 O_TOT= -0.1980638E-12 <-- DLTA
 ------------------------------------------------------------------------------
 Cycle:     75
  WF centre and spread    1  (  0.000001,  0.000000, -3.024017 )     2.33622187
  WF centre and spread    2  (  3.024017, -0.000000,  0.000000 )     2.33622177
  WF centre and spread    3  (  0.000001, -3.024017,  0.000000 )     2.33622198
  Sum of centres and spreads (  3.024018, -3.024017, -3.024017 )     7.00866563
 
     75    -0.297E-12     0.0000051436        7.0086678243       0.21  <-- CONV
        O_D=      0.0000000 O_OD=      0.0257946 O_TOT=      7.0086678 <-- SPRD
 Delta: O_D= -0.9358786E-13 O_OD= -0.2034276E-12 O_TOT= -0.2966516E-12 <-- DLTA
 ------------------------------------------------------------------------------
 Cycle:     76
  WF centre and spread    1  (  0.000001,  0.000000, -3.024017 )     2.33622187
  WF centre and spread    2  (  3.024017, -0.000000,  0.000000 )     2.33622177
  WF centre and spread    3  (  0.000001, -3.024017,  0.000000 )     2.33622198
  Sum of centres and spreads (  3.024018, -3.024017, -3.024017 )     7.00866563
 
     76    -0.394E-12     0.0000051364        7.0086678243       0.21  <-- CONV
        O_D=      0.0000000 O_OD=      0.0257946 O_TOT=      7.0086678 <-- SPRD
 Delta: O_D= -0.1240816E-12 O_OD= -0.2704087E-12 O_TOT= -0.3943512E-12 <-- DLTA
 ------------------------------------------------------------------------------
 Cycle:     77
  WF centre and spread    1  (  0.000001,  0.000000, -3.024017 )     2.33622187
  WF centre and spread    2  (  3.024017, -0.000000,  0.000000 )     2.33622177
  WF centre and spread    3  (  0.000001, -3.024017,  0.000000 )     2.33622198
  Sum of centres and spreads (  3.024018, -3.024017, -3.024017 )     7.00866563
 
     77    -0.490E-12     0.0000051270        7.0086678243       0.21  <-- CONV
        O_D=      0.0000000 O_OD=      0.0257946 O_TOT=      7.0086678 <-- SPRD
 Delta: O_D= -0.1539650E-12 O_OD= -0.3366613E-12 O_TOT= -0.4902745E-12 <-- DLTA
 ------------------------------------------------------------------------------
 Cycle:     78
  WF centre and spread    1  (  0.000001,  0.000000, -3.024017 )     2.33622187
  WF centre and spread    2  (  3.024017, -0.000000,  0.000000 )     2.33622177
  WF centre and spread    3  (  0.000001, -3.024017,  0.000000 )     2.33622198
  Sum of centres and spreads (  3.024018, -3.024017, -3.024017 )     7.00866563
 
     78    -0.586E-12     0.0000051153        7.0086678243       0.21  <-- CONV
        O_D=      0.0000000 O_OD=      0.0257946 O_TOT=      7.0086678 <-- SPRD
 Delta: O_D= -0.1830941E-12 O_OD= -0.4019493E-12 O_TOT= -0.5861978E-12 <-- DLTA
 ------------------------------------------------------------------------------
 Cycle:     79
  WF centre and spread    1  (  0.000001,  0.000000, -3.024017 )     2.33622187
  WF centre and spread    2  (  3.024017, -0.000000,  0.000000 )     2.33622177
  WF centre and spread    3  (  0.000001, -3.024017,  0.000000 )     2.33622198
  Sum of centres and spreads (  3.024018, -3.024017, -3.024017 )     7.00866563
 
     79    -0.977E-13     0.0000051014        7.0086678243       0.22  <-- CONV
        O_D=      0.0000000 O_OD=      0.0257946 O_TOT=      7.0086678 <-- SPRD
 Delta: O_D= -0.3030090E-13 O_OD= -0.6723788E-13 O_TOT= -0.9769963E-13 <-- DLTA
 ------------------------------------------------------------------------------
 Cycle:     80
  WF centre and spread    1  (  0.000001,  0.000000, -3.024017 )     2.33622187
  WF centre and spread    2  (  3.024017, -0.000000,  0.000000 )     2.33622177
  WF centre and spread    3  (  0.000001, -3.024017,  0.000000 )     2.33622198
  Sum of centres and spreads (  3.024018, -3.024017, -3.024017 )     7.00866563
 
     80    -0.195E-12     0.0000050991        7.0086678243       0.22  <-- CONV
        O_D=      0.0000000 O_OD=      0.0257946 O_TOT=      7.0086678 <-- SPRD
 Delta: O_D= -0.6047649E-13 O_OD= -0.1342711E-12 O_TOT= -0.1945111E-12 <-- DLTA
 ------------------------------------------------------------------------------
 Cycle:     81
  WF centre and spread    1  (  0.000001,  0.000000, -3.024017 )     2.33622187
  WF centre and spread    2  (  3.024017, -0.000000,  0.000000 )     2.33622177
  WF centre and spread    3  (  0.000001, -3.024017,  0.000000 )     2.33622198
  Sum of centres and spreads (  3.024018, -3.024017, -3.024017 )     7.00866563
 
     81    -0.291E-12     0.0000050946        7.0086678243       0.22  <-- CONV
        O_D=      0.0000000 O_OD=      0.0257946 O_TOT=      7.0086678 <-- SPRD
 Delta: O_D= -0.9037596E-13 O_OD= -0.2010024E-12 O_TOT= -0.2913225E-12 <-- DLTA
 ------------------------------------------------------------------------------
 Cycle:     82
  WF centre and spread    1  (  0.000001,  0.000000, -3.024017 )     2.33622187
  WF centre and spread    2  (  3.024017, -0.000000,  0.000000 )     2.33622177
  WF centre and spread    3  (  0.000001, -3.024017,  0.000000 )     2.33622198
  Sum of centres and spreads (  3.024018, -3.024017, -3.024017 )     7.00866563
 
     82    -0.387E-12     0.0000050878        7.0086678243       0.22  <-- CONV
        O_D=      0.0000000 O_OD=      0.0257946 O_TOT=      7.0086678 <-- SPRD
 Delta: O_D= -0.1198522E-12 O_OD= -0.2672827E-12 O_TOT= -0.3872458E-12 <-- DLTA
 ------------------------------------------------------------------------------
 Cycle:     83
  WF centre and spread    1  (  0.000001,  0.000000, -3.024017 )     2.33622187
  WF centre and spread    2  (  3.024017, -0.000000,  0.000000 )     2.33622177
  WF centre and spread    3  (  0.000001, -3.024017,  0.000000 )     2.33622198
  Sum of centres and spreads (  3.024018, -3.024017, -3.024017 )     7.00866563
 
     83    -0.481E-12     0.0000050788        7.0086678243       0.22  <-- CONV
        O_D=      0.0000000 O_OD=      0.0257946 O_TOT=      7.0086678 <-- SPRD
 Delta: O_D= -0.1487639E-12 O_OD= -0.3326749E-12 O_TOT= -0.4813927E-12 <-- DLTA
 ------------------------------------------------------------------------------
 Cycle:     84
  WF centre and spread    1  (  0.000001,  0.000000, -3.024017 )     2.33622187
  WF centre and spread    2  (  3.024017, -0.000000,  0.000000 )     2.33622177
  WF centre and spread    3  (  0.000001, -3.024017,  0.000000 )     2.33622198
  Sum of centres and spreads (  3.024018, -3.024017, -3.024017 )     7.00866563
 
     84    -0.574E-12     0.0000050676        7.0086678243       0.22  <-- CONV
        O_D=      0.0000000 O_OD=      0.0257946 O_TOT=      7.0086678 <-- SPRD
 Delta: O_D= -0.1769774E-12 O_OD= -0.3973731E-12 O_TOT= -0.5737633E-12 <-- DLTA
 ------------------------------------------------------------------------------
 Cycle:     85
  WF centre and spread    1  (  0.000001,  0.000000, -3.024017 )     2.33622187
  WF centre and spread    2  (  3.024017, -0.000000,  0.000000 )     2.33622177
  WF centre and spread    3  (  0.000001, -3.024017,  0.000000 )     2.33622198
  Sum of centres and spreads (  3.024018, -3.024017, -3.024017 )     7.00866563
 
     85    -0.959E-13     0.0000050544        7.0086678243       0.22  <-- CONV
        O_D=      0.0000000 O_OD=      0.0257946 O_TOT=      7.0086678 <-- SPRD
 Delta: O_D= -0.2929919E-13 O_OD= -0.6644685E-13 O_TOT= -0.9592327E-13 <-- DLTA
 ------------------------------------------------------------------------------
 Cycle:     86
  WF centre and spread    1  (  0.000001,  0.000000, -3.024017 )     2.33622187
  WF centre and spread    2  (  3.024017, -0.000000,  0.000000 )     2.33622177
  WF centre and spread    3  (  0.000001, -3.024017,  0.000000 )     2.33622198
  Sum of centres and spreads (  3.024018, -3.024017, -3.024017 )     7.00866563
 
     86    -0.191E-12     0.0000050522        7.0086678243       0.22  <-- CONV
        O_D=      0.0000000 O_OD=      0.0257946 O_TOT=      7.0086678 <-- SPRD
 Delta: O_D= -0.5848245E-13 O_OD= -0.1326959E-12 O_TOT= -0.1909584E-12 <-- DLTA
 ------------------------------------------------------------------------------
 Cycle:     87
  WF centre and spread    1  (  0.000001,  0.000000, -3.024017 )     2.33622187
  WF centre and spread    2  (  3.024017, -0.000000,  0.000000 )     2.33622177
  WF centre and spread    3  (  0.000001, -3.024017,  0.000000 )     2.33622198
  Sum of centres and spreads (  3.024018, -3.024017, -3.024017 )     7.00866563
 
     87    -0.287E-12     0.0000050479        7.0086678243       0.23  <-- CONV
        O_D=      0.0000000 O_OD=      0.0257946 O_TOT=      7.0086678 <-- SPRD
 Delta: O_D= -0.8741012E-13 O_OD= -0.1987299E-12 O_TOT= -0.2868816E-12 <-- DLTA
 ------------------------------------------------------------------------------
 Cycle:     88
  WF centre and spread    1  (  0.000001,  0.000000, -3.024017 )     2.33622187
  WF centre and spread    2  (  3.024017, -0.000000,  0.000000 )     2.33622177
  WF centre and spread    3  (  0.000001, -3.024017,  0.000000 )     2.33622198
  Sum of centres and spreads (  3.024018, -3.024017, -3.024017 )     7.00866563
 
     88    -0.380E-12     0.0000050414        7.0086678243       0.23  <-- CONV
        O_D=      0.0000000 O_OD=      0.0257946 O_TOT=      7.0086678 <-- SPRD
 Delta: O_D= -0.1159459E-12 O_OD= -0.2641845E-12 O_TOT= -0.3801404E-12 <-- DLTA
 ------------------------------------------------------------------------------
 Cycle:     89
  WF centre and spread    1  (  0.000001,  0.000000, -3.024017 )     2.33622187
  WF centre and spread    2  (  3.024017, -0.000000,  0.000000 )     2.33622177
  WF centre and spread    3  (  0.000001, -3.024017,  0.000000 )     2.33622198
  Sum of centres and spreads (  3.024018, -3.024017, -3.024017 )     7.00866563
 
     89    -0.473E-12     0.0000050329        7.0086678243       0.23  <-- CONV
        O_D=      0.0000000 O_OD=      0.0257946 O_TOT=      7.0086678 <-- SPRD
 Delta: O_D= -0.1439585E-12 O_OD= -0.3289417E-12 O_TOT= -0.4725109E-12 <-- DLTA
 ------------------------------------------------------------------------------
 Cycle:     90
  WF centre and spread    1  (  0.000001,  0.000000, -3.024017 )     2.33622187
  WF centre and spread    2  (  3.024017, -0.000000,  0.000000 )     2.33622177
  WF centre and spread    3  (  0.000001, -3.024017,  0.000000 )     2.33622198
  Sum of centres and spreads (  3.024018, -3.024017, -3.024017 )     7.00866563
 
     90    -0.564E-12     0.0000050223        7.0086678243       0.23  <-- CONV
        O_D=      0.0000000 O_OD=      0.0257946 O_TOT=      7.0086678 <-- SPRD
 Delta: O_D= -0.1713240E-12 O_OD= -0.3928698E-12 O_TOT= -0.5639933E-12 <-- DLTA
 ------------------------------------------------------------------------------
 Cycle:     91
  WF centre and spread    1  (  0.000001,  0.000000, -3.024017 )     2.33622187
  WF centre and spread    2  (  3.024017, -0.000000,  0.000000 )     2.33622177
  WF centre and spread    3  (  0.000001, -3.024017,  0.000000 )     2.33622198
  Sum of centres and spreads (  3.024018, -3.024017, -3.024017 )     7.00866563
 
     91    -0.941E-13     0.0000050096        7.0086678243       0.23  <-- CONV
        O_D=      0.0000000 O_OD=      0.0257946 O_TOT=      7.0086678 <-- SPRD
 Delta: O_D= -0.2837330E-13 O_OD= -0.6568010E-13 O_TOT= -0.9414691E-13 <-- DLTA
 ------------------------------------------------------------------------------
 Cycle:     92
  WF centre and spread    1  (  0.000001,  0.000000, -3.024017 )     2.33622187
  WF centre and spread    2  (  3.024017, -0.000000,  0.000000 )     2.33622177
  WF centre and spread    3  (  0.000001, -3.024017,  0.000000 )     2.33622198
  Sum of centres and spreads (  3.024018, -3.024017, -3.024017 )     7.00866563
 
     92    -0.188E-12     0.0000050076        7.0086678243       0.23  <-- CONV
        O_D=      0.0000000 O_OD=      0.0257946 O_TOT=      7.0086678 <-- SPRD
 Delta: O_D= -0.5663919E-13 O_OD= -0.1311833E-12 O_TOT= -0.1882938E-12 <-- DLTA
 ------------------------------------------------------------------------------
 Cycle:     93
  WF centre and spread    1  (  0.000001,  0.000000, -3.024017 )     2.33622187
  WF centre and spread    2  (  3.024017, -0.000000,  0.000000 )     2.33622177
  WF centre and spread    3  (  0.000001, -3.024017,  0.000000 )     2.33622198
  Sum of centres and spreads (  3.024018, -3.024017, -3.024017 )     7.00866563
 
     93    -0.281E-12     0.0000050034        7.0086678243       0.23  <-- CONV
        O_D=      0.0000000 O_OD=      0.0257946 O_TOT=      7.0086678 <-- SPRD
 Delta: O_D= -0.8466809E-13 O_OD= -0.1963985E-12 O_TOT= -0.2806644E-12 <-- DLTA
 ------------------------------------------------------------------------------
 Cycle:     94
  WF centre and spread    1  (  0.000001,  0.000000, -3.024017 )     2.33622187
  WF centre and spread    2  (  3.024017, -0.000000,  0.000000 )     2.33622177
  WF centre and spread    3  (  0.000001, -3.024017,  0.000000 )     2.33622198
  Sum of centres and spreads (  3.024018, -3.024017, -3.024017 )     7.00866563
 
     94    -0.374E-12     0.0000049973        7.0086678243       0.24  <-- CONV
        O_D=      0.0000000 O_OD=      0.0257946 O_TOT=      7.0086678 <-- SPRD
 Delta: O_D= -0.1123334E-12 O_OD= -0.2611626E-12 O_TOT= -0.3739231E-12 <-- DLTA
 ------------------------------------------------------------------------------
 Cycle:     95
  WF centre and spread    1  (  0.000001,  0.000000, -3.024017 )     2.33622187
  WF centre and spread    2  (  3.024017, -0.000000,  0.000000 )     2.33622177
  WF centre and spread    3  (  0.000001, -3.024017,  0.000000 )     2.33622198
  Sum of centres and spreads (  3.024018, -3.024017, -3.024017 )     7.00866563
 
     95    -0.465E-12     0.0000049891        7.0086678243       0.24  <-- CONV
        O_D=      0.0000000 O_OD=      0.0257946 O_TOT=      7.0086678 <-- SPRD
 Delta: O_D= -0.1395132E-12 O_OD= -0.3252745E-12 O_TOT= -0.4645173E-12 <-- DLTA
 ------------------------------------------------------------------------------
 Cycle:     96
  WF centre and spread    1  (  0.000001,  0.000000, -3.024017 )     2.33622187
  WF centre and spread    2  (  3.024017, -0.000000,  0.000000 )     2.33622177
  WF centre and spread    3  (  0.000001, -3.024017,  0.000000 )     2.33622198
  Sum of centres and spreads (  3.024018, -3.024017, -3.024017 )     7.00866563
 
     96    -0.555E-12     0.0000049789        7.0086678243       0.24  <-- CONV
        O_D=      0.0000000 O_OD=      0.0257946 O_TOT=      7.0086678 <-- SPRD
 Delta: O_D= -0.1660921E-12 O_OD= -0.3885538E-12 O_TOT= -0.5551115E-12 <-- DLTA
 ------------------------------------------------------------------------------
 Cycle:     97
  WF centre and spread    1  (  0.000001,  0.000000, -3.024017 )     2.33622187
  WF centre and spread    2  (  3.024017, -0.000000,  0.000000 )     2.33622177
  WF centre and spread    3  (  0.000001, -3.024017,  0.000000 )     2.33622198
  Sum of centres and spreads (  3.024018, -3.024017, -3.024017 )     7.00866563
 
[...]
  Sum of centres and spreads (  3.024018, -3.024017, -3.024017 )     7.00866563
 
    473    -0.245E-12     0.0000036154        7.0086678242       0.86  <-- CONV
        O_D=      0.0000000 O_OD=      0.0257946 O_TOT=      7.0086678 <-- SPRD
 Delta: O_D= -0.5932662E-13 O_OD= -0.1851748E-12 O_TOT= -0.2451372E-12 <-- DLTA
 ------------------------------------------------------------------------------
 Cycle:    474
  WF centre and spread    1  (  0.000001,  0.000000, -3.024017 )     2.33622187
  WF centre and spread    2  (  3.024017, -0.000000,  0.000000 )     2.33622177
  WF centre and spread    3  (  0.000001, -3.024017,  0.000000 )     2.33622198
  Sum of centres and spreads (  3.024018, -3.024017, -3.024017 )     7.00866563
 
    474    -0.293E-12     0.0000036119        7.0086678242       0.86  <-- CONV
        O_D=      0.0000000 O_OD=      0.0257946 O_TOT=      7.0086678 <-- SPRD
 Delta: O_D= -0.7099467E-13 O_OD= -0.2216699E-12 O_TOT= -0.2930989E-12 <-- DLTA
 ------------------------------------------------------------------------------
 Cycle:    475
  WF centre and spread    1  (  0.000001,  0.000000, -3.024017 )     2.33622187
  WF centre and spread    2  (  3.024017, -0.000000,  0.000000 )     2.33622177
  WF centre and spread    3  (  0.000001, -3.024017,  0.000000 )     2.33622198
  Sum of centres and spreads (  3.024018, -3.024017, -3.024017 )     7.00866563
 
    475    -0.480E-13     0.0000036077        7.0086678242       0.86  <-- CONV
        O_D=      0.0000000 O_OD=      0.0257946 O_TOT=      7.0086678 <-- SPRD
 Delta: O_D= -0.1182810E-13 O_OD= -0.3694267E-13 O_TOT= -0.4796163E-13 <-- DLTA
 ------------------------------------------------------------------------------
 Cycle:    476
  WF centre and spread    1  (  0.000001,  0.000000, -3.024017 )     2.33622187
  WF centre and spread    2  (  3.024017, -0.000000,  0.000000 )     2.33622177
  WF centre and spread    3  (  0.000001, -3.024017,  0.000000 )     2.33622198
  Sum of centres and spreads (  3.024018, -3.024017, -3.024017 )     7.00866563
 
    476    -0.977E-13     0.0000036070        7.0086678242       0.86  <-- CONV
        O_D=      0.0000000 O_OD=      0.0257946 O_TOT=      7.0086678 <-- SPRD
 Delta: O_D= -0.2364166E-13 O_OD= -0.7387146E-13 O_TOT= -0.9769963E-13 <-- DLTA
 ------------------------------------------------------------------------------
 Cycle:    477
  WF centre and spread    1  (  0.000001,  0.000000, -3.024017 )     2.33622187
  WF centre and spread    2  (  3.024017, -0.000000,  0.000000 )     2.33622177
  WF centre and spread    3  (  0.000001, -3.024017,  0.000000 )     2.33622198
  Sum of centres and spreads (  3.024018, -3.024017, -3.024017 )     7.00866563
 
    477    -0.147E-12     0.0000036056        7.0086678242       0.86  <-- CONV
        O_D=      0.0000000 O_OD=      0.0257946 O_TOT=      7.0086678 <-- SPRD
 Delta: O_D= -0.3542160E-13 O_OD= -0.1106164E-12 O_TOT= -0.1465494E-12 <-- DLTA
 ------------------------------------------------------------------------------
 Cycle:    478
  WF centre and spread    1  (  0.000001,  0.000000, -3.024017 )     2.33622187
  WF centre and spread    2  (  3.024017, -0.000000,  0.000000 )     2.33622177
  WF centre and spread    3  (  0.000001, -3.024017,  0.000000 )     2.33622198
  Sum of centres and spreads (  3.024018, -3.024017, -3.024017 )     7.00866563
 
    478    -0.195E-12     0.0000036035        7.0086678242       0.86  <-- CONV
        O_D=      0.0000000 O_OD=      0.0257946 O_TOT=      7.0086678 <-- SPRD
 Delta: O_D= -0.4714893E-13 O_OD= -0.1473335E-12 O_TOT= -0.1945111E-12 <-- DLTA
 ------------------------------------------------------------------------------
 Cycle:    479
  WF centre and spread    1  (  0.000001,  0.000000, -3.024017 )     2.33622187
  WF centre and spread    2  (  3.024017, -0.000000,  0.000000 )     2.33622177
  WF centre and spread    3  (  0.000001, -3.024017,  0.000000 )     2.33622198
  Sum of centres and spreads (  3.024018, -3.024017, -3.024017 )     7.00866563
 
    479    -0.242E-12     0.0000036007        7.0086678242       0.86  <-- CONV
        O_D=      0.0000000 O_OD=      0.0257946 O_TOT=      7.0086678 <-- SPRD
 Delta: O_D= -0.5880488E-13 O_OD= -0.1837280E-12 O_TOT= -0.2424727E-12 <-- DLTA
 ------------------------------------------------------------------------------
 Cycle:    480
  WF centre and spread    1  (  0.000001,  0.000000, -3.024017 )     2.33622187
  WF centre and spread    2  (  3.024017, -0.000000,  0.000000 )     2.33622177
  WF centre and spread    3  (  0.000001, -3.024017,  0.000000 )     2.33622198
  Sum of centres and spreads (  3.024018, -3.024017, -3.024017 )     7.00866563
 
    480    -0.290E-12     0.0000035972        7.0086678242       0.86  <-- CONV
        O_D=      0.0000000 O_OD=      0.0257946 O_TOT=      7.0086678 <-- SPRD
 Delta: O_D= -0.7037092E-13 O_OD= -0.2198658E-12 O_TOT= -0.2895462E-12 <-- DLTA
 ------------------------------------------------------------------------------
 Cycle:    481
  WF centre and spread    1  (  0.000001,  0.000000, -3.024017 )     2.33622187
  WF centre and spread    2  (  3.024017, -0.000000,  0.000000 )     2.33622177
  WF centre and spread    3  (  0.000001, -3.024017,  0.000000 )     2.33622198
  Sum of centres and spreads (  3.024018, -3.024017, -3.024017 )     7.00866563
 
    481    -0.480E-13     0.0000035930        7.0086678242       0.86  <-- CONV
        O_D=      0.0000000 O_OD=      0.0257946 O_TOT=      7.0086678 <-- SPRD
 Delta: O_D= -0.1172421E-13 O_OD= -0.3666165E-13 O_TOT= -0.4796163E-13 <-- DLTA
 ------------------------------------------------------------------------------
 Cycle:    482
  WF centre and spread    1  (  0.000001,  0.000000, -3.024017 )     2.33622187
  WF centre and spread    2  (  3.024017, -0.000000,  0.000000 )     2.33622177
  WF centre and spread    3  (  0.000001, -3.024017,  0.000000 )     2.33622198
  Sum of centres and spreads (  3.024018, -3.024017, -3.024017 )     7.00866563
 
    482    -0.977E-13     0.0000035923        7.0086678242       0.87  <-- CONV
        O_D=      0.0000000 O_OD=      0.0257946 O_TOT=      7.0086678 <-- SPRD
 Delta: O_D= -0.2343404E-13 O_OD= -0.7329901E-13 O_TOT= -0.9769963E-13 <-- DLTA
 ------------------------------------------------------------------------------
 Cycle:    483
  WF centre and spread    1  (  0.000001,  0.000000, -3.024017 )     2.33622187
  WF centre and spread    2  (  3.024017, -0.000000,  0.000000 )     2.33622177
  WF centre and spread    3  (  0.000001, -3.024017,  0.000000 )     2.33622198
  Sum of centres and spreads (  3.024018, -3.024017, -3.024017 )     7.00866563
 
    483    -0.145E-12     0.0000035909        7.0086678242       0.87  <-- CONV
        O_D=      0.0000000 O_OD=      0.0257946 O_TOT=      7.0086678 <-- SPRD
 Delta: O_D= -0.3511065E-13 O_OD= -0.1097525E-12 O_TOT= -0.1447731E-12 <-- DLTA
 ------------------------------------------------------------------------------
 Cycle:    484
  WF centre and spread    1  (  0.000001,  0.000000, -3.024017 )     2.33622187
  WF centre and spread    2  (  3.024017, -0.000000,  0.000000 )     2.33622177
  WF centre and spread    3  (  0.000001, -3.024017,  0.000000 )     2.33622198
  Sum of centres and spreads (  3.024018, -3.024017, -3.024017 )     7.00866563
 
    484    -0.193E-12     0.0000035888        7.0086678242       0.87  <-- CONV
        O_D=      0.0000000 O_OD=      0.0257946 O_TOT=      7.0086678 <-- SPRD
 Delta: O_D= -0.4673527E-13 O_OD= -0.1461817E-12 O_TOT= -0.1927347E-12 <-- DLTA
 ------------------------------------------------------------------------------
 Cycle:    485
  WF centre and spread    1  (  0.000001,  0.000000, -3.024017 )     2.33622187
  WF centre and spread    2  (  3.024017, -0.000000,  0.000000 )     2.33622177
  WF centre and spread    3  (  0.000001, -3.024017,  0.000000 )     2.33622198
  Sum of centres and spreads (  3.024018, -3.024017, -3.024017 )     7.00866563
 
    485    -0.241E-12     0.0000035861        7.0086678242       0.87  <-- CONV
        O_D=      0.0000000 O_OD=      0.0257946 O_TOT=      7.0086678 <-- SPRD
 Delta: O_D= -0.5828935E-13 O_OD= -0.1822431E-12 O_TOT= -0.2406964E-12 <-- DLTA
 ------------------------------------------------------------------------------
 Cycle:    486
  WF centre and spread    1  (  0.000001,  0.000000, -3.024017 )     2.33622187
  WF centre and spread    2  (  3.024017, -0.000000,  0.000000 )     2.33622177
  WF centre and spread    3  (  0.000001, -3.024017,  0.000000 )     2.33622198
  Sum of centres and spreads (  3.024018, -3.024017, -3.024017 )     7.00866563
 
    486    -0.288E-12     0.0000035826        7.0086678242       0.87  <-- CONV
        O_D=      0.0000000 O_OD=      0.0257946 O_TOT=      7.0086678 <-- SPRD
 Delta: O_D= -0.6975455E-13 O_OD= -0.2182109E-12 O_TOT= -0.2877698E-12 <-- DLTA
 ------------------------------------------------------------------------------
 Cycle:    487
  WF centre and spread    1  (  0.000001,  0.000000, -3.024017 )     2.33622187
  WF centre and spread    2  (  3.024017, -0.000000,  0.000000 )     2.33622177
  WF centre and spread    3  (  0.000001, -3.024017,  0.000000 )     2.33622198
  Sum of centres and spreads (  3.024018, -3.024017, -3.024017 )     7.00866563
 
    487    -0.480E-13     0.0000035785        7.0086678242       0.87  <-- CONV
        O_D=      0.0000000 O_OD=      0.0257946 O_TOT=      7.0086678 <-- SPRD
 Delta: O_D= -0.1162154E-13 O_OD= -0.3636674E-13 O_TOT= -0.4796163E-13 <-- DLTA
 ------------------------------------------------------------------------------
 Cycle:    488
  WF centre and spread    1  (  0.000001,  0.000000, -3.024017 )     2.33622187
  WF centre and spread    2  (  3.024017, -0.000000,  0.000000 )     2.33622177
  WF centre and spread    3  (  0.000001, -3.024017,  0.000000 )     2.33622198
  Sum of centres and spreads (  3.024018, -3.024017, -3.024017 )     7.00866563
 
    488    -0.959E-13     0.0000035778        7.0086678242       0.87  <-- CONV
        O_D=      0.0000000 O_OD=      0.0257946 O_TOT=      7.0086678 <-- SPRD
 Delta: O_D= -0.2322888E-13 O_OD= -0.7268838E-13 O_TOT= -0.9592327E-13 <-- DLTA
 ------------------------------------------------------------------------------
 Cycle:    489
  WF centre and spread    1  (  0.000001,  0.000000, -3.024017 )     2.33622187
  WF centre and spread    2  (  3.024017, -0.000000,  0.000000 )     2.33622177
  WF centre and spread    3  (  0.000001, -3.024017,  0.000000 )     2.33622198
  Sum of centres and spreads (  3.024018, -3.024017, -3.024017 )     7.00866563
 
    489    -0.143E-12     0.0000035764        7.0086678242       0.87  <-- CONV
        O_D=      0.0000000 O_OD=      0.0257946 O_TOT=      7.0086678 <-- SPRD
 Delta: O_D= -0.3480337E-13 O_OD= -0.1088851E-12 O_TOT= -0.1429967E-12 <-- DLTA
 ------------------------------------------------------------------------------
 Cycle:    490
  WF centre and spread    1  (  0.000001,  0.000000, -3.024017 )     2.33622187
  WF centre and spread    2  (  3.024017, -0.000000,  0.000000 )     2.33622177
  WF centre and spread    3  (  0.000001, -3.024017,  0.000000 )     2.33622198
  Sum of centres and spreads (  3.024018, -3.024017, -3.024017 )     7.00866563
 
    490    -0.193E-12     0.0000035743        7.0086678242       0.87  <-- CONV
        O_D=      0.0000000 O_OD=      0.0257946 O_TOT=      7.0086678 <-- SPRD
 Delta: O_D= -0.4632649E-13 O_OD= -0.1450125E-12 O_TOT= -0.1927347E-12 <-- DLTA
 ------------------------------------------------------------------------------
 Cycle:    491
  WF centre and spread    1  (  0.000001,  0.000000, -3.024017 )     2.33622187
  WF centre and spread    2  (  3.024017, -0.000000,  0.000000 )     2.33622177
  WF centre and spread    3  (  0.000001, -3.024017,  0.000000 )     2.33622198
  Sum of centres and spreads (  3.024018, -3.024017, -3.024017 )     7.00866563
 
    491    -0.238E-12     0.0000035716        7.0086678242       0.88  <-- CONV
        O_D=      0.0000000 O_OD=      0.0257946 O_TOT=      7.0086678 <-- SPRD
 Delta: O_D= -0.5777988E-13 O_OD= -0.1808588E-12 O_TOT= -0.2380318E-12 <-- DLTA
 ------------------------------------------------------------------------------
 Cycle:    492
  WF centre and spread    1  (  0.000001,  0.000000, -3.024017 )     2.33622187
  WF centre and spread    2  (  3.024017, -0.000000,  0.000000 )     2.33622177
  WF centre and spread    3  (  0.000001, -3.024017,  0.000000 )     2.33622198
  Sum of centres and spreads (  3.024018, -3.024017, -3.024017 )     7.00866563
 
    492    -0.286E-12     0.0000035681        7.0086678242       0.88  <-- CONV
        O_D=      0.0000000 O_OD=      0.0257946 O_TOT=      7.0086678 <-- SPRD
 Delta: O_D= -0.6914543E-13 O_OD= -0.2164449E-12 O_TOT= -0.2859935E-12 <-- DLTA
 ------------------------------------------------------------------------------
 Cycle:    493
  WF centre and spread    1  (  0.000001,  0.000000, -3.024017 )     2.33622187
  WF centre and spread    2  (  3.024017, -0.000000,  0.000000 )     2.33622177
  WF centre and spread    3  (  0.000001, -3.024017,  0.000000 )     2.33622198
  Sum of centres and spreads (  3.024018, -3.024017, -3.024017 )     7.00866563
 
    493    -0.480E-13     0.0000035640        7.0086678242       0.88  <-- CONV
        O_D=      0.0000000 O_OD=      0.0257946 O_TOT=      7.0086678 <-- SPRD
 Delta: O_D= -0.1152008E-13 O_OD= -0.3606143E-13 O_TOT= -0.4796163E-13 <-- DLTA
 ------------------------------------------------------------------------------
 Cycle:    494
  WF centre and spread    1  (  0.000001,  0.000000, -3.024017 )     2.33622187
  WF centre and spread    2  (  3.024017, -0.000000,  0.000000 )     2.33622177
  WF centre and spread    3  (  0.000001, -3.024017,  0.000000 )     2.33622198
  Sum of centres and spreads (  3.024018, -3.024017, -3.024017 )     7.00866563
 
    494    -0.941E-13     0.0000035633        7.0086678242       0.88  <-- CONV
        O_D=      0.0000000 O_OD=      0.0257946 O_TOT=      7.0086678 <-- SPRD
 Delta: O_D= -0.2302612E-13 O_OD= -0.7215756E-13 O_TOT= -0.9414691E-13 <-- DLTA
 ------------------------------------------------------------------------------
 Cycle:    495
  WF centre and spread    1  (  0.000001,  0.000000, -3.024017 )     2.33622187
  WF centre and spread    2  (  3.024017, -0.000000,  0.000000 )     2.33622177
  WF centre and spread    3  (  0.000001, -3.024017,  0.000000 )     2.33622198
  Sum of centres and spreads (  3.024018, -3.024017, -3.024017 )     7.00866563
 
    495    -0.142E-12     0.0000035620        7.0086678242       0.88  <-- CONV
        O_D=      0.0000000 O_OD=      0.0257946 O_TOT=      7.0086678 <-- SPRD
 Delta: O_D= -0.3449970E-13 O_OD= -0.1080282E-12 O_TOT= -0.1421085E-12 <-- DLTA
 ------------------------------------------------------------------------------
 Cycle:    496
  WF centre and spread    1  (  0.000001,  0.000000, -3.024017 )     2.33622187
  WF centre and spread    2  (  3.024017, -0.000000,  0.000000 )     2.33622177
  WF centre and spread    3  (  0.000001, -3.024017,  0.000000 )     2.33622198
  Sum of centres and spreads (  3.024018, -3.024017, -3.024017 )     7.00866563
 
    496    -0.190E-12     0.0000035599        7.0086678242       0.88  <-- CONV
        O_D=      0.0000000 O_OD=      0.0257946 O_TOT=      7.0086678 <-- SPRD
 Delta: O_D= -0.4592249E-13 O_OD= -0.1438780E-12 O_TOT= -0.1900702E-12 <-- DLTA
 ------------------------------------------------------------------------------
 Cycle:    497
  WF centre and spread    1  (  0.000001,  0.000000, -3.024017 )     2.33622187
  WF centre and spread    2  (  3.024017, -0.000000,  0.000000 )     2.33622177
  WF centre and spread    3  (  0.000001, -3.024017,  0.000000 )     2.33622198
  Sum of centres and spreads (  3.024018, -3.024017, -3.024017 )     7.00866563
 
    497    -0.236E-12     0.0000035572        7.0086678242       0.88  <-- CONV
        O_D=      0.0000000 O_OD=      0.0257946 O_TOT=      7.0086678 <-- SPRD
 Delta: O_D= -0.5727637E-13 O_OD= -0.1794259E-12 O_TOT= -0.2362555E-12 <-- DLTA
 ------------------------------------------------------------------------------
 Cycle:    498
  WF centre and spread    1  (  0.000001,  0.000000, -3.024017 )     2.33622187
  WF centre and spread    2  (  3.024017, -0.000000,  0.000000 )     2.33622177
  WF centre and spread    3  (  0.000001, -3.024017,  0.000000 )     2.33622198
  Sum of centres and spreads (  3.024018, -3.024017, -3.024017 )     7.00866563
 
    498    -0.284E-12     0.0000035538        7.0086678242       0.88  <-- CONV
        O_D=      0.0000000 O_OD=      0.0257946 O_TOT=      7.0086678 <-- SPRD
 Delta: O_D= -0.6854342E-13 O_OD= -0.2147588E-12 O_TOT= -0.2842171E-12 <-- DLTA
 ------------------------------------------------------------------------------
 Cycle:    499
  WF centre and spread    1  (  0.000001,  0.000000, -3.024017 )     2.33622187
  WF centre and spread    2  (  3.024017, -0.000000,  0.000000 )     2.33622177
  WF centre and spread    3  (  0.000001, -3.024017,  0.000000 )     2.33622198
  Sum of centres and spreads (  3.024018, -3.024017, -3.024017 )     7.00866563
 
    499    -0.471E-13     0.0000035497        7.0086678242       0.88  <-- CONV
        O_D=      0.0000000 O_OD=      0.0257946 O_TOT=      7.0086678 <-- SPRD
 Delta: O_D= -0.1141980E-13 O_OD= -0.3579081E-13 O_TOT= -0.4707346E-13 <-- DLTA
 ------------------------------------------------------------------------------
 Cycle:    500
  WF centre and spread    1  (  0.000001,  0.000000, -3.024017 )     2.33622187
  WF centre and spread    2  (  3.024017, -0.000000,  0.000000 )     2.33622177
  WF centre and spread    3  (  0.000001, -3.024017,  0.000000 )     2.33622198
  Sum of centres and spreads (  3.024018, -3.024017, -3.024017 )     7.00866563
 
    500    -0.941E-13     0.0000035490        7.0086678242       0.89  <-- CONV
        O_D=      0.0000000 O_OD=      0.0257946 O_TOT=      7.0086678 <-- SPRD
 Delta: O_D= -0.2282572E-13 O_OD= -0.7155734E-13 O_TOT= -0.9414691E-13 <-- DLTA
 ------------------------------------------------------------------------------

 Writing checkpoint file mp-1087.chk... done

 Final State
  WF centre and spread    1  (  0.000001,  0.000000, -3.024017 )     2.33622187
  WF centre and spread    2  (  3.024017, -0.000000,  0.000000 )     2.33622177
  WF centre and spread    3  (  0.000001, -3.024017,  0.000000 )     2.33622198
  Sum of centres and spreads (  3.024018, -3.024017, -3.024017 )     7.00866563
 
         Spreads (Ang^2)       Omega I      =     6.982873186
        ================       Omega D      =     0.000000000
                               Omega OD     =     0.025794638
    Final Spread (Ang^2)       Omega Total  =     7.008667824
 ------------------------------------------------------------------------------
 Time for wannierise            0.698 (sec)

 Writing checkpoint file mp-1087.chk... done

 Time for plotting              0.000 (sec)
 Total Execution Time           1.633 (sec)

 *===========================================================================*
 |                             TIMING INFORMATION                            |
 *===========================================================================*
 |    Tag                                                Ncalls      Time (s)|
 |---------------------------------------------------------------------------|
 |kmesh: get                                        :         1         0.677|
 |overlap: allocate                                 :         1         0.001|
 |overlap: read                                     :         1         0.084|
 |wann: main                                        :         1         0.698|
 |plot: main                                        :         1         0.000|
 *---------------------------------------------------------------------------*
 
 All done: wannier90 exiting
