 
             +---------------------------------------------------+
             |                                                   |
             |                   WANNIER90                       |
             |                                                   |
             +---------------------------------------------------+
             |                                                   |
             |        Welcome to the Maximally-Localized         |
             |        Generalized Wannier Functions code         |
             |            http://www.wannier.org                 |
             |                                                   |
             |                                                   |
             |  Wannier90 Developer Group:                       |
             |    Giovanni Pizzi    (EPFL)                       |
             |    Valerio Vitale    (Cambridge)                  |
             |    David Vanderbilt  (Rutgers University)         |
             |    Nicola Marzari    (EPFL)                       |
             |    Ivo Souza         (Universidad del Pais Vasco) |
             |    Arash A. Mostofi  (Imperial College London)    |
             |    Jonathan R. Yates (University of Oxford)       |
             |                                                   |
             |  For the full list of Wannier90 3.x authors,      |
             |  please check the code documentation and the      |
             |  README on the GitHub page of the code            |
             |                                                   |
             |                                                   |
             |  Please cite                                      |
             |                                                   |
             |  [ref] "Wannier90 as a community code:            |
             |        new features and applications",            |
             |        G. Pizzi et al., J. Phys. Cond. Matt. 32,  |
             |        165902 (2020).                             |
             |        http://doi.org/10.1088/1361-648X/ab51ff    |
             |                                                   |
             |  in any publications arising from the use of      |
             |  this code. For the method please cite            |
             |                                                   |
             |  [ref] "Maximally Localized Generalised Wannier   |
             |         Functions for Composite Energy Bands"     |
             |         N. Marzari and D. Vanderbilt              |
             |         Phys. Rev. B 56 12847 (1997)              |
             |                                                   |
             |  [ref] "Maximally Localized Wannier Functions     |
             |         for Entangled Energy Bands"               |
             |         I. Souza, N. Marzari and D. Vanderbilt    |
             |         Phys. Rev. B 65 035109 (2001)             |
             |                                                   |
             |                                                   |
             | Copyright (c) 1996-2020                           |
             |        The Wannier90 Developer Group and          |
             |        individual contributors                    |
             |                                                   |
             |      Release: 3.1.0        5th March    2020      |
             |                                                   |
             | This program is free software; you can            |
             | redistribute it and/or modify it under the terms  |
             | of the GNU General Public License as published by |
             | the Free Software Foundation; either version 2 of |
             | the License, or (at your option) any later version|
             |                                                   |
             | This program is distributed in the hope that it   |
             | will be useful, but WITHOUT ANY WARRANTY; without |
             | even the implied warranty of MERCHANTABILITY or   |
             | FITNESS FOR A PARTICULAR PURPOSE. See the GNU     |
             | General Public License for more details.          |
             |                                                   |
             | You should have received a copy of the GNU General|
             | Public License along with this program; if not,   |
             | write to the Free Software Foundation, Inc.,      |
             | 675 Mass Ave, Cambridge, MA 02139, USA.           |
             |                                                   |
             +---------------------------------------------------+
             |    Execution started on  3Jan2024 at 14:30:53     |
             +---------------------------------------------------+
 
 ******************************************************************************
 * -> Using CODATA 2006 constant values                                       *
 *    (http://physics.nist.gov/cuu/Constants/index.html)                      *
 * -> Using Bohr value from CODATA                                            *
 ******************************************************************************
 

 Running in parallel on   8 CPUs

 
                                    ------
                                    SYSTEM
                                    ------
 
                              Lattice Vectors (Ang)
                    a_1    -3.024017   0.000000   3.024017
                    a_2     0.000000   3.024017   3.024017
                    a_3    -3.024017   3.024017   0.000000
 
                   Unit Cell Volume:      55.30733  (Ang^3)
 
                        Reciprocal-Space Vectors (Ang^-1)
                    b_1    -1.038881  -1.038881   1.038881
                    b_2     1.038881   1.038881   1.038881
                    b_3    -1.038881   1.038881  -1.038881
  
 *----------------------------------------------------------------------------*
 |   Site       Fractional Coordinate          Cartesian Coordinate (Ang)     |
 +----------------------------------------------------------------------------+
 | Sr   1   0.00000   0.00000   0.00000   |    0.00000   0.00000   0.00000    |
 | S    1   0.50000   0.50000   0.50000   |   -3.02402   3.02402   3.02402    |
 *----------------------------------------------------------------------------*
                                ------------
                                K-POINT GRID
                                ------------
  
             Grid size = 12 x 12 x 12      Total points = 1728
  
  
 *---------------------------------- MAIN ------------------------------------*
 |  Number of Wannier Functions               :                 3             |
 |  Number of Objective Wannier Functions     :                 3             |
 |  Number of input Bloch states              :                 3             |
 |  Output verbosity (1=low, 5=high)          :                 1             |
 |  Timing Level (1=low, 5=high)              :                 1             |
 |  Optimisation (0=memory, 3=speed)          :                 3             |
 |  Length Unit                               :               Ang             |
 |  Post-processing setup (write *.nnkp)      :                 F             |
 |  Using Gamma-only branch of algorithms     :                 F             |
 *----------------------------------------------------------------------------*
 *------------------------------- WANNIERISE ---------------------------------*
 |  Total number of iterations                :               500             |
 |  Number of CG steps before reset           :                 5             |
 |  Trial step length for line search         :             2.000             |
 |  Convergence tolerence                     :         0.100E-09             |
 |  Convergence window                        :                -1             |
 |  Iterations between writing output         :                 1             |
 |  Iterations between backing up to disk     :               100             |
 |  Write r^2_nm to file                      :                 F             |
 |  Write xyz WF centres to file              :                 F             |
 |  Write on-site energies <0n|H|0n> to file  :                 F             |
 |  Use guiding centre to control phases      :                 F             |
 |  Use phases for initial projections        :                 F             |
 *----------------------------------------------------------------------------*
 Time to read parameters        0.108 (sec)

 *---------------------------------- K-MESH ----------------------------------*
 +----------------------------------------------------------------------------+
 |                    Distance to Nearest-Neighbour Shells                    |
 |                    ------------------------------------                    |
 |          Shell             Distance (Ang^-1)          Multiplicity         |
 |          -----             -----------------          ------------         |
 |             1                   0.149949                      8            |
 |             2                   0.173147                      6            |
 |             3                   0.244867                     12            |
 |             4                   0.287131                     24            |
 |             5                   0.299899                      8            |
 |             6                   0.346294                      6            |
 |             7                   0.377365                     24            |
 |             8                   0.387168                     24            |
 |             9                   0.424121                     24            |
 |            10                   0.449849                     32            |
 |            11                   0.489733                     12            |
 |            12                   0.512175                     48            |
 |            13                   0.519440                     30            |
 |            14                   0.547538                     24            |
 |            15                   0.567700                     24            |
 |            16                   0.574263                     24            |
 |            17                   0.599798                      8            |
 |            18                   0.618258                     48            |
 |            19                   0.624290                     24            |
 |            20                   0.647856                     48            |
 |            21                   0.664983                     72            |
 |            22                   0.692587                      6            |
 |            23                   0.708634                     24            |
 |            24                   0.713902                     48            |
 |            25                   0.734600                     36            |
 |            26                   0.749748                     56            |
 |            27                   0.754729                     24            |
 |            28                   0.774336                     24            |
 |            29                   0.788721                     72            |
 |            30                   0.793458                     48            |
 |            31                   0.812130                     24            |
 |            32                   0.825857                     48            |
 |            33                   0.848242                     24            |
 |            34                   0.861394                     72            |
 |            35                   0.865734                     30            |
 |            36                   0.882879                     72            |
 +----------------------------------------------------------------------------+
 | The b-vectors are chosen automatically                                     |
 | The following shells are used:   1                                         |
 +----------------------------------------------------------------------------+
 |                        Shell   # Nearest-Neighbours                        |
 |                        -----   --------------------                        |
 |                          1               8                                 |
 +----------------------------------------------------------------------------+
 | Completeness relation is fully satisfied [Eq. (B1), PRB 56, 12847 (1997)]  |
 +----------------------------------------------------------------------------+
 |                  b_k Vectors (Ang^-1) and Weights (Ang^2)                  |
 |                  ----------------------------------------                  |
 |            No.         b_k(x)      b_k(y)      b_k(z)        w_b           |
 |            ---        --------------------------------     --------        |
 |             1        -0.086573    0.086573   -0.086573    16.677896        |
 |             2         0.086573    0.086573    0.086573    16.677896        |
 |             3        -0.086573   -0.086573    0.086573    16.677896        |
 |             4        -0.086573    0.086573    0.086573    16.677896        |
 |             5         0.086573   -0.086573    0.086573    16.677896        |
 |             6        -0.086573   -0.086573   -0.086573    16.677896        |
 |             7         0.086573    0.086573   -0.086573    16.677896        |
 |             8         0.086573   -0.086573   -0.086573    16.677896        |
 +----------------------------------------------------------------------------+
 |                           b_k Directions (Ang^-1)                          |
 |                           -----------------------                          |
 |            No.           x           y           z                         |
 |            ---        --------------------------------                     |
 |             1        -0.086573    0.086573   -0.086573                     |
 |             2         0.086573    0.086573    0.086573                     |
 |             3        -0.086573   -0.086573    0.086573                     |
 |             4        -0.086573    0.086573    0.086573                     |
 +----------------------------------------------------------------------------+
  
 Time to get kmesh              1.039 (sec)
 *============================================================================*
 |                              MEMORY ESTIMATE                               |
 |         Maximum RAM allocated during each phase of the calculation         |
 *============================================================================*
 |                            Wannierise:            7.00 Mb                  |
 |                          plot_wannier:            7.00 Mb                  |
 *----------------------------------------------------------------------------*
  
 Starting a new Wannier90 calculation ...


 Reading overlaps from mp-1087.mmn    :  Created on  3Jan2024 at 14:30:44

 Reading projections from mp-1087.amn :  Created on  3Jan2024 at 14:30:44  with SCDM

 Time to read overlaps          0.139 (sec)

 Writing checkpoint file mp-1087.chk... done

 
 *------------------------------- WANNIERISE ---------------------------------*
 +--------------------------------------------------------------------+<-- CONV
 | Iter  Delta Spread     RMS Gradient      Spread (Ang^2)      Time  |<-- CONV
 +--------------------------------------------------------------------+<-- CONV
 
 ------------------------------------------------------------------------------
 Initial State
  WF centre and spread    1  ( -0.000294, -3.023769,  0.000294 )     2.41401644
  WF centre and spread    2  ( -0.000294, -0.000295,  3.023769 )     2.41401642
  WF centre and spread    3  ( -3.023769, -0.000294,  0.000294 )     2.41401752
  Sum of centres and spreads ( -3.024357, -3.024358,  3.024358 )     7.24205038
 
      0     0.724E+01     0.0000000000        7.2420525702       0.00  <-- CONV
        O_D=      0.0637164 O_OD=      0.1954629 O_TOT=      7.2420526 <-- SPRD
 ------------------------------------------------------------------------------
 Cycle:      1
  WF centre and spread    1  (  0.000065, -3.024273, -0.000064 )     2.35112752
  WF centre and spread    2  (  0.000064,  0.000064,  3.024273 )     2.35113654
  WF centre and spread    3  ( -3.024273,  0.000064, -0.000064 )     2.35113483
  Sum of centres and spreads ( -3.024144, -3.024146,  3.024146 )     7.05339889
 
      1    -0.189E+00     0.1188243826        7.0534010809       0.01  <-- CONV
        O_D=      0.0148584 O_OD=      0.0556694 O_TOT=      7.0534011 <-- SPRD
 Delta: O_D= -0.4885797E-01 O_OD= -0.1397935E+00 O_TOT= -0.1886515E+00 <-- DLTA
 ------------------------------------------------------------------------------
 Cycle:      2
  WF centre and spread    1  (  0.000115, -3.024342, -0.000114 )     2.34357305
  WF centre and spread    2  (  0.000115,  0.000114,  3.024342 )     2.34358103
  WF centre and spread    3  ( -3.024342,  0.000114, -0.000114 )     2.34358465
  Sum of centres and spreads ( -3.024112, -3.024113,  3.024113 )     7.03073872
 
      2    -0.227E-01     0.0802862188        7.0307409199       0.02  <-- CONV
        O_D=      0.0068237 O_OD=      0.0410439 O_TOT=      7.0307409 <-- SPRD
 Delta: O_D= -0.8034694E-02 O_OD= -0.1462547E-01 O_TOT= -0.2266016E-01 <-- DLTA
 ------------------------------------------------------------------------------
 Cycle:      3
  WF centre and spread    1  (  0.000109, -3.024308, -0.000108 )     2.34066659
  WF centre and spread    2  (  0.000109,  0.000108,  3.024308 )     2.34066777
  WF centre and spread    3  ( -3.024308,  0.000109, -0.000108 )     2.34067743
  Sum of centres and spreads ( -3.024090, -3.024091,  3.024091 )     7.02201179
 
      3    -0.873E-02     0.0549075348        7.0220139843       0.02  <-- CONV
        O_D=      0.0037279 O_OD=      0.0354128 O_TOT=      7.0220140 <-- SPRD
 Delta: O_D= -0.3095790E-02 O_OD= -0.5631146E-02 O_TOT= -0.8726936E-02 <-- DLTA
 ------------------------------------------------------------------------------
 Cycle:      4
  WF centre and spread    1  (  0.000080, -3.024225, -0.000079 )     2.33867211
  WF centre and spread    2  (  0.000080,  0.000079,  3.024225 )     2.33866795
  WF centre and spread    3  ( -3.024225,  0.000079, -0.000079 )     2.33867159
  Sum of centres and spreads ( -3.024065, -3.024067,  3.024067 )     7.01601165
 
      4    -0.600E-02     0.0467170690        7.0160138421       0.03  <-- CONV
        O_D=      0.0017868 O_OD=      0.0313537 O_TOT=      7.0160138 <-- SPRD
 Delta: O_D= -0.1941095E-02 O_OD= -0.4059047E-02 O_TOT= -0.6000142E-02 <-- DLTA
 ------------------------------------------------------------------------------
 Cycle:      5
  WF centre and spread    1  (  0.000043, -3.024128, -0.000043 )     2.33725232
  WF centre and spread    2  (  0.000043,  0.000043,  3.024128 )     2.33724281
  WF centre and spread    3  ( -3.024128,  0.000043, -0.000043 )     2.33724951
  Sum of centres and spreads ( -3.024042, -3.024043,  3.024043 )     7.01174465
 
      5    -0.427E-02     0.0402868144        7.0117468416       0.04  <-- CONV
        O_D=      0.0006978 O_OD=      0.0281758 O_TOT=      7.0117468 <-- SPRD
 Delta: O_D= -0.1089073E-02 O_OD= -0.3177927E-02 O_TOT= -0.4267001E-02 <-- DLTA
 ------------------------------------------------------------------------------
 Cycle:      6
  WF centre and spread    1  (  0.000020, -3.024067, -0.000019 )     2.33658026
  WF centre and spread    2  (  0.000019,  0.000019,  3.024067 )     2.33657276
  WF centre and spread    3  ( -3.024067,  0.000019, -0.000019 )     2.33658324
  Sum of centres and spreads ( -3.024027, -3.024029,  3.024029 )     7.00973627
 
      6    -0.201E-02     0.0298733553        7.0097384626       0.04  <-- CONV
        O_D=      0.0002308 O_OD=      0.0266344 O_TOT=      7.0097385 <-- SPRD
 Delta: O_D= -0.4669731E-03 O_OD= -0.1541406E-02 O_TOT= -0.2008379E-02 <-- DLTA
 ------------------------------------------------------------------------------
 Cycle:      7
  WF centre and spread    1  (  0.000018, -3.024062, -0.000017 )     2.33639576
  WF centre and spread    2  (  0.000018,  0.000017,  3.024062 )     2.33639057
  WF centre and spread    3  ( -3.024062,  0.000017, -0.000017 )     2.33639706
  Sum of centres and spreads ( -3.024026, -3.024028,  3.024028 )     7.00918340
 
      7    -0.553E-03     0.0189856816        7.0091855921       0.05  <-- CONV
        O_D=      0.0001152 O_OD=      0.0261971 O_TOT=      7.0091856 <-- SPRD
 Delta: O_D= -0.1155650E-03 O_OD= -0.4373055E-03 O_TOT= -0.5528705E-03 <-- DLTA
 ------------------------------------------------------------------------------
 Cycle:      8
  WF centre and spread    1  (  0.000013, -3.024052, -0.000013 )     2.33629065
  WF centre and spread    2  (  0.000013,  0.000013,  3.024051 )     2.33628917
  WF centre and spread    3  ( -3.024051,  0.000013, -0.000013 )     2.33629143
  Sum of centres and spreads ( -3.024025, -3.024026,  3.024026 )     7.00887124
 
      8    -0.312E-03     0.0115465964        7.0088734349       0.06  <-- CONV
        O_D=      0.0000429 O_OD=      0.0259573 O_TOT=      7.0088734 <-- SPRD
 Delta: O_D= -0.7231934E-04 O_OD= -0.2398379E-03 O_TOT= -0.3121572E-03 <-- DLTA
 ------------------------------------------------------------------------------
 Cycle:      9
  WF centre and spread    1  (  0.000010, -3.024043, -0.000009 )     2.33625471
  WF centre and spread    2  (  0.000010,  0.000009,  3.024043 )     2.33625428
  WF centre and spread    3  ( -3.024043,  0.000009, -0.000009 )     2.33625525
  Sum of centres and spreads ( -3.024023, -3.024024,  3.024024 )     7.00876423
 
      9    -0.107E-03     0.0073797663        7.0087664289       0.07  <-- CONV
        O_D=      0.0000218 O_OD=      0.0258713 O_TOT=      7.0087664 <-- SPRD
 Delta: O_D= -0.2108331E-04 O_OD= -0.8592273E-04 O_TOT= -0.1070060E-03 <-- DLTA
 ------------------------------------------------------------------------------
 Cycle:     10
  WF centre and spread    1  (  0.000007, -3.024036, -0.000007 )     2.33624206
  WF centre and spread    2  (  0.000007,  0.000006,  3.024036 )     2.33624181
  WF centre and spread    3  ( -3.024036,  0.000007, -0.000006 )     2.33624238
  Sum of centres and spreads ( -3.024022, -3.024023,  3.024023 )     7.00872625
 
     10    -0.380E-04     0.0041989972        7.0087284442       0.07  <-- CONV
        O_D=      0.0000138 O_OD=      0.0258414 O_TOT=      7.0087284 <-- SPRD
 Delta: O_D= -0.8022263E-05 O_OD= -0.2996241E-04 O_TOT= -0.3798467E-04 <-- DLTA
 ------------------------------------------------------------------------------
 Cycle:     11
  WF centre and spread    1  (  0.000004, -3.024027, -0.000003 )     2.33623261
  WF centre and spread    2  (  0.000003,  0.000003,  3.024027 )     2.33623235
  WF centre and spread    3  ( -3.024027,  0.000003, -0.000003 )     2.33623318
  Sum of centres and spreads ( -3.024020, -3.024021,  3.024021 )     7.00869814
 
     11    -0.281E-04     0.0028736690        7.0087003352       0.08  <-- CONV
        O_D=      0.0000089 O_OD=      0.0258181 O_TOT=      7.0087003 <-- SPRD
 Delta: O_D= -0.4876126E-05 O_OD= -0.2323287E-04 O_TOT= -0.2810900E-04 <-- DLTA
 ------------------------------------------------------------------------------
 Cycle:     12
  WF centre and spread    1  (  0.000001, -3.024022, -0.000001 )     2.33622800
  WF centre and spread    2  (  0.000001,  0.000001,  3.024022 )     2.33622776
  WF centre and spread    3  ( -3.024022,  0.000001, -0.000001 )     2.33622832
  Sum of centres and spreads ( -3.024019, -3.024020,  3.024020 )     7.00868408
 
     12    -0.141E-04     0.0025698314        7.0086862733       0.09  <-- CONV
        O_D=      0.0000053 O_OD=      0.0258077 O_TOT=      7.0086863 <-- SPRD
 Delta: O_D= -0.3616798E-05 O_OD= -0.1044511E-04 O_TOT= -0.1406190E-04 <-- DLTA
 ------------------------------------------------------------------------------
 Cycle:     13
  WF centre and spread    1  (  0.000001, -3.024022, -0.000001 )     2.33622601
  WF centre and spread    2  (  0.000001,  0.000001,  3.024022 )     2.33622578
  WF centre and spread    3  ( -3.024022,  0.000001, -0.000001 )     2.33622626
  Sum of centres and spreads ( -3.024019, -3.024020,  3.024020 )     7.00867806
 
     13    -0.602E-05     0.0019801174        7.0086802522       0.10  <-- CONV
        O_D=      0.0000037 O_OD=      0.0258033 O_TOT=      7.0086803 <-- SPRD
 Delta: O_D= -0.1573492E-05 O_OD= -0.4447581E-05 O_TOT= -0.6021073E-05 <-- DLTA
 ------------------------------------------------------------------------------
 Cycle:     14
  WF centre and spread    1  (  0.000001, -3.024021, -0.000001 )     2.33622465
  WF centre and spread    2  (  0.000001,  0.000001,  3.024021 )     2.33622445
  WF centre and spread    3  ( -3.024021,  0.000001, -0.000001 )     2.33622467
  Sum of centres and spreads ( -3.024019, -3.024020,  3.024020 )     7.00867377
 
     14    -0.428E-05     0.0013399820        7.0086759689       0.10  <-- CONV
        O_D=      0.0000023 O_OD=      0.0258004 O_TOT=      7.0086760 <-- SPRD
 Delta: O_D= -0.1436117E-05 O_OD= -0.2847216E-05 O_TOT= -0.4283333E-05 <-- DLTA
 ------------------------------------------------------------------------------
 Cycle:     15
  WF centre and spread    1  (  0.000001, -3.024021, -0.000001 )     2.33622372
  WF centre and spread    2  (  0.000001,  0.000000,  3.024020 )     2.33622353
  WF centre and spread    3  ( -3.024020,  0.000001, -0.000001 )     2.33622374
  Sum of centres and spreads ( -3.024018, -3.024019,  3.024019 )     7.00867098
 
     15    -0.280E-05     0.0009261014        7.0086731719       0.11  <-- CONV
        O_D=      0.0000015 O_OD=      0.0257984 O_TOT=      7.0086732 <-- SPRD
 Delta: O_D= -0.8135189E-06 O_OD= -0.1983447E-05 O_TOT= -0.2796966E-05 <-- DLTA
 ------------------------------------------------------------------------------
 Cycle:     16
  WF centre and spread    1  (  0.000001, -3.024019, -0.000000 )     2.33622282
  WF centre and spread    2  (  0.000001,  0.000000,  3.024019 )     2.33622264
  WF centre and spread    3  ( -3.024019,  0.000001, -0.000000 )     2.33622284
  Sum of centres and spreads ( -3.024017, -3.024019,  3.024019 )     7.00866830
 
     16    -0.267E-05     0.0009223313        7.0086704981       0.12  <-- CONV
        O_D=      0.0000007 O_OD=      0.0257966 O_TOT=      7.0086705 <-- SPRD
 Delta: O_D= -0.8403219E-06 O_OD= -0.1833478E-05 O_TOT= -0.2673800E-05 <-- DLTA
 ------------------------------------------------------------------------------
 Cycle:     17
  WF centre and spread    1  (  0.000001, -3.024018, -0.000000 )     2.33622231
  WF centre and spread    2  (  0.000001,  0.000000,  3.024018 )     2.33622212
  WF centre and spread    3  ( -3.024018,  0.000000, -0.000000 )     2.33622231
  Sum of centres and spreads ( -3.024017, -3.024018,  3.024018 )     7.00866675
 
     17    -0.156E-05     0.0008226280        7.0086689409       0.13  <-- CONV
        O_D=      0.0000003 O_OD=      0.0257954 O_TOT=      7.0086689 <-- SPRD
 Delta: O_D= -0.3924461E-06 O_OD= -0.1164746E-05 O_TOT= -0.1557192E-05 <-- DLTA
 ------------------------------------------------------------------------------
 Cycle:     18
  WF centre and spread    1  (  0.000001, -3.024018, -0.000000 )     2.33622214
  WF centre and spread    2  (  0.000001,  0.000000,  3.024018 )     2.33622195
  WF centre and spread    3  ( -3.024018,  0.000000, -0.000000 )     2.33622212
  Sum of centres and spreads ( -3.024016, -3.024018,  3.024018 )     7.00866620
 
     18    -0.545E-06     0.0005318275        7.0086683959       0.13  <-- CONV
        O_D=      0.0000001 O_OD=      0.0257950 O_TOT=      7.0086684 <-- SPRD
 Delta: O_D= -0.1460820E-06 O_OD= -0.3989606E-06 O_TOT= -0.5450426E-06 <-- DLTA
 ------------------------------------------------------------------------------
 Cycle:     19
  WF centre and spread    1  (  0.000001, -3.024018, -0.000000 )     2.33622206
  WF centre and spread    2  (  0.000001,  0.000000,  3.024018 )     2.33622187
  WF centre and spread    3  ( -3.024018,  0.000000, -0.000000 )     2.33622204
  Sum of centres and spreads ( -3.024016, -3.024018,  3.024018 )     7.00866597
 
     19    -0.232E-06     0.0003721046        7.0086681642       0.14  <-- CONV
        O_D=      0.0000001 O_OD=      0.0257948 O_TOT=      7.0086682 <-- SPRD
 Delta: O_D= -0.5568853E-07 O_OD= -0.1760373E-06 O_TOT= -0.2317258E-06 <-- DLTA
 ------------------------------------------------------------------------------
 Cycle:     20
  WF centre and spread    1  (  0.000001, -3.024018, -0.000000 )     2.33622201
  WF centre and spread    2  (  0.000001, -0.000000,  3.024018 )     2.33622182
  WF centre and spread    3  ( -3.024017,  0.000000, -0.000000 )     2.33622199
  Sum of centres and spreads ( -3.024016, -3.024017,  3.024017 )     7.00866583
 
     20    -0.139E-06     0.0002451754        7.0086680256       0.15  <-- CONV
        O_D=      0.0000000 O_OD=      0.0257947 O_TOT=      7.0086680 <-- SPRD
 Delta: O_D= -0.3572622E-07 O_OD= -0.1028090E-06 O_TOT= -0.1385353E-06 <-- DLTA
 ------------------------------------------------------------------------------
 Cycle:     21
  WF centre and spread    1  (  0.000001, -3.024018, -0.000000 )     2.33622200
  WF centre and spread    2  (  0.000001, -0.000000,  3.024017 )     2.33622181
  WF centre and spread    3  ( -3.024017,  0.000000,  0.000000 )     2.33622198
  Sum of centres and spreads ( -3.024016, -3.024017,  3.024017 )     7.00866578
 
     21    -0.531E-07     0.0001619316        7.0086679725       0.16  <-- CONV
        O_D=      0.0000000 O_OD=      0.0257947 O_TOT=      7.0086680 <-- SPRD
 Delta: O_D= -0.1240787E-07 O_OD= -0.4068187E-07 O_TOT= -0.5308973E-07 <-- DLTA
 ------------------------------------------------------------------------------
 Cycle:     22
  WF centre and spread    1  (  0.000001, -3.024018, -0.000000 )     2.33622199
  WF centre and spread    2  (  0.000001, -0.000000,  3.024017 )     2.33622180
  WF centre and spread    3  ( -3.024017,  0.000000,  0.000000 )     2.33622197
  Sum of centres and spreads ( -3.024016, -3.024017,  3.024017 )     7.00866576
 
     22    -0.180E-07     0.0000934992        7.0086679545       0.16  <-- CONV
        O_D=      0.0000000 O_OD=      0.0257947 O_TOT=      7.0086680 <-- SPRD
 Delta: O_D= -0.5000582E-08 O_OD= -0.1300881E-07 O_TOT= -0.1800939E-07 <-- DLTA
 ------------------------------------------------------------------------------
 Cycle:     23
  WF centre and spread    1  (  0.000001, -3.024017, -0.000000 )     2.33622199
  WF centre and spread    2  (  0.000001, -0.000000,  3.024017 )     2.33622180
  WF centre and spread    3  ( -3.024017,  0.000000,  0.000000 )     2.33622197
  Sum of centres and spreads ( -3.024016, -3.024017,  3.024017 )     7.00866575
 
     23    -0.107E-07     0.0000621463        7.0086679438       0.17  <-- CONV
        O_D=      0.0000000 O_OD=      0.0257947 O_TOT=      7.0086679 <-- SPRD
 Delta: O_D= -0.1792925E-08 O_OD= -0.8932201E-08 O_TOT= -0.1072513E-07 <-- DLTA
 ------------------------------------------------------------------------------
 Cycle:     24
  WF centre and spread    1  (  0.000001, -3.024017, -0.000000 )     2.33622199
  WF centre and spread    2  (  0.000001, -0.000000,  3.024017 )     2.33622179
  WF centre and spread    3  ( -3.024017,  0.000000,  0.000000 )     2.33622196
  Sum of centres and spreads ( -3.024016, -3.024017,  3.024017 )     7.00866574
 
     24    -0.583E-08     0.0000584780        7.0086679380       0.18  <-- CONV
        O_D=      0.0000000 O_OD=      0.0257947 O_TOT=      7.0086679 <-- SPRD
 Delta: O_D= -0.1975979E-08 O_OD= -0.3850436E-08 O_TOT= -0.5826416E-08 <-- DLTA
 ------------------------------------------------------------------------------
 Cycle:     25
  WF centre and spread    1  (  0.000001, -3.024017, -0.000000 )     2.33622198
  WF centre and spread    2  (  0.000001, -0.000000,  3.024017 )     2.33622179
  WF centre and spread    3  ( -3.024017,  0.000000,  0.000000 )     2.33622196
  Sum of centres and spreads ( -3.024016, -3.024017,  3.024017 )     7.00866574
 
     25    -0.422E-08     0.0000442226        7.0086679338       0.18  <-- CONV
        O_D=      0.0000000 O_OD=      0.0257947 O_TOT=      7.0086679 <-- SPRD
 Delta: O_D= -0.1146651E-08 O_OD= -0.3069544E-08 O_TOT= -0.4216195E-08 <-- DLTA
 ------------------------------------------------------------------------------
 Cycle:     26
  WF centre and spread    1  (  0.000001, -3.024017, -0.000000 )     2.33622198
  WF centre and spread    2  (  0.000001, -0.000000,  3.024017 )     2.33622179
  WF centre and spread    3  ( -3.024017,  0.000000,  0.000000 )     2.33622196
  Sum of centres and spreads ( -3.024016, -3.024017,  3.024017 )     7.00866574
 
     26    -0.416E-11     0.0000300954        7.0086679338       0.19  <-- CONV
        O_D=      0.0000000 O_OD=      0.0257947 O_TOT=      7.0086679 <-- SPRD
 Delta: O_D= -0.1406869E-11 O_OD= -0.2749544E-11 O_TOT= -0.4156675E-11 <-- DLTA
 ------------------------------------------------------------------------------
 Cycle:     27
  WF centre and spread    1  (  0.000001, -3.024017, -0.000000 )     2.33622198
  WF centre and spread    2  (  0.000001, -0.000000,  3.024017 )     2.33622179
  WF centre and spread    3  ( -3.024017,  0.000000,  0.000000 )     2.33622196
  Sum of centres and spreads ( -3.024016, -3.024017,  3.024017 )     7.00866574
 
     27    -0.247E-08     0.0000300728        7.0086679313       0.20  <-- CONV
        O_D=      0.0000000 O_OD=      0.0257947 O_TOT=      7.0086679 <-- SPRD
 Delta: O_D= -0.5285245E-09 O_OD= -0.1944137E-08 O_TOT= -0.2472662E-08 <-- DLTA
 ------------------------------------------------------------------------------
 Cycle:     28
  WF centre and spread    1  (  0.000001, -3.024017, -0.000000 )     2.33622198
  WF centre and spread    2  (  0.000001, -0.000000,  3.024017 )     2.33622179
  WF centre and spread    3  ( -3.024017,  0.000000,  0.000000 )     2.33622196
  Sum of centres and spreads ( -3.024016, -3.024017,  3.024017 )     7.00866574
 
     28    -0.329E-11     0.0000282298        7.0086679313       0.20  <-- CONV
        O_D=      0.0000000 O_OD=      0.0257947 O_TOT=      7.0086679 <-- SPRD
 Delta: O_D= -0.6954046E-12 O_OD= -0.2592232E-11 O_TOT= -0.3288037E-11 <-- DLTA
 ------------------------------------------------------------------------------
 Cycle:     29
  WF centre and spread    1  (  0.000001, -3.024017, -0.000000 )     2.33622198
  WF centre and spread    2  (  0.000001, -0.000000,  3.024017 )     2.33622179
  WF centre and spread    3  ( -3.024017,  0.000000,  0.000000 )     2.33622196
  Sum of centres and spreads ( -3.024016, -3.024017,  3.024017 )     7.00866573
 
     29    -0.235E-08     0.0000282316        7.0086679289       0.21  <-- CONV
        O_D=      0.0000000 O_OD=      0.0257947 O_TOT=      7.0086679 <-- SPRD
 Delta: O_D= -0.6763358E-09 O_OD= -0.1672448E-08 O_TOT= -0.2348783E-08 <-- DLTA
 ------------------------------------------------------------------------------
 Cycle:     30
  WF centre and spread    1  (  0.000001, -3.024017, -0.000000 )     2.33622198
  WF centre and spread    2  (  0.000001, -0.000000,  3.024017 )     2.33622179
  WF centre and spread    3  ( -3.024017,  0.000000,  0.000000 )     2.33622196
  Sum of centres and spreads ( -3.024016, -3.024017,  3.024017 )     7.00866573
 
     30    -0.191E-11     0.0000194425        7.0086679289       0.21  <-- CONV
        O_D=      0.0000000 O_OD=      0.0257947 O_TOT=      7.0086679 <-- SPRD
 Delta: O_D= -0.4318613E-12 O_OD= -0.1482248E-11 O_TOT= -0.1914024E-11 <-- DLTA
 ------------------------------------------------------------------------------
 Cycle:     31
  WF centre and spread    1  (  0.000001, -3.024017, -0.000000 )     2.33622198
  WF centre and spread    2  (  0.000001, -0.000000,  3.024017 )     2.33622179
  WF centre and spread    3  ( -3.024017,  0.000000,  0.000000 )     2.33622196
  Sum of centres and spreads ( -3.024016, -3.024017,  3.024017 )     7.00866573
 
     31    -0.142E-11     0.0000194396        7.0086679289       0.22  <-- CONV
        O_D=      0.0000000 O_OD=      0.0257947 O_TOT=      7.0086679 <-- SPRD
 Delta: O_D= -0.5485582E-12 O_OD= -0.8670946E-12 O_TOT= -0.1416645E-11 <-- DLTA
 ------------------------------------------------------------------------------
 Cycle:     32
  WF centre and spread    1  (  0.000001, -3.024017, -0.000000 )     2.33622198
  WF centre and spread    2  (  0.000001, -0.000000,  3.024017 )     2.33622179
  WF centre and spread    3  ( -3.024017,  0.000000,  0.000000 )     2.33622196
  Sum of centres and spreads ( -3.024016, -3.024017,  3.024017 )     7.00866573
 
     32    -0.907E-09     0.0000194247        7.0086679280       0.22  <-- CONV
        O_D=      0.0000000 O_OD=      0.0257947 O_TOT=      7.0086679 <-- SPRD
 Delta: O_D= -0.1972586E-09 O_OD= -0.7099882E-09 O_TOT= -0.9072458E-09 <-- DLTA
 ------------------------------------------------------------------------------
 Cycle:     33
  WF centre and spread    1  (  0.000001, -3.024017, -0.000000 )     2.33622198
  WF centre and spread    2  (  0.000001, -0.000000,  3.024017 )     2.33622179
  WF centre and spread    3  ( -3.024017,  0.000000,  0.000000 )     2.33622196
  Sum of centres and spreads ( -3.024016, -3.024017,  3.024017 )     7.00866573
 
     33    -0.143E-11     0.0000174339        7.0086679280       0.23  <-- CONV
        O_D=      0.0000000 O_OD=      0.0257947 O_TOT=      7.0086679 <-- SPRD
 Delta: O_D= -0.3614711E-12 O_OD= -0.1064256E-11 O_TOT= -0.1425526E-11 <-- DLTA
 ------------------------------------------------------------------------------
 Cycle:     34
  WF centre and spread    1  (  0.000001, -3.024017, -0.000000 )     2.33622198
  WF centre and spread    2  (  0.000001, -0.000000,  3.024017 )     2.33622179
  WF centre and spread    3  ( -3.024017,  0.000000,  0.000000 )     2.33622196
  Sum of centres and spreads ( -3.024016, -3.024017,  3.024017 )     7.00866573
 
     34    -0.256E-11     0.0000174308        7.0086679280       0.23  <-- CONV
        O_D=      0.0000000 O_OD=      0.0257947 O_TOT=      7.0086679 <-- SPRD
 Delta: O_D= -0.1046017E-11 O_OD= -0.1515153E-11 O_TOT= -0.2561507E-11 <-- DLTA
 ------------------------------------------------------------------------------
 Cycle:     35
  WF centre and spread    1  (  0.000001, -3.024017, -0.000000 )     2.33622198
  WF centre and spread    2  (  0.000001, -0.000000,  3.024017 )     2.33622179
  WF centre and spread    3  ( -3.024017,  0.000000,  0.000000 )     2.33622196
  Sum of centres and spreads ( -3.024016, -3.024017,  3.024017 )     7.00866573
 
     35    -0.711E-09     0.0000174039        7.0086679273       0.24  <-- CONV
        O_D=      0.0000000 O_OD=      0.0257947 O_TOT=      7.0086679 <-- SPRD
 Delta: O_D=  0.1316467E-11 O_OD= -0.7123235E-09 O_TOT= -0.7110073E-09 <-- DLTA
 ------------------------------------------------------------------------------
 Cycle:     36
  WF centre and spread    1  (  0.000001, -3.024017, -0.000000 )     2.33622198
  WF centre and spread    2  (  0.000001, -0.000000,  3.024017 )     2.33622179
  WF centre and spread    3  ( -3.024017,  0.000000,  0.000000 )     2.33622196
  Sum of centres and spreads ( -3.024016, -3.024017,  3.024017 )     7.00866573
 
     36    -0.523E-09     0.0000227866        7.0086679268       0.25  <-- CONV
        O_D=      0.0000000 O_OD=      0.0257947 O_TOT=      7.0086679 <-- SPRD
 Delta: O_D= -0.3249157E-09 O_OD= -0.1983115E-09 O_TOT= -0.5232268E-09 <-- DLTA
 ------------------------------------------------------------------------------
 Cycle:     37
  WF centre and spread    1  (  0.000001, -3.024017, -0.000000 )     2.33622198
  WF centre and spread    2  (  0.000001, -0.000000,  3.024017 )     2.33622179
  WF centre and spread    3  ( -3.024017,  0.000000,  0.000000 )     2.33622196
  Sum of centres and spreads ( -3.024016, -3.024017,  3.024017 )     7.00866573
 
     37    -0.506E-12     0.0000124491        7.0086679268       0.25  <-- CONV
        O_D=      0.0000000 O_OD=      0.0257947 O_TOT=      7.0086679 <-- SPRD
 Delta: O_D= -0.1899344E-12 O_OD= -0.3162817E-12 O_TOT= -0.5062617E-12 <-- DLTA
 ------------------------------------------------------------------------------
 Cycle:     38
  WF centre and spread    1  (  0.000001, -3.024017, -0.000000 )     2.33622198
  WF centre and spread    2  (  0.000001, -0.000000,  3.024017 )     2.33622179
  WF centre and spread    3  ( -3.024017,  0.000000,  0.000000 )     2.33622196
  Sum of centres and spreads ( -3.024016, -3.024017,  3.024017 )     7.00866573
 
     38    -0.109E-11     0.0000124431        7.0086679268       0.25  <-- CONV
        O_D=      0.0000000 O_OD=      0.0257947 O_TOT=      7.0086679 <-- SPRD
 Delta: O_D= -0.5300579E-12 O_OD= -0.5551670E-12 O_TOT= -0.1085354E-11 <-- DLTA
 ------------------------------------------------------------------------------
 Cycle:     39
  WF centre and spread    1  (  0.000001, -3.024017, -0.000000 )     2.33622198
  WF centre and spread    2  (  0.000001, -0.000000,  3.024017 )     2.33622179
  WF centre and spread    3  ( -3.024017,  0.000000,  0.000000 )     2.33622196
  Sum of centres and spreads ( -3.024016, -3.024017,  3.024017 )     7.00866573
 
     39    -0.343E-09     0.0000124226        7.0086679265       0.26  <-- CONV
        O_D=      0.0000000 O_OD=      0.0257947 O_TOT=      7.0086679 <-- SPRD
 Delta: O_D= -0.4543485E-10 O_OD= -0.2972244E-09 O_TOT= -0.3426592E-09 <-- DLTA
 ------------------------------------------------------------------------------
 Cycle:     40
  WF centre and spread    1  (  0.000001, -3.024017, -0.000000 )     2.33622198
  WF centre and spread    2  (  0.000001, -0.000000,  3.024017 )     2.33622179
  WF centre and spread    3  ( -3.024017,  0.000000,  0.000000 )     2.33622196
  Sum of centres and spreads ( -3.024016, -3.024017,  3.024017 )     7.00866573
 
     40    -0.539E-12     0.0000135818        7.0086679264       0.27  <-- CONV
        O_D=      0.0000000 O_OD=      0.0257947 O_TOT=      7.0086679 <-- SPRD
 Delta: O_D=  0.2575642E-12 O_OD= -0.7966336E-12 O_TOT= -0.5391243E-12 <-- DLTA
 ------------------------------------------------------------------------------
 Cycle:     41
  WF centre and spread    1  (  0.000001, -3.024017, -0.000000 )     2.33622198
  WF centre and spread    2  (  0.000001, -0.000000,  3.024017 )     2.33622179
  WF centre and spread    3  ( -3.024017,  0.000000,  0.000000 )     2.33622196
  Sum of centres and spreads ( -3.024016, -3.024017,  3.024017 )     7.00866573
 
     41    -0.123E-11     0.0000136028        7.0086679264       0.27  <-- CONV
        O_D=      0.0000000 O_OD=      0.0257947 O_TOT=      7.0086679 <-- SPRD
 Delta: O_D= -0.2794944E-12 O_OD= -0.9526824E-12 O_TOT= -0.1232792E-11 <-- DLTA
 ------------------------------------------------------------------------------
 Cycle:     42
  WF centre and spread    1  (  0.000001, -3.024017, -0.000000 )     2.33622198
  WF centre and spread    2  (  0.000001, -0.000000,  3.024017 )     2.33622179
  WF centre and spread    3  ( -3.024017,  0.000000,  0.000000 )     2.33622196
  Sum of centres and spreads ( -3.024016, -3.024017,  3.024017 )     7.00866573
 
     42    -0.693E-12     0.0000136009        7.0086679264       0.27  <-- CONV
        O_D=      0.0000000 O_OD=      0.0257947 O_TOT=      7.0086679 <-- SPRD
 Delta: O_D= -0.5381999E-12 O_OD= -0.1543869E-12 O_TOT= -0.6927792E-12 <-- DLTA
 ------------------------------------------------------------------------------
 Cycle:     43
  WF centre and spread    1  (  0.000001, -3.024017, -0.000000 )     2.33622198
  WF centre and spread    2  (  0.000001, -0.000000,  3.024017 )     2.33622179
  WF centre and spread    3  ( -3.024017,  0.000000,  0.000000 )     2.33622196
  Sum of centres and spreads ( -3.024016, -3.024017,  3.024017 )     7.00866573
 
     43    -0.201E-09     0.0000135778        7.0086679262       0.28  <-- CONV
        O_D=      0.0000000 O_OD=      0.0257947 O_TOT=      7.0086679 <-- SPRD
 Delta: O_D= -0.1055222E-09 O_OD= -0.9520213E-10 O_TOT= -0.2007239E-09 <-- DLTA
 ------------------------------------------------------------------------------
 Cycle:     44
  WF centre and spread    1  (  0.000001, -3.024017, -0.000000 )     2.33622198
  WF centre and spread    2  (  0.000001, -0.000000,  3.024017 )     2.33622179
  WF centre and spread    3  ( -3.024017,  0.000000,  0.000000 )     2.33622196
  Sum of centres and spreads ( -3.024016, -3.024017,  3.024017 )     7.00866573
 
     44    -0.235E-12     0.0000090105        7.0086679262       0.29  <-- CONV
        O_D=      0.0000000 O_OD=      0.0257947 O_TOT=      7.0086679 <-- SPRD
 Delta: O_D=  0.1855145E-13 O_OD= -0.2542758E-12 O_TOT= -0.2353673E-12 <-- DLTA
 ------------------------------------------------------------------------------
 Cycle:     45
  WF centre and spread    1  (  0.000001, -3.024017, -0.000000 )     2.33622198
  WF centre and spread    2  (  0.000001, -0.000000,  3.024017 )     2.33622179
  WF centre and spread    3  ( -3.024017,  0.000000,  0.000000 )     2.33622196
  Sum of centres and spreads ( -3.024016, -3.024017,  3.024017 )     7.00866573
 
     45    -0.541E-12     0.0000090162        7.0086679262       0.29  <-- CONV
        O_D=      0.0000000 O_OD=      0.0257947 O_TOT=      7.0086679 <-- SPRD
 Delta: O_D= -0.1518662E-12 O_OD= -0.3885434E-12 O_TOT= -0.5409007E-12 <-- DLTA
 ------------------------------------------------------------------------------
 Cycle:     46
  WF centre and spread    1  (  0.000001, -3.024017, -0.000000 )     2.33622198
  WF centre and spread    2  (  0.000001, -0.000000,  3.024017 )     2.33622179
  WF centre and spread    3  ( -3.024017,  0.000000,  0.000000 )     2.33622196
  Sum of centres and spreads ( -3.024016, -3.024017,  3.024017 )     7.00866573
 
     46    -0.844E-12     0.0000090124        7.0086679262       0.29  <-- CONV
        O_D=      0.0000000 O_OD=      0.0257947 O_TOT=      7.0086679 <-- SPRD
 Delta: O_D= -0.3217835E-12 O_OD= -0.5221761E-12 O_TOT= -0.8437695E-12 <-- DLTA
 ------------------------------------------------------------------------------
 Cycle:     47
  WF centre and spread    1  (  0.000001, -3.024017, -0.000000 )     2.33622198
  WF centre and spread    2  (  0.000001, -0.000000,  3.024017 )     2.33622179
  WF centre and spread    3  ( -3.024017,  0.000000,  0.000000 )     2.33622196
  Sum of centres and spreads ( -3.024016, -3.024017,  3.024017 )     7.00866573
 
     47    -0.114E-11     0.0000089991        7.0086679262       0.30  <-- CONV
        O_D=      0.0000000 O_OD=      0.0257947 O_TOT=      7.0086679 <-- SPRD
 Delta: O_D= -0.4892583E-12 O_OD= -0.6543655E-12 O_TOT= -0.1143974E-11 <-- DLTA
 ------------------------------------------------------------------------------
 Cycle:     48
  WF centre and spread    1  (  0.000001, -3.024017, -0.000000 )     2.33622198
  WF centre and spread    2  (  0.000001, -0.000000,  3.024017 )     2.33622179
  WF centre and spread    3  ( -3.024017,  0.000000,  0.000000 )     2.33622196
  Sum of centres and spreads ( -3.024016, -3.024017,  3.024017 )     7.00866573
 
     48    -0.302E-12     0.0000089764        7.0086679262       0.30  <-- CONV
        O_D=      0.0000000 O_OD=      0.0257947 O_TOT=      7.0086679 <-- SPRD
 Delta: O_D= -0.1679688E-12 O_OD= -0.1338339E-12 O_TOT= -0.3019807E-12 <-- DLTA
 ------------------------------------------------------------------------------
 Cycle:     49
  WF centre and spread    1  (  0.000001, -3.024017, -0.000000 )     2.33622198
  WF centre and spread    2  (  0.000001, -0.000000,  3.024017 )     2.33622179
  WF centre and spread    3  ( -3.024017,  0.000000,  0.000000 )     2.33622196
  Sum of centres and spreads ( -3.024016, -3.024017,  3.024017 )     7.00866573
 
     49    -0.601E-12     0.0000089670        7.0086679262       0.31  <-- CONV
        O_D=      0.0000000 O_OD=      0.0257947 O_TOT=      7.0086679 <-- SPRD
 Delta: O_D= -0.3343774E-12 O_OD= -0.2672931E-12 O_TOT= -0.6012968E-12 <-- DLTA
 ------------------------------------------------------------------------------
 Cycle:     50
  WF centre and spread    1  (  0.000001, -3.024017, -0.000000 )     2.33622198
  WF centre and spread    2  (  0.000001, -0.000000,  3.024017 )     2.33622179
  WF centre and spread    3  ( -3.024017,  0.000000,  0.000000 )     2.33622196
  Sum of centres and spreads ( -3.024016, -3.024017,  3.024017 )     7.00866573
 
     50    -0.142E-09     0.0000089483        7.0086679261       0.31  <-- CONV
        O_D=      0.0000000 O_OD=      0.0257947 O_TOT=      7.0086679 <-- SPRD
 Delta: O_D= -0.3252178E-10 O_OD= -0.1095694E-09 O_TOT= -0.1420908E-09 <-- DLTA
 ------------------------------------------------------------------------------
 Cycle:     51
  WF centre and spread    1  (  0.000001, -3.024017, -0.000000 )     2.33622198
  WF centre and spread    2  (  0.000001, -0.000000,  3.024017 )     2.33622179
  WF centre and spread    3  ( -3.024017,  0.000000,  0.000000 )     2.33622196
  Sum of centres and spreads ( -3.024016, -3.024017,  3.024017 )     7.00866573
 
     51    -0.361E-12     0.0000085646        7.0086679261       0.32  <-- CONV
        O_D=      0.0000000 O_OD=      0.0257947 O_TOT=      7.0086679 <-- SPRD
 Delta: O_D=  0.9092386E-13 O_OD= -0.4522563E-12 O_TOT= -0.3614886E-12 <-- DLTA
 ------------------------------------------------------------------------------
 Cycle:     52
  WF centre and spread    1  (  0.000001, -3.024017, -0.000000 )     2.33622198
  WF centre and spread    2  (  0.000001, -0.000000,  3.024017 )     2.33622179
  WF centre and spread    3  ( -3.024017,  0.000000,  0.000000 )     2.33622196
  Sum of centres and spreads ( -3.024016, -3.024017,  3.024017 )     7.00866573
 
     52    -0.638E-12     0.0000085794        7.0086679261       0.32  <-- CONV
        O_D=      0.0000000 O_OD=      0.0257947 O_TOT=      7.0086679 <-- SPRD
 Delta: O_D= -0.6722977E-13 O_OD= -0.5704673E-12 O_TOT= -0.6377121E-12 <-- DLTA
 ------------------------------------------------------------------------------
 Cycle:     53
  WF centre and spread    1  (  0.000001, -3.024017, -0.000000 )     2.33622198
  WF centre and spread    2  (  0.000001, -0.000000,  3.024017 )     2.33622179
  WF centre and spread    3  ( -3.024017,  0.000000,  0.000000 )     2.33622196
  Sum of centres and spreads ( -3.024016, -3.024017,  3.024017 )     7.00866573
 
     53    -0.915E-12     0.0000085848        7.0086679261       0.33  <-- CONV
        O_D=      0.0000000 O_OD=      0.0257947 O_TOT=      7.0086679 <-- SPRD
 Delta: O_D= -0.2266429E-12 O_OD= -0.6876028E-12 O_TOT= -0.9148238E-12 <-- DLTA
 ------------------------------------------------------------------------------
 Cycle:     54
  WF centre and spread    1  (  0.000001, -3.024017, -0.000000 )     2.33622198
  WF centre and spread    2  (  0.000001, -0.000000,  3.024017 )     2.33622179
  WF centre and spread    3  ( -3.024017,  0.000000,  0.000000 )     2.33622196
  Sum of centres and spreads ( -3.024016, -3.024017,  3.024017 )     7.00866573
 
     54    -0.275E-12     0.0000085808        7.0086679261       0.33  <-- CONV
        O_D=      0.0000000 O_OD=      0.0257947 O_TOT=      7.0086679 <-- SPRD
 Delta: O_D= -0.1591984E-12 O_OD= -0.1165630E-12 O_TOT= -0.2753353E-12 <-- DLTA
 ------------------------------------------------------------------------------
 Cycle:     55
  WF centre and spread    1  (  0.000001, -3.024017, -0.000000 )     2.33622198
  WF centre and spread    2  (  0.000001, -0.000000,  3.024017 )     2.33622179
  WF centre and spread    3  ( -3.024017,  0.000000,  0.000000 )     2.33622196
  Sum of centres and spreads ( -3.024016, -3.024017,  3.024017 )     7.00866573
 
     55    -0.550E-12     0.0000085713        7.0086679261       0.33  <-- CONV
        O_D=      0.0000000 O_OD=      0.0257947 O_TOT=      7.0086679 <-- SPRD
 Delta: O_D= -0.3168727E-12 O_OD= -0.2328832E-12 O_TOT= -0.5497824E-12 <-- DLTA
 ------------------------------------------------------------------------------
 Cycle:     56
  WF centre and spread    1  (  0.000001, -3.024017, -0.000000 )     2.33622198
  WF centre and spread    2  (  0.000001, -0.000000,  3.024017 )     2.33622179
  WF centre and spread    3  ( -3.024017,  0.000000,  0.000000 )     2.33622196
  Sum of centres and spreads ( -3.024016, -3.024017,  3.024017 )     7.00866573
 
     56    -0.114E-09     0.0000085524        7.0086679260       0.34  <-- CONV
        O_D=      0.0000000 O_OD=      0.0257947 O_TOT=      7.0086679 <-- SPRD
 Delta: O_D= -0.4111109E-10 O_OD= -0.7307934E-10 O_TOT= -0.1141904E-09 <-- DLTA
 ------------------------------------------------------------------------------
 Cycle:     57
  WF centre and spread    1  (  0.000001, -3.024017, -0.000000 )     2.33622198
  WF centre and spread    2  (  0.000001, -0.000000,  3.024017 )     2.33622179
  WF centre and spread    3  ( -3.024017,  0.000000,  0.000000 )     2.33622196
  Sum of centres and spreads ( -3.024016, -3.024017,  3.024017 )     7.00866573
 
     57    -0.308E-12     0.0000066620        7.0086679260       0.35  <-- CONV
        O_D=      0.0000000 O_OD=      0.0257947 O_TOT=      7.0086679 <-- SPRD
 Delta: O_D= -0.5173304E-14 O_OD= -0.3026017E-12 O_TOT= -0.3081979E-12 <-- DLTA
 ------------------------------------------------------------------------------
 Cycle:     58
  WF centre and spread    1  (  0.000001, -3.024017, -0.000000 )     2.33622198
  WF centre and spread    2  (  0.000001, -0.000000,  3.024017 )     2.33622179
  WF centre and spread    3  ( -3.024017,  0.000000,  0.000000 )     2.33622196
  Sum of centres and spreads ( -3.024016, -3.024017,  3.024017 )     7.00866573
 
     58    -0.474E-12     0.0000066685        7.0086679260       0.35  <-- CONV
        O_D=      0.0000000 O_OD=      0.0257947 O_TOT=      7.0086679 <-- SPRD
 Delta: O_D= -0.6695575E-13 O_OD= -0.4075663E-12 O_TOT= -0.4742873E-12 <-- DLTA
 ------------------------------------------------------------------------------
 Cycle:     59
  WF centre and spread    1  (  0.000001, -3.024017, -0.000000 )     2.33622198
  WF centre and spread    2  (  0.000001, -0.000000,  3.024017 )     2.33622179
  WF centre and spread    3  ( -3.024017,  0.000000,  0.000000 )     2.33622196
  Sum of centres and spreads ( -3.024016, -3.024017,  3.024017 )     7.00866573
 
     59    -0.642E-12     0.0000066717        7.0086679260       0.35  <-- CONV
        O_D=      0.0000000 O_OD=      0.0257947 O_TOT=      7.0086679 <-- SPRD
 Delta: O_D= -0.1292287E-12 O_OD= -0.5123783E-12 O_TOT= -0.6421530E-12 <-- DLTA
 ------------------------------------------------------------------------------
 Cycle:     60
  WF centre and spread    1  (  0.000001, -3.024017, -0.000000 )     2.33622198
  WF centre and spread    2  (  0.000001, -0.000000,  3.024017 )     2.33622179
  WF centre and spread    3  ( -3.024017,  0.000000,  0.000000 )     2.33622196
  Sum of centres and spreads ( -3.024016, -3.024017,  3.024017 )     7.00866573
 
     60    -0.166E-12     0.0000066715        7.0086679260       0.36  <-- CONV
        O_D=      0.0000000 O_OD=      0.0257947 O_TOT=      7.0086679 <-- SPRD
 Delta: O_D= -0.6239028E-13 O_OD= -0.1043228E-12 O_TOT= -0.1660894E-12 <-- DLTA
 ------------------------------------------------------------------------------
 Cycle:     61
  WF centre and spread    1  (  0.000001, -3.024017, -0.000000 )     2.33622198
  WF centre and spread    2  (  0.000001, -0.000000,  3.024017 )     2.33622179
  WF centre and spread    3  ( -3.024017,  0.000000,  0.000000 )     2.33622196
  Sum of centres and spreads ( -3.024016, -3.024017,  3.024017 )     7.00866573
 
     61    -0.333E-12     0.0000066681        7.0086679260       0.36  <-- CONV
        O_D=      0.0000000 O_OD=      0.0257947 O_TOT=      7.0086679 <-- SPRD
 Delta: O_D= -0.1244092E-12 O_OD= -0.2086005E-12 O_TOT= -0.3330669E-12 <-- DLTA
 ------------------------------------------------------------------------------
 Cycle:     62
  WF centre and spread    1  (  0.000001, -3.024017, -0.000000 )     2.33622198
  WF centre and spread    2  (  0.000001, -0.000000,  3.024017 )     2.33622179
  WF centre and spread    3  ( -3.024017,  0.000000,  0.000000 )     2.33622196
  Sum of centres and spreads ( -3.024016, -3.024017,  3.024017 )     7.00866573
 
     62    -0.498E-12     0.0000066613        7.0086679260       0.37  <-- CONV
        O_D=      0.0000000 O_OD=      0.0257947 O_TOT=      7.0086679 <-- SPRD
 Delta: O_D= -0.1856270E-12 O_OD= -0.3123612E-12 O_TOT= -0.4982681E-12 <-- DLTA
 ------------------------------------------------------------------------------
 Cycle:     63
  WF centre and spread    1  (  0.000001, -3.024017, -0.000000 )     2.33622198
  WF centre and spread    2  (  0.000001, -0.000000,  3.024017 )     2.33622179
  WF centre and spread    3  ( -3.024017,  0.000000,  0.000000 )     2.33622196
  Sum of centres and spreads ( -3.024016, -3.024017,  3.024017 )     7.00866573
 
     63    -0.661E-12     0.0000066511        7.0086679260       0.37  <-- CONV
        O_D=      0.0000000 O_OD=      0.0257947 O_TOT=      7.0086679 <-- SPRD
 Delta: O_D= -0.2456276E-12 O_OD= -0.4156814E-12 O_TOT= -0.6608047E-12 <-- DLTA
 ------------------------------------------------------------------------------
 Cycle:     64
  WF centre and spread    1  (  0.000001, -3.024017, -0.000000 )     2.33622198
  WF centre and spread    2  (  0.000001, -0.000000,  3.024017 )     2.33622179
  WF centre and spread    3  ( -3.024017,  0.000000,  0.000000 )     2.33622196
  Sum of centres and spreads ( -3.024016, -3.024017,  3.024017 )     7.00866573
 
     64    -0.822E-12     0.0000066377        7.0086679260       0.37  <-- CONV
        O_D=      0.0000000 O_OD=      0.0257947 O_TOT=      7.0086679 <-- SPRD
 Delta: O_D= -0.3040153E-12 O_OD= -0.5180682E-12 O_TOT= -0.8224532E-12 <-- DLTA
 ------------------------------------------------------------------------------
 Cycle:     65
  WF centre and spread    1  (  0.000001, -3.024017, -0.000000 )     2.33622198
  WF centre and spread    2  (  0.000001, -0.000000,  3.024017 )     2.33622179
  WF centre and spread    3  ( -3.024017,  0.000000,  0.000000 )     2.33622196
  Sum of centres and spreads ( -3.024016, -3.024017,  3.024017 )     7.00866573
 
     65    -0.980E-12     0.0000066212        7.0086679260       0.38  <-- CONV
        O_D=      0.0000000 O_OD=      0.0257947 O_TOT=      7.0086679 <-- SPRD
 Delta: O_D= -0.3604222E-12 O_OD= -0.6192512E-12 O_TOT= -0.9796608E-12 <-- DLTA
 ------------------------------------------------------------------------------
 Cycle:     66
  WF centre and spread    1  (  0.000001, -3.024017, -0.000000 )     2.33622198
  WF centre and spread    2  (  0.000001, -0.000000,  3.024017 )     2.33622179
  WF centre and spread    3  ( -3.024017,  0.000000,  0.000000 )     2.33622196
  Sum of centres and spreads ( -3.024016, -3.024017,  3.024017 )     7.00866573
 
     66    -0.163E-12     0.0000066017        7.0086679260       0.38  <-- CONV
        O_D=      0.0000000 O_OD=      0.0257947 O_TOT=      7.0086679 <-- SPRD
 Delta: O_D= -0.5927205E-13 O_OD= -0.1040314E-12 O_TOT= -0.1625367E-12 <-- DLTA
 ------------------------------------------------------------------------------
 Cycle:     67
  WF centre and spread    1  (  0.000001, -3.024017, -0.000000 )     2.33622198
  WF centre and spread    2  (  0.000001, -0.000000,  3.024017 )     2.33622179
  WF centre and spread    3  ( -3.024017,  0.000000,  0.000000 )     2.33622196
  Sum of centres and spreads ( -3.024016, -3.024017,  3.024017 )     7.00866573
 
     67    -0.326E-12     0.0000065985        7.0086679260       0.39  <-- CONV
        O_D=      0.0000000 O_OD=      0.0257947 O_TOT=      7.0086679 <-- SPRD
 Delta: O_D= -0.1182077E-12 O_OD= -0.2078338E-12 O_TOT= -0.3259615E-12 <-- DLTA
 ------------------------------------------------------------------------------
 Cycle:     68
  WF centre and spread    1  (  0.000001, -3.024017, -0.000000 )     2.33622198
  WF centre and spread    2  (  0.000001, -0.000000,  3.024017 )     2.33622179
  WF centre and spread    3  ( -3.024017,  0.000000,  0.000000 )     2.33622196
  Sum of centres and spreads ( -3.024016, -3.024017,  3.024017 )     7.00866573
 
     68    -0.488E-12     0.0000065922        7.0086679260       0.39  <-- CONV
        O_D=      0.0000000 O_OD=      0.0257947 O_TOT=      7.0086679 <-- SPRD
 Delta: O_D= -0.1764187E-12 O_OD= -0.3115078E-12 O_TOT= -0.4884981E-12 <-- DLTA
 ------------------------------------------------------------------------------
 Cycle:     69
  WF centre and spread    1  (  0.000001, -3.024017, -0.000000 )     2.33622198
  WF centre and spread    2  (  0.000001, -0.000000,  3.024017 )     2.33622179
  WF centre and spread    3  ( -3.024017,  0.000000,  0.000000 )     2.33622196
  Sum of centres and spreads ( -3.024016, -3.024017,  3.024017 )     7.00866573
 
     69    -0.647E-12     0.0000065828        7.0086679260       0.39  <-- CONV
        O_D=      0.0000000 O_OD=      0.0257947 O_TOT=      7.0086679 <-- SPRD
 Delta: O_D= -0.2335286E-12 O_OD= -0.4142658E-12 O_TOT= -0.6474821E-12 <-- DLTA
 ------------------------------------------------------------------------------
 Cycle:     70
  WF centre and spread    1  (  0.000001, -3.024017, -0.000000 )     2.33622198
  WF centre and spread    2  (  0.000001, -0.000000,  3.024017 )     2.33622179
  WF centre and spread    3  ( -3.024017,  0.000000,  0.000000 )     2.33622196
  Sum of centres and spreads ( -3.024016, -3.024017,  3.024017 )     7.00866573
 
     70    -0.806E-12     0.0000065704        7.0086679260       0.40  <-- CONV
        O_D=      0.0000000 O_OD=      0.0257947 O_TOT=      7.0086679 <-- SPRD
 Delta: O_D= -0.2891790E-12 O_OD= -0.5165070E-12 O_TOT= -0.8064660E-12 <-- DLTA
 ------------------------------------------------------------------------------
 Cycle:     71
  WF centre and spread    1  (  0.000001, -3.024017, -0.000000 )     2.33622198
  WF centre and spread    2  (  0.000001, -0.000000,  3.024017 )     2.33622179
  WF centre and spread    3  ( -3.024017,  0.000000,  0.000000 )     2.33622196
  Sum of centres and spreads ( -3.024016, -3.024017,  3.024017 )     7.00866573
 
     71    -0.159E-09     0.0000065551        7.0086679258       0.41  <-- CONV
        O_D=      0.0000000 O_OD=      0.0257947 O_TOT=      7.0086679 <-- SPRD
 Delta: O_D= -0.7116887E-11 O_OD= -0.1521351E-09 O_TOT= -0.1592513E-09 <-- DLTA
 ------------------------------------------------------------------------------
 Cycle:     72
  WF centre and spread    1  (  0.000001, -3.024017, -0.000000 )     2.33622198
  WF centre and spread    2  (  0.000001, -0.000000,  3.024017 )     2.33622179
  WF centre and spread    3  ( -3.024017,  0.000000,  0.000000 )     2.33622196
  Sum of centres and spreads ( -3.024016, -3.024017,  3.024017 )     7.00866573
 
     72    -0.304E-12     0.0000089949        7.0086679258       0.41  <-- CONV
        O_D=      0.0000000 O_OD=      0.0257947 O_TOT=      7.0086679 <-- SPRD
 Delta: O_D= -0.2212588E-12 O_OD= -0.8172976E-13 O_TOT= -0.3037570E-12 <-- DLTA
 ------------------------------------------------------------------------------
 Cycle:     73
  WF centre and spread    1  (  0.000001, -3.024017, -0.000000 )     2.33622198
  WF centre and spread    2  (  0.000001, -0.000000,  3.024017 )     2.33622179
  WF centre and spread    3  ( -3.024017,  0.000000,  0.000000 )     2.33622196
  Sum of centres and spreads ( -3.024016, -3.024017,  3.024017 )     7.00866573
 
     73    -0.731E-10     0.0000089810        7.0086679257       0.42  <-- CONV
        O_D=      0.0000000 O_OD=      0.0257947 O_TOT=      7.0086679 <-- SPRD
 Delta: O_D= -0.4726041E-10 O_OD= -0.2584560E-10 O_TOT= -0.7310508E-10 <-- DLTA
 ------------------------------------------------------------------------------
 Cycle:     74
  WF centre and spread    1  (  0.000001, -3.024017, -0.000000 )     2.33622198
  WF centre and spread    2  (  0.000001, -0.000000,  3.024017 )     2.33622179
  WF centre and spread    3  ( -3.024017,  0.000000,  0.000000 )     2.33622196
  Sum of centres and spreads ( -3.024016, -3.024017,  3.024017 )     7.00866573
 
     74    -0.223E-12     0.0000054531        7.0086679257       0.42  <-- CONV
        O_D=      0.0000000 O_OD=      0.0257947 O_TOT=      7.0086679 <-- SPRD
 Delta: O_D= -0.8811728E-13 O_OD= -0.1346839E-12 O_TOT= -0.2229328E-12 <-- DLTA
 ------------------------------------------------------------------------------
 Cycle:     75
  WF centre and spread    1  (  0.000001, -3.024017, -0.000000 )     2.33622198
  WF centre and spread    2  (  0.000001, -0.000000,  3.024017 )     2.33622179
  WF centre and spread    3  ( -3.024017,  0.000000,  0.000000 )     2.33622196
  Sum of centres and spreads ( -3.024016, -3.024017,  3.024017 )     7.00866573
 
     75    -0.333E-12     0.0000054468        7.0086679257       0.43  <-- CONV
        O_D=      0.0000000 O_OD=      0.0257947 O_TOT=      7.0086679 <-- SPRD
 Delta: O_D= -0.1218646E-12 O_OD= -0.2110048E-12 O_TOT= -0.3330669E-12 <-- DLTA
 ------------------------------------------------------------------------------
 Cycle:     76
  WF centre and spread    1  (  0.000001, -3.024017, -0.000000 )     2.33622198
  WF centre and spread    2  (  0.000001, -0.000000,  3.024017 )     2.33622179
  WF centre and spread    3  ( -3.024017,  0.000000,  0.000000 )     2.33622196
  Sum of centres and spreads ( -3.024016, -3.024017,  3.024017 )     7.00866573
 
     76    -0.442E-12     0.0000054388        7.0086679257       0.43  <-- CONV
        O_D=      0.0000000 O_OD=      0.0257947 O_TOT=      7.0086679 <-- SPRD
 Delta: O_D= -0.1548758E-12 O_OD= -0.2869614E-12 O_TOT= -0.4423129E-12 <-- DLTA
 ------------------------------------------------------------------------------
 Cycle:     77
  WF centre and spread    1  (  0.000001, -3.024017, -0.000000 )     2.33622198
  WF centre and spread    2  (  0.000001, -0.000000,  3.024017 )     2.33622179
  WF centre and spread    3  ( -3.024017,  0.000000,  0.000000 )     2.33622196
  Sum of centres and spreads ( -3.024016, -3.024017,  3.024017 )     7.00866573
 
     77    -0.549E-12     0.0000054291        7.0086679257       0.43  <-- CONV
        O_D=      0.0000000 O_OD=      0.0257947 O_TOT=      7.0086679 <-- SPRD
 Delta: O_D= -0.1870069E-12 O_OD= -0.3624080E-12 O_TOT= -0.5488943E-12 <-- DLTA
 ------------------------------------------------------------------------------
 Cycle:     78
  WF centre and spread    1  (  0.000001, -3.024017, -0.000000 )     2.33622198
  WF centre and spread    2  (  0.000001, -0.000000,  3.024017 )     2.33622179
  WF centre and spread    3  ( -3.024017,  0.000000,  0.000000 )     2.33622196
  Sum of centres and spreads ( -3.024016, -3.024017,  3.024017 )     7.00866573
 
     78    -0.110E-12     0.0000054179        7.0086679257       0.44  <-- CONV
        O_D=      0.0000000 O_OD=      0.0257947 O_TOT=      7.0086679 <-- SPRD
 Delta: O_D= -0.3348029E-13 O_OD= -0.7650477E-13 O_TOT= -0.1101341E-12 <-- DLTA
 ------------------------------------------------------------------------------
 Cycle:     79
  WF centre and spread    1  (  0.000001, -3.024017, -0.000000 )     2.33622198
  WF centre and spread    2  (  0.000001, -0.000000,  3.024017 )     2.33622179
  WF centre and spread    3  ( -3.024017,  0.000000,  0.000000 )     2.33622196
  Sum of centres and spreads ( -3.024016, -3.024017,  3.024017 )     7.00866573
 
     79    -0.219E-12     0.0000054162        7.0086679257       0.44  <-- CONV
        O_D=      0.0000000 O_OD=      0.0257947 O_TOT=      7.0086679 <-- SPRD
 Delta: O_D= -0.6682684E-13 O_OD= -0.1529610E-12 O_TOT= -0.2193801E-12 <-- DLTA
 ------------------------------------------------------------------------------
 Cycle:     80
  WF centre and spread    1  (  0.000001, -3.024017, -0.000000 )     2.33622198
  WF centre and spread    2  (  0.000001, -0.000000,  3.024017 )     2.33622179
  WF centre and spread    3  ( -3.024017,  0.000000,  0.000000 )     2.33622196
  Sum of centres and spreads ( -3.024016, -3.024017,  3.024017 )     7.00866573
 
     80    -0.330E-12     0.0000054128        7.0086679257       0.45  <-- CONV
        O_D=      0.0000000 O_OD=      0.0257947 O_TOT=      7.0086679 <-- SPRD
 Delta: O_D= -0.9988675E-13 O_OD= -0.2291362E-12 O_TOT= -0.3295142E-12 <-- DLTA
 ------------------------------------------------------------------------------
 Cycle:     81
  WF centre and spread    1  (  0.000001, -3.024017, -0.000000 )     2.33622198
  WF centre and spread    2  (  0.000001, -0.000000,  3.024017 )     2.33622179
  WF centre and spread    3  ( -3.024017,  0.000000,  0.000000 )     2.33622196
  Sum of centres and spreads ( -3.024016, -3.024017,  3.024017 )     7.00866573
 
     81    -0.438E-12     0.0000054078        7.0086679257       0.45  <-- CONV
        O_D=      0.0000000 O_OD=      0.0257947 O_TOT=      7.0086679 <-- SPRD
 Delta: O_D= -0.1325110E-12 O_OD= -0.3051795E-12 O_TOT= -0.4378720E-12 <-- DLTA
 ------------------------------------------------------------------------------
 Cycle:     82
  WF centre and spread    1  (  0.000001, -3.024017, -0.000000 )     2.33622198
  WF centre and spread    2  (  0.000001, -0.000000,  3.024017 )     2.33622179
  WF centre and spread    3  ( -3.024017,  0.000000,  0.000000 )     2.33622196
  Sum of centres and spreads ( -3.024016, -3.024017,  3.024017 )     7.00866573
 
     82    -0.544E-12     0.0000054012        7.0086679257       0.45  <-- CONV
        O_D=      0.0000000 O_OD=      0.0257947 O_TOT=      7.0086679 <-- SPRD
 Delta: O_D= -0.1645568E-12 O_OD= -0.3806018E-12 O_TOT= -0.5444534E-12 <-- DLTA
 ------------------------------------------------------------------------------
 Cycle:     83
  WF centre and spread    1  (  0.000001, -3.024017, -0.000000 )     2.33622198
  WF centre and spread    2  (  0.000001, -0.000000,  3.024017 )     2.33622179
  WF centre and spread    3  ( -3.024017,  0.000000,  0.000000 )     2.33622196
  Sum of centres and spreads ( -3.024016, -3.024017,  3.024017 )     7.00866573
 
     83    -0.652E-12     0.0000053930        7.0086679257       0.46  <-- CONV
        O_D=      0.0000000 O_OD=      0.0257947 O_TOT=      7.0086679 <-- SPRD
 Delta: O_D= -0.1958892E-12 O_OD= -0.4556355E-12 O_TOT= -0.6519230E-12 <-- DLTA
 ------------------------------------------------------------------------------
 Cycle:     84
  WF centre and spread    1  (  0.000001, -3.024017, -0.000000 )     2.33622198
  WF centre and spread    2  (  0.000001, -0.000000,  3.024017 )     2.33622179
  WF centre and spread    3  ( -3.024017,  0.000000,  0.000000 )     2.33622196
  Sum of centres and spreads ( -3.024016, -3.024017,  3.024017 )     7.00866573
 
     84    -0.108E-12     0.0000053833        7.0086679257       0.46  <-- CONV
        O_D=      0.0000000 O_OD=      0.0257947 O_TOT=      7.0086679 <-- SPRD
 Delta: O_D= -0.3233254E-13 O_OD= -0.7626538E-13 O_TOT= -0.1083578E-12 <-- DLTA
 ------------------------------------------------------------------------------
 Cycle:     85
  WF centre and spread    1  (  0.000001, -3.024017, -0.000000 )     2.33622198
  WF centre and spread    2  (  0.000001, -0.000000,  3.024017 )     2.33622179
  WF centre and spread    3  ( -3.024017,  0.000000,  0.000000 )     2.33622196
  Sum of centres and spreads ( -3.024016, -3.024017,  3.024017 )     7.00866573
 
     85    -0.218E-12     0.0000053817        7.0086679257       0.47  <-- CONV
        O_D=      0.0000000 O_OD=      0.0257947 O_TOT=      7.0086679 <-- SPRD
 Delta: O_D= -0.6454329E-13 O_OD= -0.1524371E-12 O_TOT= -0.2176037E-12 <-- DLTA
 ------------------------------------------------------------------------------
 Cycle:     86
  WF centre and spread    1  (  0.000001, -3.024017, -0.000000 )     2.33622198
  WF centre and spread    2  (  0.000001, -0.000000,  3.024017 )     2.33622179
  WF centre and spread    3  ( -3.024017,  0.000000,  0.000000 )     2.33622196
  Sum of centres and spreads ( -3.024016, -3.024017,  3.024017 )     7.00866573
 
     86    -0.325E-12     0.0000053786        7.0086679257       0.47  <-- CONV
        O_D=      0.0000000 O_OD=      0.0257947 O_TOT=      7.0086679 <-- SPRD
 Delta: O_D= -0.9649306E-13 O_OD= -0.2284596E-12 O_TOT= -0.3250733E-12 <-- DLTA
 ------------------------------------------------------------------------------
 Cycle:     87
  WF centre and spread    1  (  0.000001, -3.024017, -0.000000 )     2.33622198
  WF centre and spread    2  (  0.000001, -0.000000,  3.024017 )     2.33622179
  WF centre and spread    3  ( -3.024017,  0.000000,  0.000000 )     2.33622196
  Sum of centres and spreads ( -3.024016, -3.024017,  3.024017 )     7.00866573
 
     87    -0.432E-12     0.0000053739        7.0086679257       0.47  <-- CONV
        O_D=      0.0000000 O_OD=      0.0257947 O_TOT=      7.0086679 <-- SPRD
 Delta: O_D= -0.1280462E-12 O_OD= -0.3041803E-12 O_TOT= -0.4316547E-12 <-- DLTA
 ------------------------------------------------------------------------------
 Cycle:     88
  WF centre and spread    1  (  0.000001, -3.024017, -0.000000 )     2.33622198
  WF centre and spread    2  (  0.000001, -0.000000,  3.024017 )     2.33622179
  WF centre and spread    3  ( -3.024017,  0.000000,  0.000000 )     2.33622196
  Sum of centres and spreads ( -3.024016, -3.024017,  3.024017 )     7.00866573
 
     88    -0.539E-12     0.0000053678        7.0086679257       0.48  <-- CONV
        O_D=      0.0000000 O_OD=      0.0257947 O_TOT=      7.0086679 <-- SPRD
 Delta: O_D= -0.1590723E-12 O_OD= -0.3795020E-12 O_TOT= -0.5391243E-12 <-- DLTA
 ------------------------------------------------------------------------------
 Cycle:     89
  WF centre and spread    1  (  0.000001, -3.024017, -0.000000 )     2.33622198
  WF centre and spread    2  (  0.000001, -0.000000,  3.024017 )     2.33622179
  WF centre and spread    3  ( -3.024017,  0.000000,  0.000000 )     2.33622196
  Sum of centres and spreads ( -3.024016, -3.024017,  3.024017 )     7.00866573
 
     89    -0.643E-12     0.0000053601        7.0086679257       0.48  <-- CONV
        O_D=      0.0000000 O_OD=      0.0257947 O_TOT=      7.0086679 <-- SPRD
 Delta: O_D= -0.1894484E-12 O_OD= -0.4543345E-12 O_TOT= -0.6430412E-12 <-- DLTA
 ------------------------------------------------------------------------------
 Cycle:     90
  WF centre and spread    1  (  0.000001, -3.024017, -0.000000 )     2.33622198
  WF centre and spread    2  (  0.000001, -0.000000,  3.024017 )     2.33622179
  WF centre and spread    3  ( -3.024017,  0.000000,  0.000000 )     2.33622196
  Sum of centres and spreads ( -3.024016, -3.024017,  3.024017 )     7.00866573
 
     90    -0.107E-12     0.0000053511        7.0086679257       0.49  <-- CONV
        O_D=      0.0000000 O_OD=      0.0257947 O_TOT=      7.0086679 <-- SPRD
 Delta: O_D= -0.3128591E-13 O_OD= -0.7599477E-13 O_TOT= -0.1074696E-12 <-- DLTA
 ------------------------------------------------------------------------------
 Cycle:     91
  WF centre and spread    1  (  0.000001, -3.024017, -0.000000 )     2.33622198
  WF centre and spread    2  (  0.000001, -0.000000,  3.024017 )     2.33622179
  WF centre and spread    3  ( -3.024017,  0.000000,  0.000000 )     2.33622196
  Sum of centres and spreads ( -3.024016, -3.024017,  3.024017 )     7.00866573
 
     91    -0.215E-12     0.0000053496        7.0086679257       0.49  <-- CONV
        O_D=      0.0000000 O_OD=      0.0257947 O_TOT=      7.0086679 <-- SPRD
 Delta: O_D= -0.6246080E-13 O_OD= -0.1519375E-12 O_TOT= -0.2149392E-12 <-- DLTA
 ------------------------------------------------------------------------------
 Cycle:     92
  WF centre and spread    1  (  0.000001, -3.024017, -0.000000 )     2.33622198
  WF centre and spread    2  (  0.000001, -0.000000,  3.024017 )     2.33622179
  WF centre and spread    3  ( -3.024017,  0.000000,  0.000000 )     2.33622196
  Sum of centres and spreads ( -3.024016, -3.024017,  3.024017 )     7.00866573
 
     92    -0.321E-12     0.0000053467        7.0086679257       0.49  <-- CONV
        O_D=      0.0000000 O_OD=      0.0257947 O_TOT=      7.0086679 <-- SPRD
 Delta: O_D= -0.9339785E-13 O_OD= -0.2276582E-12 O_TOT= -0.3206324E-12 <-- DLTA
 ------------------------------------------------------------------------------
 Cycle:     93
  WF centre and spread    1  (  0.000001, -3.024017, -0.000000 )     2.33622198
  WF centre and spread    2  (  0.000001, -0.000000,  3.024017 )     2.33622179
  WF centre and spread    3  ( -3.024017,  0.000000,  0.000000 )     2.33622196
  Sum of centres and spreads ( -3.024016, -3.024017,  3.024017 )     7.00866573
 
     93    -0.426E-12     0.0000053423        7.0086679257       0.50  <-- CONV
        O_D=      0.0000000 O_OD=      0.0257947 O_TOT=      7.0086679 <-- SPRD
 Delta: O_D= -0.1239733E-12 O_OD= -0.3031915E-12 O_TOT= -0.4263256E-12 <-- DLTA
 ------------------------------------------------------------------------------
 Cycle:     94
  WF centre and spread    1  (  0.000001, -3.024017, -0.000000 )     2.33622198
  WF centre and spread    2  (  0.000001, -0.000000,  3.024017 )     2.33622179
  WF centre and spread    3  ( -3.024017,  0.000000,  0.000000 )     2.33622196
  Sum of centres and spreads ( -3.024016, -3.024017,  3.024017 )     7.00866573
 
     94    -0.533E-12     0.0000053366        7.0086679257       0.50  <-- CONV
        O_D=      0.0000000 O_OD=      0.0257947 O_TOT=      7.0086679 <-- SPRD
 Delta: O_D= -0.1540683E-12 O_OD= -0.3783987E-12 O_TOT= -0.5329071E-12 <-- DLTA
 ------------------------------------------------------------------------------
 Cycle:     95
  WF centre and spread    1  (  0.000001, -3.024017, -0.000000 )     2.33622198
  WF centre and spread    2  (  0.000001, -0.000000,  3.024017 )     2.33622179
  WF centre and spread    3  ( -3.024017,  0.000000,  0.000000 )     2.33622196
  Sum of centres and spreads ( -3.024016, -3.024017,  3.024017 )     7.00866573
 
     95    -0.637E-12     0.0000053294        7.0086679257       0.51  <-- CONV
        O_D=      0.0000000 O_OD=      0.0257947 O_TOT=      7.0086679 <-- SPRD
 Delta: O_D= -0.1835702E-12 O_OD= -0.4529536E-12 O_TOT= -0.6368239E-12 <-- DLTA
 ------------------------------------------------------------------------------
 Cycle:     96
  WF centre and spread    1  (  0.000001, -3.024017, -0.000000 )     2.33622198
  WF centre and spread    2  (  0.000001, -0.000000,  3.024017 )     2.33622179
  WF centre and spread    3  ( -3.024017,  0.000000,  0.000000 )     2.33622196
  Sum of centres and spreads ( -3.024016, -3.024017,  3.024017 )     7.00866573
 
     96    -0.107E-12     0.0000053210        7.0086679257       0.51  <-- CONV
        O_D=      0.0000000 O_OD=      0.0257947 O_TOT=      7.0086679 <-- SPRD
 Delta: O_D= -0.3033098E-13 O_OD= -0.7574497E-13 O_TOT= -0.1065814E-12 <-- DLTA
 ------------------------------------------------------------------------------
 Cycle:     97
  WF centre and spread    1  (  0.000001, -3.024017, -0.000000 )     2.33622198
  WF centre and spread    2  (  0.000001, -0.000000,  3.024017 )     2.33622179
  WF centre and spread    3  ( -3.024017,  0.000000,  0.000000 )     2.33622196
  Sum of centres and spreads ( -3.024016, -3.024017,  3.024017 )     7.00866573
 
[...]
  Sum of centres and spreads ( -3.024016, -3.024017,  3.024017 )     7.00866573
 
    473    -0.478E-12     0.0000046149        7.0086679256       2.07  <-- CONV
        O_D=      0.0000000 O_OD=      0.0257947 O_TOT=      7.0086679 <-- SPRD
 Delta: O_D= -0.1067978E-12 O_OD= -0.3716159E-12 O_TOT= -0.4778400E-12 <-- DLTA
 ------------------------------------------------------------------------------
 Cycle:    474
  WF centre and spread    1  (  0.000001, -3.024017, -0.000000 )     2.33622198
  WF centre and spread    2  (  0.000001, -0.000000,  3.024017 )     2.33622179
  WF centre and spread    3  ( -3.024017,  0.000000,  0.000000 )     2.33622196
  Sum of centres and spreads ( -3.024016, -3.024017,  3.024017 )     7.00866573
 
    474    -0.799E-13     0.0000046128        7.0086679256       2.07  <-- CONV
        O_D=      0.0000000 O_OD=      0.0257947 O_TOT=      7.0086679 <-- SPRD
 Delta: O_D= -0.1779832E-13 O_OD= -0.6196779E-13 O_TOT= -0.7993606E-13 <-- DLTA
 ------------------------------------------------------------------------------
 Cycle:    475
  WF centre and spread    1  (  0.000001, -3.024017, -0.000000 )     2.33622198
  WF centre and spread    2  (  0.000001, -0.000000,  3.024017 )     2.33622179
  WF centre and spread    3  ( -3.024017,  0.000000,  0.000000 )     2.33622196
  Sum of centres and spreads ( -3.024016, -3.024017,  3.024017 )     7.00866573
 
    475    -0.160E-12     0.0000046124        7.0086679256       2.08  <-- CONV
        O_D=      0.0000000 O_OD=      0.0257947 O_TOT=      7.0086679 <-- SPRD
 Delta: O_D= -0.3558828E-13 O_OD= -0.1238488E-12 O_TOT= -0.1598721E-12 <-- DLTA
 ------------------------------------------------------------------------------
 Cycle:    476
  WF centre and spread    1  (  0.000001, -3.024017, -0.000000 )     2.33622198
  WF centre and spread    2  (  0.000001, -0.000000,  3.024017 )     2.33622179
  WF centre and spread    3  ( -3.024017,  0.000000,  0.000000 )     2.33622196
  Sum of centres and spreads ( -3.024016, -3.024017,  3.024017 )     7.00866573
 
    476    -0.239E-12     0.0000046117        7.0086679256       2.08  <-- CONV
        O_D=      0.0000000 O_OD=      0.0257947 O_TOT=      7.0086679 <-- SPRD
 Delta: O_D= -0.5335881E-13 O_OD= -0.1856640E-12 O_TOT= -0.2389200E-12 <-- DLTA
 ------------------------------------------------------------------------------
 Cycle:    477
  WF centre and spread    1  (  0.000001, -3.024017, -0.000000 )     2.33622198
  WF centre and spread    2  (  0.000001, -0.000000,  3.024017 )     2.33622179
  WF centre and spread    3  ( -3.024017,  0.000000,  0.000000 )     2.33622196
  Sum of centres and spreads ( -3.024016, -3.024017,  3.024017 )     7.00866573
 
    477    -0.318E-12     0.0000046107        7.0086679256       2.09  <-- CONV
        O_D=      0.0000000 O_OD=      0.0257947 O_TOT=      7.0086679 <-- SPRD
 Delta: O_D= -0.7109888E-13 O_OD= -0.2474028E-12 O_TOT= -0.3179679E-12 <-- DLTA
 ------------------------------------------------------------------------------
 Cycle:    478
  WF centre and spread    1  (  0.000001, -3.024017, -0.000000 )     2.33622198
  WF centre and spread    2  (  0.000001, -0.000000,  3.024017 )     2.33622179
  WF centre and spread    3  ( -3.024017,  0.000000,  0.000000 )     2.33622196
  Sum of centres and spreads ( -3.024016, -3.024017,  3.024017 )     7.00866573
 
    478    -0.398E-12     0.0000046092        7.0086679256       2.09  <-- CONV
        O_D=      0.0000000 O_OD=      0.0257947 O_TOT=      7.0086679 <-- SPRD
 Delta: O_D= -0.8879747E-13 O_OD= -0.3091451E-12 O_TOT= -0.3979039E-12 <-- DLTA
 ------------------------------------------------------------------------------
 Cycle:    479
  WF centre and spread    1  (  0.000001, -3.024017, -0.000000 )     2.33622198
  WF centre and spread    2  (  0.000001, -0.000000,  3.024017 )     2.33622179
  WF centre and spread    3  ( -3.024017,  0.000000,  0.000000 )     2.33622196
  Sum of centres and spreads ( -3.024016, -3.024017,  3.024017 )     7.00866573
 
    479    -0.477E-12     0.0000046075        7.0086679256       2.09  <-- CONV
        O_D=      0.0000000 O_OD=      0.0257947 O_TOT=      7.0086679 <-- SPRD
 Delta: O_D= -0.1064436E-12 O_OD= -0.3704190E-12 O_TOT= -0.4769518E-12 <-- DLTA
 ------------------------------------------------------------------------------
 Cycle:    480
  WF centre and spread    1  (  0.000001, -3.024017, -0.000000 )     2.33622198
  WF centre and spread    2  (  0.000001, -0.000000,  3.024017 )     2.33622179
  WF centre and spread    3  ( -3.024017,  0.000000,  0.000000 )     2.33622196
  Sum of centres and spreads ( -3.024016, -3.024017,  3.024017 )     7.00866573
 
    480    -0.799E-13     0.0000046054        7.0086679256       2.10  <-- CONV
        O_D=      0.0000000 O_OD=      0.0257947 O_TOT=      7.0086679 <-- SPRD
 Delta: O_D= -0.1773934E-13 O_OD= -0.6167983E-13 O_TOT= -0.7993606E-13 <-- DLTA
 ------------------------------------------------------------------------------
 Cycle:    481
  WF centre and spread    1  (  0.000001, -3.024017, -0.000000 )     2.33622198
  WF centre and spread    2  (  0.000001, -0.000000,  3.024017 )     2.33622179
  WF centre and spread    3  ( -3.024017,  0.000000,  0.000000 )     2.33622196
  Sum of centres and spreads ( -3.024016, -3.024017,  3.024017 )     7.00866573
 
    481    -0.159E-12     0.0000046050        7.0086679256       2.10  <-- CONV
        O_D=      0.0000000 O_OD=      0.0257947 O_TOT=      7.0086679 <-- SPRD
 Delta: O_D= -0.3547038E-13 O_OD= -0.1234811E-12 O_TOT= -0.1589839E-12 <-- DLTA
 ------------------------------------------------------------------------------
 Cycle:    482
  WF centre and spread    1  (  0.000001, -3.024017, -0.000000 )     2.33622198
  WF centre and spread    2  (  0.000001, -0.000000,  3.024017 )     2.33622179
  WF centre and spread    3  ( -3.024017,  0.000000,  0.000000 )     2.33622196
  Sum of centres and spreads ( -3.024016, -3.024017,  3.024017 )     7.00866573
 
    482    -0.238E-12     0.0000046043        7.0086679256       2.11  <-- CONV
        O_D=      0.0000000 O_OD=      0.0257947 O_TOT=      7.0086679 <-- SPRD
 Delta: O_D= -0.5318208E-13 O_OD= -0.1850985E-12 O_TOT= -0.2380318E-12 <-- DLTA
 ------------------------------------------------------------------------------
 Cycle:    483
  WF centre and spread    1  (  0.000001, -3.024017, -0.000000 )     2.33622198
  WF centre and spread    2  (  0.000001, -0.000000,  3.024017 )     2.33622179
  WF centre and spread    3  ( -3.024017,  0.000000,  0.000000 )     2.33622196
  Sum of centres and spreads ( -3.024016, -3.024017,  3.024017 )     7.00866573
 
    483    -0.318E-12     0.0000046033        7.0086679256       2.11  <-- CONV
        O_D=      0.0000000 O_OD=      0.0257947 O_TOT=      7.0086679 <-- SPRD
 Delta: O_D= -0.7086346E-13 O_OD= -0.2467714E-12 O_TOT= -0.3179679E-12 <-- DLTA
 ------------------------------------------------------------------------------
 Cycle:    484
  WF centre and spread    1  (  0.000001, -3.024017, -0.000000 )     2.33622198
  WF centre and spread    2  (  0.000001, -0.000000,  3.024017 )     2.33622179
  WF centre and spread    3  ( -3.024017,  0.000000,  0.000000 )     2.33622196
  Sum of centres and spreads ( -3.024016, -3.024017,  3.024017 )     7.00866573
 
    484    -0.396E-12     0.0000046018        7.0086679256       2.11  <-- CONV
        O_D=      0.0000000 O_OD=      0.0257947 O_TOT=      7.0086679 <-- SPRD
 Delta: O_D= -0.8850356E-13 O_OD= -0.3079689E-12 O_TOT= -0.3961276E-12 <-- DLTA
 ------------------------------------------------------------------------------
 Cycle:    485
  WF centre and spread    1  (  0.000001, -3.024017, -0.000000 )     2.33622198
  WF centre and spread    2  (  0.000001, -0.000000,  3.024017 )     2.33622179
  WF centre and spread    3  ( -3.024017,  0.000000,  0.000000 )     2.33622196
  Sum of centres and spreads ( -3.024016, -3.024017,  3.024017 )     7.00866573
 
    485    -0.476E-12     0.0000046001        7.0086679256       2.12  <-- CONV
        O_D=      0.0000000 O_OD=      0.0257947 O_TOT=      7.0086679 <-- SPRD
 Delta: O_D= -0.1060915E-12 O_OD= -0.3693122E-12 O_TOT= -0.4760636E-12 <-- DLTA
 ------------------------------------------------------------------------------
 Cycle:    486
  WF centre and spread    1  (  0.000001, -3.024017, -0.000000 )     2.33622198
  WF centre and spread    2  (  0.000001, -0.000000,  3.024017 )     2.33622179
  WF centre and spread    3  ( -3.024017,  0.000000,  0.000000 )     2.33622196
  Sum of centres and spreads ( -3.024016, -3.024017,  3.024017 )     7.00866573
 
    486    -0.790E-13     0.0000045980        7.0086679256       2.12  <-- CONV
        O_D=      0.0000000 O_OD=      0.0257947 O_TOT=      7.0086679 <-- SPRD
 Delta: O_D= -0.1768071E-13 O_OD= -0.6152717E-13 O_TOT= -0.7904788E-13 <-- DLTA
 ------------------------------------------------------------------------------
 Cycle:    487
  WF centre and spread    1  (  0.000001, -3.024017, -0.000000 )     2.33622198
  WF centre and spread    2  (  0.000001, -0.000000,  3.024017 )     2.33622179
  WF centre and spread    3  ( -3.024017,  0.000000,  0.000000 )     2.33622196
  Sum of centres and spreads ( -3.024016, -3.024017,  3.024017 )     7.00866573
 
    487    -0.157E-12     0.0000045976        7.0086679256       2.13  <-- CONV
        O_D=      0.0000000 O_OD=      0.0257947 O_TOT=      7.0086679 <-- SPRD
 Delta: O_D= -0.3535314E-13 O_OD= -0.1230613E-12 O_TOT= -0.1572076E-12 <-- DLTA
 ------------------------------------------------------------------------------
 Cycle:    488
  WF centre and spread    1  (  0.000001, -3.024017, -0.000000 )     2.33622198
  WF centre and spread    2  (  0.000001, -0.000000,  3.024017 )     2.33622179
  WF centre and spread    3  ( -3.024017,  0.000000,  0.000000 )     2.33622196
  Sum of centres and spreads ( -3.024016, -3.024017,  3.024017 )     7.00866573
 
    488    -0.238E-12     0.0000045969        7.0086679256       2.13  <-- CONV
        O_D=      0.0000000 O_OD=      0.0257947 O_TOT=      7.0086679 <-- SPRD
 Delta: O_D= -0.5300634E-13 O_OD= -0.1845434E-12 O_TOT= -0.2380318E-12 <-- DLTA
 ------------------------------------------------------------------------------
 Cycle:    489
  WF centre and spread    1  (  0.000001, -3.024017, -0.000000 )     2.33622198
  WF centre and spread    2  (  0.000001, -0.000000,  3.024017 )     2.33622179
  WF centre and spread    3  ( -3.024017,  0.000000,  0.000000 )     2.33622196
  Sum of centres and spreads ( -3.024016, -3.024017,  3.024017 )     7.00866573
 
    489    -0.317E-12     0.0000045959        7.0086679256       2.14  <-- CONV
        O_D=      0.0000000 O_OD=      0.0257947 O_TOT=      7.0086679 <-- SPRD
 Delta: O_D= -0.7062936E-13 O_OD= -0.2458866E-12 O_TOT= -0.3170797E-12 <-- DLTA
 ------------------------------------------------------------------------------
 Cycle:    490
  WF centre and spread    1  (  0.000001, -3.024017, -0.000000 )     2.33622198
  WF centre and spread    2  (  0.000001, -0.000000,  3.024017 )     2.33622179
  WF centre and spread    3  ( -3.024017,  0.000000,  0.000000 )     2.33622196
  Sum of centres and spreads ( -3.024016, -3.024017,  3.024017 )     7.00866573
 
    490    -0.395E-12     0.0000045945        7.0086679256       2.14  <-- CONV
        O_D=      0.0000000 O_OD=      0.0257947 O_TOT=      7.0086679 <-- SPRD
 Delta: O_D= -0.8821130E-13 O_OD= -0.3071259E-12 O_TOT= -0.3952394E-12 <-- DLTA
 ------------------------------------------------------------------------------
 Cycle:    491
  WF centre and spread    1  (  0.000001, -3.024017, -0.000000 )     2.33622198
  WF centre and spread    2  (  0.000001, -0.000000,  3.024017 )     2.33622179
  WF centre and spread    3  ( -3.024017,  0.000000,  0.000000 )     2.33622196
  Sum of centres and spreads ( -3.024016, -3.024017,  3.024017 )     7.00866573
 
    491    -0.473E-12     0.0000045927        7.0086679256       2.14  <-- CONV
        O_D=      0.0000000 O_OD=      0.0257947 O_TOT=      7.0086679 <-- SPRD
 Delta: O_D= -0.1057413E-12 O_OD= -0.3680251E-12 O_TOT= -0.4733991E-12 <-- DLTA
 ------------------------------------------------------------------------------
 Cycle:    492
  WF centre and spread    1  (  0.000001, -3.024017, -0.000000 )     2.33622198
  WF centre and spread    2  (  0.000001, -0.000000,  3.024017 )     2.33622179
  WF centre and spread    3  ( -3.024017,  0.000000,  0.000000 )     2.33622196
  Sum of centres and spreads ( -3.024016, -3.024017,  3.024017 )     7.00866573
 
    492    -0.790E-13     0.0000045906        7.0086679256       2.15  <-- CONV
        O_D=      0.0000000 O_OD=      0.0257947 O_TOT=      7.0086679 <-- SPRD
 Delta: O_D= -0.1762239E-13 O_OD= -0.6138492E-13 O_TOT= -0.7904788E-13 <-- DLTA
 ------------------------------------------------------------------------------
 Cycle:    493
  WF centre and spread    1  (  0.000001, -3.024017, -0.000000 )     2.33622198
  WF centre and spread    2  (  0.000001, -0.000000,  3.024017 )     2.33622179
  WF centre and spread    3  ( -3.024017,  0.000000,  0.000000 )     2.33622196
  Sum of centres and spreads ( -3.024016, -3.024017,  3.024017 )     7.00866573
 
    493    -0.158E-12     0.0000045902        7.0086679256       2.15  <-- CONV
        O_D=      0.0000000 O_OD=      0.0257947 O_TOT=      7.0086679 <-- SPRD
 Delta: O_D= -0.3523655E-13 O_OD= -0.1226207E-12 O_TOT= -0.1580958E-12 <-- DLTA
 ------------------------------------------------------------------------------
 Cycle:    494
  WF centre and spread    1  (  0.000001, -3.024017, -0.000000 )     2.33622198
  WF centre and spread    2  (  0.000001, -0.000000,  3.024017 )     2.33622179
  WF centre and spread    3  ( -3.024017,  0.000000,  0.000000 )     2.33622196
  Sum of centres and spreads ( -3.024016, -3.024017,  3.024017 )     7.00866573
 
    494    -0.237E-12     0.0000045895        7.0086679256       2.16  <-- CONV
        O_D=      0.0000000 O_OD=      0.0257947 O_TOT=      7.0086679 <-- SPRD
 Delta: O_D= -0.5283156E-13 O_OD= -0.1840403E-12 O_TOT= -0.2371436E-12 <-- DLTA
 ------------------------------------------------------------------------------
 Cycle:    495
  WF centre and spread    1  (  0.000001, -3.024017, -0.000000 )     2.33622198
  WF centre and spread    2  (  0.000001, -0.000000,  3.024017 )     2.33622179
  WF centre and spread    3  ( -3.024017,  0.000000,  0.000000 )     2.33622196
  Sum of centres and spreads ( -3.024016, -3.024017,  3.024017 )     7.00866573
 
    495    -0.314E-12     0.0000045885        7.0086679256       2.16  <-- CONV
        O_D=      0.0000000 O_OD=      0.0257947 O_TOT=      7.0086679 <-- SPRD
 Delta: O_D= -0.7039653E-13 O_OD= -0.2450193E-12 O_TOT= -0.3144152E-12 <-- DLTA
 ------------------------------------------------------------------------------
 Cycle:    496
  WF centre and spread    1  (  0.000001, -3.024017, -0.000000 )     2.33622198
  WF centre and spread    2  (  0.000001, -0.000000,  3.024017 )     2.33622179
  WF centre and spread    3  ( -3.024017,  0.000000,  0.000000 )     2.33622196
  Sum of centres and spreads ( -3.024016, -3.024017,  3.024017 )     7.00866573
 
    496    -0.394E-12     0.0000045871        7.0086679256       2.16  <-- CONV
        O_D=      0.0000000 O_OD=      0.0257947 O_TOT=      7.0086679 <-- SPRD
 Delta: O_D= -0.8792061E-13 O_OD= -0.3060677E-12 O_TOT= -0.3943512E-12 <-- DLTA
 ------------------------------------------------------------------------------
 Cycle:    497
  WF centre and spread    1  (  0.000001, -3.024017, -0.000000 )     2.33622198
  WF centre and spread    2  (  0.000001, -0.000000,  3.024017 )     2.33622179
  WF centre and spread    3  ( -3.024017,  0.000000,  0.000000 )     2.33622196
  Sum of centres and spreads ( -3.024016, -3.024017,  3.024017 )     7.00866573
 
    497    -0.473E-12     0.0000045853        7.0086679256       2.17  <-- CONV
        O_D=      0.0000000 O_OD=      0.0257947 O_TOT=      7.0086679 <-- SPRD
 Delta: O_D= -0.1053930E-12 O_OD= -0.3669773E-12 O_TOT= -0.4725109E-12 <-- DLTA
 ------------------------------------------------------------------------------
 Cycle:    498
  WF centre and spread    1  (  0.000001, -3.024017, -0.000000 )     2.33622198
  WF centre and spread    2  (  0.000001, -0.000000,  3.024017 )     2.33622179
  WF centre and spread    3  ( -3.024017,  0.000000,  0.000000 )     2.33622196
  Sum of centres and spreads ( -3.024016, -3.024017,  3.024017 )     7.00866573
 
    498    -0.790E-13     0.0000045832        7.0086679256       2.17  <-- CONV
        O_D=      0.0000000 O_OD=      0.0257947 O_TOT=      7.0086679 <-- SPRD
 Delta: O_D= -0.1756438E-13 O_OD= -0.6115594E-13 O_TOT= -0.7904788E-13 <-- DLTA
 ------------------------------------------------------------------------------
 Cycle:    499
  WF centre and spread    1  (  0.000001, -3.024017, -0.000000 )     2.33622198
  WF centre and spread    2  (  0.000001, -0.000000,  3.024017 )     2.33622179
  WF centre and spread    3  ( -3.024017,  0.000000,  0.000000 )     2.33622196
  Sum of centres and spreads ( -3.024016, -3.024017,  3.024017 )     7.00866573
 
    499    -0.157E-12     0.0000045829        7.0086679256       2.18  <-- CONV
        O_D=      0.0000000 O_OD=      0.0257947 O_TOT=      7.0086679 <-- SPRD
 Delta: O_D= -0.3512056E-13 O_OD= -0.1222772E-12 O_TOT= -0.1572076E-12 <-- DLTA
 ------------------------------------------------------------------------------
 Cycle:    500
  WF centre and spread    1  (  0.000001, -3.024017, -0.000000 )     2.33622198
  WF centre and spread    2  (  0.000001, -0.000000,  3.024017 )     2.33622179
  WF centre and spread    3  ( -3.024017,  0.000000,  0.000000 )     2.33622196
  Sum of centres and spreads ( -3.024016, -3.024017,  3.024017 )     7.00866573
 
    500    -0.236E-12     0.0000045822        7.0086679256       2.18  <-- CONV
        O_D=      0.0000000 O_OD=      0.0257947 O_TOT=      7.0086679 <-- SPRD
 Delta: O_D= -0.5265769E-13 O_OD= -0.1833256E-12 O_TOT= -0.2362555E-12 <-- DLTA
 ------------------------------------------------------------------------------

 Writing checkpoint file mp-1087.chk... done

 Final State
  WF centre and spread    1  (  0.000001, -3.024017, -0.000000 )     2.33622198
  WF centre and spread    2  (  0.000001, -0.000000,  3.024017 )     2.33622179
  WF centre and spread    3  ( -3.024017,  0.000000,  0.000000 )     2.33622196
  Sum of centres and spreads ( -3.024016, -3.024017,  3.024017 )     7.00866573
 
         Spreads (Ang^2)       Omega I      =     6.982873257
        ================       Omega D      =     0.000000000
                               Omega OD     =     0.025794669
    Final Spread (Ang^2)       Omega Total  =     7.008667926
 ------------------------------------------------------------------------------
 Time for wannierise            2.176 (sec)

 Writing checkpoint file mp-1087.chk... done

 Time for plotting              0.000 (sec)
 Total Execution Time           3.465 (sec)

 *===========================================================================*
 |                             TIMING INFORMATION                            |
 *===========================================================================*
 |    Tag                                                Ncalls      Time (s)|
 |---------------------------------------------------------------------------|
 |kmesh: get                                        :         1         1.039|
 |overlap: allocate                                 :         1         0.002|
 |overlap: read                                     :         1         0.136|
 |wann: main                                        :         1         2.176|
 |plot: main                                        :         1         0.000|
 *---------------------------------------------------------------------------*
 
 All done: wannier90 exiting
