
     Program PWSCF v.7.1 starts on 11Apr2024 at  9:51:58 

     This program is part of the open-source Quantum ESPRESSO suite
     for quantum simulation of materials; please cite
         "P. Giannozzi et al., J. Phys.:Condens. Matter 21 395502 (2009);
         "P. Giannozzi et al., J. Phys.:Condens. Matter 29 465901 (2017);
         "P. Giannozzi et al., J. Chem. Phys. 152 154105 (2020);
          URL http://www.quantum-espresso.org", 
     in publications or presentations arising from this work. More details at
     http://www.quantum-espresso.org/quote

     Parallel version (MPI), running on    16 processors

     MPI processes distributed on     1 nodes
     247894 MiB available memory on the printing compute node when the environment starts
 
     Reading input from pw_mp-1265_nscf_k3000_E140.in
Warning: card &IONS ignored
Warning: card / ignored
Warning: card &CELL ignored
Warning: card / ignored

     Current dimensions of program PWSCF are:
     Max number of different atomic species (ntypx) = 10
     Max number of k-points (npk) =  40000
     Max angular momentum in pseudopotentials (lmaxx) =  4

     Atomic positions and unit cell read from directory:
     out/mp-1265.save/
     Atomic positions from file used, from input discarded
 
 
     R & G space division:  proc/nbgrp/npool/nimage =      16
     Subspace diagonalization in iterative solution of the eigenvalue problem:
     a serial algorithm will be used

 
     Parallelization info
     --------------------
     sticks:   dense  smooth     PW     G-vecs:    dense   smooth      PW
     Min          75      75     22                 1744     1744     279
     Max          76      76     23                 1747     1747     281
     Sum        1213    1213    361                27941    27941    4477
 
     Using Slab Decomposition
 


     bravais-lattice index     =            2
     lattice parameter (alat)  =       7.9255  a.u.
     unit-cell volume          =     124.4580 (a.u.)^3
     number of atoms/cell      =            2
     number of atomic types    =            2
     number of electrons       =        16.00
     number of Kohn-Sham states=           16
     kinetic-energy cutoff     =     140.0000  Ry
     charge density cutoff     =     560.0000  Ry
     Exchange-correlation= PBE
                           (   1   4   3   4   0   0   0)

     celldm(1)=   7.925516  celldm(2)=   0.000000  celldm(3)=   0.000000
     celldm(4)=   0.000000  celldm(5)=   0.000000  celldm(6)=   0.000000

     crystal axes: (cart. coord. in units of alat)
               a(1) = (  -0.500000   0.000000   0.500000 )  
               a(2) = (   0.000000   0.500000   0.500000 )  
               a(3) = (  -0.500000   0.500000   0.000000 )  

     reciprocal axes: (cart. coord. in units 2 pi/alat)
               b(1) = ( -1.000000 -1.000000  1.000000 )  
               b(2) = (  1.000000  1.000000  1.000000 )  
               b(3) = ( -1.000000  1.000000 -1.000000 )  


     PseudoPot. # 1 for Mg read from file:
     /usr/scratch4/magr4826/Promotion/Python/Code/devEb/pseudo/SG15/Mg.upf
     MD5 check sum: 330956729b1f868fdecd9f5113f6a961
     Pseudo is Norm-conserving, Zval = 10.0
     Generated using ONCVPSP code by D. R. Hamann
     Using radial grid of  602 points,  4 beta functions with: 
                l(1) =   0
                l(2) =   0
                l(3) =   1
                l(4) =   1

     PseudoPot. # 2 for O  read from file:
     /usr/scratch4/magr4826/Promotion/Python/Code/devEb/pseudo/SG15/O.upf
     MD5 check sum: e36c48deb68f4e355fffe4602be2c42c
     Pseudo is Norm-conserving, Zval =  6.0
     Generated using ONCVPSP code by D. R. Hamann
     Using radial grid of  602 points,  4 beta functions with: 
                l(1) =   0
                l(2) =   0
                l(3) =   1
                l(4) =   1

     atomic species   valence    mass     pseudopotential
        Mg            10.00    24.30500     Mg( 1.00)
        O              6.00    15.99940     O ( 1.00)

     48 Sym. Ops., with inversion, found



   Cartesian axes

     site n.     atom                  positions (alat units)
         1           Mg  tau(   1) = (   0.0000000   0.0000000   0.0000000  )
         2           O   tau(   2) = (  -0.5000000   0.5000000   0.5000000  )

     number of k points=    72  Gaussian smearing, width (Ry)=  0.0005
                       cart. coord. in units 2pi/alat
        k(    1) = (   0.0000000   0.0000000   0.0000000), wk =   0.0011574
        k(    2) = (  -0.0833333   0.0833333  -0.0833333), wk =   0.0092593
        k(    3) = (  -0.1666667   0.1666667  -0.1666667), wk =   0.0092593
        k(    4) = (  -0.2500000   0.2500000  -0.2500000), wk =   0.0092593
        k(    5) = (  -0.3333333   0.3333333  -0.3333333), wk =   0.0092593
        k(    6) = (  -0.4166667   0.4166667  -0.4166667), wk =   0.0092593
        k(    7) = (   0.5000000  -0.5000000   0.5000000), wk =   0.0046296
        k(    8) = (   0.0000000   0.1666667   0.0000000), wk =   0.0069444
        k(    9) = (  -0.0833333   0.2500000  -0.0833333), wk =   0.0277778
        k(   10) = (  -0.1666667   0.3333333  -0.1666667), wk =   0.0277778
        k(   11) = (  -0.2500000   0.4166667  -0.2500000), wk =   0.0277778
        k(   12) = (  -0.3333333   0.5000000  -0.3333333), wk =   0.0277778
        k(   13) = (   0.5833333  -0.4166667   0.5833333), wk =   0.0277778
        k(   14) = (   0.5000000  -0.3333333   0.5000000), wk =   0.0277778
        k(   15) = (   0.4166667  -0.2500000   0.4166667), wk =   0.0277778
        k(   16) = (   0.3333333  -0.1666667   0.3333333), wk =   0.0277778
        k(   17) = (   0.2500000  -0.0833333   0.2500000), wk =   0.0277778
        k(   18) = (   0.1666667  -0.0000000   0.1666667), wk =   0.0138889
        k(   19) = (   0.0000000   0.3333333   0.0000000), wk =   0.0069444
        k(   20) = (  -0.0833333   0.4166667  -0.0833333), wk =   0.0277778
        k(   21) = (  -0.1666667   0.5000000  -0.1666667), wk =   0.0277778
        k(   22) = (  -0.2500000   0.5833333  -0.2500000), wk =   0.0277778
        k(   23) = (   0.6666667  -0.3333333   0.6666667), wk =   0.0277778
        k(   24) = (   0.5833333  -0.2500000   0.5833333), wk =   0.0277778
        k(   25) = (   0.5000000  -0.1666667   0.5000000), wk =   0.0277778
        k(   26) = (   0.4166667  -0.0833333   0.4166667), wk =   0.0277778
        k(   27) = (   0.3333333   0.0000000   0.3333333), wk =   0.0138889
        k(   28) = (   0.0000000   0.5000000   0.0000000), wk =   0.0069444
        k(   29) = (  -0.0833333   0.5833333  -0.0833333), wk =   0.0277778
        k(   30) = (  -0.1666667   0.6666667  -0.1666667), wk =   0.0277778
        k(   31) = (   0.7500000  -0.2500000   0.7500000), wk =   0.0277778
        k(   32) = (   0.6666667  -0.1666667   0.6666667), wk =   0.0277778
        k(   33) = (   0.5833333  -0.0833333   0.5833333), wk =   0.0277778
        k(   34) = (   0.5000000   0.0000000   0.5000000), wk =   0.0138889
        k(   35) = (   0.0000000   0.6666667   0.0000000), wk =   0.0069444
        k(   36) = (  -0.0833333   0.7500000  -0.0833333), wk =   0.0277778
        k(   37) = (   0.8333333  -0.1666667   0.8333333), wk =   0.0277778
        k(   38) = (   0.7500000  -0.0833333   0.7500000), wk =   0.0277778
        k(   39) = (   0.6666667  -0.0000000   0.6666667), wk =   0.0138889
        k(   40) = (   0.0000000   0.8333333   0.0000000), wk =   0.0069444
        k(   41) = (   0.9166667  -0.0833333   0.9166667), wk =   0.0277778
        k(   42) = (   0.8333333   0.0000000   0.8333333), wk =   0.0138889
        k(   43) = (   0.0000000  -1.0000000   0.0000000), wk =   0.0034722
        k(   44) = (  -0.1666667   0.3333333   0.0000000), wk =   0.0277778
        k(   45) = (  -0.2500000   0.4166667  -0.0833333), wk =   0.0555556
        k(   46) = (  -0.3333333   0.5000000  -0.1666667), wk =   0.0555556
        k(   47) = (   0.5833333  -0.4166667   0.7500000), wk =   0.0555556
        k(   48) = (   0.5000000  -0.3333333   0.6666667), wk =   0.0277778
        k(   49) = (  -0.1666667   0.5000000   0.0000000), wk =   0.0277778
        k(   50) = (  -0.2500000   0.5833333  -0.0833333), wk =   0.0555556
        k(   51) = (   0.6666667  -0.3333333   0.8333333), wk =   0.0555556
        k(   52) = (   0.5833333  -0.2500000   0.7500000), wk =   0.0555556
        k(   53) = (   0.5000000  -0.1666667   0.6666667), wk =   0.0555556
        k(   54) = (   0.4166667  -0.0833333   0.5833333), wk =   0.0555556
        k(   55) = (   0.3333333   0.0000000   0.5000000), wk =   0.0277778
        k(   56) = (  -0.1666667   0.6666667  -0.0000000), wk =   0.0277778
        k(   57) = (   0.7500000  -0.2500000   0.9166667), wk =   0.0555556
        k(   58) = (   0.6666667  -0.1666667   0.8333333), wk =   0.0555556
        k(   59) = (   0.5833333  -0.0833333   0.7500000), wk =   0.0555556
        k(   60) = (   0.5000000   0.0000000   0.6666667), wk =   0.0277778
        k(   61) = (   0.8333333  -0.1666667   1.0000000), wk =   0.0277778
        k(   62) = (   0.7500000  -0.0833333   0.9166667), wk =   0.0555556
        k(   63) = (   0.6666667   0.0000000   0.8333333), wk =   0.0277778
        k(   64) = (  -0.1666667  -1.0000000  -0.0000000), wk =   0.0138889
        k(   65) = (   0.6666667  -0.3333333   1.0000000), wk =   0.0277778
        k(   66) = (   0.5833333  -0.2500000   0.9166667), wk =   0.0555556
        k(   67) = (   0.5000000  -0.1666667   0.8333333), wk =   0.0277778
        k(   68) = (   0.6666667  -0.1666667   1.0000000), wk =   0.0277778
        k(   69) = (   0.5833333  -0.0833333   0.9166667), wk =   0.0555556
        k(   70) = (   0.5000000   0.0000000   0.8333333), wk =   0.0277778
        k(   71) = (  -0.3333333  -1.0000000   0.0000000), wk =   0.0138889
        k(   72) = (  -0.5000000  -1.0000000   0.0000000), wk =   0.0069444

     Dense  grid:    27941 G-vectors     FFT dimensions: (  45,  45,  45)

     Estimated max dynamical RAM per process >       5.97 MB

     Estimated total dynamical RAM >      95.45 MB

     The potential is recalculated from file :
     out/mp-1265.save/charge-density

     Starting wfcs are random

     Band Structure Calculation
     Davidson diagonalization with overlap

     ethr =  5.00E-06,  avg # of iterations = 15.8

     total cpu time spent up to now is        6.9 secs

     End of band structure calculation

          k = 0.0000 0.0000 0.0000 (  3479 PWs)   bands (ev):

   -63.3972 -30.1628 -30.1628 -30.1628  -8.3522   8.9157   8.9157   8.9157
    13.8178  24.9051  24.9051  24.9051  28.7421  30.7357  30.7357  33.5295

          k =-0.0833 0.0833-0.0833 (  3491 PWs)   bands (ev):

   -63.3966 -30.1689 -30.1634 -30.1634  -8.2746   8.4492   8.8680   8.8680
    14.2674  23.9188  25.0767  25.0767  30.0474  30.1628  30.1628  33.5042

          k =-0.1667 0.1667-0.1667 (  3509 PWs)   bands (ev):

   -63.3949 -30.1854 -30.1651 -30.1651  -8.0552   7.4116   8.7407   8.7407
    15.2277  22.5248  25.4826  25.4826  29.4204  29.4204  31.4406  34.4308

          k =-0.2500 0.2500-0.2500 (  3497 PWs)   bands (ev):

   -63.3926 -30.2079 -30.1674 -30.1674  -7.7355   6.2549   8.5734   8.5734
    16.1599  21.6227  25.7730  25.7730  29.3302  29.3302  31.1980  37.0149

          k =-0.3333 0.3333-0.3333 (  3488 PWs)   bands (ev):

   -63.3903 -30.2303 -30.1696 -30.1696  -7.3880   5.2337   8.4130   8.4130
    16.7266  21.3758  25.7054  25.7054  30.0888  30.0888  30.6487  38.4332

          k =-0.4167 0.4167-0.4167 (  3480 PWs)   bands (ev):

   -63.3886 -30.2465 -30.1713 -30.1713  -7.1116   4.5276   8.2997   8.2997
    16.9127  21.5490  25.5216  25.5216  30.2474  31.1586  31.1586  38.0699

          k = 0.5000-0.5000 0.5000 (  3498 PWs)   bands (ev):

   -63.3880 -30.2524 -30.1719 -30.1719  -7.0049   4.2738   8.2590   8.2590
    16.9386  21.6784  25.4413  25.4413  30.1074  31.6931  31.6931  37.7770

          k = 0.0000 0.1667 0.0000 (  3503 PWs)   bands (ev):

   -63.3964 -30.1685 -30.1648 -30.1648  -8.2494   8.3957   8.8074   8.8074
    14.4132  23.6267  25.1465  25.1465  29.2080  30.4926  30.9522  33.8667

          k =-0.0833 0.2500-0.0833 (  3504 PWs)   bands (ev):

   -63.3951 -30.1808 -30.1671 -30.1658  -8.0791   7.6252   8.6711   8.6998
    15.1963  22.5024  25.4634  25.4794  28.1882  30.7119  32.0657  34.3591

          k =-0.1667 0.3333-0.1667 (  3495 PWs)   bands (ev):

   -63.3930 -30.2008 -30.1698 -30.1676  -7.7952   6.5781   8.5009   8.5298
    16.1544  21.5644  25.6026  25.8073  27.8922  30.4993  32.2460  36.5435

          k =-0.2500 0.4167-0.2500 (  3488 PWs)   bands (ev):

   -63.3907 -30.2226 -30.1721 -30.1703  -7.4584   5.5668   8.3243   8.3439
    16.8809  21.1942  25.2452  25.8708  28.6386  30.9082  31.7981  38.6480

          k =-0.3333 0.5000-0.3333 (  3493 PWs)   bands (ev):

   -63.3888 -30.2404 -30.1734 -30.1731  -7.1577   4.7892   8.1393   8.2382
    17.1957  21.3513  24.8543  25.7377  29.7678  31.4424  31.6521  38.5601

          k = 0.5833-0.4167 0.5833 (  3488 PWs)   bands (ev):

   -63.3878 -30.2495 -30.1753 -30.1733  -6.9923   4.3985   8.0200   8.2078
    17.2661  21.5885  24.6615  25.6255  30.6454  31.3796  31.9107  38.4401

          k = 0.5000-0.3333 0.5000 (  3485 PWs)   bands (ev):

   -63.3880 -30.2476 -30.1763 -30.1719  -7.0269   4.4808   7.9929   8.2591
    17.2629  21.5447  24.6964  25.6592  30.9822  31.0913  31.4884  38.5495

          k = 0.4167-0.2500 0.4167 (  3486 PWs)   bands (ev):

   -63.3893 -30.2351 -30.1757 -30.1696  -7.2473   5.0166   8.0653   8.3814
    17.1424  21.3006  24.9277  25.8656  29.6818  30.8671  31.5688  38.7618

          k = 0.3333-0.1667 0.3333 (  3473 PWs)   bands (ev):

   -63.3914 -30.2155 -30.1737 -30.1669  -7.5711   5.8889   8.2259   8.5466
    16.6868  21.3098  25.2353  26.1167  28.4628  30.2863  31.9786  37.5654

          k = 0.2500-0.0833 0.2500 (  3500 PWs)   bands (ev):

   -63.3937 -30.1941 -30.1706 -30.1647  -7.8989   6.9231   8.4461   8.7129
    15.8333  21.9067  25.3851  25.9156  28.2432  29.9810  32.2910  35.4496

          k = 0.1667-0.0000 0.1667 (  3519 PWs)   bands (ev):

   -63.3956 -30.1770 -30.1669 -30.1634  -8.1503   7.8847   8.6856   8.8326
    14.8758  22.9713  25.2603  25.3739  29.0259  30.1906  31.4112  34.2871

          k = 0.0000 0.3333 0.0000 (  3495 PWs)   bands (ev):

   -63.3941 -30.1837 -30.1702 -30.1702  -7.9661   7.3344   8.5274   8.5274
    15.7097  21.7597  25.7780  25.7780  26.8421  31.5946  33.7756  34.8930

          k =-0.0833 0.4167-0.0833 (  3500 PWs)   bands (ev):

   -63.3924 -30.1978 -30.1736 -30.1727  -7.7376   6.6273   8.3315   8.3538
    16.5391  20.9603  25.3935  26.1439  26.6666  31.7448  34.3963  36.2431

          k =-0.1667 0.5000-0.1667 (  3494 PWs)   bands (ev):

   -63.3903 -30.2160 -30.1762 -30.1759  -7.4416   5.8262   8.0483   8.1974
    17.3715  20.5723  24.4407  26.3188  27.4918  31.9968  34.1004  37.8662

          k =-0.2500 0.5833-0.2500 (  3490 PWs)   bands (ev):

   -63.3884 -30.2321 -30.1801 -30.1775  -7.1517   5.1430   7.7327   8.0959
    17.8666  20.7877  23.7498  26.2556  28.3604  32.5061  33.8080  38.0295

          k = 0.6667-0.3333 0.6667 (  3497 PWs)   bands (ev):

   -63.3873 -30.2419 -30.1843 -30.1771  -6.9561   4.7293   7.4722   8.0717
    18.0371  21.2611  23.3742  26.1236  29.1288  32.5768  33.5728  38.3686

          k = 0.5833-0.2500 0.5833 (  3480 PWs)   bands (ev):

   -63.3871 -30.2429 -30.1872 -30.1751  -6.9250   4.6826   7.3338   8.1303
    18.0941  21.4195  23.3207  26.0860  29.8528  31.5328  33.4323  38.9724

          k = 0.5000-0.1667 0.5000 (  3486 PWs)   bands (ev):

   -63.3880 -30.2352 -30.1877 -30.1720  -7.0704   5.0071   7.3605   8.2594
    18.0283  21.1582  23.6056  26.2358  29.8539  30.4573  33.4892  38.8704

          k = 0.4167-0.0833 0.4167 (  3484 PWs)   bands (ev):

   -63.3898 -30.2216 -30.1849 -30.1686  -7.3377   5.5996   7.5775   8.4294
    17.6084  20.9612  24.1774  26.6167  28.2053  30.6133  33.6727  37.6105

          k = 0.3333 0.0000 0.3333 (  3475 PWs)   bands (ev):

   -63.3918 -30.2065 -30.1787 -30.1660  -7.6407   6.2890   7.9763   8.5968
    16.7602  21.2521  24.8655  26.7788  27.3566  30.3333  33.4901  36.0212

          k = 0.0000 0.5000 0.0000 (  3511 PWs)   bands (ev):

   -63.3911 -30.2033 -30.1777 -30.1777  -7.5743   6.2827   8.1773   8.1773
    17.1516  20.1953  24.6409  26.5860  26.5860  32.6366  36.5880  36.5882

          k =-0.0833 0.5833-0.0833 (  3488 PWs)   bands (ev):

   -63.3894 -30.2153 -30.1817 -30.1810  -7.3403   5.7737   7.9181   8.0193
    17.9013  19.7128  23.6815  26.8883  27.1275  33.1242  36.6766  37.0884

          k =-0.1667 0.6667-0.1667 (  3480 PWs)   bands (ev):

   -63.3877 -30.2268 -30.1873 -30.1827  -7.0929   5.3336   7.4850   7.9176
    18.5027  19.8698  22.9190  26.9259  27.6390  33.6075  36.5142  36.9428

          k = 0.7500-0.2500 0.7500 (  3488 PWs)   bands (ev):

   -63.3865 -30.2336 -30.1944 -30.1823  -6.9024   5.0875   6.9950   7.8943
    18.7456  20.6352  22.4070  26.7928  27.9573  33.7030  36.0313  37.3493

          k = 0.6667-0.1667 0.6667 (  3470 PWs)   bands (ev):

   -63.3862 -30.2340 -30.2007 -30.1799  -6.8307   5.0801   6.6194   7.9548
    18.9243  21.1981  22.1873  26.6526  28.3622  32.5768  35.6535  37.9557

          k = 0.5833-0.0833 0.5833 (  3487 PWs)   bands (ev):

   -63.3867 -30.2301 -30.2027 -30.1761  -6.9024   5.2380   6.5449   8.0865
    18.9768  21.0697  22.4498  26.6125  29.2012  30.7669  35.4338  38.2122

          k = 0.5000 0.0000 0.5000 (  3487 PWs)   bands (ev):

   -63.3880 -30.2258 -30.1966 -30.1720  -7.0918   5.4067   6.9129   8.2595
    18.5419  20.8236  23.1626  26.6852  29.1142  30.1691  34.9839  37.9653

          k = 0.0000 0.6667 0.0000 (  3463 PWs)   bands (ev):

   -63.3881 -30.2216 -30.1852 -30.1852  -7.1779   5.4727   7.8582   7.8582
    18.3845  19.0537  22.9899  27.3551  27.3551  34.0023  36.2828  38.6450

          k =-0.0833 0.7500-0.0833 (  3479 PWs)   bands (ev):

   -63.3867 -30.2289 -30.1898 -30.1875  -6.9954   5.1994   7.5729   7.7527
    18.7421  19.0365  22.4453  27.5435  27.6424  34.6810  35.8900  38.8847

          k = 0.8333-0.1667 0.8333 (  3473 PWs)   bands (ev):

   -63.3858 -30.2317 -30.1980 -30.1875  -6.8436   5.1273   7.0137   7.7257
    18.8214  19.8928  22.0287  27.4538  27.6303  35.1469  36.0119  38.2529

          k = 0.7500-0.0833 0.7500 (  3473 PWs)   bands (ev):

   -63.3854 -30.2278 -30.2088 -30.1851  -6.7675   5.3312   6.3339   7.7830
    19.1025  20.8421  21.6671  27.2125  27.5275  34.2554  36.5956  37.6493

          k = 0.6667-0.0000 0.6667 (  3498 PWs)   bands (ev):

   -63.3858 -30.2211 -30.2166 -30.1809  -6.7900   5.6811   5.8445   7.9130
    19.3468  21.2471  21.6441  26.9258  28.0015  32.3628  36.8125  37.4273

          k = 0.0000 0.8333 0.0000 (  3475 PWs)   bands (ev):

   -63.3858 -30.2343 -30.1907 -30.1907  -6.8861   4.9848   7.6411   7.6411
    18.3629  19.0189  22.2357  27.9126  27.9126  35.1503  35.4497  39.9275

          k = 0.9167-0.0833 0.9167 (  3470 PWs)   bands (ev):

   -63.3852 -30.2362 -30.1947 -30.1913  -6.7970   4.9256   7.3763   7.6072
    18.3849  19.3148  22.0864  27.8998  27.9393  35.0635  36.0966  38.8785

          k = 0.8333 0.0000 0.8333 (  3464 PWs)   bands (ev):

   -63.3851 -30.2326 -30.2026 -30.1892  -6.7541   5.0921   6.8194   7.6579
    18.7371  20.0134  21.8694  27.5607  27.6708  35.6843  36.4501  36.8688

          k = 0.0000-1.0000 0.0000 (  3490 PWs)   bands (ev):

   -63.3850 -30.2387 -30.1927 -30.1927  -6.7793   4.8251   7.5648   7.5648
    18.1319  19.1082  22.1488  28.1193  28.1193  34.6540  36.2062  40.0895

          k =-0.1667 0.3333 0.0000 (  3489 PWs)   bands (ev):

   -63.3935 -30.1922 -30.1725 -30.1668  -7.8784   6.9699   8.3718   8.6181
    15.9909  21.6450  25.4156  26.0302  27.3138  30.8206  33.3060  35.2084

          k =-0.2500 0.4167-0.0833 (  3488 PWs)   bands (ev):

   -63.3914 -30.2096 -30.1775 -30.1687  -7.5881   6.1372   8.0494   8.4711
    16.9089  21.0260  24.8907  26.4118  27.4196  30.9702  33.5005  36.7624

          k =-0.3333 0.5000-0.1667 (  3491 PWs)   bands (ev):

   -63.3894 -30.2275 -30.1808 -30.1714  -7.2755   5.3422   7.7906   8.3001
    17.5639  20.9448  24.2553  26.2008  28.5214  31.3397  33.2202  38.5950

          k = 0.5833-0.4167 0.7500 (  3486 PWs)   bands (ev):

   -63.3878 -30.2408 -30.1824 -30.1741  -7.0296   4.7710   7.6274   8.1675
    17.8082  21.2767  23.8169  25.9721  29.6920  31.4749  33.1090  38.7735

          k = 0.5000-0.3333 0.6667 (  3466 PWs)   bands (ev):

   -63.3873 -30.2457 -30.1829 -30.1752  -6.9354   4.5626   7.5721   8.1180
    17.8491  21.4811  23.6678  25.8827  30.3039  31.3182  33.1666  39.0187

          k =-0.1667 0.5000 0.0000 (  3489 PWs)   bands (ev):

   -63.3907 -30.2091 -30.1802 -30.1744  -7.5052   6.0874   7.9812   8.2466
    17.3457  20.3616  24.4375  26.6583  26.8689  32.1451  35.5341  36.6208

          k =-0.2500 0.5833-0.0833 (  3488 PWs)   bands (ev):

   -63.3888 -30.2222 -30.1859 -30.1769  -7.2341   5.5414   7.5926   8.0849
    18.1503  20.1999  23.5334  26.5798  27.7349  32.4142  35.6213  37.6134

          k = 0.6667-0.3333 0.8333 (  3485 PWs)   bands (ev):

   -63.3873 -30.2327 -30.1903 -30.1793  -6.9971   5.1204   7.2300   7.9585
    18.5713  20.6523  22.8937  26.3493  28.5470  32.4377  35.5132  37.8181

          k = 0.5833-0.2500 0.7500 (  3480 PWs)   bands (ev):

   -63.3865 -30.2375 -30.1939 -30.1797  -6.8690   4.9247   6.9725   7.9279
    18.7098  21.1835  22.5820  26.1662  29.1800  31.9108  35.4509  38.0112

          k = 0.5000-0.1667 0.6667 (  3486 PWs)   bands (ev):

   -63.3867 -30.2357 -30.1957 -30.1776  -6.8954   4.9976   6.8985   8.0005
    18.7473  21.1610  22.6552  26.1816  29.7167  30.9250  35.2294  38.3422

          k = 0.4167-0.0833 0.5833 (  3475 PWs)   bands (ev):

   -63.3878 -30.2286 -30.1937 -30.1742  -7.0664   5.2907   7.0695   8.1506
    18.5477  20.7532  23.1353  26.3988  29.0293  30.8783  35.1049  38.3106

          k = 0.3333 0.0000 0.5000 (  3487 PWs)   bands (ev):

   -63.3896 -30.2191 -30.1871 -30.1708  -7.3229   5.6953   7.4931   8.3291
    17.8521  20.6664  23.9358  26.7046  27.7605  31.1446  34.7833  37.2033

          k =-0.1667 0.6667-0.0000 (  3482 PWs)   bands (ev):

   -63.3878 -30.2235 -30.1880 -30.1833  -7.1321   5.4350   7.6264   7.8592
    18.6095  19.3733  22.9137  26.9805  27.6473  33.6547  36.6630  38.0684

          k = 0.7500-0.2500 0.9167 (  3471 PWs)   bands (ev):

   -63.3865 -30.2292 -30.1946 -30.1856  -6.9354   5.2350   7.1607   7.7251
    19.0756  19.7923  22.2972  26.6858  28.2225  33.7506  36.7423  37.7342

          k = 0.6667-0.1667 0.8333 (  3473 PWs)   bands (ev):

   -63.3858 -30.2299 -30.2028 -30.1855  -6.8079   5.2505   6.6035   7.7045
    19.2580  20.7189  21.8640  26.2868  28.5863  33.2224  36.8850  37.5097

          k = 0.5833-0.0833 0.7500 (  3480 PWs)   bands (ev):

   -63.3858 -30.2264 -30.2096 -30.1827  -6.7899   5.4310   6.1983   7.7927
    19.4714  21.1136  21.7651  26.1286  29.0143  31.8935  37.0189  37.4894

          k = 0.5000 0.0000 0.6667 (  3484 PWs)   bands (ev):

   -63.3865 -30.2262 -30.2061 -30.1784  -6.8867   5.4038   6.4060   7.9587
    19.3567  20.8011  22.2589  26.2832  29.8523  30.3061  36.5421  37.7761

          k = 0.8333-0.1667 1.0000 (  3469 PWs)   bands (ev):

   -63.3858 -30.2326 -30.1937 -30.1904  -6.8612   5.0703   7.3856   7.5655
    18.7617  19.3743  22.1060  27.2272  28.2005  35.0095  35.8876  38.2634

          k = 0.7500-0.0833 0.9167 (  3471 PWs)   bands (ev):

   -63.3852 -30.2311 -30.2013 -30.1907  -6.7680   5.1601   6.8641   7.5183
    19.0318  20.0967  21.8042  26.6102  28.5297  34.9359  35.9899  37.2959

          k = 0.6667 0.0000 0.8333 (  3477 PWs)   bands (ev):

   -63.3852 -30.2243 -30.2119 -30.1876  -6.7424   5.4773   6.2078   7.6142
    19.4032  20.9675  21.4597  26.1295  28.6636  33.5818  36.2911  37.7782

          k =-0.1667-1.0000-0.0000 (  3470 PWs)   bands (ev):

   -63.3850 -30.2356 -30.1957 -30.1932  -6.7629   4.9595   7.3009   7.4544
    18.5553  19.5238  21.9972  27.2864  28.4037  35.0974  36.6122  37.3202

          k = 0.6667-0.3333 1.0000 (  3470 PWs)   bands (ev):

   -63.3873 -30.2264 -30.1956 -30.1799  -7.0173   5.3672   7.0612   7.8958
    19.0774  20.1004  22.6852  26.3373  28.6032  32.1068  37.1287  37.5744

          k = 0.5833-0.2500 0.9167 (  3483 PWs)   bands (ev):

   -63.3862 -30.2284 -30.2024 -30.1834  -6.8519   5.3135   6.6230   7.7167
    19.5454  20.5892  22.0862  25.8923  29.5510  31.4774  37.1930  37.7145

          k = 0.5000-0.1667 0.8333 (  3478 PWs)   bands (ev):

   -63.3858 -30.2290 -30.2047 -30.1850  -6.7899   5.3169   6.4431   7.6454
    19.6105  20.9923  21.8676  25.6459  29.9613  31.1860  37.0605  37.6830

          k = 0.6667-0.1667 1.0000 (  3455 PWs)   bands (ev):

   -63.3856 -30.2279 -30.2018 -30.1896  -6.8048   5.3132   6.7711   7.4506
    19.7102  20.1478  21.7665  25.9281  29.1493  33.0766  36.4960  37.7818

          k = 0.5833-0.0833 0.9167 (  3468 PWs)   bands (ev):

   -63.3852 -30.2228 -30.2100 -30.1911  -6.7388   5.5798   6.2635   7.3502
    20.0285  20.8935  21.3898  25.2384  29.8849  32.1776  36.0935  38.1191

          k = 0.5000 0.0000 0.8333 (  3475 PWs)   bands (ev):

   -63.3854 -30.2207 -30.2131 -30.1883  -6.7565   5.6927   6.0706   7.4708
    20.2161  20.7197  21.5641  25.2708  30.5432  30.9360  36.4913  38.3156

          k =-0.3333-1.0000 0.0000 (  3450 PWs)   bands (ev):

   -63.3850 -30.2272 -30.2041 -30.1943  -6.7301   5.3506   6.6697   7.2422
    19.5727  20.5538  21.5194  25.6561  29.3410  33.8442  35.5429  37.6766

          k =-0.5000-1.0000 0.0000 (  3448 PWs)   bands (ev):

   -63.3850 -30.2156 -30.2156 -30.1948  -6.7135   5.9541   5.9541   7.1400
    20.6809  20.6809  21.3077  24.6703  31.1219  31.1219  35.6790  38.2563

     the Fermi energy is    11.0112 ev
     (compare with:    11.0144 eV, computed in scf)

     Writing all to output data dir out/mp-1265.save/
 
     init_run     :      0.04s CPU      0.30s WALL (       1 calls)
     electrons    :      2.84s CPU      5.20s WALL (       1 calls)

     Called by init_run:
     wfcinit      :      0.00s CPU      0.01s WALL (       1 calls)
     potinit      :      0.00s CPU      0.21s WALL (       1 calls)
     hinit0       :      0.01s CPU      0.06s WALL (       1 calls)

     Called by electrons:
     c_bands      :      2.84s CPU      5.20s WALL (       1 calls)
     v_of_rho     :      0.00s CPU      0.01s WALL (       1 calls)

     Called by c_bands:
     init_us_2    :      0.00s CPU      0.00s WALL (      72 calls)
     init_us_2:cp :      0.00s CPU      0.00s WALL (      72 calls)
     cegterg      :      2.60s CPU      2.73s WALL (      75 calls)

     Called by *egterg:
     cdiaghg      :      0.33s CPU      0.35s WALL (    1211 calls)
     h_psi        :      2.32s CPU      2.45s WALL (    1286 calls)
     g_psi        :      0.01s CPU      0.01s WALL (    1139 calls)

     Called by h_psi:
     h_psi:calbec :      0.03s CPU      0.03s WALL (    1286 calls)
     vloc_psi     :      2.28s CPU      2.40s WALL (    1286 calls)
     add_vuspsi   :      0.01s CPU      0.01s WALL (    1286 calls)

     General routines
     calbec       :      0.03s CPU      0.03s WALL (    1286 calls)
     fft          :      0.00s CPU      0.05s WALL (      10 calls)
     fftw         :      2.17s CPU      2.29s WALL (   27634 calls)
 
     Parallel routines
 
     PWSCF        :      3.22s CPU      8.88s WALL

 
   This run was terminated on:   9:52: 7  11Apr2024            

=------------------------------------------------------------------------------=
   JOB DONE.
=------------------------------------------------------------------------------=
