 
             +---------------------------------------------------+
             |                                                   |
             |                   WANNIER90                       |
             |                                                   |
             +---------------------------------------------------+
             |                                                   |
             |        Welcome to the Maximally-Localized         |
             |        Generalized Wannier Functions code         |
             |            http://www.wannier.org                 |
             |                                                   |
             |                                                   |
             |  Wannier90 Developer Group:                       |
             |    Giovanni Pizzi    (EPFL)                       |
             |    Valerio Vitale    (Cambridge)                  |
             |    David Vanderbilt  (Rutgers University)         |
             |    Nicola Marzari    (EPFL)                       |
             |    Ivo Souza         (Universidad del Pais Vasco) |
             |    Arash A. Mostofi  (Imperial College London)    |
             |    Jonathan R. Yates (University of Oxford)       |
             |                                                   |
             |  For the full list of Wannier90 3.x authors,      |
             |  please check the code documentation and the      |
             |  README on the GitHub page of the code            |
             |                                                   |
             |                                                   |
             |  Please cite                                      |
             |                                                   |
             |  [ref] "Wannier90 as a community code:            |
             |        new features and applications",            |
             |        G. Pizzi et al., J. Phys. Cond. Matt. 32,  |
             |        165902 (2020).                             |
             |        http://doi.org/10.1088/1361-648X/ab51ff    |
             |                                                   |
             |  in any publications arising from the use of      |
             |  this code. For the method please cite            |
             |                                                   |
             |  [ref] "Maximally Localized Generalised Wannier   |
             |         Functions for Composite Energy Bands"     |
             |         N. Marzari and D. Vanderbilt              |
             |         Phys. Rev. B 56 12847 (1997)              |
             |                                                   |
             |  [ref] "Maximally Localized Wannier Functions     |
             |         for Entangled Energy Bands"               |
             |         I. Souza, N. Marzari and D. Vanderbilt    |
             |         Phys. Rev. B 65 035109 (2001)             |
             |                                                   |
             |                                                   |
             | Copyright (c) 1996-2020                           |
             |        The Wannier90 Developer Group and          |
             |        individual contributors                    |
             |                                                   |
             |      Release: 3.1.0        5th March    2020      |
             |                                                   |
             | This program is free software; you can            |
             | redistribute it and/or modify it under the terms  |
             | of the GNU General Public License as published by |
             | the Free Software Foundation; either version 2 of |
             | the License, or (at your option) any later version|
             |                                                   |
             | This program is distributed in the hope that it   |
             | will be useful, but WITHOUT ANY WARRANTY; without |
             | even the implied warranty of MERCHANTABILITY or   |
             | FITNESS FOR A PARTICULAR PURPOSE. See the GNU     |
             | General Public License for more details.          |
             |                                                   |
             | You should have received a copy of the GNU General|
             | Public License along with this program; if not,   |
             | write to the Free Software Foundation, Inc.,      |
             | 675 Mass Ave, Cambridge, MA 02139, USA.           |
             |                                                   |
             +---------------------------------------------------+
             |    Execution started on  3Jan2024 at 14:28:49     |
             +---------------------------------------------------+
 
 ******************************************************************************
 * -> Using CODATA 2006 constant values                                       *
 *    (http://physics.nist.gov/cuu/Constants/index.html)                      *
 * -> Using Bohr value from CODATA                                            *
 ******************************************************************************
 

 Running in parallel on   8 CPUs

 
                                    ------
                                    SYSTEM
                                    ------
 
                              Lattice Vectors (Ang)
                    a_1     3.188930   0.000000   0.000000
                    a_2    -1.594465   2.761695   0.000000
                    a_3     0.000000   0.000000   5.192357
 
                   Unit Cell Volume:      45.72832  (Ang^3)
 
                        Reciprocal-Space Vectors (Ang^-1)
                    b_1     1.970311   1.137560   0.000000
                    b_2     0.000000   2.275119   0.000000
                    b_3     0.000000   0.000000   1.210083
  
 *----------------------------------------------------------------------------*
 |   Site       Fractional Coordinate          Cartesian Coordinate (Ang)     |
 +----------------------------------------------------------------------------+
 | Ga   1   0.33333   0.66667   0.49908   |    0.00000   1.84113   2.59142    |
 | Ga   2   0.66667   0.33333   0.99908   |    1.59447   0.92057   5.18760    |
 | N    1   0.33333   0.66667   0.87592   |    0.00000   1.84113   4.54807    |
 | N    2   0.66667   0.33333   0.37592   |    1.59447   0.92057   1.95189    |
 *----------------------------------------------------------------------------*
                                ------------
                                K-POINT GRID
                                ------------
  
             Grid size = 10 x 10 x  6      Total points =  600
  
  
 *---------------------------------- MAIN ------------------------------------*
 |  Number of Wannier Functions               :                 6             |
 |  Number of Objective Wannier Functions     :                 6             |
 |  Number of input Bloch states              :                 6             |
 |  Output verbosity (1=low, 5=high)          :                 1             |
 |  Timing Level (1=low, 5=high)              :                 1             |
 |  Optimisation (0=memory, 3=speed)          :                 3             |
 |  Length Unit                               :               Ang             |
 |  Post-processing setup (write *.nnkp)      :                 F             |
 |  Using Gamma-only branch of algorithms     :                 F             |
 *----------------------------------------------------------------------------*
 *------------------------------- WANNIERISE ---------------------------------*
 |  Total number of iterations                :               500             |
 |  Number of CG steps before reset           :                 5             |
 |  Trial step length for line search         :             2.000             |
 |  Convergence tolerence                     :         0.100E-09             |
 |  Convergence window                        :                -1             |
 |  Iterations between writing output         :                 1             |
 |  Iterations between backing up to disk     :               100             |
 |  Write r^2_nm to file                      :                 F             |
 |  Write xyz WF centres to file              :                 F             |
 |  Write on-site energies <0n|H|0n> to file  :                 F             |
 |  Use guiding centre to control phases      :                 F             |
 |  Use phases for initial projections        :                 F             |
 *----------------------------------------------------------------------------*
 Time to read parameters        0.037 (sec)

 *---------------------------------- K-MESH ----------------------------------*
 +----------------------------------------------------------------------------+
 |                    Distance to Nearest-Neighbour Shells                    |
 |                    ------------------------------------                    |
 |          Shell             Distance (Ang^-1)          Multiplicity         |
 |          -----             -----------------          ------------         |
 |             1                   0.201681                      2            |
 |             2                   0.227512                      6            |
 |             3                   0.304034                     12            |
 |             4                   0.394062                      6            |
 |             5                   0.403361                      2            |
 |             6                   0.442674                     12            |
 |             7                   0.455024                      6            |
 |             8                   0.463100                     12            |
 |             9                   0.497717                     12            |
 |            10                   0.563902                     12            |
 |            11                   0.601940                     12            |
 |            12                   0.605042                      2            |
 |            13                   0.608068                     12            |
 |            14                   0.634828                     24            |
 |            15                   0.646403                     12            |
 |            16                   0.682536                      6            |
 |            17                   0.711709                     12            |
 |            18                   0.722053                     12            |
 |            19                   0.724591                     24            |
 |            20                   0.757048                     12            |
 |            21                   0.788124                      6            |
 |            22                   0.792815                     12            |
 |            23                   0.806722                      2            |
 |            24                   0.813520                     12            |
 |            25                   0.820306                     12            |
 |            26                   0.838190                     12            |
 |            27                   0.844735                     24            |
 |            28                   0.853468                     24            |
 |            29                   0.885348                     12            |
 |            30                   0.897823                     12            |
 |            31                   0.910048                      6            |
 |            32                   0.912102                     12            |
 |            33                   0.914113                     24            |
 |            34                   0.926201                     12            |
 |            35                   0.932128                     12            |
 |            36                   0.991702                     12            |
 +----------------------------------------------------------------------------+
 | The b-vectors are chosen automatically                                     |
 | The following shells are used:   1,  2                                     |
 +----------------------------------------------------------------------------+
 |                        Shell   # Nearest-Neighbours                        |
 |                        -----   --------------------                        |
 |                          1               2                                 |
 |                          2               6                                 |
 +----------------------------------------------------------------------------+
 | Completeness relation is fully satisfied [Eq. (B1), PRB 56, 12847 (1997)]  |
 +----------------------------------------------------------------------------+
 |                  b_k Vectors (Ang^-1) and Weights (Ang^2)                  |
 |                  ----------------------------------------                  |
 |            No.         b_k(x)      b_k(y)      b_k(z)        w_b           |
 |            ---        --------------------------------     --------        |
 |             1         0.000000    0.000000    0.201681    12.292546        |
 |             2         0.000000    0.000000   -0.201681    12.292546        |
 |             3         0.000000    0.227512    0.000000     6.439770        |
 |             4         0.197031    0.113756    0.000000     6.439770        |
 |             5         0.000000   -0.227512    0.000000     6.439770        |
 |             6         0.197031   -0.113756    0.000000     6.439770        |
 |             7        -0.197031   -0.113756    0.000000     6.439770        |
 |             8        -0.197031    0.113756    0.000000     6.439770        |
 +----------------------------------------------------------------------------+
 |                           b_k Directions (Ang^-1)                          |
 |                           -----------------------                          |
 |            No.           x           y           z                         |
 |            ---        --------------------------------                     |
 |             1         0.000000    0.000000    0.201681                     |
 |             2         0.000000    0.227512    0.000000                     |
 |             3         0.197031    0.113756    0.000000                     |
 |             4         0.197031   -0.113756    0.000000                     |
 +----------------------------------------------------------------------------+
  
 Time to get kmesh              0.387 (sec)
 *============================================================================*
 |                              MEMORY ESTIMATE                               |
 |         Maximum RAM allocated during each phase of the calculation         |
 *============================================================================*
 |                            Wannierise:            7.94 Mb                  |
 |                          plot_wannier:            7.94 Mb                  |
 *----------------------------------------------------------------------------*
  
 Starting a new Wannier90 calculation ...


 Reading overlaps from mp-804.mmn    :  Created on  3Jan2024 at 14:28:46

 Reading projections from mp-804.amn :  Created on  3Jan2024 at 14:28:45  with SCDM

 Time to read overlaps          0.177 (sec)

 Writing checkpoint file mp-804.chk... done

 
 *------------------------------- WANNIERISE ---------------------------------*
 +--------------------------------------------------------------------+<-- CONV
 | Iter  Delta Spread     RMS Gradient      Spread (Ang^2)      Time  |<-- CONV
 +--------------------------------------------------------------------+<-- CONV
 
 ------------------------------------------------------------------------------
 Initial State
  WF centre and spread    1  ( -1.632423,  0.823042,  2.032747 )     2.01433310
  WF centre and spread    2  (  1.528987, -1.002198, -0.563430 )     2.01433429
  WF centre and spread    3  (  1.662678, -0.821202, -0.565980 )     2.01638888
  WF centre and spread    4  ( -1.542521,  1.029320,  2.030197 )     2.01638840
  WF centre and spread    5  ( -1.607225,  0.907648,  1.802310 )     2.04805085
  WF centre and spread    6  (  1.589659, -0.938074, -0.793868 )     2.04805209
  Sum of centres and spreads ( -0.000844, -0.001463,  3.941976 )    12.15754761
 
      0     0.122E+02     0.0000000000       12.1575493351       0.00  <-- CONV
        O_D=      0.4371266 O_OD=      1.6653659 O_TOT=     12.1575493 <-- SPRD
 ------------------------------------------------------------------------------
 Cycle:      1
  WF centre and spread    1  ( -1.632567,  0.826973,  2.032817 )     1.80641392
  WF centre and spread    2  (  1.532464, -1.000358, -0.563360 )     1.80642074
  WF centre and spread    3  (  1.659479, -0.820104, -0.565682 )     1.79786511
  WF centre and spread    4  ( -1.539971,  1.027099,  2.030495 )     1.79786831
  WF centre and spread    5  ( -1.609309,  0.906977,  1.800539 )     1.82963876
  WF centre and spread    6  (  1.590119, -0.940215, -0.795638 )     1.82964150
  Sum of centres and spreads (  0.000215,  0.000372,  3.939172 )    10.86784835
 
      1    -0.129E+01     0.3698919470       10.8678500721       0.01  <-- CONV
        O_D=      0.1516948 O_OD=      0.6610984 O_TOT=     10.8678501 <-- SPRD
 Delta: O_D= -0.2854318E+00 O_OD= -0.1004267E+01 O_TOT= -0.1289699E+01 <-- DLTA
 ------------------------------------------------------------------------------
 Cycle:      2
  WF centre and spread    1  ( -1.632848,  0.828975,  2.032058 )     1.73595744
  WF centre and spread    2  (  1.534338, -0.999600, -0.564119 )     1.73595633
  WF centre and spread    3  (  1.658018, -0.820127, -0.566504 )     1.72727299
  WF centre and spread    4  ( -1.539260,  1.025823,  2.029674 )     1.72727164
  WF centre and spread    5  ( -1.609936,  0.906564,  1.801608 )     1.75907099
  WF centre and spread    6  (  1.590075, -0.940964, -0.794570 )     1.75907949
  Sum of centres and spreads (  0.000388,  0.000671,  3.938146 )    10.44460887
 
      2    -0.423E+00     0.3950117031       10.4446105990       0.01  <-- CONV
        O_D=      0.0540425 O_OD=      0.3355112 O_TOT=     10.4446106 <-- SPRD
 Delta: O_D= -0.9765230E-01 O_OD= -0.3255872E+00 O_TOT= -0.4232395E+00 <-- DLTA
 ------------------------------------------------------------------------------
 Cycle:      3
  WF centre and spread    1  ( -1.632846,  0.829476,  2.031798 )     1.71422941
  WF centre and spread    2  (  1.534771, -0.999349, -0.564379 )     1.71422514
  WF centre and spread    3  (  1.657634, -0.820553, -0.566967 )     1.70564001
  WF centre and spread    4  ( -1.539437,  1.025276,  2.029211 )     1.70563954
  WF centre and spread    5  ( -1.610000,  0.906618,  1.802053 )     1.73775450
  WF centre and spread    6  (  1.590155, -0.940992, -0.794126 )     1.73775968
  Sum of centres and spreads (  0.000275,  0.000476,  3.937590 )    10.31524828
 
      3    -0.129E+00     0.2701595562       10.3152500036       0.02  <-- CONV
        O_D=      0.0204568 O_OD=      0.2397363 O_TOT=     10.3152500 <-- SPRD
 Delta: O_D= -0.3358563E-01 O_OD= -0.9577496E-01 O_TOT= -0.1293606E+00 <-- DLTA
 ------------------------------------------------------------------------------
 Cycle:      4
  WF centre and spread    1  ( -1.632780,  0.829461,  2.031753 )     1.70772137
  WF centre and spread    2  (  1.534725, -0.999298, -0.564424 )     1.70771912
  WF centre and spread    3  (  1.657614, -0.820890, -0.567118 )     1.69968966
  WF centre and spread    4  ( -1.539719,  1.025091,  2.029059 )     1.69968554
  WF centre and spread    5  ( -1.609946,  0.906774,  1.802067 )     1.73113387
  WF centre and spread    6  (  1.590262, -0.940867, -0.794111 )     1.73113660
  Sum of centres and spreads (  0.000157,  0.000271,  3.937225 )    10.27708614
 
      4    -0.382E-01     0.1495775616       10.2770878708       0.03  <-- CONV
        O_D=      0.0110829 O_OD=      0.2109481 O_TOT=     10.2770879 <-- SPRD
 Delta: O_D= -0.9373968E-02 O_OD= -0.2878816E-01 O_TOT= -0.3816213E-01 <-- DLTA
 ------------------------------------------------------------------------------
 Cycle:      5
  WF centre and spread    1  ( -1.632710,  0.829306,  2.031762 )     1.70490224
  WF centre and spread    2  (  1.534556, -0.999315, -0.564416 )     1.70490117
  WF centre and spread    3  (  1.657695, -0.821146, -0.567136 )     1.69804282
  WF centre and spread    4  ( -1.539981,  1.025033,  2.029042 )     1.69803946
  WF centre and spread    5  ( -1.609874,  0.906930,  1.801929 )     1.72775930
  WF centre and spread    6  (  1.590362, -0.940727, -0.794249 )     1.72776142
  Sum of centres and spreads (  0.000048,  0.000082,  3.936932 )    10.26140642
 
      5    -0.157E-01     0.0882247120       10.2614081430       0.03  <-- CONV
        O_D=      0.0074065 O_OD=      0.1989447 O_TOT=     10.2614081 <-- SPRD
 Delta: O_D= -0.3676359E-02 O_OD= -0.1200337E-01 O_TOT= -0.1567973E-01 <-- DLTA
 ------------------------------------------------------------------------------
 Cycle:      6
  WF centre and spread    1  ( -1.632677,  0.829183,  2.031772 )     1.70383923
  WF centre and spread    2  (  1.534433, -0.999348, -0.564405 )     1.70383998
  WF centre and spread    3  (  1.657757, -0.821254, -0.567114 )     1.69788787
  WF centre and spread    4  ( -1.540106,  1.025032,  2.029064 )     1.69788705
  WF centre and spread    5  ( -1.609838,  0.907015,  1.801835 )     1.72642098
  WF centre and spread    6  (  1.590417, -0.940653, -0.794343 )     1.72642234
  Sum of centres and spreads ( -0.000014, -0.000025,  3.936809 )    10.25629745
 
      6    -0.511E-02     0.0568769753       10.2562991770       0.04  <-- CONV
        O_D=      0.0059667 O_OD=      0.1952756 O_TOT=     10.2562992 <-- SPRD
 Delta: O_D= -0.1439867E-02 O_OD= -0.3669099E-02 O_TOT= -0.5108966E-02 <-- DLTA
 ------------------------------------------------------------------------------
 Cycle:      7
  WF centre and spread    1  ( -1.632678,  0.829149,  2.031774 )     1.70359973
  WF centre and spread    2  (  1.534404, -0.999366, -0.564403 )     1.70360043
  WF centre and spread    3  (  1.657764, -0.821253, -0.567105 )     1.69788048
  WF centre and spread    4  ( -1.540109,  1.025039,  2.029072 )     1.69787960
  WF centre and spread    5  ( -1.609836,  0.907033,  1.801829 )     1.72609442
  WF centre and spread    6  (  1.590431, -0.940642, -0.794349 )     1.72609578
  Sum of centres and spreads ( -0.000023, -0.000041,  3.936818 )    10.25515045
 
      7    -0.115E-02     0.0283749361       10.2551521736       0.04  <-- CONV
        O_D=      0.0057292 O_OD=      0.1943660 O_TOT=     10.2551522 <-- SPRD
 Delta: O_D= -0.2374176E-03 O_OD= -0.9095858E-03 O_TOT= -0.1147003E-02 <-- DLTA
 ------------------------------------------------------------------------------
 Cycle:      8
  WF centre and spread    1  ( -1.632684,  0.829076,  2.031775 )     1.70335686
  WF centre and spread    2  (  1.534344, -0.999407, -0.564402 )     1.70335791
  WF centre and spread    3  (  1.657777, -0.821246, -0.567088 )     1.69815001
  WF centre and spread    4  ( -1.540109,  1.025054,  2.029089 )     1.69814941
  WF centre and spread    5  ( -1.609832,  0.907073,  1.801818 )     1.72563737
  WF centre and spread    6  (  1.590464, -0.940619, -0.794361 )     1.72563866
  Sum of centres and spreads ( -0.000039, -0.000069,  3.936831 )    10.25429021
 
      8    -0.860E-03     0.0193829188       10.2542919395       0.05  <-- CONV
        O_D=      0.0055677 O_OD=      0.1936673 O_TOT=     10.2542919 <-- SPRD
 Delta: O_D= -0.1615250E-03 O_OD= -0.6987091E-03 O_TOT= -0.8602341E-03 <-- DLTA
 ------------------------------------------------------------------------------
 Cycle:      9
  WF centre and spread    1  ( -1.632699,  0.828992,  2.031771 )     1.70313804
  WF centre and spread    2  (  1.534279, -0.999463, -0.564406 )     1.70313923
  WF centre and spread    3  (  1.657784, -0.821223, -0.567073 )     1.69856389
  WF centre and spread    4  ( -1.540093,  1.025071,  2.029104 )     1.69856347
  WF centre and spread    5  ( -1.609831,  0.907124,  1.801808 )     1.72514883
  WF centre and spread    6  (  1.590508, -0.940593, -0.794370 )     1.72515012
  Sum of centres and spreads ( -0.000052, -0.000091,  3.936834 )    10.25370357
 
      9    -0.587E-03     0.0155332533       10.2537053001       0.05  <-- CONV
        O_D=      0.0054859 O_OD=      0.1931625 O_TOT=     10.2537053 <-- SPRD
 Delta: O_D= -0.8181737E-04 O_OD= -0.5048221E-03 O_TOT= -0.5866394E-03 <-- DLTA
 ------------------------------------------------------------------------------
 Cycle:     10
  WF centre and spread    1  ( -1.632724,  0.828913,  2.031762 )     1.70294655
  WF centre and spread    2  (  1.534222, -0.999523, -0.564415 )     1.70294790
  WF centre and spread    3  (  1.657780, -0.821191, -0.567066 )     1.69899614
  WF centre and spread    4  ( -1.540062,  1.025084,  2.029112 )     1.69899587
  WF centre and spread    5  ( -1.609835,  0.907179,  1.801804 )     1.72470885
  WF centre and spread    6  (  1.590557, -0.940569, -0.794374 )     1.72471012
  Sum of centres and spreads ( -0.000061, -0.000107,  3.936824 )    10.25330544
 
     10    -0.398E-03     0.0133198115       10.2533071639       0.06  <-- CONV
        O_D=      0.0054222 O_OD=      0.1928281 O_TOT=     10.2533072 <-- SPRD
 Delta: O_D= -0.6370695E-04 O_OD= -0.3344292E-03 O_TOT= -0.3981361E-03 <-- DLTA
 ------------------------------------------------------------------------------
 Cycle:     11
  WF centre and spread    1  ( -1.632748,  0.828858,  2.031754 )     1.70282967
  WF centre and spread    2  (  1.534187, -0.999572, -0.564423 )     1.70283110
  WF centre and spread    3  (  1.657766, -0.821161, -0.567065 )     1.69929420
  WF centre and spread    4  ( -1.540030,  1.025087,  2.029113 )     1.69929399
  WF centre and spread    5  ( -1.609842,  0.907221,  1.801804 )     1.72443036
  WF centre and spread    6  (  1.590598, -0.940553, -0.794374 )     1.72443161
  Sum of centres and spreads ( -0.000068, -0.000120,  3.936809 )    10.25311094
 
     11    -0.194E-03     0.0099463036       10.2531126678       0.06  <-- CONV
        O_D=      0.0053872 O_OD=      0.1926685 O_TOT=     10.2531127 <-- SPRD
 Delta: O_D= -0.3495016E-04 O_OD= -0.1595460E-03 O_TOT= -0.1944962E-03 <-- DLTA
 ------------------------------------------------------------------------------
 Cycle:     12
  WF centre and spread    1  ( -1.632773,  0.828812,  2.031748 )     1.70275933
  WF centre and spread    2  (  1.534160, -0.999617, -0.564429 )     1.70276075
  WF centre and spread    3  (  1.657746, -0.821132, -0.567065 )     1.69949841
  WF centre and spread    4  ( -1.539994,  1.025084,  2.029112 )     1.69949819
  WF centre and spread    5  ( -1.609850,  0.907264,  1.801805 )     1.72424825
  WF centre and spread    6  (  1.590639, -0.940540, -0.794373 )     1.72424951
  Sum of centres and spreads ( -0.000073, -0.000128,  3.936798 )    10.25301444
 
     12    -0.965E-04     0.0064145174       10.2530161652       0.07  <-- CONV
        O_D=      0.0053759 O_OD=      0.1925834 O_TOT=     10.2530162 <-- SPRD
 Delta: O_D= -0.1133696E-04 O_OD= -0.8516560E-04 O_TOT= -0.9650256E-04 <-- DLTA
 ------------------------------------------------------------------------------
 Cycle:     13
  WF centre and spread    1  ( -1.632779,  0.828801,  2.031749 )     1.70275109
  WF centre and spread    2  (  1.534153, -0.999627, -0.564428 )     1.70275252
  WF centre and spread    3  (  1.657740, -0.821127, -0.567064 )     1.69949952
  WF centre and spread    4  ( -1.539987,  1.025082,  2.029113 )     1.69949932
  WF centre and spread    5  ( -1.609852,  0.907278,  1.801803 )     1.72423858
  WF centre and spread    6  (  1.590652, -0.940534, -0.794375 )     1.72423983
  Sum of centres and spreads ( -0.000073, -0.000128,  3.936798 )    10.25298087
 
     13    -0.336E-04     0.0051509170       10.2529825944       0.07  <-- CONV
        O_D=      0.0053686 O_OD=      0.1925571 O_TOT=     10.2529826 <-- SPRD
 Delta: O_D= -0.7280779E-05 O_OD= -0.2629001E-04 O_TOT= -0.3357078E-04 <-- DLTA
 ------------------------------------------------------------------------------
 Cycle:     14
  WF centre and spread    1  ( -1.632803,  0.828745,  2.031756 )     1.70273138
  WF centre and spread    2  (  1.534117, -0.999677, -0.564421 )     1.70273282
  WF centre and spread    3  (  1.657715, -0.821105, -0.567060 )     1.69952092
  WF centre and spread    4  ( -1.539956,  1.025071,  2.029118 )     1.69952071
  WF centre and spread    5  ( -1.609858,  0.907344,  1.801790 )     1.72421150
  WF centre and spread    6  (  1.590712, -0.940506, -0.794388 )     1.72421274
  Sum of centres and spreads ( -0.000073, -0.000128,  3.936794 )    10.25293007
 
     14    -0.508E-04     0.0035926428       10.2529317934       0.08  <-- CONV
        O_D=      0.0053695 O_OD=      0.1925054 O_TOT=     10.2529318 <-- SPRD
 Delta: O_D=  0.8475779E-06 O_OD= -0.5164858E-04 O_TOT= -0.5080101E-04 <-- DLTA
 ------------------------------------------------------------------------------
 Cycle:     15
  WF centre and spread    1  ( -1.632845,  0.828641,  2.031770 )     1.70269990
  WF centre and spread    2  (  1.534048, -0.999765, -0.564407 )     1.70270132
  WF centre and spread    3  (  1.657675, -0.821071, -0.567050 )     1.69955601
  WF centre and spread    4  ( -1.539906,  1.025052,  2.029127 )     1.69955578
  WF centre and spread    5  ( -1.609866,  0.907465,  1.801762 )     1.72417657
  WF centre and spread    6  (  1.590821, -0.940452, -0.794416 )     1.72417783
  Sum of centres and spreads ( -0.000074, -0.000130,  3.936785 )    10.25286740
 
     15    -0.627E-04     0.0044468188       10.2528691276       0.08  <-- CONV
        O_D=      0.0053729 O_OD=      0.1924394 O_TOT=     10.2528691 <-- SPRD
 Delta: O_D=  0.3413461E-05 O_OD= -0.6607930E-04 O_TOT= -0.6266584E-04 <-- DLTA
 ------------------------------------------------------------------------------
 Cycle:     16
  WF centre and spread    1  ( -1.632918,  0.828439,  2.031801 )     1.70264307
  WF centre and spread    2  (  1.533909, -0.999929, -0.564377 )     1.70264446
  WF centre and spread    3  (  1.657604, -0.821016, -0.567029 )     1.69960937
  WF centre and spread    4  ( -1.539823,  1.025019,  2.029149 )     1.69960908
  WF centre and spread    5  ( -1.609877,  0.907698,  1.801702 )     1.72413255
  WF centre and spread    6  (  1.591028, -0.940346, -0.794476 )     1.72413383
  Sum of centres and spreads ( -0.000077, -0.000134,  3.936769 )    10.25277236
 
     16    -0.950E-04     0.0051183087       10.2527740912       0.09  <-- CONV
        O_D=      0.0053803 O_OD=      0.1923369 O_TOT=     10.2527741 <-- SPRD
 Delta: O_D=  0.7413667E-05 O_OD= -0.1024501E-03 O_TOT= -0.9503640E-04 <-- DLTA
 ------------------------------------------------------------------------------
 Cycle:     17
  WF centre and spread    1  ( -1.633057,  0.828013,  2.031872 )     1.70252963
  WF centre and spread    2  (  1.533610, -1.000263, -0.564305 )     1.70253093
  WF centre and spread    3  (  1.657470, -0.820915, -0.566979 )     1.69969906
  WF centre and spread    4  ( -1.539668,  1.024953,  2.029198 )     1.69969861
  WF centre and spread    5  ( -1.609892,  0.908182,  1.801569 )     1.72406940
  WF centre and spread    6  (  1.591455, -0.940116, -0.794609 )     1.72407071
  Sum of centres and spreads ( -0.000083, -0.000145,  3.936746 )    10.25259834
 
     17    -0.174E-03     0.0065644533       10.2526000702       0.09  <-- CONV
        O_D=      0.0054003 O_OD=      0.1921428 O_TOT=     10.2526001 <-- SPRD
 Delta: O_D=  0.2004097E-04 O_OD= -0.1940619E-03 O_TOT= -0.1740209E-03 <-- DLTA
 ------------------------------------------------------------------------------
 Cycle:     18
  WF centre and spread    1  ( -1.633306,  0.827192,  2.032012 )     1.70231312
  WF centre and spread    2  (  1.533023, -1.000888, -0.564165 )     1.70231438
  WF centre and spread    3  (  1.657226, -0.820742, -0.566880 )     1.69985292
  WF centre and spread    4  ( -1.539397,  1.024829,  2.029298 )     1.69985239
  WF centre and spread    5  ( -1.609912,  0.909109,  1.801314 )     1.72397484
  WF centre and spread    6  (  1.592267, -0.939670, -0.794865 )     1.72397618
  Sum of centres and spreads ( -0.000098, -0.000171,  3.936715 )    10.25228383
 
     18    -0.315E-03     0.0093473546       10.2522855563       0.10  <-- CONV
        O_D=      0.0054337 O_OD=      0.1917949 O_TOT=     10.2522856 <-- SPRD
 Delta: O_D=  0.3340524E-04 O_OD= -0.3479192E-03 O_TOT= -0.3145140E-03 <-- DLTA
 ------------------------------------------------------------------------------
 Cycle:     19
  WF centre and spread    1  ( -1.633304,  0.827173,  2.032021 )     1.70226998
  WF centre and spread    2  (  1.533005, -1.000896, -0.564156 )     1.70227130
  WF centre and spread    3  (  1.657226, -0.820745, -0.566877 )     1.69980441
  WF centre and spread    4  ( -1.539400,  1.024827,  2.029301 )     1.69980399
  WF centre and spread    5  ( -1.609910,  0.909129,  1.801304 )     1.72394295
  WF centre and spread    6  (  1.592283, -0.939659, -0.794875 )     1.72394426
  Sum of centres and spreads ( -0.000099, -0.000172,  3.936719 )    10.25203689
 
     19    -0.247E-03     0.0137166036       10.2520386145       0.10  <-- CONV
        O_D=      0.0053783 O_OD=      0.1916034 O_TOT=     10.2520386 <-- SPRD
 Delta: O_D= -0.5541716E-04 O_OD= -0.1915246E-03 O_TOT= -0.2469418E-03 <-- DLTA
 ------------------------------------------------------------------------------
 Cycle:     20
  WF centre and spread    1  ( -1.633302,  0.827129,  2.032041 )     1.70224266
  WF centre and spread    2  (  1.532967, -1.000916, -0.564137 )     1.70224405
  WF centre and spread    3  (  1.657224, -0.820750, -0.566870 )     1.69975574
  WF centre and spread    4  ( -1.539403,  1.024822,  2.029307 )     1.69975545
  WF centre and spread    5  ( -1.609906,  0.909174,  1.801281 )     1.72393650
  WF centre and spread    6  (  1.592321, -0.939633, -0.794897 )     1.72393777
  Sum of centres and spreads ( -0.000099, -0.000173,  3.936726 )    10.25187215
 
     20    -0.165E-03     0.0085967313       10.2518738793       0.11  <-- CONV
        O_D=      0.0053619 O_OD=      0.1914550 O_TOT=     10.2518739 <-- SPRD
 Delta: O_D= -0.1638110E-04 O_OD= -0.1483541E-03 O_TOT= -0.1647352E-03 <-- DLTA
 ------------------------------------------------------------------------------
 Cycle:     21
  WF centre and spread    1  ( -1.633302,  0.827078,  2.032062 )     1.70223095
  WF centre and spread    2  (  1.532923, -1.000942, -0.564115 )     1.70223238
  WF centre and spread    3  (  1.657218, -0.820753, -0.566862 )     1.69970285
  WF centre and spread    4  ( -1.539402,  1.024817,  2.029315 )     1.69970262
  WF centre and spread    5  ( -1.609903,  0.909231,  1.801256 )     1.72395234
  WF centre and spread    6  (  1.592369, -0.939602, -0.794922 )     1.72395360
  Sum of centres and spreads ( -0.000098, -0.000171,  3.936733 )    10.25177473
 
     21    -0.974E-04     0.0066031279       10.2517764556       0.11  <-- CONV
        O_D=      0.0053563 O_OD=      0.1913633 O_TOT=     10.2517765 <-- SPRD
 Delta: O_D= -0.5682843E-05 O_OD= -0.9174091E-04 O_TOT= -0.9742375E-04 <-- DLTA
 ------------------------------------------------------------------------------
 Cycle:     22
  WF centre and spread    1  ( -1.633308,  0.827015,  2.032086 )     1.70222592
  WF centre and spread    2  (  1.532871, -1.000979, -0.564091 )     1.70222735
  WF centre and spread    3  (  1.657207, -0.820750, -0.566854 )     1.69963711
  WF centre and spread    4  ( -1.539394,  1.024808,  2.029324 )     1.69963689
  WF centre and spread    5  ( -1.609902,  0.909304,  1.801227 )     1.72398769
  WF centre and spread    6  (  1.592432, -0.939564, -0.794951 )     1.72398894
  Sum of centres and spreads ( -0.000094, -0.000165,  3.936740 )    10.25170389
 
     22    -0.708E-04     0.0052519736       10.2517056203       0.12  <-- CONV
        O_D=      0.0053548 O_OD=      0.1912939 O_TOT=     10.2517056 <-- SPRD
 Delta: O_D= -0.1467473E-05 O_OD= -0.6936780E-04 O_TOT= -0.7083528E-04 <-- DLTA
 ------------------------------------------------------------------------------
 Cycle:     23
  WF centre and spread    1  ( -1.633320,  0.826941,  2.032110 )     1.70222296
  WF centre and spread    2  (  1.532813, -1.001026, -0.564067 )     1.70222440
  WF centre and spread    3  (  1.657190, -0.820743, -0.566844 )     1.69956504
  WF centre and spread    4  ( -1.539379,  1.024797,  2.029333 )     1.69956484
  WF centre and spread    5  ( -1.609903,  0.909393,  1.801196 )     1.72403361
  WF centre and spread    6  (  1.592509, -0.939520, -0.794982 )     1.72403485
  Sum of centres and spreads ( -0.000090, -0.000157,  3.936746 )    10.25164571
 
     23    -0.582E-04     0.0048294840       10.2516474368       0.12  <-- CONV
        O_D=      0.0053520 O_OD=      0.1912386 O_TOT=     10.2516474 <-- SPRD
 Delta: O_D= -0.2836360E-05 O_OD= -0.5534716E-04 O_TOT= -0.5818352E-04 <-- DLTA
 ------------------------------------------------------------------------------
 Cycle:     24
  WF centre and spread    1  ( -1.633337,  0.826870,  2.032128 )     1.70221924
  WF centre and spread    2  (  1.532760, -1.001076, -0.564049 )     1.70222067
  WF centre and spread    3  (  1.657170, -0.820730, -0.566835 )     1.69951077
  WF centre and spread    4  ( -1.539358,  1.024786,  2.029342 )     1.69951056
  WF centre and spread    5  ( -1.609906,  0.909479,  1.801172 )     1.72407262
  WF centre and spread    6  (  1.592585, -0.939480, -0.795006 )     1.72407388
  Sum of centres and spreads ( -0.000086, -0.000150,  3.936754 )    10.25160775
 
     24    -0.380E-04     0.0038830946       10.2516094731       0.13  <-- CONV
        O_D=      0.0053567 O_OD=      0.1911959 O_TOT=     10.2516095 <-- SPRD
 Delta: O_D=  0.4767003E-05 O_OD= -0.4273070E-04 O_TOT= -0.3796370E-04 <-- DLTA
 ------------------------------------------------------------------------------
 Cycle:     25
  WF centre and spread    1  ( -1.633341,  0.826859,  2.032130 )     1.70221171
  WF centre and spread    2  (  1.532752, -1.001085, -0.564047 )     1.70221315
  WF centre and spread    3  (  1.657165, -0.820727, -0.566833 )     1.69950507
  WF centre and spread    4  ( -1.539353,  1.024784,  2.029344 )     1.69950488
  WF centre and spread    5  ( -1.609906,  0.909494,  1.801170 )     1.72407062
  WF centre and spread    6  (  1.592598, -0.939473, -0.795008 )     1.72407187
  Sum of centres and spreads ( -0.000085, -0.000149,  3.936755 )    10.25157730
 
     25    -0.304E-04     0.0048649558       10.2515790278       0.13  <-- CONV
        O_D=      0.0053502 O_OD=      0.1911719 O_TOT=     10.2515790 <-- SPRD
 Delta: O_D= -0.6483781E-05 O_OD= -0.2396147E-04 O_TOT= -0.3044525E-04 <-- DLTA
 ------------------------------------------------------------------------------
 Cycle:     26
  WF centre and spread    1  ( -1.633361,  0.826805,  2.032136 )     1.70219426
  WF centre and spread    2  (  1.532716, -1.001129, -0.564042 )     1.70219570
  WF centre and spread    3  (  1.657145, -0.820712, -0.566827 )     1.69949525
  WF centre and spread    4  ( -1.539330,  1.024774,  2.029350 )     1.69949505
  WF centre and spread    5  ( -1.609911,  0.909559,  1.801159 )     1.72407507
  WF centre and spread    6  (  1.592656, -0.939444, -0.795020 )     1.72407631
  Sum of centres and spreads ( -0.000085, -0.000148,  3.936756 )    10.25153165
 
     26    -0.457E-04     0.0034414055       10.2515333767       0.14  <-- CONV
        O_D=      0.0053528 O_OD=      0.1911237 O_TOT=     10.2515334 <-- SPRD
 Delta: O_D=  0.2542631E-05 O_OD= -0.4819377E-04 O_TOT= -0.4565114E-04 <-- DLTA
 ------------------------------------------------------------------------------
 Cycle:     27
  WF centre and spread    1  ( -1.633393,  0.826714,  2.032146 )     1.70217025
  WF centre and spread    2  (  1.532653, -1.001203, -0.564031 )     1.70217168
  WF centre and spread    3  (  1.657113, -0.820689, -0.566816 )     1.69948343
  WF centre and spread    4  ( -1.539294,  1.024757,  2.029361 )     1.69948322
  WF centre and spread    5  ( -1.609917,  0.909668,  1.801136 )     1.72408459
  WF centre and spread    6  (  1.592754, -0.939395, -0.795042 )     1.72408584
  Sum of centres and spreads ( -0.000084, -0.000147,  3.936755 )    10.25147903
 
     27    -0.526E-04     0.0042008770       10.2514807562       0.14  <-- CONV
        O_D=      0.0053526 O_OD=      0.1910713 O_TOT=     10.2514808 <-- SPRD
 Delta: O_D= -0.1854551E-06 O_OD= -0.5243506E-04 O_TOT= -0.5262051E-04 <-- DLTA
 ------------------------------------------------------------------------------
 Cycle:     28
  WF centre and spread    1  ( -1.633449,  0.826543,  2.032170 )     1.70213129
  WF centre and spread    2  (  1.532533, -1.001337, -0.564007 )     1.70213270
  WF centre and spread    3  (  1.657054, -0.820649, -0.566797 )     1.69946935
  WF centre and spread    4  ( -1.539230,  1.024727,  2.029381 )     1.69946909
  WF centre and spread    5  ( -1.609927,  0.909872,  1.801090 )     1.72409953
  WF centre and spread    6  (  1.592935, -0.939302, -0.795088 )     1.72410080
  Sum of centres and spreads ( -0.000084, -0.000147,  3.936749 )    10.25140277
 
     28    -0.763E-04     0.0045336861       10.2514044959       0.15  <-- CONV
        O_D=      0.0053569 O_OD=      0.1909907 O_TOT=     10.2514045 <-- SPRD
 Delta: O_D=  0.4330209E-05 O_OD= -0.8059046E-04 O_TOT= -0.7626025E-04 <-- DLTA
 ------------------------------------------------------------------------------
 Cycle:     29
  WF centre and spread    1  ( -1.633559,  0.826185,  2.032222 )     1.70205737
  WF centre and spread    2  (  1.532277, -1.001611, -0.563955 )     1.70205870
  WF centre and spread    3  (  1.656937, -0.820571, -0.566756 )     1.69945301
  WF centre and spread    4  ( -1.539104,  1.024664,  2.029422 )     1.69945261
  WF centre and spread    5  ( -1.609944,  0.910292,  1.800991 )     1.72412015
  WF centre and spread    6  (  1.593308, -0.939107, -0.795187 )     1.72412145
  Sum of centres and spreads ( -0.000085, -0.000148,  3.936737 )    10.25126329
 
     29    -0.139E-03     0.0059390722       10.2512650211       0.15  <-- CONV
        O_D=      0.0053694 O_OD=      0.1908388 O_TOT=     10.2512650 <-- SPRD
 Delta: O_D=  0.1244714E-04 O_OD= -0.1519220E-03 O_TOT= -0.1394748E-03 <-- DLTA
 ------------------------------------------------------------------------------
 Cycle:     30
  WF centre and spread    1  ( -1.633738,  0.825556,  2.032315 )     1.70192999
  WF centre and spread    2  (  1.531823, -1.002080, -0.563862 )     1.70193129
  WF centre and spread    3  (  1.656741, -0.820446, -0.566683 )     1.69944440
  WF centre and spread    4  ( -1.538898,  1.024557,  2.029494 )     1.69944393
  WF centre and spread    5  ( -1.609970,  0.911021,  1.800818 )     1.72414216
  WF centre and spread    6  (  1.593952, -0.938765, -0.795361 )     1.72414347
  Sum of centres and spreads ( -0.000090, -0.000157,  3.936721 )    10.25103524
 
     30    -0.228E-03     0.0081624942       10.2510369692       0.16  <-- CONV
        O_D=      0.0054122 O_OD=      0.1905679 O_TOT=     10.2510370 <-- SPRD
 Delta: O_D=  0.4280461E-04 O_OD= -0.2708565E-03 O_TOT= -0.2280519E-03 <-- DLTA
 ------------------------------------------------------------------------------
 Cycle:     31
  WF centre and spread    1  ( -1.633737,  0.825538,  2.032322 )     1.70189153
  WF centre and spread    2  (  1.531807, -1.002089, -0.563855 )     1.70189287
  WF centre and spread    3  (  1.656739, -0.820446, -0.566681 )     1.69941899
  WF centre and spread    4  ( -1.538898,  1.024555,  2.029496 )     1.69941861
  WF centre and spread    5  ( -1.609969,  0.911038,  1.800810 )     1.72410176
  WF centre and spread    6  (  1.593966, -0.938755, -0.795368 )     1.72410305
  Sum of centres and spreads ( -0.000091, -0.000159,  3.936723 )    10.25082681
 
     31    -0.208E-03     0.0125475544       10.2508285346       0.16  <-- CONV
        O_D=      0.0053606 O_OD=      0.1904110 O_TOT=     10.2508285 <-- SPRD
 Delta: O_D= -0.5157968E-04 O_OD= -0.1568549E-03 O_TOT= -0.2084346E-03 <-- DLTA
 ------------------------------------------------------------------------------
 Cycle:     32
  WF centre and spread    1  ( -1.633738,  0.825499,  2.032335 )     1.70186334
  WF centre and spread    2  (  1.531773, -1.002109, -0.563842 )     1.70186475
  WF centre and spread    3  (  1.656735, -0.820446, -0.566677 )     1.69941513
  WF centre and spread    4  ( -1.538895,  1.024552,  2.029500 )     1.69941487
  WF centre and spread    5  ( -1.609967,  0.911076,  1.800794 )     1.72406685
  WF centre and spread    6  (  1.593998, -0.938735, -0.795384 )     1.72406811
  Sum of centres and spreads ( -0.000093, -0.000163,  3.936726 )    10.25069306
 
     32    -0.134E-03     0.0078762455       10.2506947866       0.17  <-- CONV
        O_D=      0.0053481 O_OD=      0.1902898 O_TOT=     10.2506948 <-- SPRD
 Delta: O_D= -0.1248139E-04 O_OD= -0.1212666E-03 O_TOT= -0.1337480E-03 <-- DLTA
 ------------------------------------------------------------------------------
 Cycle:     33
  WF centre and spread    1  ( -1.633741,  0.825455,  2.032348 )     1.70184704
  WF centre and spread    2  (  1.531737, -1.002134, -0.563829 )     1.70184848
  WF centre and spread    3  (  1.656728, -0.820442, -0.566672 )     1.69941937
  WF centre and spread    4  ( -1.538888,  1.024547,  2.029505 )     1.69941917
  WF centre and spread    5  ( -1.609967,  0.911121,  1.800777 )     1.72404247
  WF centre and spread    6  (  1.594037, -0.938712, -0.795401 )     1.72404371
  Sum of centres and spreads ( -0.000094, -0.000165,  3.936728 )    10.25062024
 
     33    -0.728E-04     0.0058270783       10.2506219687       0.17  <-- CONV
        O_D=      0.0053420 O_OD=      0.1902230 O_TOT=     10.2506220 <-- SPRD
 Delta: O_D= -0.6084451E-05 O_OD= -0.6673341E-04 O_TOT= -0.7281786E-04 <-- DLTA
 ------------------------------------------------------------------------------
 Cycle:     34
  WF centre and spread    1  ( -1.633750,  0.825400,  2.032362 )     1.70183268
  WF centre and spread    2  (  1.531693, -1.002169, -0.563815 )     1.70183412
  WF centre and spread    3  (  1.656715, -0.820434, -0.566666 )     1.69942687
  WF centre and spread    4  ( -1.538874,  1.024540,  2.029511 )     1.69942668
  WF centre and spread    5  ( -1.609968,  0.911181,  1.800757 )     1.72402428
  WF centre and spread    6  (  1.594090, -0.938683, -0.795421 )     1.72402552
  Sum of centres and spreads ( -0.000094, -0.000165,  3.936728 )    10.25057015
 
     34    -0.501E-04     0.0044072512       10.2505718745       0.18  <-- CONV
        O_D=      0.0053412 O_OD=      0.1901738 O_TOT=     10.2505719 <-- SPRD
 Delta: O_D= -0.8387392E-06 O_OD= -0.4925552E-04 O_TOT= -0.5009426E-04 <-- DLTA
 ------------------------------------------------------------------------------
 Cycle:     35
  WF centre and spread    1  ( -1.633765,  0.825330,  2.032377 )     1.70181588
  WF centre and spread    2  (  1.531640, -1.002217, -0.563800 )     1.70181732
  WF centre and spread    3  (  1.656696, -0.820421, -0.566659 )     1.69943689
  WF centre and spread    4  ( -1.538853,  1.024530,  2.029518 )     1.69943670
  WF centre and spread    5  ( -1.609971,  0.911260,  1.800735 )     1.72400940
  WF centre and spread    6  (  1.594160, -0.938646, -0.795443 )     1.72401064
  Sum of centres and spreads ( -0.000094, -0.000164,  3.936728 )    10.25052683
 
     35    -0.433E-04     0.0041134556       10.2505285606       0.18  <-- CONV
        O_D=      0.0053376 O_OD=      0.1901341 O_TOT=     10.2505286 <-- SPRD
 Delta: O_D= -0.3611428E-05 O_OD= -0.3970244E-04 O_TOT= -0.4331387E-04 <-- DLTA
 ------------------------------------------------------------------------------
 Cycle:     36
  WF centre and spread    1  ( -1.633782,  0.825260,  2.032389 )     1.70179885
  WF centre and spread    2  (  1.531588, -1.002267, -0.563788 )     1.70180029
  WF centre and spread    3  (  1.656674, -0.820406, -0.566652 )     1.69944707
  WF centre and spread    4  ( -1.538830,  1.024519,  2.029525 )     1.69944687
  WF centre and spread    5  ( -1.609975,  0.911340,  1.800716 )     1.72400161
  WF centre and spread    6  (  1.594231, -0.938610, -0.795462 )     1.72400286
  Sum of centres and spreads ( -0.000093, -0.000163,  3.936729 )    10.25049754
 
     36    -0.293E-04     0.0033863171       10.2504992712       0.19  <-- CONV
        O_D=      0.0053424 O_OD=      0.1901000 O_TOT=     10.2504993 <-- SPRD
 Delta: O_D=  0.4843566E-05 O_OD= -0.3413301E-04 O_TOT= -0.2928944E-04 <-- DLTA
 ------------------------------------------------------------------------------
 Cycle:     37
  WF centre and spread    1  ( -1.633786,  0.825249,  2.032390 )     1.70179136
  WF centre and spread    2  (  1.531581, -1.002276, -0.563787 )     1.70179281
  WF centre and spread    3  (  1.656670, -0.820403, -0.566651 )     1.69944302
  WF centre and spread    4  ( -1.538825,  1.024517,  2.029527 )     1.69944284
  WF centre and spread    5  ( -1.609976,  0.911354,  1.800714 )     1.72399968
  WF centre and spread    6  (  1.594244, -0.938603, -0.795464 )     1.72400092
  Sum of centres and spreads ( -0.000093, -0.000162,  3.936730 )    10.25047063
 
     37    -0.269E-04     0.0045397806       10.2504723548       0.19  <-- CONV
        O_D=      0.0053367 O_OD=      0.1900788 O_TOT=     10.2504724 <-- SPRD
 Delta: O_D= -0.5715968E-05 O_OD= -0.2120038E-04 O_TOT= -0.2691635E-04 <-- DLTA
 ------------------------------------------------------------------------------
 Cycle:     38
  WF centre and spread    1  ( -1.633803,  0.825198,  2.032394 )     1.70177275
  WF centre and spread    2  (  1.531545, -1.002316, -0.563783 )     1.70177419
  WF centre and spread    3  (  1.656652, -0.820391, -0.566645 )     1.69943761
  WF centre and spread    4  ( -1.538806,  1.024508,  2.029533 )     1.69943742
  WF centre and spread    5  ( -1.609980,  0.911416,  1.800705 )     1.72400346
  WF centre and spread    6  (  1.594300, -0.938576, -0.795474 )     1.72400470
  Sum of centres and spreads ( -0.000093, -0.000161,  3.936731 )    10.25043012
 
     38    -0.405E-04     0.0032575501       10.2504318458       0.20  <-- CONV
        O_D=      0.0053399 O_OD=      0.1900350 O_TOT=     10.2504318 <-- SPRD
 Delta: O_D=  0.3199404E-05 O_OD= -0.4370841E-04 O_TOT= -0.4050900E-04 <-- DLTA
 ------------------------------------------------------------------------------
 Cycle:     39
  WF centre and spread    1  ( -1.633831,  0.825113,  2.032402 )     1.70174850
  WF centre and spread    2  (  1.531486, -1.002383, -0.563775 )     1.70174994
  WF centre and spread    3  (  1.656623, -0.820371, -0.566635 )     1.69942976
  WF centre and spread    4  ( -1.538774,  1.024492,  2.029542 )     1.69942956
  WF centre and spread    5  ( -1.609987,  0.911519,  1.800687 )     1.72401240
  WF centre and spread    6  (  1.594392, -0.938531, -0.795492 )     1.72401364
  Sum of centres and spreads ( -0.000092, -0.000161,  3.936730 )    10.25038380
 
     39    -0.463E-04     0.0039606070       10.2503855293       0.20  <-- CONV
        O_D=      0.0053390 O_OD=      0.1899897 O_TOT=     10.2503855 <-- SPRD
 Delta: O_D= -0.9531830E-06 O_OD= -0.4536330E-04 O_TOT= -0.4631648E-04 <-- DLTA
 ------------------------------------------------------------------------------
 Cycle:     40
  WF centre and spread    1  ( -1.633881,  0.824955,  2.032419 )     1.70171232
  WF centre and spread    2  (  1.531373, -1.002505, -0.563758 )     1.70171374
  WF centre and spread    3  (  1.656568, -0.820335, -0.566617 )     1.69941719
  WF centre and spread    4  ( -1.538715,  1.024462,  2.029560 )     1.69941694
  WF centre and spread    5  ( -1.609999,  0.911709,  1.800650 )     1.72402768
  WF centre and spread    6  (  1.594562, -0.938446, -0.795528 )     1.72402894
  Sum of centres and spreads ( -0.000092, -0.000160,  3.936726 )    10.25031681
 
     40    -0.670E-04     0.0042239178       10.2503185380       0.21  <-- CONV
        O_D=      0.0053431 O_OD=      0.1899186 O_TOT=     10.2503185 <-- SPRD
 Delta: O_D=  0.4110877E-05 O_OD= -0.7110227E-04 O_TOT= -0.6699139E-04 <-- DLTA
 ------------------------------------------------------------------------------
 Cycle:     41
  WF centre and spread    1  ( -1.633978,  0.824624,  2.032458 )     1.70164759
  WF centre and spread    2  (  1.531135, -1.002754, -0.563719 )     1.70164893
  WF centre and spread    3  (  1.656457, -0.820263, -0.566581 )     1.69939699
  WF centre and spread    4  ( -1.538598,  1.024402,  2.029596 )     1.69939662
  WF centre and spread    5  ( -1.610020,  0.912101,  1.800572 )     1.72405135
  WF centre and spread    6  (  1.594912, -0.938268, -0.795607 )     1.72405263
  Sum of centres and spreads ( -0.000091, -0.000159,  3.936719 )    10.25019411
 
     41    -0.123E-03     0.0055859117       10.2501958369       0.21  <-- CONV
        O_D=      0.0053523 O_OD=      0.1897866 O_TOT=     10.2501958 <-- SPRD
 Delta: O_D=  0.9249300E-05 O_OD= -0.1319503E-03 O_TOT= -0.1227010E-03 <-- DLTA
 ------------------------------------------------------------------------------
 Cycle:     42
  WF centre and spread    1  ( -1.634131,  0.824063,  2.032524 )     1.70154203
  WF centre and spread    2  (  1.530726, -1.003167, -0.563653 )     1.70154335
  WF centre and spread    3  (  1.656275, -0.820151, -0.566519 )     1.69937672
  WF centre and spread    4  ( -1.538410,  1.024300,  2.029658 )     1.69937629
  WF centre and spread    5  ( -1.610053,  0.912759,  1.800439 )     1.72408015
  WF centre and spread    6  (  1.595499, -0.937967, -0.795740 )     1.72408145
  Sum of centres and spreads ( -0.000094, -0.000164,  3.936709 )    10.24999999
 
     42    -0.194E-03     0.0076089453       10.2500017169       0.22  <-- CONV
        O_D=      0.0053950 O_OD=      0.1895499 O_TOT=     10.2500017 <-- SPRD
 Delta: O_D=  0.4264753E-04 O_OD= -0.2367676E-03 O_TOT= -0.1941200E-03 <-- DLTA
 ------------------------------------------------------------------------------
 Cycle:     43
  WF centre and spread    1  ( -1.634130,  0.824046,  2.032530 )     1.70150874
  WF centre and spread    2  (  1.530711, -1.003176, -0.563647 )     1.70151009
  WF centre and spread    3  (  1.656273, -0.820152, -0.566518 )     1.69935411
  WF centre and spread    4  ( -1.538409,  1.024298,  2.029659 )     1.69935376
  WF centre and spread    5  ( -1.610052,  0.912775,  1.800432 )     1.72404439
  WF centre and spread    6  (  1.595512, -0.937958, -0.795746 )     1.72404567
  Sum of centres and spreads ( -0.000095, -0.000166,  3.936710 )    10.24981675
 
     43    -0.183E-03     0.0117031047       10.2498184742       0.22  <-- CONV
        O_D=      0.0053465 O_OD=      0.1894151 O_TOT=     10.2498185 <-- SPRD
 Delta: O_D= -0.4846762E-04 O_OD= -0.1347751E-03 O_TOT= -0.1832427E-03 <-- DLTA
 ------------------------------------------------------------------------------
 Cycle:     44
  WF centre and spread    1  ( -1.634131,  0.824010,  2.032540 )     1.70148450
  WF centre and spread    2  (  1.530680, -1.003194, -0.563637 )     1.70148592
  WF centre and spread    3  (  1.656268, -0.820151, -0.566515 )     1.69935040
  WF centre and spread    4  ( -1.538406,  1.024295,  2.029663 )     1.69935016
  WF centre and spread    5  ( -1.610051,  0.912810,  1.800419 )     1.72401390
  WF centre and spread    6  (  1.595542, -0.937940, -0.795759 )     1.72401515
  Sum of centres and spreads ( -0.000098, -0.000170,  3.936712 )    10.24970003
 
     44    -0.117E-03     0.0074020670       10.2497017546       0.23  <-- CONV
        O_D=      0.0053361 O_OD=      0.1893088 O_TOT=     10.2497018 <-- SPRD
 Delta: O_D= -0.1040173E-04 O_OD= -0.1063179E-03 O_TOT= -0.1167196E-03 <-- DLTA
 ------------------------------------------------------------------------------
 Cycle:     45
  WF centre and spread    1  ( -1.634135,  0.823970,  2.032550 )     1.70147097
  WF centre and spread    2  (  1.530647, -1.003217, -0.563627 )     1.70147241
  WF centre and spread    3  (  1.656260, -0.820147, -0.566511 )     1.69935475
  WF centre and spread    4  ( -1.538398,  1.024290,  2.029667 )     1.69935456
  WF centre and spread    5  ( -1.610051,  0.912851,  1.800406 )     1.72399166
  WF centre and spread    6  (  1.595578, -0.937920, -0.795773 )     1.72399290
  Sum of centres and spreads ( -0.000099, -0.000173,  3.936712 )    10.24963726
 
     45    -0.628E-04     0.0054237454       10.2496389842       0.23  <-- CONV
        O_D=      0.0053302 O_OD=      0.1892519 O_TOT=     10.2496390 <-- SPRD
 Delta: O_D= -0.5905852E-05 O_OD= -0.5686453E-04 O_TOT= -0.6277038E-04 <-- DLTA
 ------------------------------------------------------------------------------
 Cycle:     46
  WF centre and spread    1  ( -1.634143,  0.823920,  2.032561 )     1.70145907
  WF centre and spread    2  (  1.530608, -1.003249, -0.563616 )     1.70146052
  WF centre and spread    3  (  1.656246, -0.820138, -0.566506 )     1.69936313
  WF centre and spread    4  ( -1.538384,  1.024282,  2.029671 )     1.69936295
  WF centre and spread    5  ( -1.610053,  0.912906,  1.800390 )     1.72397380
  WF centre and spread    6  (  1.595626, -0.937894, -0.795788 )     1.72397503
  Sum of centres and spreads ( -0.000099, -0.000173,  3.936712 )    10.24959450
 
     46    -0.428E-04     0.0040671899       10.2495962242       0.24  <-- CONV
        O_D=      0.0053298 O_OD=      0.1892095 O_TOT=     10.2495962 <-- SPRD
 Delta: O_D= -0.3480685E-06 O_OD= -0.4241196E-04 O_TOT= -0.4276003E-04 <-- DLTA
 ------------------------------------------------------------------------------
 Cycle:     47
  WF centre and spread    1  ( -1.634157,  0.823855,  2.032572 )     1.70144439
  WF centre and spread    2  (  1.530558, -1.003294, -0.563605 )     1.70144584
  WF centre and spread    3  (  1.656227, -0.820126, -0.566500 )     1.69937465
  WF centre and spread    4  ( -1.538364,  1.024272,  2.029677 )     1.69937447
  WF centre and spread    5  ( -1.610057,  0.912980,  1.800372 )     1.72395839
  WF centre and spread    6  (  1.595692, -0.937860, -0.795806 )     1.72395963
  Sum of centres and spreads ( -0.000100, -0.000174,  3.936710 )    10.24955738
 
     47    -0.371E-04     0.0038042105       10.2495591013       0.24  <-- CONV
        O_D=      0.0053261 O_OD=      0.1891761 O_TOT=     10.2495591 <-- SPRD
 Delta: O_D= -0.3708278E-05 O_OD= -0.3341454E-04 O_TOT= -0.3712282E-04 <-- DLTA
 ------------------------------------------------------------------------------
 Cycle:     48
  WF centre and spread    1  ( -1.634173,  0.823790,  2.032580 )     1.70142851
  WF centre and spread    2  (  1.530510, -1.003340, -0.563597 )     1.70142995
  WF centre and spread    3  (  1.656207, -0.820112, -0.566494 )     1.69938665
  WF centre and spread    4  ( -1.538341,  1.024261,  2.029684 )     1.69938646
  WF centre and spread    5  ( -1.610062,  0.913054,  1.800357 )     1.72394977
  WF centre and spread    6  (  1.595759, -0.937827, -0.795821 )     1.72395101
  Sum of centres and spreads ( -0.000100, -0.000174,  3.936710 )    10.24953235
 
     48    -0.250E-04     0.0031391919       10.2495340774       0.25  <-- CONV
        O_D=      0.0053306 O_OD=      0.1891466 O_TOT=     10.2495341 <-- SPRD
 Delta: O_D=  0.4500450E-05 O_OD= -0.2952440E-04 O_TOT= -0.2502395E-04 <-- DLTA
 ------------------------------------------------------------------------------
 Cycle:     49
  WF centre and spread    1  ( -1.634176,  0.823779,  2.032581 )     1.70142141
  WF centre and spread    2  (  1.530503, -1.003349, -0.563596 )     1.70142285
  WF centre and spread    3  (  1.656203, -0.820109, -0.566492 )     1.69938384
  WF centre and spread    4  ( -1.538337,  1.024259,  2.029685 )     1.69938366
  WF centre and spread    5  ( -1.610063,  0.913068,  1.800356 )     1.72394776
  WF centre and spread    6  (  1.595771, -0.937822, -0.795822 )     1.72394899
  Sum of centres and spreads ( -0.000099, -0.000173,  3.936710 )    10.24950850
 
     49    -0.238E-04     0.0042548577       10.2495102282       0.25  <-- CONV
        O_D=      0.0053255 O_OD=      0.1891279 O_TOT=     10.2495102 <-- SPRD
 Delta: O_D= -0.5172275E-05 O_OD= -0.1867691E-04 O_TOT= -0.2384918E-04 <-- DLTA
 ------------------------------------------------------------------------------
 Cycle:     50
  WF centre and spread    1  ( -1.634192,  0.823732,  2.032583 )     1.70140315
  WF centre and spread    2  (  1.530470, -1.003385, -0.563594 )     1.70140460
  WF centre and spread    3  (  1.656186, -0.820098, -0.566487 )     1.69938194
  WF centre and spread    4  ( -1.538319,  1.024250,  2.029690 )     1.69938175
  WF centre and spread    5  ( -1.610067,  0.913125,  1.800349 )     1.72395007
  WF centre and spread    6  (  1.595823, -0.937797, -0.795830 )     1.72395130
  Sum of centres and spreads ( -0.000099, -0.000173,  3.936712 )    10.24947281
 
     50    -0.357E-04     0.0030735591       10.2494745353       0.26  <-- CONV
        O_D=      0.0053287 O_OD=      0.1890890 O_TOT=     10.2494745 <-- SPRD
 Delta: O_D=  0.3220896E-05 O_OD= -0.3891384E-04 O_TOT= -0.3569294E-04 <-- DLTA
 ------------------------------------------------------------------------------
 Cycle:     51
  WF centre and spread    1  ( -1.634216,  0.823653,  2.032588 )     1.70137948
  WF centre and spread    2  (  1.530413, -1.003446, -0.563589 )     1.70138093
  WF centre and spread    3  (  1.656158, -0.820080, -0.566478 )     1.69937860
  WF centre and spread    4  ( -1.538290,  1.024235,  2.029699 )     1.69937841
  WF centre and spread    5  ( -1.610075,  0.913222,  1.800335 )     1.72395663
  WF centre and spread    6  (  1.595910, -0.937755, -0.795843 )     1.72395787
  Sum of centres and spreads ( -0.000099, -0.000172,  3.936711 )    10.24943192
 
     51    -0.409E-04     0.0037211504       10.2494336486       0.26  <-- CONV
        O_D=      0.0053275 O_OD=      0.1890492 O_TOT=     10.2494336 <-- SPRD
 Delta: O_D= -0.1150349E-05 O_OD= -0.3973631E-04 O_TOT= -0.4088666E-04 <-- DLTA
 ------------------------------------------------------------------------------
 Cycle:     52
  WF centre and spread    1  ( -1.634260,  0.823506,  2.032599 )     1.70134523
  WF centre and spread    2  (  1.530308, -1.003558, -0.563578 )     1.70134665
  WF centre and spread    3  (  1.656106, -0.820047, -0.566462 )     1.69937208
  WF centre and spread    4  ( -1.538235,  1.024206,  2.029715 )     1.69937185
  WF centre and spread    5  ( -1.610088,  0.913399,  1.800307 )     1.72396792
  WF centre and spread    6  (  1.596070, -0.937678, -0.795871 )     1.72396917
  Sum of centres and spreads ( -0.000098, -0.000171,  3.936709 )    10.24937291
 
     52    -0.590E-04     0.0039602009       10.2493746360       0.26  <-- CONV
        O_D=      0.0053315 O_OD=      0.1889863 O_TOT=     10.2493746 <-- SPRD
 Delta: O_D=  0.3947151E-05 O_OD= -0.6295973E-04 O_TOT= -0.5901258E-04 <-- DLTA
 ------------------------------------------------------------------------------
 Cycle:     53
  WF centre and spread    1  ( -1.634346,  0.823201,  2.032624 )     1.70128552
  WF centre and spread    2  (  1.530087, -1.003785, -0.563553 )     1.70128688
  WF centre and spread    3  (  1.656000, -0.819980, -0.566431 )     1.69936076
  WF centre and spread    4  ( -1.538124,  1.024148,  2.029747 )     1.69936042
  WF centre and spread    5  ( -1.610113,  0.913763,  1.800247 )     1.72398515
  WF centre and spread    6  (  1.596399, -0.937517, -0.795931 )     1.72398642
  Sum of centres and spreads ( -0.000097, -0.000170,  3.936703 )    10.24926515
 
     53    -0.108E-03     0.0052407132       10.2492668750       0.27  <-- CONV
        O_D=      0.0053390 O_OD=      0.1888709 O_TOT=     10.2492669 <-- SPRD
 Delta: O_D=  0.7570758E-05 O_OD= -0.1153317E-03 O_TOT= -0.1077610E-03 <-- DLTA
 ------------------------------------------------------------------------------
 Cycle:     54
  WF centre and spread    1  ( -1.634481,  0.822688,  2.032669 )     1.70119045
  WF centre and spread    2  (  1.529710, -1.004158, -0.563508 )     1.70119179
  WF centre and spread    3  (  1.655828, -0.819877, -0.566378 )     1.69935001
  WF centre and spread    4  ( -1.537948,  1.024051,  2.029800 )     1.69934963
  WF centre and spread    5  ( -1.610152,  0.914370,  1.800146 )     1.72400651
  WF centre and spread    6  (  1.596944, -0.937247, -0.796033 )     1.72400779
  Sum of centres and spreads ( -0.000099, -0.000173,  3.936696 )    10.24909617
 
     54    -0.169E-03     0.0071271586       10.2490978950       0.27  <-- CONV
        O_D=      0.0053793 O_OD=      0.1886617 O_TOT=     10.2490979 <-- SPRD
 Delta: O_D=  0.4028999E-04 O_OD= -0.2092701E-03 O_TOT= -0.1689801E-03 <-- DLTA
 ------------------------------------------------------------------------------
 Cycle:     55
  WF centre and spread    1  ( -1.634481,  0.822672,  2.032674 )     1.70116195
  WF centre and spread    2  (  1.529696, -1.004166, -0.563503 )     1.70116331
  WF centre and spread    3  (  1.655826, -0.819877, -0.566376 )     1.69932812
  WF centre and spread    4  ( -1.537948,  1.024049,  2.029801 )     1.69932779
  WF centre and spread    5  ( -1.610151,  0.914385,  1.800140 )     1.72397612
  WF centre and spread    6  (  1.596957, -0.937239, -0.796038 )     1.72397739
  Sum of centres and spreads ( -0.000101, -0.000175,  3.936697 )    10.24893467
 
     55    -0.162E-03     0.0109519531       10.2489363917       0.28  <-- CONV
        O_D=      0.0053343 O_OD=      0.1885452 O_TOT=     10.2489364 <-- SPRD
 Delta: O_D= -0.4499264E-04 O_OD= -0.1165106E-03 O_TOT= -0.1615033E-03 <-- DLTA
 ------------------------------------------------------------------------------
 Cycle:     56
  WF centre and spread    1  ( -1.634481,  0.822639,  2.032683 )     1.70114205
  WF centre and spread    2  (  1.529668, -1.004182, -0.563494 )     1.70114347
  WF centre and spread    3  (  1.655821, -0.819876, -0.566373 )     1.69932089
  WF centre and spread    4  ( -1.537945,  1.024045,  2.029804 )     1.69932067
  WF centre and spread    5  ( -1.610151,  0.914418,  1.800129 )     1.72395214
  WF centre and spread    6  (  1.596984, -0.937223, -0.796050 )     1.72395338
  Sum of centres and spreads ( -0.000103, -0.000179,  3.936698 )    10.24883260
 
     56    -0.102E-03     0.0069497891       10.2488343252       0.28  <-- CONV
        O_D=      0.0053254 O_OD=      0.1884520 O_TOT=     10.2488343 <-- SPRD
 Delta: O_D= -0.8898324E-05 O_OD= -0.9316812E-04 O_TOT= -0.1020664E-03 <-- DLTA
 ------------------------------------------------------------------------------
 Cycle:     57
  WF centre and spread    1  ( -1.634484,  0.822602,  2.032691 )     1.70113174
  WF centre and spread    2  (  1.529637, -1.004204, -0.563486 )     1.70113319
  WF centre and spread    3  (  1.655813, -0.819872, -0.566370 )     1.69932071
  WF centre and spread    4  ( -1.537937,  1.024040,  2.029807 )     1.69932052
  WF centre and spread    5  ( -1.610151,  0.914456,  1.800117 )     1.72393514
  WF centre and spread    6  (  1.597018, -0.937204, -0.796061 )     1.72393637
  Sum of centres and spreads ( -0.000104, -0.000182,  3.936698 )    10.24877768
 
     57    -0.549E-04     0.0050705820       10.2487794021       0.29  <-- CONV
        O_D=      0.0053199 O_OD=      0.1884026 O_TOT=     10.2487794 <-- SPRD
 Delta: O_D= -0.5513838E-05 O_OD= -0.4940929E-04 O_TOT= -0.5492313E-04 <-- DLTA
 ------------------------------------------------------------------------------
 Cycle:     58
  WF centre and spread    1  ( -1.634491,  0.822556,  2.032699 )     1.70112311
  WF centre and spread    2  (  1.529601, -1.004233, -0.563478 )     1.70112456
  WF centre and spread    3  (  1.655800, -0.819865, -0.566366 )     1.69932384
  WF centre and spread    4  ( -1.537924,  1.024032,  2.029811 )     1.69932366
  WF centre and spread    5  ( -1.610154,  0.914507,  1.800105 )     1.72392201
  WF centre and spread    6  (  1.597064, -0.937181, -0.796073 )     1.72392323
  Sum of centres and spreads ( -0.000105, -0.000183,  3.936697 )    10.24874040
 
     58    -0.373E-04     0.0037987000       10.2487421255       0.29  <-- CONV
        O_D=      0.0053198 O_OD=      0.1883654 O_TOT=     10.2487421 <-- SPRD
 Delta: O_D= -0.1107415E-06 O_OD= -0.3716591E-04 O_TOT= -0.3727665E-04 <-- DLTA
 ------------------------------------------------------------------------------
 Cycle:     59
  WF centre and spread    1  ( -1.634504,  0.822496,  2.032707 )     1.70111193
  WF centre and spread    2  (  1.529555, -1.004274, -0.563470 )     1.70111338
  WF centre and spread    3  (  1.655781, -0.819853, -0.566361 )     1.69932938
  WF centre and spread    4  ( -1.537904,  1.024022,  2.029817 )     1.69932920
  WF centre and spread    5  ( -1.610158,  0.914576,  1.800091 )     1.72391153
  WF centre and spread    6  (  1.597125, -0.937150, -0.796088 )     1.72391276
  Sum of centres and spreads ( -0.000105, -0.000183,  3.936696 )    10.24870819
 
     59    -0.322E-04     0.0035454432       10.2487099148       0.30  <-- CONV
        O_D=      0.0053163 O_OD=      0.1883367 O_TOT=     10.2487099 <-- SPRD
 Delta: O_D= -0.3472474E-05 O_OD= -0.2873820E-04 O_TOT= -0.3221068E-04 <-- DLTA
 ------------------------------------------------------------------------------
 Cycle:     60
  WF centre and spread    1  ( -1.634518,  0.822436,  2.032713 )     1.70109866
  WF centre and spread    2  (  1.529510, -1.004316, -0.563464 )     1.70110010
  WF centre and spread    3  (  1.655761, -0.819840, -0.566355 )     1.69933693
  WF centre and spread    4  ( -1.537883,  1.024011,  2.029822 )     1.69933674
  WF centre and spread    5  ( -1.610164,  0.914645,  1.800079 )     1.72390638
  WF centre and spread    6  (  1.597188, -0.937120, -0.796100 )     1.72390762
  Sum of centres and spreads ( -0.000105, -0.000184,  3.936695 )    10.24868644
 
     60    -0.218E-04     0.0029308561       10.2486881614       0.30  <-- CONV
        O_D=      0.0053205 O_OD=      0.1883108 O_TOT=     10.2486882 <-- SPRD
 Delta: O_D=  0.4132627E-05 O_OD= -0.2588605E-04 O_TOT= -0.2175342E-04 <-- DLTA
 ------------------------------------------------------------------------------
 Cycle:     61
  WF centre and spread    1  ( -1.634521,  0.822426,  2.032713 )     1.70109208
  WF centre and spread    2  (  1.529503, -1.004324, -0.563464 )     1.70109354
  WF centre and spread    3  (  1.655758, -0.819838, -0.566354 )     1.69933489
  WF centre and spread    4  ( -1.537880,  1.024009,  2.029824 )     1.69933472
  WF centre and spread    5  ( -1.610165,  0.914658,  1.800078 )     1.72390446
  WF centre and spread    6  (  1.597199, -0.937115, -0.796101 )     1.72390568
  Sum of centres and spreads ( -0.000105, -0.000183,  3.936696 )    10.24866537
 
     61    -0.211E-04     0.0039879970       10.2486670966       0.31  <-- CONV
        O_D=      0.0053158 O_OD=      0.1882944 O_TOT=     10.2486671 <-- SPRD
 Delta: O_D= -0.4664700E-05 O_OD= -0.1640005E-04 O_TOT= -0.2106475E-04 <-- DLTA
 ------------------------------------------------------------------------------
 Cycle:     62
  WF centre and spread    1  ( -1.634535,  0.822382,  2.032714 )     1.70107479
  WF centre and spread    2  (  1.529472, -1.004357, -0.563463 )     1.70107624
  WF centre and spread    3  (  1.655742, -0.819828, -0.566349 )     1.69933491
  WF centre and spread    4  ( -1.537863,  1.024001,  2.029828 )     1.69933473
  WF centre and spread    5  ( -1.610170,  0.914712,  1.800073 )     1.72390607
  WF centre and spread    6  (  1.597249, -0.937092, -0.796106 )     1.72390729
  Sum of centres and spreads ( -0.000105, -0.000183,  3.936697 )    10.24863402
 
     62    -0.314E-04     0.0028907942       10.2486357450       0.31  <-- CONV
        O_D=      0.0053189 O_OD=      0.1882600 O_TOT=     10.2486357 <-- SPRD
 Delta: O_D=  0.3062309E-05 O_OD= -0.3441391E-04 O_TOT= -0.3135160E-04 <-- DLTA
 ------------------------------------------------------------------------------
 Cycle:     63
  WF centre and spread    1  ( -1.634557,  0.822308,  2.032716 )     1.70105221
  WF centre and spread    2  (  1.529419, -1.004414, -0.563461 )     1.70105366
  WF centre and spread    3  (  1.655715, -0.819811, -0.566341 )     1.69933418
  WF centre and spread    4  ( -1.537835,  1.023986,  2.029836 )     1.69933399
  WF centre and spread    5  ( -1.610178,  0.914802,  1.800063 )     1.72391130
  WF centre and spread    6  (  1.597331, -0.937054, -0.796115 )     1.72391253
  Sum of centres and spreads ( -0.000105, -0.000182,  3.936697 )    10.24859786
 
     63    -0.362E-04     0.0034934185       10.2485995908       0.32  <-- CONV
        O_D=      0.0053177 O_OD=      0.1882250 O_TOT=     10.2485996 <-- SPRD
 Delta: O_D= -0.1129512E-05 O_OD= -0.3502467E-04 O_TOT= -0.3615418E-04 <-- DLTA
 ------------------------------------------------------------------------------
 Cycle:     64
  WF centre and spread    1  ( -1.634596,  0.822172,  2.032721 )     1.70102006
  WF centre and spread    2  (  1.529321, -1.004516, -0.563456 )     1.70102149
  WF centre and spread    3  (  1.655666, -0.819780, -0.566327 )     1.69933147
  WF centre and spread    4  ( -1.537783,  1.023959,  2.029850 )     1.69933125
  WF centre and spread    5  ( -1.610193,  0.914968,  1.800042 )     1.72392014
  WF centre and spread    6  (  1.597482, -0.936984, -0.796136 )     1.72392138
  Sum of centres and spreads ( -0.000104, -0.000181,  3.936695 )    10.24854578
 
     64    -0.521E-04     0.0037230108       10.2485475051       0.32  <-- CONV
        O_D=      0.0053214 O_OD=      0.1881692 O_TOT=     10.2485475 <-- SPRD
 Delta: O_D=  0.3623122E-05 O_OD= -0.5570885E-04 O_TOT= -0.5208573E-04 <-- DLTA
 ------------------------------------------------------------------------------
 Cycle:     65
  WF centre and spread    1  ( -1.634672,  0.821891,  2.032736 )     1.70096504
  WF centre and spread    2  (  1.529116, -1.004722, -0.563441 )     1.70096641
  WF centre and spread    3  (  1.655565, -0.819718, -0.566300 )     1.69932620
  WF centre and spread    4  ( -1.537679,  1.023903,  2.029878 )     1.69932588
  WF centre and spread    5  ( -1.610221,  0.915306,  1.799998 )     1.72393324
  WF centre and spread    6  (  1.597789, -0.936839, -0.796180 )     1.72393450
  Sum of centres and spreads ( -0.000103, -0.000180,  3.936691 )    10.24845128
 
     65    -0.945E-04     0.0049152311       10.2484530108       0.33  <-- CONV
        O_D=      0.0053277 O_OD=      0.1880684 O_TOT=     10.2484530 <-- SPRD
 Delta: O_D=  0.6346872E-05 O_OD= -0.1008412E-03 O_TOT= -0.9449433E-04 <-- DLTA
 ------------------------------------------------------------------------------
 Cycle:     66
  WF centre and spread    1  ( -1.634791,  0.821419,  2.032763 )     1.70087853
  WF centre and spread    2  (  1.528766, -1.005061, -0.563414 )     1.70087989
  WF centre and spread    3  (  1.655401, -0.819621, -0.566253 )     1.69932224
  WF centre and spread    4  ( -1.537513,  1.023809,  2.029924 )     1.69932189
  WF centre and spread    5  ( -1.610265,  0.915869,  1.799922 )     1.72394980
  WF centre and spread    6  (  1.598298, -0.936597, -0.796256 )     1.72395107
  Sum of centres and spreads ( -0.000104, -0.000182,  3.936686 )    10.24830343
 
     66    -0.148E-03     0.0066771289       10.2483051545       0.33  <-- CONV
        O_D=      0.0053649 O_OD=      0.1878833 O_TOT=     10.2483052 <-- SPRD
 Delta: O_D=  0.3719941E-04 O_OD= -0.1850556E-03 O_TOT= -0.1478562E-03 <-- DLTA
 ------------------------------------------------------------------------------
 Cycle:     67
  WF centre and spread    1  ( -1.634791,  0.821404,  2.032767 )     1.70085415
  WF centre and spread    2  (  1.528753, -1.005068, -0.563410 )     1.70085553
  WF centre and spread    3  (  1.655400, -0.819621, -0.566252 )     1.69930171
  WF centre and spread    4  ( -1.537513,  1.023807,  2.029925 )     1.69930141
  WF centre and spread    5  ( -1.610265,  0.915883,  1.799917 )     1.72392363
  WF centre and spread    6  (  1.598310, -0.936589, -0.796261 )     1.72392488
  Sum of centres and spreads ( -0.000106, -0.000184,  3.936687 )    10.24816131
 
     67    -0.142E-03     0.0102518594       10.2481630332       0.34  <-- CONV
        O_D=      0.0053238 O_OD=      0.1877824 O_TOT=     10.2481630 <-- SPRD
 Delta: O_D= -0.4113795E-04 O_OD= -0.1009833E-03 O_TOT= -0.1421213E-03 <-- DLTA
 ------------------------------------------------------------------------------
 Cycle:     68
  WF centre and spread    1  ( -1.634791,  0.821374,  2.032774 )     1.70083786
  WF centre and spread    2  (  1.528727, -1.005084, -0.563403 )     1.70083929
  WF centre and spread    3  (  1.655395, -0.819621, -0.566250 )     1.69929288
  WF centre and spread    4  ( -1.537510,  1.023804,  2.029928 )     1.69929267
  WF centre and spread    5  ( -1.610265,  0.915913,  1.799908 )     1.72390406
  WF centre and spread    6  (  1.598336, -0.936574, -0.796270 )     1.72390530
  Sum of centres and spreads ( -0.000108, -0.000188,  3.936687 )    10.24807206
 
     68    -0.892E-04     0.0065152411       10.2480737853       0.34  <-- CONV
        O_D=      0.0053162 O_OD=      0.1877007 O_TOT=     10.2480738 <-- SPRD
 Delta: O_D= -0.7628536E-05 O_OD= -0.8161938E-04 O_TOT= -0.8924791E-04 <-- DLTA
 ------------------------------------------------------------------------------
 Cycle:     69
  WF centre and spread    1  ( -1.634794,  0.821339,  2.032781 )     1.70083008
  WF centre and spread    2  (  1.528698, -1.005103, -0.563396 )     1.70083153
  WF centre and spread    3  (  1.655387, -0.819617, -0.566247 )     1.69929006
  WF centre and spread    4  ( -1.537503,  1.023798,  2.029931 )     1.69928988
  WF centre and spread    5  ( -1.610266,  0.915949,  1.799898 )     1.72389050
  WF centre and spread    6  (  1.598368, -0.936557, -0.796280 )     1.72389173
  Sum of centres and spreads ( -0.000109, -0.000190,  3.936687 )    10.24802377
 
     69    -0.483E-04     0.0047477434       10.2480254913       0.35  <-- CONV
        O_D=      0.0053112 O_OD=      0.1876574 O_TOT=     10.2480255 <-- SPRD
 Delta: O_D= -0.4991811E-05 O_OD= -0.4330224E-04 O_TOT= -0.4829405E-04 <-- DLTA
 ------------------------------------------------------------------------------
 Cycle:     70
  WF centre and spread    1  ( -1.634800,  0.821297,  2.032787 )     1.70082396
  WF centre and spread    2  (  1.528665, -1.005130, -0.563390 )     1.70082542
  WF centre and spread    3  (  1.655374, -0.819610, -0.566243 )     1.69928986
  WF centre and spread    4  ( -1.537490,  1.023791,  2.029934 )     1.69928969
  WF centre and spread    5  ( -1.610269,  0.915997,  1.799888 )     1.72388043
  WF centre and spread    6  (  1.598411, -0.936536, -0.796290 )     1.72388165
  Sum of centres and spreads ( -0.000110, -0.000191,  3.936687 )    10.24799101
 
     70    -0.328E-04     0.0035632285       10.2479927397       0.35  <-- CONV
        O_D=      0.0053111 O_OD=      0.1876247 O_TOT=     10.2479927 <-- SPRD
 Delta: O_D= -0.1184605E-07 O_OD= -0.3273975E-04 O_TOT= -0.3275159E-04 <-- DLTA
 ------------------------------------------------------------------------------
 Cycle:     71
  WF centre and spread    1  ( -1.634811,  0.821241,  2.032793 )     1.70081557
  WF centre and spread    2  (  1.528622, -1.005167, -0.563384 )     1.70081703
[...]
 Cycle:    481
  WF centre and spread    1  ( -1.636825,  0.806397,  2.030141 )     1.69845775
  WF centre and spread    2  (  1.516774, -1.014334, -0.566036 )     1.69845930
  WF centre and spread    3  (  1.648582, -0.814676, -0.565732 )     1.69893437
  WF centre and spread    4  ( -1.529822,  1.020376,  2.030445 )     1.69893425
  WF centre and spread    5  ( -1.615758,  0.934196,  1.802085 )     1.72398448
  WF centre and spread    6  (  1.616916, -0.932190, -0.794094 )     1.72398565
  Sum of centres and spreads ( -0.000133, -0.000231,  3.936810 )    10.24275581
 
    481    -0.259E-06     0.0004345045       10.2427575329       2.39  <-- CONV
        O_D=      0.0052738 O_OD=      0.1824268 O_TOT=     10.2427575 <-- SPRD
 Delta: O_D= -0.6926186E-07 O_OD= -0.1894173E-06 O_TOT= -0.2586792E-06 <-- DLTA
 ------------------------------------------------------------------------------
 Cycle:    482
  WF centre and spread    1  ( -1.636825,  0.806393,  2.030139 )     1.69845663
  WF centre and spread    2  (  1.516771, -1.014336, -0.566037 )     1.69845818
  WF centre and spread    3  (  1.648579, -0.814672, -0.565733 )     1.69893474
  WF centre and spread    4  ( -1.529818,  1.020375,  2.030444 )     1.69893462
  WF centre and spread    5  ( -1.615763,  0.934201,  1.802087 )     1.72398505
  WF centre and spread    6  (  1.616923, -0.932191, -0.794091 )     1.72398622
  Sum of centres and spreads ( -0.000133, -0.000231,  3.936810 )    10.24275544
 
    482    -0.368E-06     0.0003177365       10.2427571646       2.39  <-- CONV
        O_D=      0.0052738 O_OD=      0.1824265 O_TOT=     10.2427572 <-- SPRD
 Delta: O_D= -0.2208705E-07 O_OD= -0.3462225E-06 O_TOT= -0.3683096E-06 <-- DLTA
 ------------------------------------------------------------------------------
 Cycle:    483
  WF centre and spread    1  ( -1.636825,  0.806386,  2.030136 )     1.69845487
  WF centre and spread    2  (  1.516765, -1.014340, -0.566041 )     1.69845642
  WF centre and spread    3  (  1.648573, -0.814666, -0.565734 )     1.69893523
  WF centre and spread    4  ( -1.529809,  1.020373,  2.030443 )     1.69893511
  WF centre and spread    5  ( -1.615771,  0.934210,  1.802092 )     1.72398608
  WF centre and spread    6  (  1.616934, -0.932194, -0.794086 )     1.72398726
  Sum of centres and spreads ( -0.000133, -0.000231,  3.936810 )    10.24275497
 
    483    -0.473E-06     0.0003869813       10.2427566920       2.39  <-- CONV
        O_D=      0.0052738 O_OD=      0.1824260 O_TOT=     10.2427567 <-- SPRD
 Delta: O_D= -0.4688762E-07 O_OD= -0.4257057E-06 O_TOT= -0.4725933E-06 <-- DLTA
 ------------------------------------------------------------------------------
 Cycle:    484
  WF centre and spread    1  ( -1.636825,  0.806373,  2.030130 )     1.69845259
  WF centre and spread    2  (  1.516755, -1.014346, -0.566047 )     1.69845414
  WF centre and spread    3  (  1.648563, -0.814655, -0.565736 )     1.69893571
  WF centre and spread    4  ( -1.529795,  1.020370,  2.030441 )     1.69893558
  WF centre and spread    5  ( -1.615785,  0.934225,  1.802101 )     1.72398755
  WF centre and spread    6  (  1.616955, -0.932198, -0.794078 )     1.72398872
  Sum of centres and spreads ( -0.000132, -0.000230,  3.936811 )    10.24275429
 
    484    -0.679E-06     0.0004377105       10.2427560130       2.40  <-- CONV
        O_D=      0.0052738 O_OD=      0.1824253 O_TOT=     10.2427560 <-- SPRD
 Delta: O_D=  0.8106203E-07 O_OD= -0.7601136E-06 O_TOT= -0.6790515E-06 <-- DLTA
 ------------------------------------------------------------------------------
 Cycle:    485
  WF centre and spread    1  ( -1.636826,  0.806351,  2.030118 )     1.69844984
  WF centre and spread    2  (  1.516735, -1.014358, -0.566059 )     1.69845139
  WF centre and spread    3  (  1.648544, -0.814634, -0.565740 )     1.69893589
  WF centre and spread    4  ( -1.529767,  1.020364,  2.030438 )     1.69893576
  WF centre and spread    5  ( -1.615812,  0.934254,  1.802116 )     1.72398956
  WF centre and spread    6  (  1.616993, -0.932207, -0.794062 )     1.72399073
  Sum of centres and spreads ( -0.000132, -0.000230,  3.936812 )    10.24275317
 
    485    -0.111E-05     0.0005494475       10.2427548993       2.40  <-- CONV
        O_D=      0.0052740 O_OD=      0.1824240 O_TOT=     10.2427549 <-- SPRD
 Delta: O_D=  0.1486861E-06 O_OD= -0.1262368E-05 O_TOT= -0.1113682E-05 <-- DLTA
 ------------------------------------------------------------------------------
 Cycle:    486
  WF centre and spread    1  ( -1.636826,  0.806311,  2.030099 )     1.69844692
  WF centre and spread    2  (  1.516701, -1.014378, -0.566078 )     1.69844847
  WF centre and spread    3  (  1.648512, -0.814599, -0.565746 )     1.69893509
  WF centre and spread    4  ( -1.529721,  1.020354,  2.030432 )     1.69893497
  WF centre and spread    5  ( -1.615857,  0.934304,  1.802142 )     1.72399237
  WF centre and spread    6  (  1.617059, -0.932222, -0.794036 )     1.72399354
  Sum of centres and spreads ( -0.000132, -0.000229,  3.936813 )    10.24275136
 
    486    -0.181E-05     0.0007283212       10.2427530878       2.41  <-- CONV
        O_D=      0.0052746 O_OD=      0.1824216 O_TOT=     10.2427531 <-- SPRD
 Delta: O_D=  0.6181655E-06 O_OD= -0.2429702E-05 O_TOT= -0.1811536E-05 <-- DLTA
 ------------------------------------------------------------------------------
 Cycle:    487
  WF centre and spread    1  ( -1.636826,  0.806310,  2.030099 )     1.69844742
  WF centre and spread    2  (  1.516700, -1.014378, -0.566078 )     1.69844897
  WF centre and spread    3  (  1.648512, -0.814598, -0.565746 )     1.69893419
  WF centre and spread    4  ( -1.529720,  1.020354,  2.030432 )     1.69893407
  WF centre and spread    5  ( -1.615858,  0.934305,  1.802142 )     1.72399188
  WF centre and spread    6  (  1.617060, -0.932222, -0.794036 )     1.72399305
  Sum of centres and spreads ( -0.000132, -0.000230,  3.936813 )    10.24274959
 
    487    -0.177E-05     0.0011212600       10.2427513175       2.41  <-- CONV
        O_D=      0.0052741 O_OD=      0.1824203 O_TOT=     10.2427513 <-- SPRD
 Delta: O_D= -0.4797975E-06 O_OD= -0.1290434E-05 O_TOT= -0.1770231E-05 <-- DLTA
 ------------------------------------------------------------------------------
 Cycle:    488
  WF centre and spread    1  ( -1.636826,  0.806308,  2.030098 )     1.69844864
  WF centre and spread    2  (  1.516698, -1.014379, -0.566079 )     1.69845020
  WF centre and spread    3  (  1.648510, -0.814597, -0.565746 )     1.69893301
  WF centre and spread    4  ( -1.529718,  1.020354,  2.030431 )     1.69893289
  WF centre and spread    5  ( -1.615860,  0.934307,  1.802143 )     1.72399131
  WF centre and spread    6  (  1.617063, -0.932223, -0.794036 )     1.72399249
  Sum of centres and spreads ( -0.000132, -0.000230,  3.936813 )    10.24274853
 
    488    -0.106E-05     0.0007135043       10.2427502603       2.42  <-- CONV
        O_D=      0.0052741 O_OD=      0.1824193 O_TOT=     10.2427503 <-- SPRD
 Delta: O_D= -0.6360933E-07 O_OD= -0.9936437E-06 O_TOT= -0.1057253E-05 <-- DLTA
 ------------------------------------------------------------------------------
 Cycle:    489
  WF centre and spread    1  ( -1.636826,  0.806305,  2.030097 )     1.69844996
  WF centre and spread    2  (  1.516696, -1.014380, -0.566079 )     1.69845151
  WF centre and spread    3  (  1.648508, -0.814594, -0.565746 )     1.69893193
  WF centre and spread    4  ( -1.529715,  1.020353,  2.030431 )     1.69893181
  WF centre and spread    5  ( -1.615863,  0.934310,  1.802144 )     1.72399076
  WF centre and spread    6  (  1.617067, -0.932224, -0.794034 )     1.72399193
  Sum of centres and spreads ( -0.000132, -0.000230,  3.936813 )    10.24274790
 
    489    -0.632E-06     0.0005325697       10.2427496280       2.42  <-- CONV
        O_D=      0.0052740 O_OD=      0.1824187 O_TOT=     10.2427496 <-- SPRD
 Delta: O_D= -0.2548354E-07 O_OD= -0.6068362E-06 O_TOT= -0.6323197E-06 <-- DLTA
 ------------------------------------------------------------------------------
 Cycle:    490
  WF centre and spread    1  ( -1.636826,  0.806302,  2.030096 )     1.69845103
  WF centre and spread    2  (  1.516693, -1.014382, -0.566081 )     1.69845258
  WF centre and spread    3  (  1.648506, -0.814591, -0.565747 )     1.69893101
  WF centre and spread    4  ( -1.529711,  1.020352,  2.030431 )     1.69893089
  WF centre and spread    5  ( -1.615867,  0.934314,  1.802146 )     1.72399039
  WF centre and spread    6  (  1.617073, -0.932225, -0.794032 )     1.72399156
  Sum of centres and spreads ( -0.000132, -0.000230,  3.936813 )    10.24274747
 
    490    -0.434E-06     0.0004205288       10.2427491944       2.43  <-- CONV
        O_D=      0.0052741 O_OD=      0.1824182 O_TOT=     10.2427492 <-- SPRD
 Delta: O_D=  0.8258455E-07 O_OD= -0.5161317E-06 O_TOT= -0.4335471E-06 <-- DLTA
 ------------------------------------------------------------------------------
 Cycle:    491
  WF centre and spread    1  ( -1.636826,  0.806298,  2.030094 )     1.69845162
  WF centre and spread    2  (  1.516690, -1.014384, -0.566083 )     1.69845317
  WF centre and spread    3  (  1.648502, -0.814587, -0.565747 )     1.69893029
  WF centre and spread    4  ( -1.529706,  1.020352,  2.030430 )     1.69893017
  WF centre and spread    5  ( -1.615872,  0.934319,  1.802149 )     1.72399035
  WF centre and spread    6  (  1.617079, -0.932227, -0.794030 )     1.72399152
  Sum of centres and spreads ( -0.000132, -0.000230,  3.936813 )    10.24274713
 
    491    -0.335E-06     0.0003695512       10.2427488596       2.43  <-- CONV
        O_D=      0.0052742 O_OD=      0.1824178 O_TOT=     10.2427489 <-- SPRD
 Delta: O_D=  0.4939211E-07 O_OD= -0.3841766E-06 O_TOT= -0.3347844E-06 <-- DLTA
 ------------------------------------------------------------------------------
 Cycle:    492
  WF centre and spread    1  ( -1.636826,  0.806294,  2.030092 )     1.69845158
  WF centre and spread    2  (  1.516686, -1.014386, -0.566085 )     1.69845313
  WF centre and spread    3  (  1.648499, -0.814583, -0.565748 )     1.69892996
  WF centre and spread    4  ( -1.529700,  1.020350,  2.030429 )     1.69892984
  WF centre and spread    5  ( -1.615877,  0.934325,  1.802152 )     1.72399061
  WF centre and spread    6  (  1.617087, -0.932228, -0.794027 )     1.72399178
  Sum of centres and spreads ( -0.000132, -0.000230,  3.936813 )    10.24274690
 
    492    -0.234E-06     0.0003034892       10.2427486252       2.44  <-- CONV
        O_D=      0.0052743 O_OD=      0.1824175 O_TOT=     10.2427486 <-- SPRD
 Delta: O_D=  0.7959789E-07 O_OD= -0.3140176E-06 O_TOT= -0.2344197E-06 <-- DLTA
 ------------------------------------------------------------------------------
 Cycle:    493
  WF centre and spread    1  ( -1.636826,  0.806293,  2.030091 )     1.69845129
  WF centre and spread    2  (  1.516685, -1.014387, -0.566085 )     1.69845285
  WF centre and spread    3  (  1.648498, -0.814582, -0.565748 )     1.69893003
  WF centre and spread    4  ( -1.529699,  1.020350,  2.030429 )     1.69892991
  WF centre and spread    5  ( -1.615878,  0.934326,  1.802152 )     1.72399070
  WF centre and spread    6  (  1.617088, -0.932229, -0.794026 )     1.72399187
  Sum of centres and spreads ( -0.000132, -0.000230,  3.936813 )    10.24274667
 
    493    -0.233E-06     0.0004119813       10.2427483921       2.44  <-- CONV
        O_D=      0.0052742 O_OD=      0.1824173 O_TOT=     10.2427484 <-- SPRD
 Delta: O_D= -0.6310490E-07 O_OD= -0.1700631E-06 O_TOT= -0.2331680E-06 <-- DLTA
 ------------------------------------------------------------------------------
 Cycle:    494
  WF centre and spread    1  ( -1.636826,  0.806289,  2.030090 )     1.69845024
  WF centre and spread    2  (  1.516682, -1.014389, -0.566087 )     1.69845180
  WF centre and spread    3  (  1.648495, -0.814579, -0.565749 )     1.69893039
  WF centre and spread    4  ( -1.529695,  1.020349,  2.030429 )     1.69893027
  WF centre and spread    5  ( -1.615882,  0.934330,  1.802155 )     1.72399123
  WF centre and spread    6  (  1.617095, -0.932230, -0.794024 )     1.72399240
  Sum of centres and spreads ( -0.000132, -0.000230,  3.936814 )    10.24274633
 
    494    -0.332E-06     0.0003022978       10.2427480601       2.45  <-- CONV
        O_D=      0.0052742 O_OD=      0.1824170 O_TOT=     10.2427481 <-- SPRD
 Delta: O_D= -0.2428250E-07 O_OD= -0.3076388E-06 O_TOT= -0.3319213E-06 <-- DLTA
 ------------------------------------------------------------------------------
 Cycle:    495
  WF centre and spread    1  ( -1.636826,  0.806282,  2.030086 )     1.69844859
  WF centre and spread    2  (  1.516676, -1.014392, -0.566091 )     1.69845014
  WF centre and spread    3  (  1.648489, -0.814573, -0.565750 )     1.69893086
  WF centre and spread    4  ( -1.529687,  1.020347,  2.030427 )     1.69893074
  WF centre and spread    5  ( -1.615890,  0.934339,  1.802159 )     1.72399220
  WF centre and spread    6  (  1.617106, -0.932233, -0.794019 )     1.72399337
  Sum of centres and spreads ( -0.000132, -0.000230,  3.936814 )    10.24274591
 
    495    -0.425E-06     0.0003651463       10.2427476355       2.45  <-- CONV
        O_D=      0.0052741 O_OD=      0.1824166 O_TOT=     10.2427476 <-- SPRD
 Delta: O_D= -0.4261053E-07 O_OD= -0.3819955E-06 O_TOT= -0.4246060E-06 <-- DLTA
 ------------------------------------------------------------------------------
 Cycle:    496
  WF centre and spread    1  ( -1.636826,  0.806271,  2.030080 )     1.69844644
  WF centre and spread    2  (  1.516666, -1.014398, -0.566097 )     1.69844799
  WF centre and spread    3  (  1.648480, -0.814562, -0.565752 )     1.69893132
  WF centre and spread    4  ( -1.529673,  1.020344,  2.030425 )     1.69893120
  WF centre and spread    5  ( -1.615904,  0.934354,  1.802168 )     1.72399359
  WF centre and spread    6  (  1.617125, -0.932238, -0.794011 )     1.72399476
  Sum of centres and spreads ( -0.000132, -0.000229,  3.936814 )    10.24274530
 
    496    -0.611E-06     0.0004156867       10.2427470250       2.46  <-- CONV
        O_D=      0.0052742 O_OD=      0.1824159 O_TOT=     10.2427470 <-- SPRD
 Delta: O_D=  0.7606394E-07 O_OD= -0.6865852E-06 O_TOT= -0.6105212E-06 <-- DLTA
 ------------------------------------------------------------------------------
 Cycle:    497
  WF centre and spread    1  ( -1.636827,  0.806250,  2.030070 )     1.69844388
  WF centre and spread    2  (  1.516648, -1.014409, -0.566107 )     1.69844543
  WF centre and spread    3  (  1.648461, -0.814542, -0.565756 )     1.69893148
  WF centre and spread    4  ( -1.529646,  1.020339,  2.030422 )     1.69893136
  WF centre and spread    5  ( -1.615930,  0.934380,  1.802183 )     1.72399549
  WF centre and spread    6  (  1.617162, -0.932246, -0.793996 )     1.72399666
  Sum of centres and spreads ( -0.000132, -0.000229,  3.936815 )    10.24274430
 
    497    -0.997E-06     0.0005217623       10.2427460276       2.46  <-- CONV
        O_D=      0.0052743 O_OD=      0.1824148 O_TOT=     10.2427460 <-- SPRD
 Delta: O_D=  0.1402404E-06 O_OD= -0.1137644E-05 O_TOT= -0.9974039E-06 <-- DLTA
 ------------------------------------------------------------------------------
 Cycle:    498
  WF centre and spread    1  ( -1.636828,  0.806213,  2.030051 )     1.69844118
  WF centre and spread    2  (  1.516617, -1.014428, -0.566126 )     1.69844274
  WF centre and spread    3  (  1.648430, -0.814508, -0.565762 )     1.69893069
  WF centre and spread    4  ( -1.529601,  1.020329,  2.030416 )     1.69893057
  WF centre and spread    5  ( -1.615974,  0.934427,  1.802208 )     1.72399816
  WF centre and spread    6  (  1.617224, -0.932261, -0.793971 )     1.72399933
  Sum of centres and spreads ( -0.000131, -0.000228,  3.936817 )    10.24274268
 
    498    -0.163E-05     0.0006880614       10.2427444012       2.46  <-- CONV
        O_D=      0.0052749 O_OD=      0.1824126 O_TOT=     10.2427444 <-- SPRD
 Delta: O_D=  0.5683890E-06 O_OD= -0.2194814E-05 O_TOT= -0.1626425E-05 <-- DLTA
 ------------------------------------------------------------------------------
 Cycle:    499
  WF centre and spread    1  ( -1.636827,  0.806212,  2.030051 )     1.69844168
  WF centre and spread    2  (  1.516616, -1.014429, -0.566126 )     1.69844323
  WF centre and spread    3  (  1.648430, -0.814507, -0.565762 )     1.69892984
  WF centre and spread    4  ( -1.529600,  1.020329,  2.030416 )     1.69892972
  WF centre and spread    5  ( -1.615975,  0.934428,  1.802208 )     1.72399772
  WF centre and spread    6  (  1.617225, -0.932262, -0.793971 )     1.72399889
  Sum of centres and spreads ( -0.000131, -0.000229,  3.936816 )    10.24274109
 
    499    -0.159E-05     0.0010659141       10.2427428125       2.47  <-- CONV
        O_D=      0.0052745 O_OD=      0.1824114 O_TOT=     10.2427428 <-- SPRD
 Delta: O_D= -0.4332815E-06 O_OD= -0.1155441E-05 O_TOT= -0.1588722E-05 <-- DLTA
 ------------------------------------------------------------------------------
 Cycle:    500
  WF centre and spread    1  ( -1.636827,  0.806210,  2.030051 )     1.69844287
  WF centre and spread    2  (  1.516614, -1.014429, -0.566126 )     1.69844442
  WF centre and spread    3  (  1.648429, -0.814506, -0.565762 )     1.69892870
  WF centre and spread    4  ( -1.529598,  1.020329,  2.030415 )     1.69892858
  WF centre and spread    5  ( -1.615977,  0.934430,  1.802208 )     1.72399720
  WF centre and spread    6  (  1.617228, -0.932262, -0.793970 )     1.72399837
  Sum of centres and spreads ( -0.000131, -0.000229,  3.936816 )    10.24274013
 
    500    -0.953E-06     0.0006740365       10.2427418597       2.47  <-- CONV
        O_D=      0.0052744 O_OD=      0.1824105 O_TOT=     10.2427419 <-- SPRD
 Delta: O_D= -0.5558258E-07 O_OD= -0.8971312E-06 O_TOT= -0.9527138E-06 <-- DLTA
 ------------------------------------------------------------------------------

 Writing checkpoint file mp-804.chk... done

 Final State
  WF centre and spread    1  ( -1.636827,  0.806210,  2.030051 )     1.69844287
  WF centre and spread    2  (  1.516614, -1.014429, -0.566126 )     1.69844442
  WF centre and spread    3  (  1.648429, -0.814506, -0.565762 )     1.69892870
  WF centre and spread    4  ( -1.529598,  1.020329,  2.030415 )     1.69892858
  WF centre and spread    5  ( -1.615977,  0.934430,  1.802208 )     1.72399720
  WF centre and spread    6  (  1.617228, -0.932262, -0.793970 )     1.72399837
  Sum of centres and spreads ( -0.000131, -0.000229,  3.936816 )    10.24274013
 
         Spreads (Ang^2)       Omega I      =    10.055056893
        ================       Omega D      =     0.005274421
                               Omega OD     =     0.182410546
    Final Spread (Ang^2)       Omega Total  =    10.242741860
 ------------------------------------------------------------------------------
 Time for wannierise            2.472 (sec)

 Writing checkpoint file mp-804.chk... done

 Time for plotting              0.000 (sec)
 Total Execution Time           3.077 (sec)

 *===========================================================================*
 |                             TIMING INFORMATION                            |
 *===========================================================================*
 |    Tag                                                Ncalls      Time (s)|
 |---------------------------------------------------------------------------|
 |kmesh: get                                        :         1         0.387|
 |overlap: allocate                                 :         1         0.002|
 |overlap: read                                     :         1         0.174|
 |wann: main                                        :         1         2.472|
 |plot: main                                        :         1         0.000|
 *---------------------------------------------------------------------------*
 
 All done: wannier90 exiting
