
     Program PWSCF v.7.1 starts on  3Jan2024 at 14:27: 8 

     This program is part of the open-source Quantum ESPRESSO suite
     for quantum simulation of materials; please cite
         "P. Giannozzi et al., J. Phys.:Condens. Matter 21 395502 (2009);
         "P. Giannozzi et al., J. Phys.:Condens. Matter 29 465901 (2017);
         "P. Giannozzi et al., J. Chem. Phys. 152 154105 (2020);
          URL http://www.quantum-espresso.org", 
     in publications or presentations arising from this work. More details at
     http://www.quantum-espresso.org/quote

     Parallel version (MPI), running on     8 processors

     MPI processes distributed on     1 nodes
     122791 MiB available memory on the printing compute node when the environment starts
 
     Reading input from pw_mp-804_nscf_k3000_E65.in
Warning: card &IONS ignored
Warning: card / ignored
Warning: card &CELL ignored
Warning: card / ignored

     Current dimensions of program PWSCF are:
     Max number of different atomic species (ntypx) = 10
     Max number of k-points (npk) =  40000
     Max angular momentum in pseudopotentials (lmaxx) =  4

     Atomic positions and unit cell read from directory:
     out/mp-804.save/
     Atomic positions from file used, from input discarded
 
 
     R & G space division:  proc/nbgrp/npool/nimage =       8
     Subspace diagonalization in iterative solution of the eigenvalue problem:
     a serial algorithm will be used

 
     Parallelization info
     --------------------
     sticks:   dense  smooth     PW     G-vecs:    dense   smooth      PW
     Min          81      81     31                 2727     2727     657
     Max          82      82     32                 2734     2734     662
     Sum         649     649    253                21843    21843    5275
 
     Using Slab Decomposition
 


     bravais-lattice index     =            4
     lattice parameter (alat)  =       6.0262  a.u.
     unit-cell volume          =     308.5900 (a.u.)^3
     number of atoms/cell      =            4
     number of atomic types    =            2
     number of electrons       =        36.00
     number of Kohn-Sham states=           36
     kinetic-energy cutoff     =      65.0000  Ry
     charge density cutoff     =     260.0000  Ry
     Exchange-correlation= PBE
                           (   1   4   3   4   0   0   0)

     celldm(1)=   6.026205  celldm(2)=   0.000000  celldm(3)=   1.628244
     celldm(4)=   0.000000  celldm(5)=   0.000000  celldm(6)=   0.000000

     crystal axes: (cart. coord. in units of alat)
               a(1) = (   1.000000   0.000000   0.000000 )  
               a(2) = (  -0.500000   0.866025   0.000000 )  
               a(3) = (   0.000000   0.000000   1.628244 )  

     reciprocal axes: (cart. coord. in units 2 pi/alat)
               b(1) = (  1.000000  0.577350  0.000000 )  
               b(2) = (  0.000000  1.154701  0.000000 )  
               b(3) = (  0.000000  0.000000  0.614159 )  


     PseudoPot. # 1 for Ga read from file:
     /usr/scratch4/magr4985/MG/devEb/pseudo/SG15/Ga.upf
     MD5 check sum: e59e05528b6bde9b2cf5d4427c1b4355
     Pseudo is Norm-conserving, Zval = 13.0
     Generated using ONCVPSP code by D. R. Hamann
     Using radial grid of  602 points,  6 beta functions with: 
                l(1) =   0
                l(2) =   0
                l(3) =   1
                l(4) =   1
                l(5) =   2
                l(6) =   2

     PseudoPot. # 2 for N  read from file:
     /usr/scratch4/magr4985/MG/devEb/pseudo/SG15/N.upf
     MD5 check sum: 505747f69e3b1670e9a20de136ca1593
     Pseudo is Norm-conserving, Zval =  5.0
     Generated using ONCVPSP code by D. R. Hamann
     Using radial grid of  602 points,  4 beta functions with: 
                l(1) =   0
                l(2) =   0
                l(3) =   1
                l(4) =   1

     atomic species   valence    mass     pseudopotential
        Ga            13.00    69.72300     Ga( 1.00)
        N              5.00    14.00670     N ( 1.00)

     No symmetry found



   Cartesian axes

     site n.     atom                  positions (alat units)
         1           Ga  tau(   1) = (   0.0000000   0.5773502   0.8126302  )
         2           Ga  tau(   2) = (   0.5000000   0.2886752   1.6267523  )
         3           N   tau(   3) = (   0.0000000   0.5773502   1.4262057  )
         4           N   tau(   4) = (   0.5000000   0.2886752   0.6120835  )

     number of k points=   600  Gaussian smearing, width (Ry)=  0.0005

     Number of k-points >= 100: set verbosity='high' to print them.

     Dense  grid:    21843 G-vectors     FFT dimensions: (  32,  32,  54)

     Estimated max dynamical RAM per process >     117.40 MB

     Estimated total dynamical RAM >     939.20 MB

     The potential is recalculated from file :
     out/mp-804.save/charge-density

     Starting wfcs are random

     Band Structure Calculation
     Davidson diagonalization with overlap

     ethr =  5.00E-06,  avg # of iterations = 19.9

     total cpu time spent up to now is       88.8 secs

     End of band structure calculation

     Number of k-points >= 100: set verbosity='high' to print the bands.

     the Fermi energy is    10.8390 ev
     (compare with:    10.8390 eV, computed in scf)

     Writing all to output data dir out/mp-804.save/
 
     init_run     :      0.07s CPU      0.08s WALL (       1 calls)
     electrons    :     84.41s CPU     88.55s WALL (       1 calls)

     Called by init_run:
     wfcinit      :      0.00s CPU      0.00s WALL (       1 calls)
     potinit      :      0.01s CPU      0.02s WALL (       1 calls)
     hinit0       :      0.03s CPU      0.03s WALL (       1 calls)

     Called by electrons:
     c_bands      :     84.40s CPU     88.54s WALL (       1 calls)
     v_of_rho     :      0.01s CPU      0.01s WALL (       1 calls)

     Called by c_bands:
     init_us_2    :      0.07s CPU      0.08s WALL (     600 calls)
     init_us_2:cp :      0.07s CPU      0.08s WALL (     600 calls)
     cegterg      :     79.73s CPU     82.27s WALL (     781 calls)

     Called by *egterg:
     cdiaghg      :     22.67s CPU     22.94s WALL (   12542 calls)
     h_psi        :     47.73s CPU     49.97s WALL (   13323 calls)
     g_psi        :      0.59s CPU      0.60s WALL (   11942 calls)

     Called by h_psi:
     h_psi:calbec :      2.05s CPU      2.15s WALL (   13323 calls)
     vloc_psi     :     43.72s CPU     45.79s WALL (   13323 calls)
     add_vuspsi   :      1.68s CPU      1.75s WALL (   13323 calls)

     General routines
     calbec       :      2.02s CPU      2.12s WALL (   13323 calls)
     fft          :      0.01s CPU      0.01s WALL (      10 calls)
     fftw         :     38.89s CPU     40.72s WALL (  664422 calls)
 
     Parallel routines
 
     PWSCF        :   1m25.86s CPU   1m33.72s WALL

 
   This run was terminated on:  14:28:41   3Jan2024            

=------------------------------------------------------------------------------=
   JOB DONE.
=------------------------------------------------------------------------------=
