<?xml version="1.0" encoding="ISO-8859-1"?>
<modeling>
 <generator>
  <i name="program" type="string">vasp </i>
  <i name="version" type="string">5.4.4.18Apr17-6-g9f103f2a35  </i>
  <i name="subversion" type="string">(build Aug 24 2017 11:22:49) complex            parallel </i>
  <i name="platform" type="string">LinuxIFC </i>
  <i name="date" type="string">2023 12 25 </i>
  <i name="time" type="string">13:07:17 </i>
 </generator>
 <incar>
  <i type="string" name="PREC">accurate</i>
  <i type="string" name="ALGO"> Normal</i>
  <i type="int" name="NELM">   100</i>
  <i type="int" name="IBRION">     8</i>
  <i name="EDIFF">      0.00000001</i>
  <i name="SYMPREC">      0.00000001</i>
  <i name="ENCUT">    520.00000000</i>
  <i type="logical" name="LREAL"> F  </i>
  <i type="int" name="ISMEAR">     0</i>
  <i name="SIGMA">      0.01000000</i>
  <i type="logical" name="LWAVE"> F  </i>
  <v type="int" name="KPOINT_BSE">    -1     0     0     0</v>
  <i type="int" name="NELM">   100</i>
  <i type="logical" name="LPEAD"> T  </i>
  <i type="logical" name="LEPSILON"> T  </i>
 </incar>
 <structure name="primitive_cell" >
  <crystal>
   <varray name="basis" >
    <v>       2.40251343      -1.38709177       4.37208408 </v>
    <v>       0.00000000       2.77418355       4.37208408 </v>
    <v>      -2.40251343      -1.38709177       4.37208408 </v>
   </varray>
   <i name="volume">     87.41999453 </i>
   <varray name="rec_basis" >
    <v>       0.20811538      -0.12015547       0.07624129 </v>
    <v>      -0.00000000       0.24031094       0.07624129 </v>
    <v>      -0.20811538      -0.12015547       0.07624129 </v>
   </varray>
  </crystal>
  <varray name="positions" >
   <v>      -0.35209595      -0.35209595      -0.35209603 </v>
   <v>      -0.44385446      -0.05614550       0.25000002 </v>
   <v>       0.25000002      -0.44385446      -0.05614550 </v>
   <v>      -0.05614543       0.25000002      -0.44385453 </v>
   <v>       0.05614558      -0.24999994       0.44385446 </v>
   <v>      -0.24999994       0.44385453       0.05614550 </v>
   <v>       0.44385453       0.05614558      -0.25000002 </v>
   <v>      -0.14790393      -0.14790401      -0.14790401 </v>
   <v>       0.35209603       0.35209603       0.35209603 </v>
   <v>       0.14790409       0.14790401       0.14790401 </v>
  </varray>
 </structure>
 <varray name="primitive_index" >
  <v type="int" >        1 </v>
  <v type="int" >       10 </v>
  <v type="int" >        9 </v>
  <v type="int" >        6 </v>
  <v type="int" >        7 </v>
  <v type="int" >        8 </v>
  <v type="int" >        5 </v>
  <v type="int" >        2 </v>
  <v type="int" >        4 </v>
  <v type="int" >        3 </v>
 </varray>
 <kpoints>
  <generation param="Gamma">
   <v type="int" name="divisions">       6        6        6 </v>
   <v name="usershift">      0.00000000       0.00000000       0.00000000 </v>
   <v name="genvec1">      0.16666667      -0.00000000       0.00000000 </v>
   <v name="genvec2">     -0.00000000       0.16666667      -0.00000000 </v>
   <v name="genvec3">      0.00000000      -0.00000000       0.16666667 </v>
   <v name="shift">      0.00000000       0.00000000       0.00000000 </v>
  </generation>
  <varray name="kpointlist" >
   <v>       0.00000000       0.00000000       0.00000000 </v>
   <v>       0.16666667      -0.00000000       0.00000000 </v>
   <v>       0.33333333      -0.00000000       0.00000000 </v>
   <v>       0.50000000      -0.00000000       0.00000000 </v>
   <v>      -0.00000000       0.16666667      -0.00000000 </v>
   <v>       0.16666667       0.16666667      -0.00000000 </v>
   <v>       0.33333333       0.16666667      -0.00000000 </v>
   <v>       0.50000000       0.16666667      -0.00000000 </v>
   <v>      -0.33333333       0.16666667       0.00000000 </v>
   <v>      -0.16666667       0.16666667      -0.00000000 </v>
   <v>      -0.00000000       0.33333333      -0.00000000 </v>
   <v>       0.16666667       0.33333333      -0.00000000 </v>
   <v>       0.33333333       0.33333333      -0.00000000 </v>
   <v>       0.50000000       0.33333333      -0.00000000 </v>
   <v>      -0.33333333       0.33333333      -0.00000000 </v>
   <v>      -0.16666667       0.33333333      -0.00000000 </v>
   <v>      -0.00000000       0.50000000      -0.00000000 </v>
   <v>       0.16666667       0.50000000      -0.00000000 </v>
   <v>       0.33333333       0.50000000      -0.00000000 </v>
   <v>       0.50000000       0.50000000      -0.00000000 </v>
   <v>      -0.00000000      -0.00000000       0.16666667 </v>
   <v>       0.16666667      -0.00000000       0.16666667 </v>
   <v>       0.33333333      -0.00000000       0.16666667 </v>
   <v>       0.50000000      -0.00000000       0.16666667 </v>
   <v>      -0.33333333       0.00000000       0.16666667 </v>
   <v>      -0.16666667      -0.00000000       0.16666667 </v>
   <v>      -0.00000000       0.16666667       0.16666667 </v>
   <v>       0.16666667       0.16666667       0.16666667 </v>
   <v>       0.33333333       0.16666667       0.16666667 </v>
   <v>       0.50000000       0.16666667       0.16666667 </v>
   <v>      -0.33333333       0.16666667       0.16666667 </v>
   <v>      -0.16666667       0.16666667       0.16666667 </v>
   <v>      -0.00000000       0.33333333       0.16666667 </v>
   <v>       0.16666667       0.33333333       0.16666667 </v>
   <v>       0.33333333       0.33333333       0.16666667 </v>
   <v>       0.50000000       0.33333333       0.16666667 </v>
   <v>      -0.33333333       0.33333333       0.16666667 </v>
   <v>      -0.16666667       0.33333333       0.16666667 </v>
   <v>      -0.00000000       0.50000000       0.16666667 </v>
   <v>       0.16666667       0.50000000       0.16666667 </v>
   <v>       0.33333333       0.50000000       0.16666667 </v>
   <v>       0.50000000       0.50000000       0.16666667 </v>
   <v>      -0.33333333       0.50000000       0.16666667 </v>
   <v>      -0.16666667       0.50000000       0.16666667 </v>
   <v>       0.00000000      -0.33333333       0.16666667 </v>
   <v>       0.16666667      -0.33333333       0.16666667 </v>
   <v>       0.33333333      -0.33333333       0.16666667 </v>
   <v>       0.50000000      -0.33333333       0.16666667 </v>
   <v>      -0.33333333      -0.33333333       0.16666667 </v>
   <v>      -0.16666667      -0.33333333       0.16666667 </v>
   <v>      -0.00000000      -0.16666667       0.16666667 </v>
   <v>       0.16666667      -0.16666667       0.16666667 </v>
   <v>       0.33333333      -0.16666667       0.16666667 </v>
   <v>       0.50000000      -0.16666667       0.16666667 </v>
   <v>      -0.33333333      -0.16666667       0.16666667 </v>
   <v>      -0.16666667      -0.16666667       0.16666667 </v>
   <v>      -0.00000000      -0.00000000       0.33333333 </v>
   <v>       0.16666667      -0.00000000       0.33333333 </v>
   <v>       0.33333333      -0.00000000       0.33333333 </v>
   <v>       0.50000000      -0.00000000       0.33333333 </v>
   <v>      -0.33333333       0.00000000       0.33333333 </v>
   <v>      -0.16666667      -0.00000000       0.33333333 </v>
   <v>      -0.00000000       0.16666667       0.33333333 </v>
   <v>       0.16666667       0.16666667       0.33333333 </v>
   <v>       0.33333333       0.16666667       0.33333333 </v>
   <v>       0.50000000       0.16666667       0.33333333 </v>
   <v>      -0.33333333       0.16666667       0.33333333 </v>
   <v>      -0.16666667       0.16666667       0.33333333 </v>
   <v>      -0.00000000       0.33333333       0.33333333 </v>
   <v>       0.16666667       0.33333333       0.33333333 </v>
   <v>       0.33333333       0.33333333       0.33333333 </v>
   <v>       0.50000000       0.33333333       0.33333333 </v>
   <v>      -0.33333333       0.33333333       0.33333333 </v>
   <v>      -0.16666667       0.33333333       0.33333333 </v>
   <v>      -0.00000000       0.50000000       0.33333333 </v>
   <v>       0.16666667       0.50000000       0.33333333 </v>
   <v>       0.33333333       0.50000000       0.33333333 </v>
   <v>       0.50000000       0.50000000       0.33333333 </v>
   <v>      -0.33333333       0.50000000       0.33333333 </v>
   <v>      -0.16666667       0.50000000       0.33333333 </v>
   <v>       0.00000000      -0.33333333       0.33333333 </v>
   <v>       0.16666667      -0.33333333       0.33333333 </v>
   <v>       0.33333333      -0.33333333       0.33333333 </v>
   <v>       0.50000000      -0.33333333       0.33333333 </v>
   <v>      -0.33333333      -0.33333333       0.33333333 </v>
   <v>      -0.16666667      -0.33333333       0.33333333 </v>
   <v>      -0.00000000      -0.16666667       0.33333333 </v>
   <v>       0.16666667      -0.16666667       0.33333333 </v>
   <v>       0.33333333      -0.16666667       0.33333333 </v>
   <v>       0.50000000      -0.16666667       0.33333333 </v>
   <v>      -0.33333333      -0.16666667       0.33333333 </v>
   <v>      -0.16666667      -0.16666667       0.33333333 </v>
   <v>       0.00000000      -0.00000000       0.50000000 </v>
   <v>       0.16666667      -0.00000000       0.50000000 </v>
   <v>       0.33333333      -0.00000000       0.50000000 </v>
   <v>       0.50000000      -0.00000000       0.50000000 </v>
   <v>      -0.00000000       0.16666667       0.50000000 </v>
   <v>       0.16666667       0.16666667       0.50000000 </v>
   <v>       0.33333333       0.16666667       0.50000000 </v>
   <v>       0.50000000       0.16666667       0.50000000 </v>
   <v>      -0.33333333       0.16666667       0.50000000 </v>
   <v>      -0.16666667       0.16666667       0.50000000 </v>
   <v>      -0.00000000       0.33333333       0.50000000 </v>
   <v>       0.16666667       0.33333333       0.50000000 </v>
   <v>       0.33333333       0.33333333       0.50000000 </v>
   <v>       0.50000000       0.33333333       0.50000000 </v>
   <v>      -0.33333333       0.33333333       0.50000000 </v>
   <v>      -0.16666667       0.33333333       0.50000000 </v>
   <v>      -0.00000000       0.50000000       0.50000000 </v>
   <v>       0.16666667       0.50000000       0.50000000 </v>
   <v>       0.33333333       0.50000000       0.50000000 </v>
   <v>       0.50000000       0.50000000       0.50000000 </v>
  </varray>
  <varray name="weights" >
   <v>       0.00462963 </v>
   <v>       0.00925926 </v>
   <v>       0.00925926 </v>
   <v>       0.00462963 </v>
   <v>       0.00925926 </v>
   <v>       0.00925926 </v>
   <v>       0.00925926 </v>
   <v>       0.00925926 </v>
   <v>       0.00925926 </v>
   <v>       0.00925926 </v>
   <v>       0.00925926 </v>
   <v>       0.00925926 </v>
   <v>       0.00925926 </v>
   <v>       0.00925926 </v>
   <v>       0.00925926 </v>
   <v>       0.00925926 </v>
   <v>       0.00462963 </v>
   <v>       0.00925926 </v>
   <v>       0.00925926 </v>
   <v>       0.00462963 </v>
   <v>       0.00925926 </v>
   <v>       0.00925926 </v>
   <v>       0.00925926 </v>
   <v>       0.00925926 </v>
   <v>       0.00925926 </v>
   <v>       0.00925926 </v>
   <v>       0.00925926 </v>
   <v>       0.00925926 </v>
   <v>       0.00925926 </v>
   <v>       0.00925926 </v>
   <v>       0.00925926 </v>
   <v>       0.00925926 </v>
   <v>       0.00925926 </v>
   <v>       0.00925926 </v>
   <v>       0.00925926 </v>
   <v>       0.00925926 </v>
   <v>       0.00925926 </v>
   <v>       0.00925926 </v>
   <v>       0.00925926 </v>
   <v>       0.00925926 </v>
   <v>       0.00925926 </v>
   <v>       0.00925926 </v>
   <v>       0.00925926 </v>
   <v>       0.00925926 </v>
   <v>       0.00925926 </v>
   <v>       0.00925926 </v>
   <v>       0.00925926 </v>
   <v>       0.00925926 </v>
   <v>       0.00925926 </v>
   <v>       0.00925926 </v>
   <v>       0.00925926 </v>
   <v>       0.00925926 </v>
   <v>       0.00925926 </v>
   <v>       0.00925926 </v>
   <v>       0.00925926 </v>
   <v>       0.00925926 </v>
   <v>       0.00925926 </v>
   <v>       0.00925926 </v>
   <v>       0.00925926 </v>
   <v>       0.00925926 </v>
   <v>       0.00925926 </v>
   <v>       0.00925926 </v>
   <v>       0.00925926 </v>
   <v>       0.00925926 </v>
   <v>       0.00925926 </v>
   <v>       0.00925926 </v>
   <v>       0.00925926 </v>
   <v>       0.00925926 </v>
   <v>       0.00925926 </v>
   <v>       0.00925926 </v>
   <v>       0.00925926 </v>
   <v>       0.00925926 </v>
   <v>       0.00925926 </v>
   <v>       0.00925926 </v>
   <v>       0.00925926 </v>
   <v>       0.00925926 </v>
   <v>       0.00925926 </v>
   <v>       0.00925926 </v>
   <v>       0.00925926 </v>
   <v>       0.00925926 </v>
   <v>       0.00925926 </v>
   <v>       0.00925926 </v>
   <v>       0.00925926 </v>
   <v>       0.00925926 </v>
   <v>       0.00925926 </v>
   <v>       0.00925926 </v>
   <v>       0.00925926 </v>
   <v>       0.00925926 </v>
   <v>       0.00925926 </v>
   <v>       0.00925926 </v>
   <v>       0.00925926 </v>
   <v>       0.00925926 </v>
   <v>       0.00462963 </v>
   <v>       0.00925926 </v>
   <v>       0.00925926 </v>
   <v>       0.00462963 </v>
   <v>       0.00925926 </v>
   <v>       0.00925926 </v>
   <v>       0.00925926 </v>
   <v>       0.00925926 </v>
   <v>       0.00925926 </v>
   <v>       0.00925926 </v>
   <v>       0.00925926 </v>
   <v>       0.00925926 </v>
   <v>       0.00925926 </v>
   <v>       0.00925926 </v>
   <v>       0.00925926 </v>
   <v>       0.00925926 </v>
   <v>       0.00462963 </v>
   <v>       0.00925926 </v>
   <v>       0.00925926 </v>
   <v>       0.00462963 </v>
  </varray>
 </kpoints>
 <parameters>
  <separator name="general" >
   <i type="string" name="SYSTEM">unknown system</i>
   <i type="logical" name="LCOMPAT"> F  </i>
  </separator>
  <separator name="electronic" >
   <i type="string" name="PREC">accura</i>
   <i name="ENMAX">    520.00000000</i>
   <i name="ENAUG">    605.39200000</i>
   <i name="EDIFF">      0.00000001</i>
   <i type="int" name="IALGO">    38</i>
   <i type="int" name="IWAVPR">    11</i>
   <i type="int" name="NBANDS">    32</i>
   <i name="NELECT">     48.00000000</i>
   <i type="int" name="TURBO">     0</i>
   <i type="int" name="IRESTART">     0</i>
   <i type="int" name="NREBOOT">     0</i>
   <i type="int" name="NMIN">     0</i>
   <i name="EREF">      0.00000000</i>
   <separator name="electronic smearing" >
    <i type="int" name="ISMEAR">     0</i>
    <i name="SIGMA">      0.01000000</i>
    <i name="KSPACING">      0.50000000</i>
    <i type="logical" name="KGAMMA"> T  </i>
   </separator>
   <separator name="electronic projectors" >
    <i type="logical" name="LREAL"> F  </i>
    <v name="ROPT">      0.00000000      0.00000000</v>
    <i type="int" name="LMAXPAW">  -100</i>
    <i type="int" name="LMAXMIX">     2</i>
    <i type="logical" name="NLSPLINE"> F  </i>
   </separator>
   <separator name="electronic startup" >
    <i type="int" name="ISTART">     0</i>
    <i type="int" name="ICHARG">     2</i>
    <i type="int" name="INIWAV">     1</i>
   </separator>
   <separator name="electronic spin" >
    <i type="int" name="ISPIN">     1</i>
    <i type="logical" name="LNONCOLLINEAR"> F  </i>
    <v name="MAGMOM">      1.00000000      1.00000000      1.00000000      1.00000000      1.00000000      1.00000000      1.00000000      1.00000000      1.00000000      1.00000000</v>
    <i name="NUPDOWN">     -1.00000000</i>
    <i type="logical" name="LSORBIT"> F  </i>
    <v name="SAXIS">      0.00000000      0.00000000      1.00000000</v>
    <i type="logical" name="LSPIRAL"> F  </i>
    <v name="QSPIRAL">      0.00000000      0.00000000      0.00000000</v>
    <i type="logical" name="LZEROZ"> F  </i>
   </separator>
   <separator name="electronic exchange-correlation" >
    <i type="logical" name="LASPH"> F  </i>
    <i type="logical" name="LMETAGGA"> F  </i>
   </separator>
   <separator name="electronic convergence" >
    <i type="int" name="NELM">   100</i>
    <i type="int" name="NELMDL">    -5</i>
    <i type="int" name="NELMIN">     2</i>
    <i name="ENINI">    520.00000000</i>
    <separator name="electronic convergence detail" >
     <i type="logical" name="LDIAG"> T  </i>
     <i type="logical" name="LSUBROT"> F  </i>
     <i name="WEIMIN">      0.00100000</i>
     <i name="EBREAK">      0.00000000</i>
     <i name="DEPER">      0.30000000</i>
     <i type="int" name="NRMM">     4</i>
     <i name="TIME">      0.40000000</i>
    </separator>
   </separator>
   <separator name="electronic mixer" >
    <i name="AMIX">      0.40000000</i>
    <i name="BMIX">      1.00000000</i>
    <i name="AMIN">      0.10000000</i>
    <i name="AMIX_MAG">      1.60000000</i>
    <i name="BMIX_MAG">      1.00000000</i>
    <separator name="electronic mixer details" >
     <i type="int" name="IMIX">     4</i>
     <i type="logical" name="MIXFIRST"> F  </i>
     <i type="int" name="MAXMIX">   -45</i>
     <i name="WC">    100.00000000</i>
     <i type="int" name="INIMIX">     1</i>
     <i type="int" name="MIXPRE">     1</i>
     <i type="int" name="MREMOVE">     5</i>
    </separator>
   </separator>
   <separator name="electronic dipolcorrection" >
    <i type="logical" name="LDIPOL"> F  </i>
    <i type="logical" name="LMONO"> F  </i>
    <i type="int" name="IDIPOL">     0</i>
    <i name="EPSILON">      1.00000000</i>
    <v name="DIPOL">   -100.00000000   -100.00000000   -100.00000000</v>
    <i name="EFIELD">      0.00000000</i>
   </separator>
  </separator>
  <separator name="grids" >
   <i type="int" name="NGX">    40</i>
   <i type="int" name="NGY">    40</i>
   <i type="int" name="NGZ">    40</i>
   <i type="int" name="NGXF">    80</i>
   <i type="int" name="NGYF">    80</i>
   <i type="int" name="NGZF">    80</i>
   <i type="logical" name="ADDGRID"> F  </i>
  </separator>
  <separator name="ionic" >
   <i type="int" name="NSW">     1</i>
   <i type="int" name="IBRION">     8</i>
   <i type="int" name="MDALGO">     0</i>
   <i type="int" name="ISIF">     2</i>
   <i name="PSTRESS">      0.00000000</i>
   <i name="EDIFFG">      0.00000010</i>
   <i type="int" name="NFREE">     0</i>
   <i name="POTIM">      0.50000000</i>
   <i name="SMASS">     -3.00000000</i>
   <i name="SCALEE">      1.00000000</i>
  </separator>
  <separator name="ionic md" >
   <i name="TEBEG">      0.00010000</i>
   <i name="TEEND">      0.00010000</i>
   <i type="int" name="NBLOCK">     1</i>
   <i type="int" name="KBLOCK">     1</i>
   <i type="int" name="NPACO">   256</i>
   <i name="APACO">     16.00000000</i>
  </separator>
  <separator name="symmetry" >
   <i type="int" name="ISYM">     2</i>
   <i name="SYMPREC">      0.00000001</i>
  </separator>
  <separator name="dos" >
   <i type="int" name="LORBIT">     0</i>
   <v name="RWIGS">     -1.00000000     -1.00000000</v>
   <i type="int" name="NEDOS">   301</i>
   <i name="EMIN">     10.00000000</i>
   <i name="EMAX">    -10.00000000</i>
   <i name="EFERMI">      0.00000000</i>
  </separator>
  <separator name="writing" >
   <i type="int" name="NWRITE">     2</i>
   <i type="logical" name="LWAVE"> F  </i>
   <i type="logical" name="LDOWNSAMPLE"> F  </i>
   <i type="logical" name="LCHARG"> T  </i>
   <i type="logical" name="LPARD"> F  </i>
   <i type="logical" name="LVTOT"> F  </i>
   <i type="logical" name="LVHAR"> F  </i>
   <i type="logical" name="LELF"> F  </i>
   <i type="logical" name="LOPTICS"> F  </i>
   <v name="STM">      0.00000000      0.00000000      0.00000000      0.00000000      0.00000000      0.00000000      0.00000000</v>
  </separator>
  <separator name="performance" >
   <i type="int" name="NPAR">     8</i>
   <i type="int" name="NSIM">     4</i>
   <i type="int" name="NBLK">    -1</i>
   <i type="logical" name="LPLANE"> T  </i>
   <i type="logical" name="LSCALAPACK"> T  </i>
   <i type="logical" name="LSCAAWARE"> F  </i>
   <i type="logical" name="LSCALU"> F  </i>
   <i type="logical" name="LASYNC"> F  </i>
   <i type="logical" name="LORBITALREAL"> F  </i>
  </separator>
  <separator name="miscellaneous" >
   <i type="int" name="IDIOT">     3</i>
   <i type="int" name="ISPECIAL">     0</i>
   <i type="logical" name="LMUSIC"> F  </i>
   <v name="POMASS">     26.98100000     16.00000000</v>
   <v name="DARWINR">      0.00000000      0.00000000</v>
   <v name="DARWINV">      1.00000000      1.00000000</v>
   <i type="logical" name="LCORR"> T  </i>
  </separator>
  <i type="logical" name="GGA_COMPAT"> T  </i>
  <i type="logical" name="LBERRY"> F  </i>
  <i type="int" name="ICORELEVEL">     0</i>
  <i type="logical" name="LDAU"> F  </i>
  <i type="int" name="I_CONSTRAINED_M">     0</i>
  <separator name="electronic exchange-correlation" >
   <i type="string" name="GGA">--</i>
   <i type="int" name="VOSKOWN">     0</i>
   <i type="logical" name="LHFCALC"> F  </i>
   <i type="string" name="PRECFOCK"></i>
   <i type="logical" name="LSYMGRAD"> F  </i>
   <i type="logical" name="LHFONE"> F  </i>
   <i type="logical" name="LRHFCALC"> F  </i>
   <i type="logical" name="LTHOMAS"> F  </i>
   <i type="logical" name="LMODELHF"> F  </i>
   <i name="ENCUT4O">     -1.00000000</i>
   <i type="int" name="EXXOEP">     0</i>
   <i type="int" name="FOURORBIT">     0</i>
   <i name="AEXX">      0.00000000</i>
   <i name="HFALPHA">      0.00000000</i>
   <i name="MCALPHA">      0.00000000</i>
   <i name="ALDAX">      1.00000000</i>
   <i name="AGGAX">      1.00000000</i>
   <i name="ALDAC">      1.00000000</i>
   <i name="AGGAC">      1.00000000</i>
   <i type="int" name="NKREDX">     1</i>
   <i type="int" name="NKREDY">     1</i>
   <i type="int" name="NKREDZ">     1</i>
   <i type="logical" name="SHIFTRED"> F  </i>
   <i type="logical" name="ODDONLY"> F  </i>
   <i type="logical" name="EVENONLY"> F  </i>
   <i type="int" name="LMAXFOCK">     0</i>
   <i type="int" name="NMAXFOCKAE">     0</i>
   <i type="logical" name="LFOCKAEDFT"> F  </i>
   <i name="HFSCREEN">      0.00000000</i>
   <i name="HFSCREENC">      0.00000000</i>
   <i type="int" name="NBANDSGWLOW">     0</i>
  </separator>
  <separator name="vdW DFT" >
   <i type="logical" name="LUSE_VDW"> F  </i>
   <i name="Zab_VDW">     -0.84910000</i>
   <i name="PARAM1">      0.12340000</i>
   <i name="PARAM2">      1.00000000</i>
   <i name="PARAM3">      0.00000000</i>
  </separator>
  <separator name="model GW" >
   <i type="int" name="MODEL_GW">     0</i>
   <i name="MODEL_EPS0">      5.24519967</i>
   <i name="MODEL_ALPHA">      1.00000000</i>
  </separator>
  <separator name="linear response parameters" >
   <i type="logical" name="LEPSILON"> T  </i>
   <i type="logical" name="LRPA"> F  </i>
   <i type="logical" name="LNABLA"> F  </i>
   <i type="logical" name="LVEL"> F  </i>
   <i type="int" name="KINTER">     0</i>
   <i name="CSHIFT">      0.10000000</i>
   <i name="OMEGAMAX">     -1.00000000</i>
   <i name="DEG_THRESHOLD">      0.00200000</i>
   <i name="RTIME">     -0.10000000</i>
   <i name="WPLASMAI">      0.00000000</i>
   <v name="DFIELD">      0.00000000      0.00000000      0.00000000</v>
   <v name="WPLASMA">      0.00000000      0.00000000      0.00000000      0.00000000      0.00000000      0.00000000      0.00000000      0.00000000      0.00000000</v>
  </separator>
  <separator name="orbital magnetization" >
   <i type="logical" name="NUCIND"> F  </i>
   <v name="MAGPOS">      0.00000000      0.00000000      0.00000000</v>
   <i type="logical" name="LNICSALL"> T  </i>
   <i type="logical" name="ORBITALMAG"> F  </i>
   <i type="logical" name="LMAGBLOCH"> F  </i>
   <i type="logical" name="LCHIMAG"> F  </i>
   <i type="logical" name="LGAUGE"> T  </i>
   <i type="int" name="MAGATOM">     0</i>
   <v name="MAGDIPOL">      0.00000000      0.00000000      0.00000000</v>
   <v name="AVECCONST">      0.00000000      0.00000000      0.00000000</v>
  </separator>
  <separator name="response functions" >
   <i type="logical" name="LADDER"> F  </i>
   <i type="logical" name="LRPAFORCE"> F  </i>
   <i type="logical" name="LFXC"> F  </i>
   <i type="logical" name="LHARTREE"> T  </i>
   <i type="int" name="IBSE">     0</i>
   <v type="int" name="KPOINT">    -1     0     0     0</v>
   <i type="logical" name="LTCTE"> F  </i>
   <i type="logical" name="LTETE"> F  </i>
   <i type="logical" name="LTRIPLET"> F  </i>
   <i type="logical" name="LFXCEPS"> F  </i>
   <i type="logical" name="LFXHEG"> F  </i>
   <i type="int" name="NATURALO">     2</i>
   <i type="logical" name="L2ORDER"> F  </i>
   <i type="logical" name="LMP2LT"> F  </i>
   <i type="logical" name="LUSEW"> F  </i>
   <i name="ENCUTGW">     -2.00000000</i>
   <i name="ENCUTGWSOFT">     -2.00000000</i>
   <i name="ENCUTLF">     -1.00000000</i>
   <i type="int" name="LMAXMP2">    -1</i>
   <i name="SCISSOR">      0.00000000</i>
   <i type="int" name="NOMEGA">     0</i>
   <i type="int" name="NOMEGAR">     0</i>
   <i type="int" name="NBANDSGW">    -1</i>
   <i type="int" name="NBANDSO">    -1</i>
   <i type="int" name="NBANDSV">    -1</i>
   <i type="int" name="NELM">   100</i>
   <i type="int" name="NELMHF">     1</i>
   <i type="int" name="DIM">     3</i>
   <i type="int" name="ANTIRES">     0</i>
   <i name="OMEGAMAX">    -30.00000000</i>
   <i name="OMEGAMIN">    -30.00000000</i>
   <i name="OMEGATL">   -200.00000000</i>
   <i type="int" name="OMEGAGRID">   140</i>
   <i name="CSHIFT">     -0.10000000</i>
   <i type="logical" name="SELFENERGY"> F  </i>
   <i type="logical" name="LSPECTRAL"> F  </i>
   <i type="logical" name="LSPECTRALGW"> F  </i>
   <i type="logical" name="LSINGLES"> F  </i>
   <i type="logical" name="LFERMIGW"> F  </i>
   <i type="logical" name="ODDONLYGW"> F  </i>
   <i type="logical" name="EVENONLYGW"> F  </i>
   <i type="int" name="NKREDLFX">     1</i>
   <i type="int" name="NKREDLFY">     1</i>
   <i type="int" name="NKREDLFZ">     1</i>
   <i type="int" name="MAXMEM">  2800</i>
   <i type="int" name="TELESCOPE">     0</i>
   <i type="int" name="TAUPAR">     1</i>
   <i type="int" name="OMEGAPAR">    -1</i>
   <i name="LAMBDA">      1.00000000</i>
  </separator>
  <separator name="External order field" >
   <i name="OFIELD_KAPPA">      0.00000000</i>
   <v name="OFIELD_K">      0.00000000      0.00000000      0.00000000</v>
   <i name="OFIELD_Q6_NEAR">      0.00000000</i>
   <i name="OFIELD_Q6_FAR">      0.00000000</i>
   <i name="OFIELD_A">      0.00000000</i>
  </separator>
 </parameters>
 <atominfo>
  <atoms>      10 </atoms>
  <types>       2 </types>
  <array name="atoms" >
   <dimension dim="1">ion</dimension>
   <field type="string">element</field>
   <field type="int">atomtype</field>
   <set>
    <rc><c>Al</c><c>   1</c></rc>
    <rc><c>Al</c><c>   1</c></rc>
    <rc><c>Al</c><c>   1</c></rc>
    <rc><c>Al</c><c>   1</c></rc>
    <rc><c>O </c><c>   2</c></rc>
    <rc><c>O </c><c>   2</c></rc>
    <rc><c>O </c><c>   2</c></rc>
    <rc><c>O </c><c>   2</c></rc>
    <rc><c>O </c><c>   2</c></rc>
    <rc><c>O </c><c>   2</c></rc>
   </set>
  </array>
  <array name="atomtypes" >
   <dimension dim="1">type</dimension>
   <field type="int">atomspertype</field>
   <field type="string">element</field>
   <field>mass</field>
   <field>valence</field>
   <field type="string">pseudopotential</field>
   <set>
    <rc><c>   4</c><c>Al</c><c>     26.98100000</c><c>      3.00000000</c><c>  PAW_PBE Al 04Jan2001                  </c></rc>
    <rc><c>   6</c><c>O </c><c>     16.00000000</c><c>      6.00000000</c><c>  PAW_PBE O 08Apr2002                   </c></rc>
   </set>
  </array>
 </atominfo>
 <structure name="initialpos" >
  <crystal>
   <varray name="basis" >
    <v>       2.40251343      -1.38709177       4.37208408 </v>
    <v>       0.00000000       2.77418355       4.37208408 </v>
    <v>      -2.40251343      -1.38709177       4.37208408 </v>
   </varray>
   <i name="volume">     87.41999453 </i>
   <varray name="rec_basis" >
    <v>       0.20811538      -0.12015547       0.07624129 </v>
    <v>      -0.00000000       0.24031094       0.07624129 </v>
    <v>      -0.20811538      -0.12015547       0.07624129 </v>
   </varray>
  </crystal>
  <varray name="positions" >
   <v>       0.64790405       0.64790405       0.64790397 </v>
   <v>       0.85209607       0.85209599       0.85209599 </v>
   <v>       0.14790409       0.14790401       0.14790401 </v>
   <v>       0.35209603       0.35209603       0.35209603 </v>
   <v>       0.44385453       0.05614558       0.74999998 </v>
   <v>       0.94385457       0.25000002       0.55614547 </v>
   <v>       0.05614558       0.75000006       0.44385446 </v>
   <v>       0.75000006       0.44385453       0.05614550 </v>
   <v>       0.25000002       0.55614554       0.94385450 </v>
   <v>       0.55614554       0.94385450       0.25000002 </v>
  </varray>
 </structure>
 <calculation>
  <scstep>
   <time name="dav">    3.80    3.81</time>
   <time name="total">    3.85    3.87</time>
   <energy>
    <i name="alphaZ">     73.83722785 </i>
    <i name="ewald">  -2375.05691471 </i>
    <i name="hartreedc">   -641.16460469 </i>
    <i name="XCdc">     66.07357547 </i>
    <i name="pawpsdc">   2344.09748985 </i>
    <i name="pawaedc">  -2227.07136836 </i>
    <i name="eentropy">     -0.00009393 </i>
    <i name="bandstr">    192.31281324 </i>
    <i name="atom">   2808.30174739 </i>
    <i name="e_fr_energy">    241.32987211 </i>
    <i name="e_wo_entrp">    241.32996603 </i>
    <i name="e_0_energy">    241.32991907 </i>
   </energy>
  </scstep>
  <scstep>
   <time name="dav">    4.52    4.55</time>
   <time name="total">    4.53    4.55</time>
   <energy>
    <i name="e_fr_energy">    -69.50897448 </i>
    <i name="e_wo_entrp">    -69.50897448 </i>
    <i name="e_0_energy">    -69.50897448 </i>
   </energy>
  </scstep>
  <scstep>
   <time name="dav">    4.55    4.58</time>
   <time name="total">    4.55    4.58</time>
   <energy>
    <i name="e_fr_energy">    -82.68325211 </i>
    <i name="e_wo_entrp">    -82.68325211 </i>
    <i name="e_0_energy">    -82.68325211 </i>
   </energy>
  </scstep>
  <scstep>
   <time name="dav">    4.33    4.36</time>
   <time name="total">    4.33    4.36</time>
   <energy>
    <i name="e_fr_energy">    -82.78978022 </i>
    <i name="e_wo_entrp">    -82.78978022 </i>
    <i name="e_0_energy">    -82.78978022 </i>
   </energy>
  </scstep>
  <scstep>
   <time name="dav">    4.66    4.70</time>
   <time name="total">    4.97    5.02</time>
   <energy>
    <i name="e_fr_energy">    -82.79116487 </i>
    <i name="e_wo_entrp">    -82.79116487 </i>
    <i name="e_0_energy">    -82.79116487 </i>
   </energy>
  </scstep>
  <scstep>
   <time name="dav">    4.70    4.71</time>
   <time name="total">    5.06    5.08</time>
   <energy>
    <i name="e_fr_energy">    -74.75276500 </i>
    <i name="e_wo_entrp">    -74.75276500 </i>
    <i name="e_0_energy">    -74.75276500 </i>
   </energy>
  </scstep>
  <scstep>
   <time name="dav">    4.69    4.73</time>
   <time name="total">    5.03    5.08</time>
   <energy>
    <i name="e_fr_energy">    -74.78779788 </i>
    <i name="e_wo_entrp">    -74.78779788 </i>
    <i name="e_0_energy">    -74.78779788 </i>
   </energy>
  </scstep>
  <scstep>
   <time name="dav">    4.59    4.64</time>
   <time name="total">    4.94    4.99</time>
   <energy>
    <i name="e_fr_energy">    -74.80514713 </i>
    <i name="e_wo_entrp">    -74.80514713 </i>
    <i name="e_0_energy">    -74.80514713 </i>
   </energy>
  </scstep>
  <scstep>
   <time name="dav">    4.44    4.49</time>
   <time name="total">    4.81    4.86</time>
   <energy>
    <i name="e_fr_energy">    -74.81018839 </i>
    <i name="e_wo_entrp">    -74.81018839 </i>
    <i name="e_0_energy">    -74.81018839 </i>
   </energy>
  </scstep>
  <scstep>
   <time name="dav">    4.72    4.73</time>
   <time name="total">    5.07    5.09</time>
   <energy>
    <i name="e_fr_energy">    -74.81085681 </i>
    <i name="e_wo_entrp">    -74.81085681 </i>
    <i name="e_0_energy">    -74.81085681 </i>
   </energy>
  </scstep>
  <scstep>
   <time name="dav">    4.69    4.72</time>
   <time name="total">    5.02    5.05</time>
   <energy>
    <i name="e_fr_energy">    -74.81081163 </i>
    <i name="e_wo_entrp">    -74.81081163 </i>
    <i name="e_0_energy">    -74.81081163 </i>
   </energy>
  </scstep>
  <scstep>
   <time name="dav">    4.55    4.57</time>
   <time name="total">    4.91    4.93</time>
   <energy>
    <i name="e_fr_energy">    -74.81081337 </i>
    <i name="e_wo_entrp">    -74.81081337 </i>
    <i name="e_0_energy">    -74.81081337 </i>
   </energy>
  </scstep>
  <scstep>
   <time name="dav">    4.52    4.54</time>
   <time name="total">    4.86    4.89</time>
   <energy>
    <i name="e_fr_energy">    -74.81081322 </i>
    <i name="e_wo_entrp">    -74.81081322 </i>
    <i name="e_0_energy">    -74.81081322 </i>
   </energy>
  </scstep>
  <scstep>
   <time name="dav">    4.53    4.56</time>
   <time name="total">    4.90    4.93</time>
   <energy>
    <i name="e_fr_energy">    -74.81081312 </i>
    <i name="e_wo_entrp">    -74.81081312 </i>
    <i name="e_0_energy">    -74.81081312 </i>
   </energy>
  </scstep>
  <scstep>
   <time name="dav">    4.71    4.75</time>
   <time name="total">    5.02    5.05</time>
   <energy>
    <i name="e_fr_energy">    -74.81081313 </i>
    <i name="e_wo_entrp">    -74.81081313 </i>
    <i name="e_0_energy">    -74.81081313 </i>
   </energy>
  </scstep>
  <scstep>
   <time name="dav">    3.60    3.64</time>
   <time name="total">    3.66    3.70</time>
   <energy>
    <i name="alphaZ">     73.83722785 </i>
    <i name="ewald">  -2375.05691471 </i>
    <i name="hartreedc">   -749.71967144 </i>
    <i name="XCdc">     74.15098888 </i>
    <i name="pawpsdc">   3953.09938253 </i>
    <i name="pawaedc">  -3837.90911489 </i>
    <i name="eentropy">     -0.00000000 </i>
    <i name="bandstr">    -21.51445874 </i>
    <i name="atom">   2808.30174739 </i>
    <i name="e_fr_energy">    -74.81081312 </i>
    <i name="e_wo_entrp">    -74.81081312 </i>
    <i name="e_0_energy">    -74.81081312 </i>
   </energy>
  </scstep>
  <structure>
   <crystal>
    <varray name="basis" >
     <v>       2.40251343      -1.38709177       4.37208408 </v>
     <v>       0.00000000       2.77418355       4.37208408 </v>
     <v>      -2.40251343      -1.38709177       4.37208408 </v>
    </varray>
    <i name="volume">     87.41999453 </i>
    <varray name="rec_basis" >
     <v>       0.20811538      -0.12015547       0.07624129 </v>
     <v>      -0.00000000       0.24031094       0.07624129 </v>
     <v>      -0.20811538      -0.12015547       0.07624129 </v>
    </varray>
   </crystal>
   <varray name="positions" >
    <v>       0.64790405       0.64790405       0.64790397 </v>
    <v>       0.85209607       0.85209599       0.85209599 </v>
    <v>       0.14790409       0.14790401       0.14790401 </v>
    <v>       0.35209603       0.35209603       0.35209603 </v>
    <v>       0.44385453       0.05614558       0.74999998 </v>
    <v>       0.94385457       0.25000002       0.55614547 </v>
    <v>       0.05614558       0.75000006       0.44385446 </v>
    <v>       0.75000006       0.44385453       0.05614550 </v>
    <v>       0.25000002       0.55614554       0.94385450 </v>
    <v>       0.55614554       0.94385450       0.25000002 </v>
   </varray>
  </structure>
  <varray name="forces" >
   <v>      -0.00000121      -0.00000223      -0.01493810 </v>
   <v>      -0.00000249       0.00000187       0.01493909 </v>
   <v>      -0.00000094       0.00000250      -0.01493783 </v>
   <v>       0.00000224       0.00000114       0.01493689 </v>
   <v>      -0.00291993       0.00505549      -0.00000035 </v>
   <v>      -0.00584589      -0.00000131       0.00000217 </v>
   <v>       0.00583851      -0.00000125      -0.00000300 </v>
   <v>      -0.00292197      -0.00505943      -0.00000261 </v>
   <v>       0.00292785       0.00506378       0.00000279 </v>
   <v>       0.00292383      -0.00506055       0.00000094 </v>
  </varray>
  <varray name="stress" >
   <v>       3.68387826       0.00000692       0.00026089 </v>
   <v>       0.00000685       3.68393351      -0.00004430 </v>
   <v>       0.00026087      -0.00004421       2.58187811 </v>
  </varray>
  <energy>
   <i name="e_fr_energy">    -74.81081312 </i>
   <i name="e_wo_entrp">    -74.81081312 </i>
   <i name="e_0_energy">     -0.00000000 </i>
  </energy>
  <scstep>
   <time name="total">    4.36    4.40</time>
   <energy>
    <i name="e_fr_energy">     -0.56445673 </i>
    <i name="e_wo_entrp">     -0.56445673 </i>
    <i name="e_0_energy">     -0.56445673 </i>
   </energy>
  </scstep>
  <scstep>
   <time name="total">    4.25    4.29</time>
   <energy>
    <i name="e_fr_energy">     -0.56568288 </i>
    <i name="e_wo_entrp">     -0.56568288 </i>
    <i name="e_0_energy">     -0.56568288 </i>
   </energy>
  </scstep>
  <scstep>
   <time name="total">    4.24    4.26</time>
   <energy>
    <i name="e_fr_energy">     -0.56577908 </i>
    <i name="e_wo_entrp">     -0.56577908 </i>
    <i name="e_0_energy">     -0.56577908 </i>
   </energy>
  </scstep>
  <scstep>
   <time name="total">    4.26    4.30</time>
   <energy>
    <i name="e_fr_energy">     -0.56578049 </i>
    <i name="e_wo_entrp">     -0.56578049 </i>
    <i name="e_0_energy">     -0.56578049 </i>
   </energy>
  </scstep>
  <scstep>
   <time name="total">    4.36    4.38</time>
   <energy>
    <i name="e_fr_energy">     -0.56578052 </i>
    <i name="e_wo_entrp">     -0.56578052 </i>
    <i name="e_0_energy">     -0.56578052 </i>
   </energy>
  </scstep>
  <scstep>
   <time name="total">    3.88    3.89</time>
   <energy>
    <i name="e_fr_energy">     -0.56578052 </i>
    <i name="e_wo_entrp">     -0.56578052 </i>
    <i name="e_0_energy">     -0.56578052 </i>
   </energy>
  </scstep>
  <scstep>
   <time name="total">    4.44    4.48</time>
   <energy>
    <i name="e_fr_energy">     -0.56444160 </i>
    <i name="e_wo_entrp">     -0.56444160 </i>
    <i name="e_0_energy">     -0.56444160 </i>
   </energy>
  </scstep>
  <scstep>
   <time name="total">    4.29    4.33</time>
   <energy>
    <i name="e_fr_energy">     -0.56568282 </i>
    <i name="e_wo_entrp">     -0.56568282 </i>
    <i name="e_0_energy">     -0.56568282 </i>
   </energy>
  </scstep>
  <scstep>
   <time name="total">    4.34    4.36</time>
   <energy>
    <i name="e_fr_energy">     -0.56577914 </i>
    <i name="e_wo_entrp">     -0.56577914 </i>
    <i name="e_0_energy">     -0.56577914 </i>
   </energy>
  </scstep>
  <scstep>
   <time name="total">    4.24    4.25</time>
   <energy>
    <i name="e_fr_energy">     -0.56578054 </i>
    <i name="e_wo_entrp">     -0.56578054 </i>
    <i name="e_0_energy">     -0.56578054 </i>
   </energy>
  </scstep>
  <scstep>
   <time name="total">    4.20    4.22</time>
   <energy>
    <i name="e_fr_energy">     -0.56578056 </i>
    <i name="e_wo_entrp">     -0.56578056 </i>
    <i name="e_0_energy">     -0.56578056 </i>
   </energy>
  </scstep>
  <scstep>
   <time name="total">    3.93    3.95</time>
   <energy>
    <i name="e_fr_energy">     -0.56578056 </i>
    <i name="e_wo_entrp">     -0.56578056 </i>
    <i name="e_0_energy">     -0.56578056 </i>
   </energy>
  </scstep>
  <scstep>
   <time name="total">    4.29    4.30</time>
   <energy>
    <i name="e_fr_energy">     -0.55487685 </i>
    <i name="e_wo_entrp">     -0.55487685 </i>
    <i name="e_0_energy">     -0.55487685 </i>
   </energy>
  </scstep>
  <scstep>
   <time name="total">    4.23    4.28</time>
   <energy>
    <i name="e_fr_energy">     -0.55565018 </i>
    <i name="e_wo_entrp">     -0.55565018 </i>
    <i name="e_0_energy">     -0.55565018 </i>
   </energy>
  </scstep>
  <scstep>
   <time name="total">    4.21    4.22</time>
   <energy>
    <i name="e_fr_energy">     -0.55574993 </i>
    <i name="e_wo_entrp">     -0.55574993 </i>
    <i name="e_0_energy">     -0.55574993 </i>
   </energy>
  </scstep>
  <scstep>
   <time name="total">    4.20    4.22</time>
   <energy>
    <i name="e_fr_energy">     -0.55575126 </i>
    <i name="e_wo_entrp">     -0.55575126 </i>
    <i name="e_0_energy">     -0.55575126 </i>
   </energy>
  </scstep>
  <scstep>
   <time name="total">    3.91    3.96</time>
   <energy>
    <i name="e_fr_energy">     -0.55575129 </i>
    <i name="e_wo_entrp">     -0.55575129 </i>
    <i name="e_0_energy">     -0.55575129 </i>
   </energy>
  </scstep>
  <scstep>
   <time name="total">    3.79    3.80</time>
   <energy>
    <i name="e_fr_energy">     -0.55575129 </i>
    <i name="e_wo_entrp">     -0.55575129 </i>
    <i name="e_0_energy">     -0.55575129 </i>
   </energy>
  </scstep>
  <varray name="epsilon_rpa" >
   <v>       3.34224930      -0.00000031       0.00000075 </v>
   <v>      -0.00000043       3.34224905       0.00000042 </v>
   <v>      -0.00000031      -0.00000004       3.30072739 </v>
  </varray>
  <kpoints>
   <generation param="Gamma">
    <v type="int" name="divisions">       6        6        6 </v>
    <v name="usershift">      0.00000000       0.00000000       0.00000000 </v>
    <v name="genvec1">      0.16666667      -0.00000000       0.00000000 </v>
    <v name="genvec2">     -0.00000000       0.16666667      -0.00000000 </v>
    <v name="genvec3">      0.00000000      -0.00000000       0.16666667 </v>
    <v name="shift">      0.00000000       0.00000000       0.00000000 </v>
   </generation>
   <varray name="kpointlist" >
    <v>       0.00000000       0.00000000       0.00000000 </v>
    <v>       0.16666667      -0.00000000       0.00000000 </v>
    <v>       0.33333333      -0.00000000       0.00000000 </v>
    <v>       0.50000000      -0.00000000       0.00000000 </v>
    <v>      -0.00000000       0.16666667      -0.00000000 </v>
    <v>       0.16666667       0.16666667      -0.00000000 </v>
    <v>       0.33333333       0.16666667      -0.00000000 </v>
    <v>       0.50000000       0.16666667      -0.00000000 </v>
    <v>      -0.33333333       0.16666667       0.00000000 </v>
    <v>      -0.16666667       0.16666667      -0.00000000 </v>
    <v>      -0.00000000       0.33333333      -0.00000000 </v>
    <v>       0.16666667       0.33333333      -0.00000000 </v>
    <v>       0.33333333       0.33333333      -0.00000000 </v>
    <v>       0.50000000       0.33333333      -0.00000000 </v>
    <v>      -0.33333333       0.33333333      -0.00000000 </v>
    <v>      -0.16666667       0.33333333      -0.00000000 </v>
    <v>      -0.00000000       0.50000000      -0.00000000 </v>
    <v>       0.16666667       0.50000000      -0.00000000 </v>
    <v>       0.33333333       0.50000000      -0.00000000 </v>
    <v>       0.50000000       0.50000000      -0.00000000 </v>
    <v>      -0.00000000      -0.00000000       0.16666667 </v>
    <v>       0.16666667      -0.00000000       0.16666667 </v>
    <v>       0.33333333      -0.00000000       0.16666667 </v>
    <v>       0.50000000      -0.00000000       0.16666667 </v>
    <v>      -0.33333333       0.00000000       0.16666667 </v>
    <v>      -0.16666667      -0.00000000       0.16666667 </v>
    <v>      -0.00000000       0.16666667       0.16666667 </v>
    <v>       0.16666667       0.16666667       0.16666667 </v>
    <v>       0.33333333       0.16666667       0.16666667 </v>
    <v>       0.50000000       0.16666667       0.16666667 </v>
    <v>      -0.33333333       0.16666667       0.16666667 </v>
    <v>      -0.16666667       0.16666667       0.16666667 </v>
    <v>      -0.00000000       0.33333333       0.16666667 </v>
    <v>       0.16666667       0.33333333       0.16666667 </v>
    <v>       0.33333333       0.33333333       0.16666667 </v>
    <v>       0.50000000       0.33333333       0.16666667 </v>
    <v>      -0.33333333       0.33333333       0.16666667 </v>
    <v>      -0.16666667       0.33333333       0.16666667 </v>
    <v>      -0.00000000       0.50000000       0.16666667 </v>
    <v>       0.16666667       0.50000000       0.16666667 </v>
    <v>       0.33333333       0.50000000       0.16666667 </v>
    <v>       0.50000000       0.50000000       0.16666667 </v>
    <v>      -0.33333333       0.50000000       0.16666667 </v>
    <v>      -0.16666667       0.50000000       0.16666667 </v>
    <v>       0.00000000      -0.33333333       0.16666667 </v>
    <v>       0.16666667      -0.33333333       0.16666667 </v>
    <v>       0.33333333      -0.33333333       0.16666667 </v>
    <v>       0.50000000      -0.33333333       0.16666667 </v>
    <v>      -0.33333333      -0.33333333       0.16666667 </v>
    <v>      -0.16666667      -0.33333333       0.16666667 </v>
    <v>      -0.00000000      -0.16666667       0.16666667 </v>
    <v>       0.16666667      -0.16666667       0.16666667 </v>
    <v>       0.33333333      -0.16666667       0.16666667 </v>
    <v>       0.50000000      -0.16666667       0.16666667 </v>
    <v>      -0.33333333      -0.16666667       0.16666667 </v>
    <v>      -0.16666667      -0.16666667       0.16666667 </v>
    <v>      -0.00000000      -0.00000000       0.33333333 </v>
    <v>       0.16666667      -0.00000000       0.33333333 </v>
    <v>       0.33333333      -0.00000000       0.33333333 </v>
    <v>       0.50000000      -0.00000000       0.33333333 </v>
    <v>      -0.33333333       0.00000000       0.33333333 </v>
    <v>      -0.16666667      -0.00000000       0.33333333 </v>
    <v>      -0.00000000       0.16666667       0.33333333 </v>
    <v>       0.16666667       0.16666667       0.33333333 </v>
    <v>       0.33333333       0.16666667       0.33333333 </v>
    <v>       0.50000000       0.16666667       0.33333333 </v>
    <v>      -0.33333333       0.16666667       0.33333333 </v>
    <v>      -0.16666667       0.16666667       0.33333333 </v>
    <v>      -0.00000000       0.33333333       0.33333333 </v>
    <v>       0.16666667       0.33333333       0.33333333 </v>
    <v>       0.33333333       0.33333333       0.33333333 </v>
    <v>       0.50000000       0.33333333       0.33333333 </v>
    <v>      -0.33333333       0.33333333       0.33333333 </v>
    <v>      -0.16666667       0.33333333       0.33333333 </v>
    <v>      -0.00000000       0.50000000       0.33333333 </v>
    <v>       0.16666667       0.50000000       0.33333333 </v>
    <v>       0.33333333       0.50000000       0.33333333 </v>
    <v>       0.50000000       0.50000000       0.33333333 </v>
    <v>      -0.33333333       0.50000000       0.33333333 </v>
    <v>      -0.16666667       0.50000000       0.33333333 </v>
    <v>       0.00000000      -0.33333333       0.33333333 </v>
    <v>       0.16666667      -0.33333333       0.33333333 </v>
    <v>       0.33333333      -0.33333333       0.33333333 </v>
    <v>       0.50000000      -0.33333333       0.33333333 </v>
    <v>      -0.33333333      -0.33333333       0.33333333 </v>
    <v>      -0.16666667      -0.33333333       0.33333333 </v>
    <v>      -0.00000000      -0.16666667       0.33333333 </v>
    <v>       0.16666667      -0.16666667       0.33333333 </v>
    <v>       0.33333333      -0.16666667       0.33333333 </v>
    <v>       0.50000000      -0.16666667       0.33333333 </v>
    <v>      -0.33333333      -0.16666667       0.33333333 </v>
    <v>      -0.16666667      -0.16666667       0.33333333 </v>
    <v>       0.00000000      -0.00000000       0.50000000 </v>
    <v>       0.16666667      -0.00000000       0.50000000 </v>
    <v>       0.33333333      -0.00000000       0.50000000 </v>
    <v>       0.50000000      -0.00000000       0.50000000 </v>
    <v>      -0.00000000       0.16666667       0.50000000 </v>
    <v>       0.16666667       0.16666667       0.50000000 </v>
    <v>       0.33333333       0.16666667       0.50000000 </v>
    <v>       0.50000000       0.16666667       0.50000000 </v>
    <v>      -0.33333333       0.16666667       0.50000000 </v>
    <v>      -0.16666667       0.16666667       0.50000000 </v>
    <v>      -0.00000000       0.33333333       0.50000000 </v>
    <v>       0.16666667       0.33333333       0.50000000 </v>
    <v>       0.33333333       0.33333333       0.50000000 </v>
    <v>       0.50000000       0.33333333       0.50000000 </v>
    <v>      -0.33333333       0.33333333       0.50000000 </v>
    <v>      -0.16666667       0.33333333       0.50000000 </v>
    <v>      -0.00000000       0.50000000       0.50000000 </v>
    <v>       0.16666667       0.50000000       0.50000000 </v>
    <v>       0.33333333       0.50000000       0.50000000 </v>
    <v>       0.50000000       0.50000000       0.50000000 </v>
   </varray>
   <varray name="weights" >
    <v>       0.00462963 </v>
    <v>       0.00925926 </v>
    <v>       0.00925926 </v>
    <v>       0.00462963 </v>
    <v>       0.00925926 </v>
    <v>       0.00925926 </v>
    <v>       0.00925926 </v>
    <v>       0.00925926 </v>
    <v>       0.00925926 </v>
    <v>       0.00925926 </v>
    <v>       0.00925926 </v>
    <v>       0.00925926 </v>
    <v>       0.00925926 </v>
    <v>       0.00925926 </v>
    <v>       0.00925926 </v>
    <v>       0.00925926 </v>
    <v>       0.00462963 </v>
    <v>       0.00925926 </v>
    <v>       0.00925926 </v>
    <v>       0.00462963 </v>
    <v>       0.00925926 </v>
    <v>       0.00925926 </v>
    <v>       0.00925926 </v>
    <v>       0.00925926 </v>
    <v>       0.00925926 </v>
    <v>       0.00925926 </v>
    <v>       0.00925926 </v>
    <v>       0.00925926 </v>
    <v>       0.00925926 </v>
    <v>       0.00925926 </v>
    <v>       0.00925926 </v>
    <v>       0.00925926 </v>
    <v>       0.00925926 </v>
    <v>       0.00925926 </v>
    <v>       0.00925926 </v>
    <v>       0.00925926 </v>
    <v>       0.00925926 </v>
    <v>       0.00925926 </v>
    <v>       0.00925926 </v>
    <v>       0.00925926 </v>
    <v>       0.00925926 </v>
    <v>       0.00925926 </v>
    <v>       0.00925926 </v>
    <v>       0.00925926 </v>
    <v>       0.00925926 </v>
    <v>       0.00925926 </v>
    <v>       0.00925926 </v>
    <v>       0.00925926 </v>
    <v>       0.00925926 </v>
    <v>       0.00925926 </v>
    <v>       0.00925926 </v>
    <v>       0.00925926 </v>
    <v>       0.00925926 </v>
    <v>       0.00925926 </v>
    <v>       0.00925926 </v>
    <v>       0.00925926 </v>
    <v>       0.00925926 </v>
    <v>       0.00925926 </v>
    <v>       0.00925926 </v>
    <v>       0.00925926 </v>
    <v>       0.00925926 </v>
    <v>       0.00925926 </v>
    <v>       0.00925926 </v>
    <v>       0.00925926 </v>
    <v>       0.00925926 </v>
    <v>       0.00925926 </v>
    <v>       0.00925926 </v>
    <v>       0.00925926 </v>
    <v>       0.00925926 </v>
    <v>       0.00925926 </v>
    <v>       0.00925926 </v>
    <v>       0.00925926 </v>
    <v>       0.00925926 </v>
    <v>       0.00925926 </v>
    <v>       0.00925926 </v>
    <v>       0.00925926 </v>
    <v>       0.00925926 </v>
    <v>       0.00925926 </v>
    <v>       0.00925926 </v>
    <v>       0.00925926 </v>
    <v>       0.00925926 </v>
    <v>       0.00925926 </v>
    <v>       0.00925926 </v>
    <v>       0.00925926 </v>
    <v>       0.00925926 </v>
    <v>       0.00925926 </v>
    <v>       0.00925926 </v>
    <v>       0.00925926 </v>
    <v>       0.00925926 </v>
    <v>       0.00925926 </v>
    <v>       0.00925926 </v>
    <v>       0.00925926 </v>
    <v>       0.00462963 </v>
    <v>       0.00925926 </v>
    <v>       0.00925926 </v>
    <v>       0.00462963 </v>
    <v>       0.00925926 </v>
    <v>       0.00925926 </v>
    <v>       0.00925926 </v>
    <v>       0.00925926 </v>
    <v>       0.00925926 </v>
    <v>       0.00925926 </v>
    <v>       0.00925926 </v>
    <v>       0.00925926 </v>
    <v>       0.00925926 </v>
    <v>       0.00925926 </v>
    <v>       0.00925926 </v>
    <v>       0.00925926 </v>
    <v>       0.00462963 </v>
    <v>       0.00925926 </v>
    <v>       0.00925926 </v>
    <v>       0.00462963 </v>
   </varray>
  </kpoints>
  <scstep>
   <time name="total">    4.29    4.31</time>
   <energy>
    <i name="e_fr_energy">     -0.56445673 </i>
    <i name="e_wo_entrp">     -0.56445673 </i>
    <i name="e_0_energy">     -0.56445673 </i>
   </energy>
  </scstep>
  <scstep>
   <time name="total">    4.87    4.89</time>
   <energy>
    <i name="e_fr_energy">     -0.56568288 </i>
    <i name="e_wo_entrp">     -0.56568288 </i>
    <i name="e_0_energy">     -0.56568288 </i>
   </energy>
  </scstep>
  <scstep>
   <time name="total">    5.32    5.35</time>
   <energy>
    <i name="e_fr_energy">     -0.56008828 </i>
    <i name="e_wo_entrp">     -0.56008828 </i>
    <i name="e_0_energy">     -0.56008828 </i>
   </energy>
  </scstep>
  <scstep>
   <time name="total">    5.89    5.92</time>
   <energy>
    <i name="e_fr_energy">     -0.59069762 </i>
    <i name="e_wo_entrp">     -0.59069762 </i>
    <i name="e_0_energy">     -0.59069762 </i>
   </energy>
  </scstep>
  <scstep>
   <time name="total">    6.04    6.07</time>
   <energy>
    <i name="e_fr_energy">     -0.59662275 </i>
    <i name="e_wo_entrp">     -0.59662275 </i>
    <i name="e_0_energy">     -0.59662275 </i>
   </energy>
  </scstep>
  <scstep>
   <time name="total">    5.97    6.00</time>
   <energy>
    <i name="e_fr_energy">     -0.59858332 </i>
    <i name="e_wo_entrp">     -0.59858332 </i>
    <i name="e_0_energy">     -0.59858332 </i>
   </energy>
  </scstep>
  <scstep>
   <time name="total">    6.18    6.19</time>
   <energy>
    <i name="e_fr_energy">     -0.59883511 </i>
    <i name="e_wo_entrp">     -0.59883511 </i>
    <i name="e_0_energy">     -0.59883511 </i>
   </energy>
  </scstep>
  <scstep>
   <time name="total">    6.07    6.12</time>
   <energy>
    <i name="e_fr_energy">     -0.59897244 </i>
    <i name="e_wo_entrp">     -0.59897244 </i>
    <i name="e_0_energy">     -0.59897244 </i>
   </energy>
  </scstep>
  <scstep>
   <time name="total">    6.11    6.13</time>
   <energy>
    <i name="e_fr_energy">     -0.59897071 </i>
    <i name="e_wo_entrp">     -0.59897071 </i>
    <i name="e_0_energy">     -0.59897071 </i>
   </energy>
  </scstep>
  <scstep>
   <time name="total">    6.11    6.15</time>
   <energy>
    <i name="e_fr_energy">     -0.59897343 </i>
    <i name="e_wo_entrp">     -0.59897343 </i>
    <i name="e_0_energy">     -0.59897343 </i>
   </energy>
  </scstep>
  <scstep>
   <time name="total">    5.72    5.73</time>
   <energy>
    <i name="e_fr_energy">     -0.59897289 </i>
    <i name="e_wo_entrp">     -0.59897289 </i>
    <i name="e_0_energy">     -0.59897289 </i>
   </energy>
  </scstep>
  <kpoints>
   <generation param="Gamma">
    <v type="int" name="divisions">       6        6        6 </v>
    <v name="usershift">      0.00000000       0.00000000       0.00000000 </v>
    <v name="genvec1">      0.16666667      -0.00000000       0.00000000 </v>
    <v name="genvec2">     -0.00000000       0.16666667      -0.00000000 </v>
    <v name="genvec3">      0.00000000      -0.00000000       0.16666667 </v>
    <v name="shift">      0.00000000       0.00000000       0.00000000 </v>
   </generation>
   <varray name="kpointlist" >
    <v>       0.00000000       0.00000000       0.00000000 </v>
    <v>       0.16666667      -0.00000000       0.00000000 </v>
    <v>       0.33333333      -0.00000000       0.00000000 </v>
    <v>       0.50000000      -0.00000000       0.00000000 </v>
    <v>      -0.00000000       0.16666667      -0.00000000 </v>
    <v>       0.16666667       0.16666667      -0.00000000 </v>
    <v>       0.33333333       0.16666667      -0.00000000 </v>
    <v>       0.50000000       0.16666667      -0.00000000 </v>
    <v>      -0.33333333       0.16666667       0.00000000 </v>
    <v>      -0.16666667       0.16666667      -0.00000000 </v>
    <v>      -0.00000000       0.33333333      -0.00000000 </v>
    <v>       0.16666667       0.33333333      -0.00000000 </v>
    <v>       0.33333333       0.33333333      -0.00000000 </v>
    <v>       0.50000000       0.33333333      -0.00000000 </v>
    <v>      -0.33333333       0.33333333      -0.00000000 </v>
    <v>      -0.16666667       0.33333333      -0.00000000 </v>
    <v>      -0.00000000       0.50000000      -0.00000000 </v>
    <v>       0.16666667       0.50000000      -0.00000000 </v>
    <v>       0.33333333       0.50000000      -0.00000000 </v>
    <v>       0.50000000       0.50000000      -0.00000000 </v>
    <v>      -0.00000000      -0.00000000       0.16666667 </v>
    <v>       0.16666667      -0.00000000       0.16666667 </v>
    <v>       0.33333333      -0.00000000       0.16666667 </v>
    <v>       0.50000000      -0.00000000       0.16666667 </v>
    <v>      -0.33333333       0.00000000       0.16666667 </v>
    <v>      -0.16666667      -0.00000000       0.16666667 </v>
    <v>      -0.00000000       0.16666667       0.16666667 </v>
    <v>       0.16666667       0.16666667       0.16666667 </v>
    <v>       0.33333333       0.16666667       0.16666667 </v>
    <v>       0.50000000       0.16666667       0.16666667 </v>
    <v>      -0.33333333       0.16666667       0.16666667 </v>
    <v>      -0.16666667       0.16666667       0.16666667 </v>
    <v>      -0.00000000       0.33333333       0.16666667 </v>
    <v>       0.16666667       0.33333333       0.16666667 </v>
    <v>       0.33333333       0.33333333       0.16666667 </v>
    <v>       0.50000000       0.33333333       0.16666667 </v>
    <v>      -0.33333333       0.33333333       0.16666667 </v>
    <v>      -0.16666667       0.33333333       0.16666667 </v>
    <v>      -0.00000000       0.50000000       0.16666667 </v>
    <v>       0.16666667       0.50000000       0.16666667 </v>
    <v>       0.33333333       0.50000000       0.16666667 </v>
    <v>       0.50000000       0.50000000       0.16666667 </v>
    <v>      -0.33333333       0.50000000       0.16666667 </v>
    <v>      -0.16666667       0.50000000       0.16666667 </v>
    <v>       0.00000000      -0.33333333       0.16666667 </v>
    <v>       0.16666667      -0.33333333       0.16666667 </v>
    <v>       0.33333333      -0.33333333       0.16666667 </v>
    <v>       0.50000000      -0.33333333       0.16666667 </v>
    <v>      -0.33333333      -0.33333333       0.16666667 </v>
    <v>      -0.16666667      -0.33333333       0.16666667 </v>
    <v>      -0.00000000      -0.16666667       0.16666667 </v>
    <v>       0.16666667      -0.16666667       0.16666667 </v>
    <v>       0.33333333      -0.16666667       0.16666667 </v>
    <v>       0.50000000      -0.16666667       0.16666667 </v>
    <v>      -0.33333333      -0.16666667       0.16666667 </v>
    <v>      -0.16666667      -0.16666667       0.16666667 </v>
    <v>      -0.00000000      -0.00000000       0.33333333 </v>
    <v>       0.16666667      -0.00000000       0.33333333 </v>
    <v>       0.33333333      -0.00000000       0.33333333 </v>
    <v>       0.50000000      -0.00000000       0.33333333 </v>
    <v>      -0.33333333       0.00000000       0.33333333 </v>
    <v>      -0.16666667      -0.00000000       0.33333333 </v>
    <v>      -0.00000000       0.16666667       0.33333333 </v>
    <v>       0.16666667       0.16666667       0.33333333 </v>
    <v>       0.33333333       0.16666667       0.33333333 </v>
    <v>       0.50000000       0.16666667       0.33333333 </v>
    <v>      -0.33333333       0.16666667       0.33333333 </v>
    <v>      -0.16666667       0.16666667       0.33333333 </v>
    <v>      -0.00000000       0.33333333       0.33333333 </v>
    <v>       0.16666667       0.33333333       0.33333333 </v>
    <v>       0.33333333       0.33333333       0.33333333 </v>
    <v>       0.50000000       0.33333333       0.33333333 </v>
    <v>      -0.33333333       0.33333333       0.33333333 </v>
    <v>      -0.16666667       0.33333333       0.33333333 </v>
    <v>      -0.00000000       0.50000000       0.33333333 </v>
    <v>       0.16666667       0.50000000       0.33333333 </v>
    <v>       0.33333333       0.50000000       0.33333333 </v>
    <v>       0.50000000       0.50000000       0.33333333 </v>
    <v>      -0.33333333       0.50000000       0.33333333 </v>
    <v>      -0.16666667       0.50000000       0.33333333 </v>
    <v>       0.00000000      -0.33333333       0.33333333 </v>
    <v>       0.16666667      -0.33333333       0.33333333 </v>
    <v>       0.33333333      -0.33333333       0.33333333 </v>
    <v>       0.50000000      -0.33333333       0.33333333 </v>
    <v>      -0.33333333      -0.33333333       0.33333333 </v>
    <v>      -0.16666667      -0.33333333       0.33333333 </v>
    <v>      -0.00000000      -0.16666667       0.33333333 </v>
    <v>       0.16666667      -0.16666667       0.33333333 </v>
    <v>       0.33333333      -0.16666667       0.33333333 </v>
    <v>       0.50000000      -0.16666667       0.33333333 </v>
    <v>      -0.33333333      -0.16666667       0.33333333 </v>
    <v>      -0.16666667      -0.16666667       0.33333333 </v>
    <v>       0.00000000      -0.00000000       0.50000000 </v>
    <v>       0.16666667      -0.00000000       0.50000000 </v>
    <v>       0.33333333      -0.00000000       0.50000000 </v>
    <v>       0.50000000      -0.00000000       0.50000000 </v>
    <v>      -0.00000000       0.16666667       0.50000000 </v>
    <v>       0.16666667       0.16666667       0.50000000 </v>
    <v>       0.33333333       0.16666667       0.50000000 </v>
    <v>       0.50000000       0.16666667       0.50000000 </v>
    <v>      -0.33333333       0.16666667       0.50000000 </v>
    <v>      -0.16666667       0.16666667       0.50000000 </v>
    <v>      -0.00000000       0.33333333       0.50000000 </v>
    <v>       0.16666667       0.33333333       0.50000000 </v>
    <v>       0.33333333       0.33333333       0.50000000 </v>
    <v>       0.50000000       0.33333333       0.50000000 </v>
    <v>      -0.33333333       0.33333333       0.50000000 </v>
    <v>      -0.16666667       0.33333333       0.50000000 </v>
    <v>      -0.00000000       0.50000000       0.50000000 </v>
    <v>       0.16666667       0.50000000       0.50000000 </v>
    <v>       0.33333333       0.50000000       0.50000000 </v>
    <v>       0.50000000       0.50000000       0.50000000 </v>
   </varray>
   <varray name="weights" >
    <v>       0.00462963 </v>
    <v>       0.00925926 </v>
    <v>       0.00925926 </v>
    <v>       0.00462963 </v>
    <v>       0.00925926 </v>
    <v>       0.00925926 </v>
    <v>       0.00925926 </v>
    <v>       0.00925926 </v>
    <v>       0.00925926 </v>
    <v>       0.00925926 </v>
    <v>       0.00925926 </v>
    <v>       0.00925926 </v>
    <v>       0.00925926 </v>
    <v>       0.00925926 </v>
    <v>       0.00925926 </v>
    <v>       0.00925926 </v>
    <v>       0.00462963 </v>
    <v>       0.00925926 </v>
    <v>       0.00925926 </v>
    <v>       0.00462963 </v>
    <v>       0.00925926 </v>
    <v>       0.00925926 </v>
    <v>       0.00925926 </v>
    <v>       0.00925926 </v>
    <v>       0.00925926 </v>
    <v>       0.00925926 </v>
    <v>       0.00925926 </v>
    <v>       0.00925926 </v>
    <v>       0.00925926 </v>
    <v>       0.00925926 </v>
    <v>       0.00925926 </v>
    <v>       0.00925926 </v>
    <v>       0.00925926 </v>
    <v>       0.00925926 </v>
    <v>       0.00925926 </v>
    <v>       0.00925926 </v>
    <v>       0.00925926 </v>
    <v>       0.00925926 </v>
    <v>       0.00925926 </v>
    <v>       0.00925926 </v>
    <v>       0.00925926 </v>
    <v>       0.00925926 </v>
    <v>       0.00925926 </v>
    <v>       0.00925926 </v>
    <v>       0.00925926 </v>
    <v>       0.00925926 </v>
    <v>       0.00925926 </v>
    <v>       0.00925926 </v>
    <v>       0.00925926 </v>
    <v>       0.00925926 </v>
    <v>       0.00925926 </v>
    <v>       0.00925926 </v>
    <v>       0.00925926 </v>
    <v>       0.00925926 </v>
    <v>       0.00925926 </v>
    <v>       0.00925926 </v>
    <v>       0.00925926 </v>
    <v>       0.00925926 </v>
    <v>       0.00925926 </v>
    <v>       0.00925926 </v>
    <v>       0.00925926 </v>
    <v>       0.00925926 </v>
    <v>       0.00925926 </v>
    <v>       0.00925926 </v>
    <v>       0.00925926 </v>
    <v>       0.00925926 </v>
    <v>       0.00925926 </v>
    <v>       0.00925926 </v>
    <v>       0.00925926 </v>
    <v>       0.00925926 </v>
    <v>       0.00925926 </v>
    <v>       0.00925926 </v>
    <v>       0.00925926 </v>
    <v>       0.00925926 </v>
    <v>       0.00925926 </v>
    <v>       0.00925926 </v>
    <v>       0.00925926 </v>
    <v>       0.00925926 </v>
    <v>       0.00925926 </v>
    <v>       0.00925926 </v>
    <v>       0.00925926 </v>
    <v>       0.00925926 </v>
    <v>       0.00925926 </v>
    <v>       0.00925926 </v>
    <v>       0.00925926 </v>
    <v>       0.00925926 </v>
    <v>       0.00925926 </v>
    <v>       0.00925926 </v>
    <v>       0.00925926 </v>
    <v>       0.00925926 </v>
    <v>       0.00925926 </v>
    <v>       0.00925926 </v>
    <v>       0.00462963 </v>
    <v>       0.00925926 </v>
    <v>       0.00925926 </v>
    <v>       0.00462963 </v>
    <v>       0.00925926 </v>
    <v>       0.00925926 </v>
    <v>       0.00925926 </v>
    <v>       0.00925926 </v>
    <v>       0.00925926 </v>
    <v>       0.00925926 </v>
    <v>       0.00925926 </v>
    <v>       0.00925926 </v>
    <v>       0.00925926 </v>
    <v>       0.00925926 </v>
    <v>       0.00925926 </v>
    <v>       0.00925926 </v>
    <v>       0.00462963 </v>
    <v>       0.00925926 </v>
    <v>       0.00925926 </v>
    <v>       0.00462963 </v>
   </varray>
  </kpoints>
  <scstep>
   <time name="total">    4.35    4.39</time>
   <energy>
    <i name="e_fr_energy">     -0.56444160 </i>
    <i name="e_wo_entrp">     -0.56444160 </i>
    <i name="e_0_energy">     -0.56444160 </i>
   </energy>
  </scstep>
  <scstep>
   <time name="total">    4.97    4.98</time>
   <energy>
    <i name="e_fr_energy">     -0.56568282 </i>
    <i name="e_wo_entrp">     -0.56568282 </i>
    <i name="e_0_energy">     -0.56568282 </i>
   </energy>
  </scstep>
  <scstep>
   <time name="total">    5.34    5.37</time>
   <energy>
    <i name="e_fr_energy">     -0.56008926 </i>
    <i name="e_wo_entrp">     -0.56008926 </i>
    <i name="e_0_energy">     -0.56008926 </i>
   </energy>
  </scstep>
  <scstep>
   <time name="total">    5.91    5.95</time>
   <energy>
    <i name="e_fr_energy">     -0.59070226 </i>
    <i name="e_wo_entrp">     -0.59070226 </i>
    <i name="e_0_energy">     -0.59070226 </i>
   </energy>
  </scstep>
  <scstep>
   <time name="total">    6.13    6.15</time>
   <energy>
    <i name="e_fr_energy">     -0.59662453 </i>
    <i name="e_wo_entrp">     -0.59662453 </i>
    <i name="e_0_energy">     -0.59662453 </i>
   </energy>
  </scstep>
  <scstep>
   <time name="total">    6.01    6.05</time>
   <energy>
    <i name="e_fr_energy">     -0.59858262 </i>
    <i name="e_wo_entrp">     -0.59858262 </i>
    <i name="e_0_energy">     -0.59858262 </i>
   </energy>
  </scstep>
  <scstep>
   <time name="total">    6.03    6.05</time>
   <energy>
    <i name="e_fr_energy">     -0.59883686 </i>
    <i name="e_wo_entrp">     -0.59883686 </i>
    <i name="e_0_energy">     -0.59883686 </i>
   </energy>
  </scstep>
  <scstep>
   <time name="total">    6.09    6.13</time>
   <energy>
    <i name="e_fr_energy">     -0.59897255 </i>
    <i name="e_wo_entrp">     -0.59897255 </i>
    <i name="e_0_energy">     -0.59897255 </i>
   </energy>
  </scstep>
  <scstep>
   <time name="total">    6.09    6.13</time>
   <energy>
    <i name="e_fr_energy">     -0.59897073 </i>
    <i name="e_wo_entrp">     -0.59897073 </i>
    <i name="e_0_energy">     -0.59897073 </i>
   </energy>
  </scstep>
  <scstep>
   <time name="total">    6.22    6.24</time>
   <energy>
    <i name="e_fr_energy">     -0.59897346 </i>
    <i name="e_wo_entrp">     -0.59897346 </i>
    <i name="e_0_energy">     -0.59897346 </i>
   </energy>
  </scstep>
  <scstep>
   <time name="total">    5.70    5.73</time>
   <energy>
    <i name="e_fr_energy">     -0.59897293 </i>
    <i name="e_wo_entrp">     -0.59897293 </i>
    <i name="e_0_energy">     -0.59897293 </i>
   </energy>
  </scstep>
  <kpoints>
   <generation param="Gamma">
    <v type="int" name="divisions">       6        6        6 </v>
    <v name="usershift">      0.00000000       0.00000000       0.00000000 </v>
    <v name="genvec1">      0.16666667      -0.00000000       0.00000000 </v>
    <v name="genvec2">     -0.00000000       0.16666667      -0.00000000 </v>
    <v name="genvec3">      0.00000000      -0.00000000       0.16666667 </v>
    <v name="shift">      0.00000000       0.00000000       0.00000000 </v>
   </generation>
   <varray name="kpointlist" >
    <v>       0.00000000       0.00000000       0.00000000 </v>
    <v>       0.16666667      -0.00000000       0.00000000 </v>
    <v>       0.33333333      -0.00000000       0.00000000 </v>
    <v>       0.50000000      -0.00000000       0.00000000 </v>
    <v>      -0.00000000       0.16666667      -0.00000000 </v>
    <v>       0.16666667       0.16666667      -0.00000000 </v>
    <v>       0.33333333       0.16666667      -0.00000000 </v>
    <v>       0.50000000       0.16666667      -0.00000000 </v>
    <v>      -0.33333333       0.16666667       0.00000000 </v>
    <v>      -0.16666667       0.16666667      -0.00000000 </v>
    <v>      -0.00000000       0.33333333      -0.00000000 </v>
    <v>       0.16666667       0.33333333      -0.00000000 </v>
    <v>       0.33333333       0.33333333      -0.00000000 </v>
    <v>       0.50000000       0.33333333      -0.00000000 </v>
    <v>      -0.33333333       0.33333333      -0.00000000 </v>
    <v>      -0.16666667       0.33333333      -0.00000000 </v>
    <v>      -0.00000000       0.50000000      -0.00000000 </v>
    <v>       0.16666667       0.50000000      -0.00000000 </v>
    <v>       0.33333333       0.50000000      -0.00000000 </v>
    <v>       0.50000000       0.50000000      -0.00000000 </v>
    <v>      -0.00000000      -0.00000000       0.16666667 </v>
    <v>       0.16666667      -0.00000000       0.16666667 </v>
    <v>       0.33333333      -0.00000000       0.16666667 </v>
    <v>       0.50000000      -0.00000000       0.16666667 </v>
    <v>      -0.33333333       0.00000000       0.16666667 </v>
    <v>      -0.16666667      -0.00000000       0.16666667 </v>
    <v>      -0.00000000       0.16666667       0.16666667 </v>
    <v>       0.16666667       0.16666667       0.16666667 </v>
    <v>       0.33333333       0.16666667       0.16666667 </v>
    <v>       0.50000000       0.16666667       0.16666667 </v>
    <v>      -0.33333333       0.16666667       0.16666667 </v>
    <v>      -0.16666667       0.16666667       0.16666667 </v>
    <v>      -0.00000000       0.33333333       0.16666667 </v>
    <v>       0.16666667       0.33333333       0.16666667 </v>
    <v>       0.33333333       0.33333333       0.16666667 </v>
    <v>       0.50000000       0.33333333       0.16666667 </v>
    <v>      -0.33333333       0.33333333       0.16666667 </v>
    <v>      -0.16666667       0.33333333       0.16666667 </v>
    <v>      -0.00000000       0.50000000       0.16666667 </v>
    <v>       0.16666667       0.50000000       0.16666667 </v>
    <v>       0.33333333       0.50000000       0.16666667 </v>
    <v>       0.50000000       0.50000000       0.16666667 </v>
    <v>      -0.33333333       0.50000000       0.16666667 </v>
    <v>      -0.16666667       0.50000000       0.16666667 </v>
    <v>       0.00000000      -0.33333333       0.16666667 </v>
    <v>       0.16666667      -0.33333333       0.16666667 </v>
    <v>       0.33333333      -0.33333333       0.16666667 </v>
    <v>       0.50000000      -0.33333333       0.16666667 </v>
    <v>      -0.33333333      -0.33333333       0.16666667 </v>
    <v>      -0.16666667      -0.33333333       0.16666667 </v>
    <v>      -0.00000000      -0.16666667       0.16666667 </v>
    <v>       0.16666667      -0.16666667       0.16666667 </v>
    <v>       0.33333333      -0.16666667       0.16666667 </v>
    <v>       0.50000000      -0.16666667       0.16666667 </v>
    <v>      -0.33333333      -0.16666667       0.16666667 </v>
    <v>      -0.16666667      -0.16666667       0.16666667 </v>
    <v>      -0.00000000      -0.00000000       0.33333333 </v>
    <v>       0.16666667      -0.00000000       0.33333333 </v>
    <v>       0.33333333      -0.00000000       0.33333333 </v>
    <v>       0.50000000      -0.00000000       0.33333333 </v>
    <v>      -0.33333333       0.00000000       0.33333333 </v>
    <v>      -0.16666667      -0.00000000       0.33333333 </v>
    <v>      -0.00000000       0.16666667       0.33333333 </v>
    <v>       0.16666667       0.16666667       0.33333333 </v>
    <v>       0.33333333       0.16666667       0.33333333 </v>
    <v>       0.50000000       0.16666667       0.33333333 </v>
    <v>      -0.33333333       0.16666667       0.33333333 </v>
    <v>      -0.16666667       0.16666667       0.33333333 </v>
    <v>      -0.00000000       0.33333333       0.33333333 </v>
    <v>       0.16666667       0.33333333       0.33333333 </v>
    <v>       0.33333333       0.33333333       0.33333333 </v>
    <v>       0.50000000       0.33333333       0.33333333 </v>
    <v>      -0.33333333       0.33333333       0.33333333 </v>
    <v>      -0.16666667       0.33333333       0.33333333 </v>
    <v>      -0.00000000       0.50000000       0.33333333 </v>
    <v>       0.16666667       0.50000000       0.33333333 </v>
    <v>       0.33333333       0.50000000       0.33333333 </v>
    <v>       0.50000000       0.50000000       0.33333333 </v>
    <v>      -0.33333333       0.50000000       0.33333333 </v>
    <v>      -0.16666667       0.50000000       0.33333333 </v>
    <v>       0.00000000      -0.33333333       0.33333333 </v>
    <v>       0.16666667      -0.33333333       0.33333333 </v>
    <v>       0.33333333      -0.33333333       0.33333333 </v>
    <v>       0.50000000      -0.33333333       0.33333333 </v>
    <v>      -0.33333333      -0.33333333       0.33333333 </v>
    <v>      -0.16666667      -0.33333333       0.33333333 </v>
    <v>      -0.00000000      -0.16666667       0.33333333 </v>
    <v>       0.16666667      -0.16666667       0.33333333 </v>
    <v>       0.33333333      -0.16666667       0.33333333 </v>
    <v>       0.50000000      -0.16666667       0.33333333 </v>
    <v>      -0.33333333      -0.16666667       0.33333333 </v>
    <v>      -0.16666667      -0.16666667       0.33333333 </v>
    <v>       0.00000000      -0.00000000       0.50000000 </v>
    <v>       0.16666667      -0.00000000       0.50000000 </v>
    <v>       0.33333333      -0.00000000       0.50000000 </v>
    <v>       0.50000000      -0.00000000       0.50000000 </v>
    <v>      -0.00000000       0.16666667       0.50000000 </v>
    <v>       0.16666667       0.16666667       0.50000000 </v>
    <v>       0.33333333       0.16666667       0.50000000 </v>
    <v>       0.50000000       0.16666667       0.50000000 </v>
    <v>      -0.33333333       0.16666667       0.50000000 </v>
    <v>      -0.16666667       0.16666667       0.50000000 </v>
    <v>      -0.00000000       0.33333333       0.50000000 </v>
    <v>       0.16666667       0.33333333       0.50000000 </v>
    <v>       0.33333333       0.33333333       0.50000000 </v>
    <v>       0.50000000       0.33333333       0.50000000 </v>
    <v>      -0.33333333       0.33333333       0.50000000 </v>
    <v>      -0.16666667       0.33333333       0.50000000 </v>
    <v>      -0.00000000       0.50000000       0.50000000 </v>
    <v>       0.16666667       0.50000000       0.50000000 </v>
    <v>       0.33333333       0.50000000       0.50000000 </v>
    <v>       0.50000000       0.50000000       0.50000000 </v>
   </varray>
   <varray name="weights" >
    <v>       0.00462963 </v>
    <v>       0.00925926 </v>
    <v>       0.00925926 </v>
    <v>       0.00462963 </v>
    <v>       0.00925926 </v>
    <v>       0.00925926 </v>
    <v>       0.00925926 </v>
    <v>       0.00925926 </v>
    <v>       0.00925926 </v>
    <v>       0.00925926 </v>
    <v>       0.00925926 </v>
    <v>       0.00925926 </v>
    <v>       0.00925926 </v>
    <v>       0.00925926 </v>
    <v>       0.00925926 </v>
    <v>       0.00925926 </v>
    <v>       0.00462963 </v>
    <v>       0.00925926 </v>
    <v>       0.00925926 </v>
    <v>       0.00462963 </v>
    <v>       0.00925926 </v>
    <v>       0.00925926 </v>
    <v>       0.00925926 </v>
    <v>       0.00925926 </v>
    <v>       0.00925926 </v>
    <v>       0.00925926 </v>
    <v>       0.00925926 </v>
    <v>       0.00925926 </v>
    <v>       0.00925926 </v>
    <v>       0.00925926 </v>
    <v>       0.00925926 </v>
    <v>       0.00925926 </v>
    <v>       0.00925926 </v>
    <v>       0.00925926 </v>
    <v>       0.00925926 </v>
    <v>       0.00925926 </v>
    <v>       0.00925926 </v>
    <v>       0.00925926 </v>
    <v>       0.00925926 </v>
    <v>       0.00925926 </v>
    <v>       0.00925926 </v>
    <v>       0.00925926 </v>
    <v>       0.00925926 </v>
    <v>       0.00925926 </v>
    <v>       0.00925926 </v>
    <v>       0.00925926 </v>
    <v>       0.00925926 </v>
    <v>       0.00925926 </v>
    <v>       0.00925926 </v>
    <v>       0.00925926 </v>
    <v>       0.00925926 </v>
    <v>       0.00925926 </v>
    <v>       0.00925926 </v>
    <v>       0.00925926 </v>
    <v>       0.00925926 </v>
    <v>       0.00925926 </v>
    <v>       0.00925926 </v>
    <v>       0.00925926 </v>
    <v>       0.00925926 </v>
    <v>       0.00925926 </v>
    <v>       0.00925926 </v>
    <v>       0.00925926 </v>
    <v>       0.00925926 </v>
    <v>       0.00925926 </v>
    <v>       0.00925926 </v>
    <v>       0.00925926 </v>
    <v>       0.00925926 </v>
    <v>       0.00925926 </v>
    <v>       0.00925926 </v>
    <v>       0.00925926 </v>
    <v>       0.00925926 </v>
    <v>       0.00925926 </v>
    <v>       0.00925926 </v>
    <v>       0.00925926 </v>
    <v>       0.00925926 </v>
    <v>       0.00925926 </v>
    <v>       0.00925926 </v>
    <v>       0.00925926 </v>
    <v>       0.00925926 </v>
    <v>       0.00925926 </v>
    <v>       0.00925926 </v>
    <v>       0.00925926 </v>
    <v>       0.00925926 </v>
    <v>       0.00925926 </v>
    <v>       0.00925926 </v>
    <v>       0.00925926 </v>
    <v>       0.00925926 </v>
    <v>       0.00925926 </v>
    <v>       0.00925926 </v>
    <v>       0.00925926 </v>
    <v>       0.00925926 </v>
    <v>       0.00925926 </v>
    <v>       0.00462963 </v>
    <v>       0.00925926 </v>
    <v>       0.00925926 </v>
    <v>       0.00462963 </v>
    <v>       0.00925926 </v>
    <v>       0.00925926 </v>
    <v>       0.00925926 </v>
    <v>       0.00925926 </v>
    <v>       0.00925926 </v>
    <v>       0.00925926 </v>
    <v>       0.00925926 </v>
    <v>       0.00925926 </v>
    <v>       0.00925926 </v>
    <v>       0.00925926 </v>
    <v>       0.00925926 </v>
    <v>       0.00925926 </v>
    <v>       0.00462963 </v>
    <v>       0.00925926 </v>
    <v>       0.00925926 </v>
    <v>       0.00462963 </v>
   </varray>
  </kpoints>
  <scstep>
   <time name="total">    4.35    4.36</time>
   <energy>
    <i name="e_fr_energy">     -0.55487685 </i>
    <i name="e_wo_entrp">     -0.55487685 </i>
    <i name="e_0_energy">     -0.55487685 </i>
   </energy>
  </scstep>
  <scstep>
   <time name="total">    4.81    4.83</time>
   <energy>
    <i name="e_fr_energy">     -0.55565018 </i>
    <i name="e_wo_entrp">     -0.55565018 </i>
    <i name="e_0_energy">     -0.55565018 </i>
   </energy>
  </scstep>
  <scstep>
   <time name="total">    5.33    5.35</time>
   <energy>
[...]
       <r>  -10.6341    1.0000 </r>
       <r>  -10.3638    1.0000 </r>
       <r>   -0.1246    1.0000 </r>
       <r>    0.3493    1.0000 </r>
       <r>    0.8002    1.0000 </r>
       <r>    1.3074    1.0000 </r>
       <r>    1.7271    1.0000 </r>
       <r>    2.2978    1.0000 </r>
       <r>    2.4057    1.0000 </r>
       <r>    2.4597    1.0000 </r>
       <r>    3.1413    1.0000 </r>
       <r>    3.5500    1.0000 </r>
       <r>    4.0820    1.0000 </r>
       <r>    4.2179    1.0000 </r>
       <r>    4.3116    1.0000 </r>
       <r>    4.6271    1.0000 </r>
       <r>    4.8504    1.0000 </r>
       <r>    5.1236    1.0000 </r>
       <r>    5.2203    1.0000 </r>
       <r>    5.3835    1.0000 </r>
       <r>   14.8083    0.0000 </r>
       <r>   15.7672    0.0000 </r>
       <r>   16.0014    0.0000 </r>
       <r>   16.2119    0.0000 </r>
       <r>   16.2675    0.0000 </r>
       <r>   16.9474    0.0000 </r>
       <r>   17.0004    0.0000 </r>
       <r>   18.1197    0.0000 </r>
      </set>
      <set comment="kpoint 111">
       <r>  -12.3322    1.0000 </r>
       <r>  -11.9668    1.0000 </r>
       <r>  -10.8430    1.0000 </r>
       <r>  -10.8003    1.0000 </r>
       <r>  -10.5094    1.0000 </r>
       <r>  -10.4137    1.0000 </r>
       <r>    0.1082    1.0000 </r>
       <r>    0.4317    1.0000 </r>
       <r>    0.7938    1.0000 </r>
       <r>    1.4457    1.0000 </r>
       <r>    1.7335    1.0000 </r>
       <r>    1.8665    1.0000 </r>
       <r>    1.9285    1.0000 </r>
       <r>    2.6958    1.0000 </r>
       <r>    3.0454    1.0000 </r>
       <r>    3.5900    1.0000 </r>
       <r>    3.6813    1.0000 </r>
       <r>    3.9593    1.0000 </r>
       <r>    4.1726    1.0000 </r>
       <r>    4.6178    1.0000 </r>
       <r>    5.1030    1.0000 </r>
       <r>    5.2845    1.0000 </r>
       <r>    5.3523    1.0000 </r>
       <r>    5.4291    1.0000 </r>
       <r>   14.3054    0.0000 </r>
       <r>   14.8341    0.0000 </r>
       <r>   16.4565    0.0000 </r>
       <r>   16.8255    0.0000 </r>
       <r>   17.1916    0.0000 </r>
       <r>   17.3893    0.0000 </r>
       <r>   17.7192    0.0000 </r>
       <r>   17.9977    0.0000 </r>
      </set>
      <set comment="kpoint 112">
       <r>  -12.2491    1.0000 </r>
       <r>  -12.2490    1.0000 </r>
       <r>  -10.5784    1.0000 </r>
       <r>  -10.5784    1.0000 </r>
       <r>  -10.5784    1.0000 </r>
       <r>  -10.5784    1.0000 </r>
       <r>    0.3420    1.0000 </r>
       <r>    0.3420    1.0000 </r>
       <r>    1.5105    1.0000 </r>
       <r>    1.5105    1.0000 </r>
       <r>    1.5105    1.0000 </r>
       <r>    1.5105    1.0000 </r>
       <r>    1.8064    1.0000 </r>
       <r>    1.8064    1.0000 </r>
       <r>    3.6425    1.0000 </r>
       <r>    3.6425    1.0000 </r>
       <r>    3.8958    1.0000 </r>
       <r>    3.8958    1.0000 </r>
       <r>    3.8958    1.0000 </r>
       <r>    3.8958    1.0000 </r>
       <r>    5.4713    1.0000 </r>
       <r>    5.4713    1.0000 </r>
       <r>    5.4713    1.0000 </r>
       <r>    5.4713    1.0000 </r>
       <r>   14.1958    0.0000 </r>
       <r>   14.1958    0.0000 </r>
       <r>   16.6879    0.0000 </r>
       <r>   16.6879    0.0000 </r>
       <r>   17.9337    0.0000 </r>
       <r>   17.9337    0.0000 </r>
       <r>   18.3192    0.0000 </r>
       <r>   18.3192    0.0000 </r>
      </set>
     </set>
    </set>
   </array>
  </eigenvalues>
  <separator name="orbital magnetization" >
   <v name="MAGDIPOLOUT">      0.00000000      0.00000000      0.00000000</v>
  </separator>
  <dos>
   <i name="efermi">      5.92222049 </i>
   <total>
    <array>
     <dimension dim="1">gridpoints</dimension>
     <dimension dim="2">spin</dimension>
     <field>energy</field>
     <field>total</field>
     <field>integrated</field>
     <set>
      <set comment="spin 1">
       <r>   -14.7917     0.0000     0.0000 </r>
       <r>   -14.6755     0.0000     0.0000 </r>
       <r>   -14.5593     0.0000     0.0000 </r>
       <r>   -14.4430     0.0000     0.0000 </r>
       <r>   -14.3268     0.0000     0.0000 </r>
       <r>   -14.2106     0.0000     0.0000 </r>
       <r>   -14.0944     0.0000     0.0000 </r>
       <r>   -13.9782     0.0000     0.0000 </r>
       <r>   -13.8620     0.0000     0.0000 </r>
       <r>   -13.7458     0.0000     0.0000 </r>
       <r>   -13.6296     0.0000     0.0000 </r>
       <r>   -13.5134     0.0000     0.0000 </r>
       <r>   -13.3972     0.0000     0.0000 </r>
       <r>   -13.2810     0.0000     0.0000 </r>
       <r>   -13.1648     0.0797     0.0093 </r>
       <r>   -13.0486     0.6401     0.0836 </r>
       <r>   -12.9324     0.0000     0.1389 </r>
       <r>   -12.8161     0.9561     0.2500 </r>
       <r>   -12.6999     2.0661     0.4901 </r>
       <r>   -12.5837     0.0000     0.5463 </r>
       <r>   -12.4675     0.4780     0.6574 </r>
       <r>   -12.3513     2.8536     1.0446 </r>
       <r>   -12.2351     0.5919     1.1706 </r>
       <r>   -12.1189     1.4415     1.5101 </r>
       <r>   -12.0027     0.4843     1.6489 </r>
       <r>   -11.8865     2.8107     2.1414 </r>
       <r>   -11.7703     2.3891     2.6480 </r>
       <r>   -11.6541     0.4432     2.6997 </r>
       <r>   -11.5379     1.4947     3.0070 </r>
       <r>   -11.4217     3.3647     3.5021 </r>
       <r>   -11.3055     1.0335     3.6479 </r>
       <r>   -11.1893     3.2731     4.2970 </r>
       <r>   -11.0730     4.9573     4.9279 </r>
       <r>   -10.9568     3.8222     5.7127 </r>
       <r>   -10.8406     6.8726     6.7431 </r>
       <r>   -10.7244     6.2535     7.6989 </r>
       <r>   -10.6082     5.6335     8.9047 </r>
       <r>   -10.4920     5.9725    10.1292 </r>
       <r>   -10.3758     9.3289    11.5563 </r>
       <r>   -10.2596     0.0000    12.0000 </r>
       <r>   -10.1434     0.0000    12.0000 </r>
       <r>   -10.0272     0.0000    12.0000 </r>
       <r>    -9.9110     0.0000    12.0000 </r>
       <r>    -9.7948     0.0000    12.0000 </r>
       <r>    -9.6786     0.0000    12.0000 </r>
       <r>    -9.5624     0.0000    12.0000 </r>
       <r>    -9.4461     0.0000    12.0000 </r>
       <r>    -9.3299     0.0000    12.0000 </r>
       <r>    -9.2137     0.0000    12.0000 </r>
       <r>    -9.0975     0.0000    12.0000 </r>
       <r>    -8.9813     0.0000    12.0000 </r>
       <r>    -8.8651     0.0000    12.0000 </r>
       <r>    -8.7489     0.0000    12.0000 </r>
       <r>    -8.6327     0.0000    12.0000 </r>
       <r>    -8.5165     0.0000    12.0000 </r>
       <r>    -8.4003     0.0000    12.0000 </r>
       <r>    -8.2841     0.0000    12.0000 </r>
       <r>    -8.1679     0.0000    12.0000 </r>
       <r>    -8.0517     0.0000    12.0000 </r>
       <r>    -7.9355     0.0000    12.0000 </r>
       <r>    -7.8192     0.0000    12.0000 </r>
       <r>    -7.7030     0.0000    12.0000 </r>
       <r>    -7.5868     0.0000    12.0000 </r>
       <r>    -7.4706     0.0000    12.0000 </r>
       <r>    -7.3544     0.0000    12.0000 </r>
       <r>    -7.2382     0.0000    12.0000 </r>
       <r>    -7.1220     0.0000    12.0000 </r>
       <r>    -7.0058     0.0000    12.0000 </r>
       <r>    -6.8896     0.0000    12.0000 </r>
       <r>    -6.7734     0.0000    12.0000 </r>
       <r>    -6.6572     0.0000    12.0000 </r>
       <r>    -6.5410     0.0000    12.0000 </r>
       <r>    -6.4248     0.0000    12.0000 </r>
       <r>    -6.3086     0.0000    12.0000 </r>
       <r>    -6.1924     0.0000    12.0000 </r>
       <r>    -6.0761     0.0000    12.0000 </r>
       <r>    -5.9599     0.0000    12.0000 </r>
       <r>    -5.8437     0.0000    12.0000 </r>
       <r>    -5.7275     0.0000    12.0000 </r>
       <r>    -5.6113     0.0000    12.0000 </r>
       <r>    -5.4951     0.0000    12.0000 </r>
       <r>    -5.3789     0.0000    12.0000 </r>
       <r>    -5.2627     0.0000    12.0000 </r>
       <r>    -5.1465     0.0000    12.0000 </r>
       <r>    -5.0303     0.0000    12.0000 </r>
       <r>    -4.9141     0.0000    12.0000 </r>
       <r>    -4.7979     0.0000    12.0000 </r>
       <r>    -4.6817     0.0000    12.0000 </r>
       <r>    -4.5655     0.0000    12.0000 </r>
       <r>    -4.4492     0.0000    12.0000 </r>
       <r>    -4.3330     0.0000    12.0000 </r>
       <r>    -4.2168     0.0000    12.0000 </r>
       <r>    -4.1006     0.0000    12.0000 </r>
       <r>    -3.9844     0.0000    12.0000 </r>
       <r>    -3.8682     0.0000    12.0000 </r>
       <r>    -3.7520     0.0000    12.0000 </r>
       <r>    -3.6358     0.0000    12.0000 </r>
       <r>    -3.5196     0.0000    12.0000 </r>
       <r>    -3.4034     0.0000    12.0000 </r>
       <r>    -3.2872     0.0000    12.0000 </r>
       <r>    -3.1710     0.0000    12.0000 </r>
       <r>    -3.0548     0.0000    12.0000 </r>
       <r>    -2.9386     0.0000    12.0000 </r>
       <r>    -2.8224     0.0000    12.0000 </r>
       <r>    -2.7061     0.0000    12.0000 </r>
       <r>    -2.5899     0.0000    12.0000 </r>
       <r>    -2.4737     0.0000    12.0000 </r>
       <r>    -2.3575     0.0000    12.0000 </r>
       <r>    -2.2413     0.0000    12.0000 </r>
       <r>    -2.1251     0.0000    12.0000 </r>
       <r>    -2.0089     0.0000    12.0000 </r>
       <r>    -1.8927     0.0000    12.0000 </r>
       <r>    -1.7765     0.0000    12.0000 </r>
       <r>    -1.6603     0.0000    12.0000 </r>
       <r>    -1.5441     0.0000    12.0000 </r>
       <r>    -1.4279     0.0000    12.0000 </r>
       <r>    -1.3117     0.0000    12.0000 </r>
       <r>    -1.1955     0.0000    12.0000 </r>
       <r>    -1.0792     0.0000    12.0000 </r>
       <r>    -0.9630     0.0000    12.0000 </r>
       <r>    -0.8468     0.0000    12.0093 </r>
       <r>    -0.7306     0.4781    12.0648 </r>
       <r>    -0.6144     0.5185    12.1251 </r>
       <r>    -0.4982     1.1155    12.3611 </r>
       <r>    -0.3820     1.2471    12.5616 </r>
       <r>    -0.2658     3.3449    13.0831 </r>
       <r>    -0.1496     5.5567    13.7846 </r>
       <r>    -0.0334     3.2224    14.2633 </r>
       <r>     0.0828     2.2756    14.8755 </r>
       <r>     0.1990     3.5268    15.5673 </r>
       <r>     0.3152     2.9579    16.1400 </r>
       <r>     0.4314     2.7645    16.6916 </r>
       <r>     0.5476     2.3887    17.0554 </r>
       <r>     0.6639     2.4813    17.3439 </r>
       <r>     0.7801     1.6069    17.7978 </r>
       <r>     0.8963     2.8599    18.2397 </r>
       <r>     1.0125     5.1819    19.0466 </r>
       <r>     1.1287     2.5712    19.4655 </r>
       <r>     1.2449     1.6924    19.8633 </r>
       <r>     1.3611     1.7947    20.0882 </r>
       <r>     1.4773     2.8684    20.5185 </r>
       <r>     1.5935     2.3679    20.8307 </r>
       <r>     1.7097     3.0600    21.2537 </r>
       <r>     1.8259     4.3847    22.0651 </r>
       <r>     1.9421     6.6353    23.1044 </r>
       <r>     2.0583     1.6632    23.5544 </r>
       <r>     2.1745     2.1491    23.9812 </r>
       <r>     2.2908     2.2879    24.2474 </r>
       <r>     2.4070     2.2650    24.8002 </r>
       <r>     2.5232     3.8767    25.3209 </r>
       <r>     2.6394     2.4587    25.7116 </r>
       <r>     2.7556     1.5541    25.9769 </r>
       <r>     2.8718     3.6691    26.5004 </r>
       <r>     2.9880     1.0351    26.8425 </r>
       <r>     3.1042     4.9401    27.5833 </r>
       <r>     3.2204     3.2657    27.9628 </r>
       <r>     3.3366     3.1052    28.6294 </r>
       <r>     3.4528     3.2126    29.1696 </r>
       <r>     3.5690     5.2710    30.0014 </r>
       <r>     3.6852     5.1903    30.7976 </r>
       <r>     3.8014     2.9482    31.5000 </r>
       <r>     3.9177     9.4736    32.6472 </r>
       <r>     4.0339     4.8239    33.2365 </r>
       <r>     4.1501     4.2830    33.8959 </r>
       <r>     4.2663     6.4355    35.0071 </r>
       <r>     4.3825     5.6546    35.9349 </r>
       <r>     4.4987     8.4392    37.0085 </r>
       <r>     4.6149     7.0427    38.3184 </r>
       <r>     4.7311     4.0782    39.4647 </r>
       <r>     4.8473     4.6194    40.1201 </r>
       <r>     4.9635     5.6847    41.1050 </r>
       <r>     5.0797     5.1354    41.8468 </r>
       <r>     5.1959     7.5058    43.2333 </r>
       <r>     5.3121     7.2508    44.2870 </r>
       <r>     5.4283     5.1418    45.1160 </r>
       <r>     5.5445     8.8133    46.4686 </r>
       <r>     5.6608     4.3152    47.4274 </r>
       <r>     5.7770     1.2020    47.8526 </r>
       <r>     5.8932     0.0797    48.0000 </r>
       <r>     6.0094     0.0000    48.0000 </r>
       <r>     6.1256     0.0000    48.0000 </r>
       <r>     6.2418     0.0000    48.0000 </r>
       <r>     6.3580     0.0000    48.0000 </r>
       <r>     6.4742     0.0000    48.0000 </r>
       <r>     6.5904     0.0000    48.0000 </r>
       <r>     6.7066     0.0000    48.0000 </r>
       <r>     6.8228     0.0000    48.0000 </r>
       <r>     6.9390     0.0000    48.0000 </r>
       <r>     7.0552     0.0000    48.0000 </r>
       <r>     7.1714     0.0000    48.0000 </r>
       <r>     7.2877     0.0000    48.0000 </r>
       <r>     7.4039     0.0000    48.0000 </r>
       <r>     7.5201     0.0000    48.0000 </r>
       <r>     7.6363     0.0000    48.0000 </r>
       <r>     7.7525     0.0000    48.0000 </r>
       <r>     7.8687     0.0000    48.0000 </r>
       <r>     7.9849     0.0000    48.0000 </r>
       <r>     8.1011     0.0000    48.0000 </r>
       <r>     8.2173     0.0000    48.0000 </r>
       <r>     8.3335     0.0000    48.0000 </r>
       <r>     8.4497     0.0000    48.0000 </r>
       <r>     8.5659     0.0000    48.0000 </r>
       <r>     8.6821     0.0000    48.0000 </r>
       <r>     8.7983     0.0000    48.0000 </r>
       <r>     8.9145     0.0000    48.0000 </r>
       <r>     9.0308     0.0000    48.0000 </r>
       <r>     9.1470     0.0000    48.0000 </r>
       <r>     9.2632     0.0000    48.0000 </r>
       <r>     9.3794     0.0000    48.0000 </r>
       <r>     9.4956     0.0000    48.0000 </r>
       <r>     9.6118     0.0000    48.0000 </r>
       <r>     9.7280     0.0000    48.0000 </r>
       <r>     9.8442     0.0000    48.0000 </r>
       <r>     9.9604     0.0000    48.0000 </r>
       <r>    10.0766     0.0000    48.0000 </r>
       <r>    10.1928     0.0000    48.0000 </r>
       <r>    10.3090     0.0000    48.0000 </r>
       <r>    10.4252     0.0000    48.0000 </r>
       <r>    10.5414     0.0000    48.0000 </r>
       <r>    10.6577     0.0000    48.0000 </r>
       <r>    10.7739     0.0000    48.0000 </r>
       <r>    10.8901     0.0000    48.0000 </r>
       <r>    11.0063     0.0000    48.0000 </r>
       <r>    11.1225     0.0000    48.0000 </r>
       <r>    11.2387     0.0000    48.0000 </r>
       <r>    11.3549     0.0000    48.0000 </r>
       <r>    11.4711     0.0000    48.0000 </r>
       <r>    11.5873     0.0000    48.0000 </r>
       <r>    11.7035     0.0671    48.0078 </r>
       <r>    11.8197     0.0000    48.0093 </r>
       <r>    11.9359     0.0000    48.0093 </r>
       <r>    12.0521     0.0000    48.0093 </r>
       <r>    12.1683     0.0000    48.0093 </r>
       <r>    12.2846     0.0000    48.0278 </r>
       <r>    12.4008     0.4781    48.0833 </r>
       <r>    12.5170     0.4781    48.1389 </r>
       <r>    12.6332     0.0000    48.1389 </r>
       <r>    12.7494     0.0000    48.1389 </r>
       <r>    12.8656     0.0000    48.1389 </r>
       <r>    12.9818     0.0924    48.1496 </r>
       <r>    13.0980     0.0000    48.1944 </r>
       <r>    13.2142     0.4781    48.2500 </r>
       <r>    13.3304     0.4772    48.3240 </r>
       <r>    13.4466     0.0020    48.3243 </r>
       <r>    13.5628     0.0953    48.4463 </r>
       <r>    13.6790     0.4781    48.5463 </r>
       <r>    13.7952     0.0000    48.5463 </r>
       <r>    13.9114     0.0000    48.5463 </r>
       <r>    14.0277     0.9533    48.6571 </r>
       <r>    14.1439     0.0000    48.6574 </r>
       <r>    14.2601     1.5617    48.8389 </r>
       <r>    14.3763     1.4483    49.0109 </r>
       <r>    14.4925     0.0000    49.1204 </r>
       <r>    14.6087     0.9561    49.2315 </r>
       <r>    14.7249     0.1993    49.2546 </r>
       <r>    14.8411     1.5015    49.5449 </r>
       <r>    14.9573     1.3404    49.7113 </r>
       <r>    15.0735     3.8298    50.3339 </r>
       <r>    15.1897     3.3951    50.7834 </r>
       <r>    15.3059     2.8751    51.3619 </r>
       <r>    15.4221     5.1235    52.0398 </r>
       <r>    15.5383     1.1962    52.2501 </r>
       <r>    15.6546     3.8377    52.8626 </r>
       <r>    15.7708     3.6148    53.3923 </r>
       <r>    15.8870     2.9616    53.8719 </r>
       <r>    16.0032     1.9458    54.4761 </r>
       <r>    16.1194     2.6601    54.9758 </r>
       <r>    16.2356     4.0339    55.7651 </r>
       <r>    16.3518     1.9759    56.2204 </r>
       <r>    16.4680     1.0830    56.6166 </r>
       <r>    16.5842     3.3436    57.2126 </r>
       <r>    16.7004     2.4590    57.4987 </r>
       <r>    16.8166     4.0823    57.9837 </r>
       <r>    16.9328     1.8720    58.5046 </r>
       <r>    17.0490     1.4361    58.9817 </r>
       <r>    17.1652     3.5193    59.4460 </r>
       <r>    17.2814     1.9501    59.8007 </r>
       <r>    17.3977     1.5397    60.0956 </r>
       <r>    17.5139     3.8152    60.6378 </r>
       <r>    17.6301     3.9990    61.2147 </r>
       <r>    17.7463     1.4458    61.4736 </r>
       <r>    17.8625     3.3481    61.9539 </r>
       <r>    17.9787     2.4552    62.2946 </r>
       <r>    18.0949     2.2688    62.7729 </r>
       <r>    18.2111     1.9314    63.1411 </r>
       <r>    18.3273     4.4293    63.7277 </r>
       <r>    18.4435     0.8227    63.9012 </r>
       <r>    18.5597     0.4781    64.0000 </r>
       <r>    18.6759     0.0000    64.0000 </r>
       <r>    18.7921     0.0000    64.0000 </r>
       <r>    18.9083     0.0000    64.0000 </r>
       <r>    19.0246     0.0000    64.0000 </r>
       <r>    19.1408     0.0000    64.0000 </r>
       <r>    19.2570     0.0000    64.0000 </r>
       <r>    19.3732     0.0000    64.0000 </r>
       <r>    19.4894     0.0000    64.0000 </r>
       <r>    19.6056     0.0000    64.0000 </r>
       <r>    19.7218     0.0000    64.0000 </r>
       <r>    19.8380     0.0000    64.0000 </r>
       <r>    19.9542     0.0000    64.0000 </r>
       <r>    20.0704     0.0000    64.0000 </r>
      </set>
     </set>
    </array>
   </total>
  </dos>
 </calculation>
 <structure name="finalpos" >
  <crystal>
   <varray name="basis" >
    <v>       2.40251343      -1.38709177       4.37208408 </v>
    <v>       0.00000000       2.77418355       4.37208408 </v>
    <v>      -2.40251343      -1.38709177       4.37208408 </v>
   </varray>
   <i name="volume">     87.41999453 </i>
   <varray name="rec_basis" >
    <v>       0.20811538      -0.12015547       0.07624129 </v>
    <v>      -0.00000000       0.24031094       0.07624129 </v>
    <v>      -0.20811538      -0.12015547       0.07624129 </v>
   </varray>
  </crystal>
  <varray name="positions" >
   <v>       0.64790405       0.64790405       0.64790397 </v>
   <v>       0.85209607       0.85209599       0.85209599 </v>
   <v>       0.14790409       0.14790401       0.14790401 </v>
   <v>       0.35209603       0.35209603       0.35209603 </v>
   <v>       0.44385453       0.05614558       0.74999998 </v>
   <v>       0.94385457       0.25000002       0.55614547 </v>
   <v>       0.05614558       0.75000006       0.44385446 </v>
   <v>       0.75000006       0.44385453       0.05614550 </v>
   <v>       0.25000002       0.55614554       0.94385450 </v>
   <v>       0.55614554       0.94385450       0.25000002 </v>
  </varray>
 </structure>
</modeling>
