
     Program PWSCF v.7.1 starts on  3Jan2024 at 14:30: 8 

     This program is part of the open-source Quantum ESPRESSO suite
     for quantum simulation of materials; please cite
         "P. Giannozzi et al., J. Phys.:Condens. Matter 21 395502 (2009);
         "P. Giannozzi et al., J. Phys.:Condens. Matter 29 465901 (2017);
         "P. Giannozzi et al., J. Chem. Phys. 152 154105 (2020);
          URL http://www.quantum-espresso.org", 
     in publications or presentations arising from this work. More details at
     http://www.quantum-espresso.org/quote

     Parallel version (MPI), running on     8 processors

     MPI processes distributed on     1 nodes
     121774 MiB available memory on the printing compute node when the environment starts
 
     Reading input from pw_mp-1265_emass_k3000_E140.in
Warning: card &IONS ignored
Warning: card / ignored
Warning: card &CELL ignored
Warning: card / ignored

     Current dimensions of program PWSCF are:
     Max number of different atomic species (ntypx) = 10
     Max number of k-points (npk) =  40000
     Max angular momentum in pseudopotentials (lmaxx) =  4

     Atomic positions and unit cell read from directory:
     out/mp-1265.save/
     Atomic positions from file used, from input discarded
 
 
     R & G space division:  proc/nbgrp/npool/nimage =       8
     Subspace diagonalization in iterative solution of the eigenvalue problem:
     a serial algorithm will be used

 
     Parallelization info
     --------------------
     sticks:   dense  smooth     PW     G-vecs:    dense   smooth      PW
     Min         151     151     37                 3491     3491     433
     Max         152     152     38                 3494     3494     436
     Sum        1213    1213    301                27941    27941    3479
 
     Using Slab Decomposition
 


     bravais-lattice index     =            2
     lattice parameter (alat)  =       7.9255  a.u.
     unit-cell volume          =     124.4580 (a.u.)^3
     number of atoms/cell      =            2
     number of atomic types    =            2
     number of electrons       =        16.00
     number of Kohn-Sham states=           16
     kinetic-energy cutoff     =     140.0000  Ry
     charge density cutoff     =     560.0000  Ry
     Exchange-correlation= PBE
                           (   1   4   3   4   0   0   0)

     celldm(1)=   7.925516  celldm(2)=   0.000000  celldm(3)=   0.000000
     celldm(4)=   0.000000  celldm(5)=   0.000000  celldm(6)=   0.000000

     crystal axes: (cart. coord. in units of alat)
               a(1) = (  -0.500000   0.000000   0.500000 )  
               a(2) = (   0.000000   0.500000   0.500000 )  
               a(3) = (  -0.500000   0.500000   0.000000 )  

     reciprocal axes: (cart. coord. in units 2 pi/alat)
               b(1) = ( -1.000000 -1.000000  1.000000 )  
               b(2) = (  1.000000  1.000000  1.000000 )  
               b(3) = ( -1.000000  1.000000 -1.000000 )  


     PseudoPot. # 1 for Mg read from file:
     /usr/scratch4/magr4985/MG/devEb/pseudo/SG15/Mg.upf
     MD5 check sum: 37abd7b36ba9e3bb126701d58b28bff3
     Pseudo is Norm-conserving, Zval = 10.0
     Generated using ONCVPSP code by D. R. Hamann
     Using radial grid of  602 points,  4 beta functions with: 
                l(1) =   0
                l(2) =   0
                l(3) =   1
                l(4) =   1

     PseudoPot. # 2 for O  read from file:
     /usr/scratch4/magr4985/MG/devEb/pseudo/SG15/O.upf
     MD5 check sum: 9d2d0a8c71a1ad34a0c43284618bc51d
     Pseudo is Norm-conserving, Zval =  6.0
     Generated using ONCVPSP code by D. R. Hamann
     Using radial grid of  602 points,  4 beta functions with: 
                l(1) =   0
                l(2) =   0
                l(3) =   1
                l(4) =   1

     atomic species   valence    mass     pseudopotential
        Mg            10.00    24.30500     Mg( 1.00)
        O              6.00    15.99940     O ( 1.00)

     48 Sym. Ops., with inversion, found



   Cartesian axes

     site n.     atom                  positions (alat units)
         1           Mg  tau(   1) = (   0.0000000   0.0000000   0.0000000  )
         2           O   tau(   2) = (  -0.5000000   0.5000000   0.5000000  )

     number of k points=     7  Gaussian smearing, width (Ry)=  0.0005
                       cart. coord. in units 2pi/alat
        k(    1) = (   0.0000000   0.0000000   0.0000000), wk =   0.2857143
        k(    2) = (   0.0100000   0.0000000   0.0000000), wk =   0.2857143
        k(    3) = (  -0.0100000   0.0000000   0.0000000), wk =   0.2857143
        k(    4) = (   0.0000000   0.0100000   0.0000000), wk =   0.2857143
        k(    5) = (   0.0000000  -0.0100000   0.0000000), wk =   0.2857143
        k(    6) = (   0.0000000   0.0000000   0.0100000), wk =   0.2857143
        k(    7) = (   0.0000000   0.0000000  -0.0100000), wk =   0.2857143

     Dense  grid:    27941 G-vectors     FFT dimensions: (  45,  45,  45)

     Estimated max dynamical RAM per process >       3.65 MB

     Estimated total dynamical RAM >      29.23 MB

     The potential is recalculated from file :
     out/mp-1265.save/charge-density

     Starting wfcs are random

     Band Structure Calculation
     ParO style diagonalization

     ethr =  5.00E-06,  avg # of iterations = 16.0

     total cpu time spent up to now is        0.9 secs

     End of band structure calculation

          k = 0.0000 0.0000 0.0000 (  3479 PWs)   bands (ev):

   -63.3972 -30.1628 -30.1628 -30.1628  -8.3522   8.9157   8.9157   8.9157
    13.8178  24.9051  24.9051  24.9051  28.7421  30.7357  30.7357  33.5295

          k = 0.0100 0.0000 0.0000 (  3479 PWs)   bands (ev):

   -63.3972 -30.1628 -30.1628 -30.1628  -8.3519   8.9136   8.9153   8.9153
    13.8202  24.8984  24.9060  24.9060  28.7505  30.7274  30.7365  33.5308

          k =-0.0100 0.0000 0.0000 (  3479 PWs)   bands (ev):

   -63.3972 -30.1628 -30.1628 -30.1628  -8.3519   8.9136   8.9153   8.9153
    13.8202  24.8984  24.9060  24.9060  28.7505  30.7274  30.7365  33.5308

          k = 0.0000 0.0100 0.0000 (  3479 PWs)   bands (ev):

   -63.3972 -30.1628 -30.1628 -30.1628  -8.3519   8.9136   8.9153   8.9153
    13.8202  24.8984  24.9060  24.9060  28.7505  30.7274  30.7365  33.5312

          k = 0.0000-0.0100 0.0000 (  3479 PWs)   bands (ev):

   -63.3972 -30.1628 -30.1628 -30.1628  -8.3519   8.9136   8.9153   8.9153
    13.8202  24.8984  24.9060  24.9060  28.7505  30.7274  30.7365  33.5308

          k = 0.0000 0.0000 0.0100 (  3479 PWs)   bands (ev):

   -63.3972 -30.1628 -30.1628 -30.1628  -8.3519   8.9136   8.9153   8.9153
    13.8202  24.8984  24.9060  24.9060  28.7505  30.7274  30.7365  33.5308

          k = 0.0000 0.0000-0.0100 (  3479 PWs)   bands (ev):

   -63.3972 -30.1628 -30.1628 -30.1628  -8.3519   8.9136   8.9153   8.9153
    13.8202  24.8984  24.9060  24.9060  28.7505  30.7274  30.7365  33.5308

     the Fermi energy is     9.3304 ev
     (compare with:     9.3304 eV, computed in scf)

     Writing all to output data dir out/mp-1265.save/
 
     init_run     :      0.04s CPU      0.06s WALL (       1 calls)
     electrons    :      0.66s CPU      0.69s WALL (       1 calls)

     Called by init_run:
     wfcinit      :      0.00s CPU      0.00s WALL (       1 calls)
     potinit      :      0.02s CPU      0.02s WALL (       1 calls)
     hinit0       :      0.01s CPU      0.01s WALL (       1 calls)

     Called by electrons:
     c_bands      :      0.66s CPU      0.69s WALL (       1 calls)
     v_of_rho     :      0.01s CPU      0.01s WALL (       1 calls)

     Called by c_bands:
     init_us_2    :      0.00s CPU      0.00s WALL (       7 calls)
     init_us_2:cp :      0.00s CPU      0.00s WALL (       7 calls)
     paro_k       :      0.62s CPU      0.64s WALL (       7 calls)

     Called by paro_*:
     h_psi        :      0.53s CPU      0.55s WALL (     358 calls)
     g_psi        :      0.01s CPU      0.01s WALL (    2256 calls)

     Called by h_psi:
     h_psi:calbec :      0.01s CPU      0.01s WALL (     358 calls)
     vloc_psi     :      0.51s CPU      0.53s WALL (     358 calls)
     add_vuspsi   :      0.01s CPU      0.01s WALL (     358 calls)

     General routines
     calbec       :      0.01s CPU      0.01s WALL (     358 calls)
     fft          :      0.01s CPU      0.01s WALL (      10 calls)
     fftw         :      0.46s CPU      0.48s WALL (    3740 calls)
 
     Parallel routines
 
     PWSCF        :      0.80s CPU      0.88s WALL

 
   This run was terminated on:  14:30: 9   3Jan2024            

=------------------------------------------------------------------------------=
   JOB DONE.
=------------------------------------------------------------------------------=
