 
             +---------------------------------------------------+
             |                                                   |
             |                   WANNIER90                       |
             |                                                   |
             +---------------------------------------------------+
             |                                                   |
             |        Welcome to the Maximally-Localized         |
             |        Generalized Wannier Functions code         |
             |            http://www.wannier.org                 |
             |                                                   |
             |                                                   |
             |  Wannier90 Developer Group:                       |
             |    Giovanni Pizzi    (EPFL)                       |
             |    Valerio Vitale    (Cambridge)                  |
             |    David Vanderbilt  (Rutgers University)         |
             |    Nicola Marzari    (EPFL)                       |
             |    Ivo Souza         (Universidad del Pais Vasco) |
             |    Arash A. Mostofi  (Imperial College London)    |
             |    Jonathan R. Yates (University of Oxford)       |
             |                                                   |
             |  For the full list of Wannier90 3.x authors,      |
             |  please check the code documentation and the      |
             |  README on the GitHub page of the code            |
             |                                                   |
             |                                                   |
             |  Please cite                                      |
             |                                                   |
             |  [ref] "Wannier90 as a community code:            |
             |        new features and applications",            |
             |        G. Pizzi et al., J. Phys. Cond. Matt. 32,  |
             |        165902 (2020).                             |
             |        http://doi.org/10.1088/1361-648X/ab51ff    |
             |                                                   |
             |  in any publications arising from the use of      |
             |  this code. For the method please cite            |
             |                                                   |
             |  [ref] "Maximally Localized Generalised Wannier   |
             |         Functions for Composite Energy Bands"     |
             |         N. Marzari and D. Vanderbilt              |
             |         Phys. Rev. B 56 12847 (1997)              |
             |                                                   |
             |  [ref] "Maximally Localized Wannier Functions     |
             |         for Entangled Energy Bands"               |
             |         I. Souza, N. Marzari and D. Vanderbilt    |
             |         Phys. Rev. B 65 035109 (2001)             |
             |                                                   |
             |                                                   |
             | Copyright (c) 1996-2020                           |
             |        The Wannier90 Developer Group and          |
             |        individual contributors                    |
             |                                                   |
             |      Release: 3.1.0        5th March    2020      |
             |                                                   |
             | This program is free software; you can            |
             | redistribute it and/or modify it under the terms  |
             | of the GNU General Public License as published by |
             | the Free Software Foundation; either version 2 of |
             | the License, or (at your option) any later version|
             |                                                   |
             | This program is distributed in the hope that it   |
             | will be useful, but WITHOUT ANY WARRANTY; without |
             | even the implied warranty of MERCHANTABILITY or   |
             | FITNESS FOR A PARTICULAR PURPOSE. See the GNU     |
             | General Public License for more details.          |
             |                                                   |
             | You should have received a copy of the GNU General|
             | Public License along with this program; if not,   |
             | write to the Free Software Foundation, Inc.,      |
             | 675 Mass Ave, Cambridge, MA 02139, USA.           |
             |                                                   |
             +---------------------------------------------------+
             |    Execution started on  3Jan2024 at 16:51:06     |
             +---------------------------------------------------+
 
 ******************************************************************************
 * -> Using CODATA 2006 constant values                                       *
 *    (http://physics.nist.gov/cuu/Constants/index.html)                      *
 * -> Using Bohr value from CODATA                                            *
 ******************************************************************************
 

 Running in parallel on   8 CPUs

 
                                    ------
                                    SYSTEM
                                    ------
 
                              Lattice Vectors (Ang)
                    a_1     4.001557   0.000000   0.000000
                    a_2     0.000000  11.713629   0.000000
                    a_3     0.000000   0.000000  12.362072
 
                   Unit Cell Volume:     579.44436  (Ang^3)
 
                        Reciprocal-Space Vectors (Ang^-1)
                    b_1     1.570185   0.000000   0.000000
                    b_2     0.000000   0.536400   0.000000
                    b_3     0.000000   0.000000   0.508263
  
 *----------------------------------------------------------------------------*
 |   Site       Fractional Coordinate          Cartesian Coordinate (Ang)     |
 +----------------------------------------------------------------------------+
 | Sb   1   0.75000   0.03809   0.14032   |    3.00117   0.44623   1.73468    |
 | Sb   2   0.25000   0.96191   0.85968   |    1.00039  11.26740  10.62740    |
 | Sb   3   0.25000   0.53809   0.35968   |    1.00039   6.30304   4.44636    |
 | Sb   4   0.75000   0.46191   0.64032   |    3.00117   5.41059   7.91571    |
 | Sb   5   0.25000   0.32959   0.03381   |    1.00039   3.86071   0.41800    |
 | Sb   6   0.75000   0.67041   0.96619   |    3.00117   7.85292  11.94408    |
 | Sb   7   0.75000   0.82959   0.46619   |    3.00117   9.71753   5.76304    |
 | Sb   8   0.25000   0.17041   0.53381   |    1.00039   1.99610   6.59903    |
 | Se   1   0.75000   0.12753   0.94835   |    3.00117   1.49378  11.72351    |
 | Se   2   0.25000   0.87247   0.05165   |    1.00039  10.21985   0.63856    |
 | Se   3   0.25000   0.62753   0.55165   |    1.00039   7.35060   6.81960    |
 | Se   4   0.75000   0.37247   0.44835   |    3.00117   4.36303   5.54248    |
 | Se   5   0.25000   0.19210   0.20533   |    1.00039   2.25020   2.53832    |
 | Se   6   0.75000   0.80790   0.79467   |    3.00117   9.46343   9.82375    |
 | Se   7   0.75000   0.69210   0.29467   |    3.00117   8.10701   3.64272    |
 | Se   8   0.25000   0.30790   0.70533   |    1.00039   3.60662   8.71936    |
 | Se   9   0.75000   0.05410   0.62735   |    3.00117   0.63369   7.75534    |
 | Se  10   0.25000   0.94590   0.37265   |    1.00039  11.07994   4.60674    |
 | Se  11   0.25000   0.55410   0.87265   |    1.00039   6.49051  10.78777    |
 | Se  12   0.75000   0.44590   0.12735   |    3.00117   5.22312   1.57430    |
 *----------------------------------------------------------------------------*
                                ------------
                                K-POINT GRID
                                ------------
  
             Grid size = 12 x  4 x  4      Total points =  192
  
  
 *---------------------------------- MAIN ------------------------------------*
 |  Number of Wannier Functions               :                36             |
 |  Number of Objective Wannier Functions     :                36             |
 |  Number of input Bloch states              :                36             |
 |  Output verbosity (1=low, 5=high)          :                 1             |
 |  Timing Level (1=low, 5=high)              :                 1             |
 |  Optimisation (0=memory, 3=speed)          :                 3             |
 |  Length Unit                               :               Ang             |
 |  Post-processing setup (write *.nnkp)      :                 F             |
 |  Using Gamma-only branch of algorithms     :                 F             |
 *----------------------------------------------------------------------------*
 *------------------------------- WANNIERISE ---------------------------------*
 |  Total number of iterations                :               500             |
 |  Number of CG steps before reset           :                 5             |
 |  Trial step length for line search         :             2.000             |
 |  Convergence tolerence                     :         0.100E-09             |
 |  Convergence window                        :                -1             |
 |  Iterations between writing output         :                 1             |
 |  Iterations between backing up to disk     :               100             |
 |  Write r^2_nm to file                      :                 F             |
 |  Write xyz WF centres to file              :                 F             |
 |  Write on-site energies <0n|H|0n> to file  :                 F             |
 |  Use guiding centre to control phases      :                 F             |
 |  Use phases for initial projections        :                 F             |
 *----------------------------------------------------------------------------*
 Time to read parameters        0.019 (sec)

 *---------------------------------- K-MESH ----------------------------------*
 +----------------------------------------------------------------------------+
 |                    Distance to Nearest-Neighbour Shells                    |
 |                    ------------------------------------                    |
 |          Shell             Distance (Ang^-1)          Multiplicity         |
 |          -----             -----------------          ------------         |
 |             1                   0.127066                      2            |
 |             2                   0.130849                      2            |
 |             3                   0.134100                      2            |
 |             4                   0.182393                      4            |
 |             5                   0.184739                      4            |
 |             6                   0.187361                      4            |
 |             7                   0.226384                      8            |
 |             8                   0.254132                      2            |
 |             9                   0.261698                      2            |
 |            10                   0.268200                      2            |
 |            11                   0.285840                      4            |
 |            12                   0.287342                      4            |
 |            13                   0.290915                      4            |
 |            14                   0.294055                      4            |
 |            15                   0.296777                      4            |
 |            16                   0.298417                      4            |
 |            17                   0.315733                      8            |
 |            18                   0.320334                      8            |
 |            19                   0.324343                      8            |
 |            20                   0.364785                      4            |
 |            21                   0.369478                      4            |
 |            22                   0.374722                      4            |
 |            23                   0.381197                      2            |
 |            24                   0.388653                      8            |
 |            25                   0.391963                      8            |
 |            26                   0.392546                      2            |
 |            27                   0.395680                      8            |
 |            28                   0.402300                      2            |
 |            29                   0.403030                      4            |
 |            30                   0.404097                      4            |
 |            31                   0.412599                      4            |
 |            32                   0.414820                      4            |
 |            33                   0.421889                      4            |
 |            34                   0.423044                      4            |
 |            35                   0.424754                      8            |
 |            36                   0.433845                      8            |
 +----------------------------------------------------------------------------+
 | The b-vectors are chosen automatically                                     |
 | The following shells are used:   1,  2,  3                                 |
 +----------------------------------------------------------------------------+
 |                        Shell   # Nearest-Neighbours                        |
 |                        -----   --------------------                        |
 |                          1               2                                 |
 |                          2               2                                 |
 |                          3               2                                 |
 +----------------------------------------------------------------------------+
 | Completeness relation is fully satisfied [Eq. (B1), PRB 56, 12847 (1997)]  |
 +----------------------------------------------------------------------------+
 |                  b_k Vectors (Ang^-1) and Weights (Ang^2)                  |
 |                  ----------------------------------------                  |
 |            No.         b_k(x)      b_k(y)      b_k(z)        w_b           |
 |            ---        --------------------------------     --------        |
 |             1         0.000000    0.000000    0.127066    30.967974        |
 |             2         0.000000    0.000000   -0.127066    30.967974        |
 |             3         0.130849    0.000000    0.000000    29.203225        |
 |             4        -0.130849    0.000000    0.000000    29.203225        |
 |             5         0.000000    0.134100    0.000000    27.804378        |
 |             6         0.000000   -0.134100    0.000000    27.804378        |
 +----------------------------------------------------------------------------+
 |                           b_k Directions (Ang^-1)                          |
 |                           -----------------------                          |
 |            No.           x           y           z                         |
 |            ---        --------------------------------                     |
 |             1         0.000000    0.000000    0.127066                     |
 |             2         0.130849    0.000000    0.000000                     |
 |             3         0.000000    0.134100    0.000000                     |
 +----------------------------------------------------------------------------+
  
 Time to get kmesh              0.128 (sec)
 *============================================================================*
 |                              MEMORY ESTIMATE                               |
 |         Maximum RAM allocated during each phase of the calculation         |
 *============================================================================*
 |                            Wannierise:           62.55 Mb                  |
 |                          plot_wannier:           62.55 Mb                  |
 *----------------------------------------------------------------------------*
  
 Starting a new Wannier90 calculation ...


 Reading overlaps from mp-2160.mmn    :  Created on  3Jan2024 at 16:50:21

 Reading projections from mp-2160.amn :  Created on  3Jan2024 at 16:49:37  with SCDM

 Time to read overlaps          1.595 (sec)

 Writing checkpoint file mp-2160.chk... done

 
 *------------------------------- WANNIERISE ---------------------------------*
 +--------------------------------------------------------------------+<-- CONV
 | Iter  Delta Spread     RMS Gradient      Spread (Ang^2)      Time  |<-- CONV
 +--------------------------------------------------------------------+<-- CONV
 
 ------------------------------------------------------------------------------
 Initial State
  WF centre and spread    1  ( -0.535926, -4.072925,  4.019648 )     5.31798932
  WF centre and spread    2  (  1.465907,  4.073669, -4.019426 )     5.34053753
  WF centre and spread    3  (  0.535923,  1.783883,  2.161385 )     5.31798796
  WF centre and spread    4  ( -1.465910, -1.783141, -2.161600 )     5.34055211
  WF centre and spread    5  ( -1.569227,  1.143127, -5.032905 )     5.51389172
  WF centre and spread    6  ( -0.432064,  4.715084,  1.147787 )     5.48499985
  WF centre and spread    7  (  0.432069, -1.141725,  5.033246 )     5.48499118
  WF centre and spread    8  (  1.569231, -4.713683, -1.148124 )     5.51389427
  WF centre and spread    9  ( -1.041300,  1.242387, -0.587323 )     4.89340420
  WF centre and spread   10  (  1.041301, -4.614424, -5.593711 )     4.89345346
  WF centre and spread   11  (  0.972309, -1.247495,  0.616753 )     4.85079373
  WF centre and spread   12  ( -0.972307,  4.609319,  5.564284 )     4.85086432
  WF centre and spread   13  ( -0.555287,  0.906315, -4.966516 )     5.62572671
  WF centre and spread   14  (  1.445603, -0.905642,  4.966739 )     5.61156487
  WF centre and spread   15  ( -1.445607,  4.951170,  1.214295 )     5.61158026
  WF centre and spread   16  (  0.555284, -4.950498, -1.214515 )     5.62574093
  WF centre and spread   17  ( -1.458345, -3.943130,  4.073171 )     5.44127836
  WF centre and spread   18  ( -0.540744, -1.912908, -2.105435 )     5.48633766
  WF centre and spread   19  (  0.540748,  3.943905, -4.075590 )     5.48632087
  WF centre and spread   20  (  1.458348,  1.913681,  2.107861 )     5.44128548
  WF centre and spread   21  (  1.007514,  2.592375,  1.987212 )     4.89712520
  WF centre and spread   22  ( -1.007513, -3.264433,  4.193822 )     4.89712223
  WF centre and spread   23  ( -0.993124, -2.591194, -1.987504 )     4.88085383
  WF centre and spread   24  (  0.993124,  3.265613, -4.193528 )     4.88085603
  WF centre and spread   25  (  0.867890, -5.098830, -1.429169 )     4.96997922
  WF centre and spread   26  ( -0.867891,  0.757979, -4.751859 )     4.96997267
  WF centre and spread   27  (  1.133233, -0.757958,  4.750485 )     4.97847174
  WF centre and spread   28  ( -1.133234,  5.098854,  1.430547 )     4.97847778
  WF centre and spread   29  (  0.990513, -1.148717, -0.107962 )     5.12850832
  WF centre and spread   30  ( -0.990513,  4.708093,  6.288999 )     5.12852998
  WF centre and spread   31  ( -1.019021,  1.243672, -0.177655 )     5.33527152
  WF centre and spread   32  (  1.019020, -4.613138, -6.003384 )     5.33530906
  WF centre and spread   33  ( -0.927470,  1.155973, -0.153667 )     5.61184587
  WF centre and spread   34  (  0.927470, -4.700840, -6.027368 )     5.61188918
  WF centre and spread   35  (  1.052226, -1.251789,  0.407991 )     5.75830562
  WF centre and spread   36  ( -1.052226,  4.605022,  5.773046 )     5.75836848
  Sum of centres and spreads (  0.000005, -0.002352,  0.000030 )   190.25408150
 
      0     0.190E+03     0.0000000000      190.2540846978       0.00  <-- CONV
        O_D=      0.2393058 O_OD=     28.4574347 O_TOT=    190.2540847 <-- SPRD
 ------------------------------------------------------------------------------
 Cycle:      1
  WF centre and spread    1  ( -0.529948, -4.067043,  4.008314 )     5.08793616
  WF centre and spread    2  (  1.471520,  4.067477, -4.008147 )     5.10338398
  WF centre and spread    3  (  0.529945,  1.789765,  2.172719 )     5.08793114
  WF centre and spread    4  ( -1.471523, -1.789333, -2.172879 )     5.10339478
  WF centre and spread    5  ( -1.580654,  1.144717, -5.039778 )     5.31626815
  WF centre and spread    6  ( -0.420162,  4.712880,  1.140995 )     5.29831333
  WF centre and spread    7  (  0.420167, -1.143929,  5.040037 )     5.29830326
  WF centre and spread    8  (  1.580659, -4.712093, -1.141251 )     5.31626490
  WF centre and spread    9  ( -1.048011,  1.244760, -0.587533 )     4.70439715
  WF centre and spread   10  (  1.048012, -4.612051, -5.593501 )     4.70444397
  WF centre and spread   11  (  0.964664, -1.250933,  0.615870 )     4.66576002
  WF centre and spread   12  ( -0.964663,  4.605881,  5.565167 )     4.66582857
  WF centre and spread   13  ( -0.551516,  0.903429, -4.970774 )     5.24307070
  WF centre and spread   14  (  1.449303, -0.903123,  4.971040 )     5.23548658
  WF centre and spread   15  ( -1.449306,  4.953688,  1.209993 )     5.23550484
  WF centre and spread   16  (  0.551514, -4.953384, -1.210257 )     5.24308208
  WF centre and spread   17  ( -1.465754, -3.942049,  4.064446 )     5.18635796
  WF centre and spread   18  ( -0.534258, -1.914727, -2.114990 )     5.21511439
  WF centre and spread   19  (  0.534261,  3.942085, -4.066035 )     5.21510222
  WF centre and spread   20  (  1.465757,  1.914761,  2.116586 )     5.18636139
  WF centre and spread   21  (  1.006395,  2.606253,  1.985930 )     4.71516210
  WF centre and spread   22  ( -1.006395, -3.250555,  4.195104 )     4.71515894
  WF centre and spread   23  ( -0.994361, -2.605360, -1.986522 )     4.70621680
  WF centre and spread   24  (  0.994361,  3.251447, -4.194510 )     4.70621814
  WF centre and spread   25  (  0.867635, -5.101170, -1.432477 )     4.77250337
  WF centre and spread   26  ( -0.867637,  0.755639, -4.748550 )     4.77250151
  WF centre and spread   27  (  1.133293, -0.755666,  4.747760 )     4.77583895
  WF centre and spread   28  ( -1.133294,  5.101145,  1.433272 )     4.77584286
  WF centre and spread   29  (  0.991034, -1.151877, -0.127205 )     4.86977075
  WF centre and spread   30  ( -0.991034,  4.704932,  6.308242 )     4.86978910
  WF centre and spread   31  ( -1.020483,  1.252375, -0.164793 )     5.11986940
  WF centre and spread   32  (  1.020483, -4.604435, -6.016246 )     5.11990281
  WF centre and spread   33  ( -0.926354,  1.144588, -0.153001 )     5.41060968
  WF centre and spread   34  (  0.926354, -4.712224, -6.028033 )     5.41065187
  WF centre and spread   35  (  1.052613, -1.241663,  0.414443 )     5.57290269
  WF centre and spread   36  ( -1.052613,  4.615147,  5.766594 )     5.57296894
  Sum of centres and spreads (  0.000005, -0.000648,  0.000030 )   181.99821349
 
      1    -0.826E+01     3.4510659853      181.9982166926       0.04  <-- CONV
        O_D=      0.2348144 O_OD=     20.2060582 O_TOT=    181.9982167 <-- SPRD
 Delta: O_D= -0.4491471E-02 O_OD= -0.8251377E+01 O_TOT= -0.8255868E+01 <-- DLTA
 ------------------------------------------------------------------------------
 Cycle:      2
  WF centre and spread    1  ( -0.525957, -4.064993,  4.002533 )     4.96311550
  WF centre and spread    2  (  1.475315,  4.065256, -4.002330 )     4.97291448
  WF centre and spread    3  (  0.525954,  1.791815,  2.178500 )     4.96310293
  WF centre and spread    4  ( -1.475319, -1.791553, -2.178696 )     4.97292544
  WF centre and spread    5  ( -1.585614,  1.144817, -5.042596 )     5.21460705
  WF centre and spread    6  ( -0.415164,  4.712435,  1.138243 )     5.20466417
  WF centre and spread    7  (  0.415169, -1.144374,  5.042790 )     5.20465529
  WF centre and spread    8  (  1.585619, -4.711993, -1.138433 )     5.21460369
  WF centre and spread    9  ( -1.050418,  1.246578, -0.587960 )     4.62441136
  WF centre and spread   10  (  1.050418, -4.610234, -5.593074 )     4.62445464
  WF centre and spread   11  (  0.961714, -1.253167,  0.615679 )     4.59081488
  WF centre and spread   12  ( -0.961713,  4.603648,  5.565357 )     4.59088411
  WF centre and spread   13  ( -0.549215,  0.903046, -4.973959 )     5.02475010
  WF centre and spread   14  (  1.451456, -0.902811,  4.974163 )     5.02054685
  WF centre and spread   15  ( -1.451459,  4.954000,  1.206870 )     5.02056453
  WF centre and spread   16  (  0.549213, -4.953767, -1.207072 )     5.02476282
  WF centre and spread   17  ( -1.470245, -3.944435,  4.059266 )     5.06265673
  WF centre and spread   18  ( -0.530257, -1.912714, -2.120831 )     5.07973152
  WF centre and spread   19  (  0.530261,  3.944098, -4.060194 )     5.07972100
  WF centre and spread   20  (  1.470248,  1.912375,  2.121766 )     5.06266477
  WF centre and spread   21  (  1.005750,  2.614584,  1.982874 )     4.61230207
  WF centre and spread   22  ( -1.005749, -3.242225,  4.198160 )     4.61229924
  WF centre and spread   23  ( -0.995022, -2.613961, -1.983381 )     4.60842015
  WF centre and spread   24  (  0.995023,  3.242846, -4.197651 )     4.60841885
  WF centre and spread   25  (  0.867591, -5.103630, -1.434973 )     4.63541523
  WF centre and spread   26  ( -0.867593,  0.753179, -4.746055 )     4.63541534
  WF centre and spread   27  (  1.133254, -0.753266,  4.745676 )     4.63659147
  WF centre and spread   28  ( -1.133255,  5.103545,  1.435356 )     4.63659378
  WF centre and spread   29  (  0.991247, -1.152437, -0.137790 )     4.76171728
  WF centre and spread   30  ( -0.991247,  4.704372,  6.318827 )     4.76173296
  WF centre and spread   31  ( -1.021159,  1.255869, -0.158517 )     5.04351214
  WF centre and spread   32  (  1.021158, -4.600942, -6.022522 )     5.04354448
  WF centre and spread   33  ( -0.926048,  1.139563, -0.153125 )     5.34005560
  WF centre and spread   34  (  0.926048, -4.717249, -6.027910 )     5.34010176
  WF centre and spread   35  (  1.052757, -1.237528,  0.419338 )     5.51365999
  WF centre and spread   36  ( -1.052757,  4.619282,  5.761700 )     5.51372771
  Sum of centres and spreads (  0.000005,  0.000028,  0.000030 )   177.82005989
 
      2    -0.418E+01     3.6664415954      177.8200631014       0.07  <-- CONV
        O_D=      0.1650900 O_OD=     16.0976289 O_TOT=    177.8200631 <-- SPRD
 Delta: O_D= -0.6972433E-01 O_OD= -0.4108429E+01 O_TOT= -0.4178154E+01 <-- DLTA
 ------------------------------------------------------------------------------
 Cycle:      3
  WF centre and spread    1  ( -0.523452, -4.065022,  3.999548 )     4.89770366
  WF centre and spread    2  (  1.477669,  4.065157, -3.999261 )     4.90280424
  WF centre and spread    3  (  0.523449,  1.791785,  2.181486 )     4.89769004
  WF centre and spread    4  ( -1.477672, -1.791652, -2.181765 )     4.90281734
  WF centre and spread    5  ( -1.588225,  1.144873, -5.043971 )     5.16751308
  WF centre and spread    6  ( -0.412612,  4.712223,  1.136928 )     5.16234297
  WF centre and spread    7  (  0.412617, -1.144586,  5.044105 )     5.16233227
  WF centre and spread    8  (  1.588230, -4.711937, -1.137058 )     5.16751090
  WF centre and spread    9  ( -1.050910,  1.247910, -0.588892 )     4.59697173
  WF centre and spread   10  (  1.050911, -4.608901, -5.592143 )     4.59701246
  WF centre and spread   11  (  0.960872, -1.254673,  0.616345 )     4.56402281
  WF centre and spread   12  ( -0.960872,  4.602142,  5.564692 )     4.56409212
  WF centre and spread   13  ( -0.547371,  0.904241, -4.975953 )     4.91768894
  WF centre and spread   14  (  1.453258, -0.904024,  4.976069 )     4.91596277
  WF centre and spread   15  ( -1.453261,  4.952788,  1.204964 )     4.91598092
  WF centre and spread   16  (  0.547369, -4.952572, -1.205077 )     4.91770008
  WF centre and spread   17  ( -1.472424, -3.947816,  4.055975 )     5.01192500
  WF centre and spread   18  ( -0.528291, -1.909441, -2.124523 )     5.02185371
  WF centre and spread   19  (  0.528295,  3.947371, -4.056503 )     5.02184484
  WF centre and spread   20  (  1.472427,  1.908994,  2.125057 )     5.01193569
  WF centre and spread   21  (  1.005528,  2.618771,  1.980636 )     4.56009989
  WF centre and spread   22  ( -1.005528, -3.238038,  4.200397 )     4.56009757
  WF centre and spread   23  ( -0.995238, -2.618388, -1.980949 )     4.55891595
  WF centre and spread   24  (  0.995238,  3.238419, -4.200083 )     4.55890991
  WF centre and spread   25  (  0.867589, -5.105432, -1.436687 )     4.55259983
  WF centre and spread   26  ( -0.867591,  0.751377, -4.744341 )     4.55259709
  WF centre and spread   27  (  1.133234, -0.751523,  4.744157 )     4.55309253
  WF centre and spread   28  ( -1.133235,  5.105288,  1.436875 )     4.55309399
  WF centre and spread   29  (  0.991352, -1.151629, -0.142781 )     4.72205177
  WF centre and spread   30  ( -0.991352,  4.705181,  6.323818 )     4.72206817
  WF centre and spread   31  ( -1.021288,  1.256696, -0.156359 )     5.02171004
  WF centre and spread   32  (  1.021288, -4.600115, -6.024680 )     5.02174238
  WF centre and spread   33  ( -0.926335,  1.138019, -0.153725 )     5.32226349
  WF centre and spread   34  (  0.926335, -4.718793, -6.027310 )     5.32230951
  WF centre and spread   35  (  1.052601, -1.236601,  0.423106 )     5.49937837
  WF centre and spread   36  ( -1.052601,  4.620209,  5.757931 )     5.49944453
  Sum of centres and spreads (  0.000005,  0.000298,  0.000030 )   175.89808056
 
      3    -0.192E+01     2.8810094557      175.8980837689       0.10  <-- CONV
        O_D=      0.1218219 O_OD=     14.2189178 O_TOT=    175.8980838 <-- SPRD
 Delta: O_D= -0.4326817E-01 O_OD= -0.1878711E+01 O_TOT= -0.1921979E+01 <-- DLTA
 ------------------------------------------------------------------------------
 Cycle:      4
  WF centre and spread    1  ( -0.521590, -4.065670,  3.997664 )     4.86316761
  WF centre and spread    2  (  1.479473,  4.065744, -3.997328 )     4.86479489
  WF centre and spread    3  (  0.521587,  1.791138,  2.183369 )     4.86315542
  WF centre and spread    4  ( -1.479476, -1.791065, -2.183698 )     4.86480645
  WF centre and spread    5  ( -1.590178,  1.144902, -5.044686 )     5.14025394
  WF centre and spread    6  ( -0.410704,  4.712117,  1.136261 )     5.13772051
  WF centre and spread    7  (  0.410709, -1.144692,  5.044772 )     5.13771092
  WF centre and spread    8  (  1.590184, -4.711908, -1.136343 )     5.14024965
  WF centre and spread    9  ( -1.050981,  1.248915, -0.590101 )     4.58641745
  WF centre and spread   10  (  1.050982, -4.607896, -5.590933 )     4.58645741
  WF centre and spread   11  (  0.960559, -1.255771,  0.617421 )     4.55312544
  WF centre and spread   12  ( -0.960559,  4.601044,  5.563615 )     4.55319263
  WF centre and spread   13  ( -0.545838,  0.905682, -4.977070 )     4.86451077
  WF centre and spread   14  (  1.454765, -0.905480,  4.977110 )     4.86403082
  WF centre and spread   15  ( -1.454768,  4.951332,  1.203924 )     4.86405156
  WF centre and spread   16  (  0.545836, -4.951130, -1.203960 )     4.86452080
  WF centre and spread   17  ( -1.473891, -3.951061,  4.053579 )     4.99419137
  WF centre and spread   18  ( -0.526883, -1.906170, -2.127136 )     4.99962747
  WF centre and spread   19  (  0.526887,  3.950642, -4.053890 )     4.99961824
  WF centre and spread   20  (  1.473895,  1.905749,  2.127453 )     4.99419918
  WF centre and spread   21  (  1.005481,  2.621598,  1.978893 )     4.53394399
  WF centre and spread   22  ( -1.005481, -3.235210,  4.202141 )     4.53393993
  WF centre and spread   23  ( -0.995286, -2.621455, -1.979005 )     4.53346182
  WF centre and spread   24  (  0.995287,  3.235352, -4.202027 )     4.53345380
  WF centre and spread   25  (  0.867528, -5.106795, -1.437815 )     4.50716674
  WF centre and spread   26  ( -0.867529,  0.750014, -4.743213 )     4.50716136
  WF centre and spread   27  (  1.133283, -0.750202,  4.743120 )     4.50722068
  WF centre and spread   28  ( -1.133283,  5.106609,  1.437912 )     4.50722226
  WF centre and spread   29  (  0.991421, -1.150521, -0.145744 )     4.70929981
  WF centre and spread   30  ( -0.991421,  4.706289,  6.326781 )     4.70931448
  WF centre and spread   31  ( -1.021276,  1.256755, -0.155807 )     5.01617012
  WF centre and spread   32  (  1.021276, -4.600055, -6.025232 )     5.01619908
  WF centre and spread   33  ( -0.926694,  1.137650, -0.154290 )     5.32088700
  WF centre and spread   34  (  0.926694, -4.719162, -6.026744 )     5.32093244
  WF centre and spread   35  (  1.052394, -1.236830,  0.426290 )     5.49670020
  WF centre and spread   36  ( -1.052394,  4.619980,  5.754748 )     5.49676437
  Sum of centres and spreads (  0.000005,  0.000437,  0.000030 )   174.98564061
 
      4    -0.912E+00     2.0695898944      174.9856438271       0.14  <-- CONV
        O_D=      0.1062759 O_OD=     13.3220238 O_TOT=    174.9856438 <-- SPRD
 Delta: O_D= -0.1554597E-01 O_OD= -0.8968940E+00 O_TOT= -0.9124399E+00 <-- DLTA
 ------------------------------------------------------------------------------
 Cycle:      5
  WF centre and spread    1  ( -0.519901, -4.066439,  3.996287 )     4.84034848
  WF centre and spread    2  (  1.481150,  4.066486, -3.995936 )     4.83934495
  WF centre and spread    3  (  0.519898,  1.790368,  2.184746 )     4.84033838
  WF centre and spread    4  ( -1.481153, -1.790324, -2.185091 )     4.83935600
  WF centre and spread    5  ( -1.592032,  1.144929, -5.045076 )     5.12280825
  WF centre and spread    6  ( -0.408873,  4.712041,  1.135906 )     5.12154752
  WF centre and spread    7  (  0.408878, -1.144768,  5.045127 )     5.12153922
  WF centre and spread    8  (  1.592038, -4.711881, -1.135953 )     5.12280195
  WF centre and spread    9  ( -1.050986,  1.249732, -0.591488 )     4.58105606
  WF centre and spread   10  (  1.050986, -4.607079, -5.589546 )     4.58109508
  WF centre and spread   11  (  0.960355, -1.256657,  0.618710 )     4.54740597
  WF centre and spread   12  ( -0.960354,  4.600157,  5.562326 )     4.54747104
  WF centre and spread   13  ( -0.544365,  0.907154, -4.977749 )     4.83878316
  WF centre and spread   14  (  1.456229, -0.906983,  4.977739 )     4.83872842
  WF centre and spread   15  ( -1.456233,  4.949828,  1.203295 )     4.83875023
  WF centre and spread   16  (  0.544363, -4.949658, -1.203282 )     4.83879089
  WF centre and spread   17  ( -1.475230, -3.954166,  4.051575 )     4.98615095
  WF centre and spread   18  ( -0.525548, -1.903006, -2.129281 )     4.98820804
  WF centre and spread   19  (  0.525552,  3.953805, -4.051744 )     4.98819776
  WF centre and spread   20  (  1.475233,  1.902644,  2.129457 )     4.98615448
  WF centre and spread   21  (  1.005459,  2.624198,  1.977251 )     4.52072957
  WF centre and spread   22  ( -1.005458, -3.232611,  4.203783 )     4.52072334
  WF centre and spread   23  ( -0.995315, -2.624277, -1.977172 )     4.52068055
  WF centre and spread   24  (  0.995315,  3.232529, -4.203860 )     4.52067236
  WF centre and spread   25  (  0.867479, -5.108156, -1.438799 )     4.48016114
  WF centre and spread   26  ( -0.867481,  0.748653, -4.742229 )     4.48015514
  WF centre and spread   27  (  1.133326, -0.748872,  4.742185 )     4.47989863
  WF centre and spread   28  ( -1.133327,  5.107939,  1.438847 )     4.47989882
  WF centre and spread   29  (  0.991471, -1.149286, -0.148197 )     4.70575141
  WF centre and spread   30  ( -0.991470,  4.707524,  6.329233 )     4.70576418
  WF centre and spread   31  ( -1.021242,  1.256586, -0.155880 )     5.01595135
  WF centre and spread   32  (  1.021242, -4.600224, -6.025159 )     5.01597946
  WF centre and spread   33  ( -0.927023,  1.137645, -0.154792 )     5.32404061
  WF centre and spread   34  (  0.927024, -4.719167, -6.026243 )     5.32408532
  WF centre and spread   35  (  1.052210, -1.237470,  0.429401 )     5.49725909
  WF centre and spread   36  ( -1.052210,  4.619340,  5.751637 )     5.49732221
  Sum of centres and spreads (  0.000005,  0.000535,  0.000030 )   174.49795001
 
      5    -0.488E+00     1.4919586183      174.4979532279       0.17  <-- CONV
        O_D=      0.0962510 O_OD=     12.8443581 O_TOT=    174.4979532 <-- SPRD
 Delta: O_D= -0.1002490E-01 O_OD= -0.4776657E+00 O_TOT= -0.4876906E+00 <-- DLTA
 ------------------------------------------------------------------------------
 Cycle:      6
  WF centre and spread    1  ( -0.518280, -4.067200,  3.995226 )     4.82528343
  WF centre and spread    2  (  1.482764,  4.067220, -3.994888 )     4.82220307
  WF centre and spread    3  (  0.518277,  1.789608,  2.185807 )     4.82527567
  WF centre and spread    4  ( -1.482768, -1.789590, -2.186138 )     4.82221371
  WF centre and spread    5  ( -1.593919,  1.145002, -5.045305 )     5.11170342
  WF centre and spread    6  ( -0.406996,  4.711936,  1.135703 )     5.11086950
  WF centre and spread    7  (  0.407001, -1.144873,  5.045329 )     5.11086186
  WF centre and spread    8  (  1.593925, -4.711808, -1.135724 )     5.11169647
  WF centre and spread    9  ( -1.050972,  1.250446, -0.592939 )     4.57772629
  WF centre and spread   10  (  1.050973, -4.606365, -5.588095 )     4.57776418
  WF centre and spread   11  (  0.960183, -1.257418,  0.620073 )     4.54402335
  WF centre and spread   12  ( -0.960182,  4.599397,  5.560964 )     4.54408805
  WF centre and spread   13  ( -0.542823,  0.908698, -4.978208 )     4.82762366
  WF centre and spread   14  (  1.457772, -0.908564,  4.978167 )     4.82750720
  WF centre and spread   15  ( -1.457775,  4.948248,  1.202866 )     4.82752933
  WF centre and spread   16  (  0.542821, -4.948114, -1.202822 )     4.82762944
  WF centre and spread   17  ( -1.476578, -3.957189,  4.049760 )     4.98223630
  WF centre and spread   18  ( -0.524194, -1.899937, -2.131193 )     4.98151755
  WF centre and spread   19  (  0.524198,  3.956874, -4.049832 )     4.98150607
  WF centre and spread   20  (  1.476582,  1.899621,  2.131272 )     4.98223632
  WF centre and spread   21  (  1.005401,  2.626875,  1.975551 )     4.51378208
  WF centre and spread   22  ( -1.005401, -3.229934,  4.205482 )     4.51377471
  WF centre and spread   23  ( -0.995377, -2.627147, -1.975296 )     4.51385826
  WF centre and spread   24  (  0.995377,  3.229660, -4.205736 )     4.51385131
  WF centre and spread   25  (  0.867439, -5.109467, -1.439713 )     4.46190327
  WF centre and spread   26  ( -0.867441,  0.747342, -4.741314 )     4.46189724
  WF centre and spread   27  (  1.133367, -0.747581,  4.741292 )     4.46142060
  WF centre and spread   28  ( -1.133368,  5.109230,  1.439740 )     4.46142071
  WF centre and spread   29  (  0.991516, -1.148043, -0.150579 )     4.70477201
  WF centre and spread   30  ( -0.991516,  4.708767,  6.331616 )     4.70478324
  WF centre and spread   31  ( -1.021202,  1.256384, -0.156191 )     5.01780533
  WF centre and spread   32  (  1.021202, -4.600426, -6.024848 )     5.01783312
  WF centre and spread   33  ( -0.927337,  1.137751, -0.155200 )     5.32750174
  WF centre and spread   34  (  0.927338, -4.719061, -6.025835 )     5.32754488
  WF centre and spread   35  (  1.052040, -1.238282,  0.432515 )     5.49827200
  WF centre and spread   36  ( -1.052040,  4.618528,  5.748523 )     5.49833407
  Sum of centres and spreads (  0.000005,  0.000587,  0.000030 )   174.22024945
 
      6    -0.278E+00     1.1184461389      174.2202526684       0.20  <-- CONV
        O_D=      0.0912171 O_OD=     12.5716914 O_TOT=    174.2202527 <-- SPRD
 Delta: O_D= -0.5033889E-02 O_OD= -0.2726667E+00 O_TOT= -0.2777006E+00 <-- DLTA
 ------------------------------------------------------------------------------
 Cycle:      7
  WF centre and spread    1  ( -0.517863, -4.067382,  3.994995 )     4.82185971
  WF centre and spread    2  (  1.483171,  4.067387, -3.994674 )     4.81864721
  WF centre and spread    3  (  0.517859,  1.789426,  2.186038 )     4.82185262
  WF centre and spread    4  ( -1.483174, -1.789423, -2.186352 )     4.81865751
  WF centre and spread    5  ( -1.594426,  1.145015, -5.045332 )     5.10756297
  WF centre and spread    6  ( -0.406484,  4.711922,  1.135678 )     5.10661351
  WF centre and spread    7  (  0.406489, -1.144887,  5.045355 )     5.10660594
  WF centre and spread    8  (  1.594432, -4.711795, -1.135697 )     5.10755598
  WF centre and spread    9  ( -1.050967,  1.250619, -0.593327 )     4.57535006
  WF centre and spread   10  (  1.050968, -4.606192, -5.587707 )     4.57538779
  WF centre and spread   11  (  0.960135, -1.257595,  0.620436 )     4.54180025
  WF centre and spread   12  ( -0.960134,  4.599220,  5.560600 )     4.54186513
  WF centre and spread   13  ( -0.542400,  0.909130, -4.978287 )     4.82394723
  WF centre and spread   14  (  1.458199, -0.909000,  4.978246 )     4.82373062
  WF centre and spread   15  ( -1.458202,  4.947812,  1.202788 )     4.82375363
  WF centre and spread   16  (  0.542397, -4.947682, -1.202743 )     4.82395276
  WF centre and spread   17  ( -1.476949, -3.957990,  4.049261 )     4.97942634
  WF centre and spread   18  ( -0.523830, -1.899138, -2.131698 )     4.97848727
  WF centre and spread   19  (  0.523833,  3.957674, -4.049327 )     4.97847539
  WF centre and spread   20  (  1.476952,  1.898820,  2.131772 )     4.97942566
  WF centre and spread   21  (  1.005371,  2.627676,  1.975043 )     4.51156656
  WF centre and spread   22  ( -1.005371, -3.229133,  4.205990 )     4.51155899
  WF centre and spread   23  ( -0.995408, -2.627978, -1.974755 )     4.51163547
  WF centre and spread   24  (  0.995408,  3.228829, -4.206277 )     4.51162887
  WF centre and spread   25  (  0.867439, -5.109785, -1.439911 )     4.45593025
  WF centre and spread   26  ( -0.867441,  0.747023, -4.741116 )     4.45592347
  WF centre and spread   27  (  1.133369, -0.747265,  4.741093 )     4.45546655
  WF centre and spread   28  ( -1.133370,  5.109546,  1.439939 )     4.45546744
  WF centre and spread   29  (  0.991541, -1.147761, -0.151253 )     4.70208570
  WF centre and spread   30  ( -0.991541,  4.709049,  6.332290 )     4.70209686
  WF centre and spread   31  ( -1.021181,  1.256396, -0.156309 )     5.01643502
  WF centre and spread   32  (  1.021181, -4.600414, -6.024730 )     5.01646271
  WF centre and spread   33  ( -0.927425,  1.137784, -0.155256 )     5.32555240
  WF centre and spread   34  (  0.927425, -4.719028, -6.025778 )     5.32559525
  WF centre and spread   35  (  1.051996, -1.238555,  0.433350 )     5.49590490
  WF centre and spread   36  ( -1.051996,  4.618255,  5.747687 )     5.49596687
  Sum of centres and spreads (  0.000005,  0.000579,  0.000030 )   174.10423490
 
      7    -0.116E+00     0.9004840680      174.1042381203       0.24  <-- CONV
        O_D=      0.0885024 O_OD=     12.4583916 O_TOT=    174.1042381 <-- SPRD
 Delta: O_D= -0.2714729E-02 O_OD= -0.1132998E+00 O_TOT= -0.1160145E+00 <-- DLTA
 ------------------------------------------------------------------------------
 Cycle:      8
  WF centre and spread    1  ( -0.516533, -4.067998,  3.994324 )     4.81651812
  WF centre and spread    2  (  1.484469,  4.067953, -3.994058 )     4.81294367
  WF centre and spread    3  (  0.516530,  1.788810,  2.186710 )     4.81651249
  WF centre and spread    4  ( -1.484473, -1.788857, -2.186968 )     4.81295337
  WF centre and spread    5  ( -1.596031,  1.145116, -5.045420 )     5.10203067
  WF centre and spread    6  ( -0.404866,  4.711818,  1.135591 )     5.10081127
  WF centre and spread    7  (  0.404871, -1.144991,  5.045442 )     5.10080403
  WF centre and spread    8  (  1.596036, -4.711695, -1.135609 )     5.10202373
  WF centre and spread    9  ( -1.050979,  1.251129, -0.594503 )     4.57287712
  WF centre and spread   10  (  1.050979, -4.605682, -5.586531 )     4.57291423
  WF centre and spread   11  (  0.959958, -1.258120,  0.621543 )     4.53968119
  WF centre and spread   12  ( -0.959958,  4.598695,  5.559493 )     4.53974659
  WF centre and spread   13  ( -0.541050,  0.910594, -4.978576 )     4.82233399
  WF centre and spread   14  (  1.459556, -0.910474,  4.978540 )     4.82197360
  WF centre and spread   15  ( -1.459559,  4.946337,  1.202494 )     4.82199863
  WF centre and spread   16  (  0.541047, -4.946219, -1.202454 )     4.82233830
  WF centre and spread   17  ( -1.478146, -3.960580,  4.047749 )     4.97713454
  WF centre and spread   18  ( -0.522647, -1.896552, -2.133226 )     4.97551170
  WF centre and spread   19  (  0.522651,  3.960259, -4.047799 )     4.97549845
  WF centre and spread   20  (  1.478150,  1.896230,  2.133283 )     4.97713217
  WF centre and spread   21  (  1.005280,  2.630189,  1.973379 )     4.51064407
  WF centre and spread   22  ( -1.005280, -3.226620,  4.207654 )     4.51063627
  WF centre and spread   23  ( -0.995502, -2.630592, -1.972987 )     4.51066998
  WF centre and spread   24  (  0.995503,  3.226215, -4.208045 )     4.51066475
  WF centre and spread   25  (  0.867441, -5.110754, -1.440503 )     4.44468776
  WF centre and spread   26  ( -0.867443,  0.746055, -4.740525 )     4.44468048
  WF centre and spread   27  (  1.133373, -0.746304,  4.740501 )     4.44424214
  WF centre and spread   28  ( -1.133374,  5.110507,  1.440531 )     4.44424433
  WF centre and spread   29  (  0.991633, -1.146843, -0.153429 )     4.69948232
  WF centre and spread   30  ( -0.991633,  4.709966,  6.334465 )     4.69949320
  WF centre and spread   31  ( -1.021101,  1.256436, -0.156679 )     5.01711792
  WF centre and spread   32  (  1.021100, -4.600375, -6.024360 )     5.01714551
  WF centre and spread   33  ( -0.927690,  1.137888, -0.155412 )     5.32450944
  WF centre and spread   34  (  0.927691, -4.718924, -6.025622 )     5.32455140
  WF centre and spread   35  (  1.051860, -1.239429,  0.435985 )     5.49388925
  WF centre and spread   36  ( -1.051860,  4.617381,  5.745052 )     5.49395102
  Sum of centres and spreads (  0.000005,  0.000568,  0.000030 )   173.97434768
 
      8    -0.130E+00     0.6584384278      173.9743508981       0.27  <-- CONV
        O_D=      0.0890633 O_OD=     12.3279435 O_TOT=    173.9743509 <-- SPRD
 Delta: O_D=  0.5608967E-03 O_OD= -0.1304481E+00 O_TOT= -0.1298872E+00 <-- DLTA
 ------------------------------------------------------------------------------
 Cycle:      9
  WF centre and spread    1  ( -0.514281, -4.069069,  3.993177 )     4.80914648
  WF centre and spread    2  (  1.486673,  4.068934, -3.993006 )     4.80502514
  WF centre and spread    3  (  0.514277,  1.787739,  2.187856 )     4.80914214
  WF centre and spread    4  ( -1.486677, -1.787875, -2.188021 )     4.80503535
  WF centre and spread    5  ( -1.598681,  1.145273, -5.045477 )     5.09480710
  WF centre and spread    6  ( -0.402198,  4.711656,  1.135531 )     5.09326136
  WF centre and spread    7  (  0.402204, -1.145153,  5.045502 )     5.09325416
  WF centre and spread    8  (  1.598687, -4.711537, -1.135551 )     5.09480088
  WF centre and spread    9  ( -1.051012,  1.251982, -0.596436 )     4.57059938
  WF centre and spread   10  (  1.051012, -4.604829, -5.584598 )     4.57063526
  WF centre and spread   11  (  0.959636, -1.258996,  0.623371 )     4.53804608
  WF centre and spread   12  ( -0.959636,  4.597819,  5.557666 )     4.53811291
  WF centre and spread   13  ( -0.538772,  0.913191, -4.979047 )     4.82174316
  WF centre and spread   14  (  1.461840, -0.913079,  4.979018 )     4.82117905
  WF centre and spread   15  ( -1.461843,  4.943732,  1.202015 )     4.82120900
  WF centre and spread   16  (  0.538769, -4.943622, -1.201984 )     4.82174516
  WF centre and spread   17  ( -1.480176, -3.965068,  4.045133 )     4.97570941
  WF centre and spread   18  ( -0.520637, -1.892073, -2.135864 )     4.97289874
  WF centre and spread   19  (  0.520641,  3.964738, -4.045161 )     4.97288323
  WF centre and spread   20  (  1.480179,  1.891741,  2.135900 )     4.97570480
  WF centre and spread   21  (  1.005121,  2.634536,  1.970364 )     4.51094824
  WF centre and spread   22  ( -1.005120, -3.222272,  4.210669 )     4.51094028
  WF centre and spread   23  ( -0.995668, -2.635121, -1.969793 )     4.51105191
  WF centre and spread   24  (  0.995668,  3.221686, -4.211239 )     4.51104773
  WF centre and spread   25  (  0.867481, -5.112378, -1.441505 )     4.42818327
  WF centre and spread   26  ( -0.867482,  0.744431, -4.739523 )     4.42817579
  WF centre and spread   27  (  1.133342, -0.744692,  4.739502 )     4.42777986
  WF centre and spread   28  ( -1.133343,  5.112119,  1.441530 )     4.42778289
  WF centre and spread   29  (  0.991822, -1.145227, -0.157247 )     4.69669935
  WF centre and spread   30  ( -0.991821,  4.711582,  6.338283 )     4.69671009
  WF centre and spread   31  ( -1.020925,  1.256516, -0.157322 )     5.01988245
  WF centre and spread   32  (  1.020925, -4.600295, -6.023717 )     5.01991047
  WF centre and spread   33  ( -0.928145,  1.138102, -0.155658 )     5.32485300
  WF centre and spread   34  (  0.928146, -4.718710, -6.025376 )     5.32489438
  WF centre and spread   35  (  1.051621, -1.241006,  0.440555 )     5.49278746
  WF centre and spread   36  ( -1.051621,  4.615804,  5.740482 )     5.49284936
  Sum of centres and spreads (  0.000005,  0.000583,  0.000030 )   173.82943531
 
      9    -0.145E+00     0.6920287460      173.8294385296       0.30  <-- CONV
        O_D=      0.0880117 O_OD=     12.1840827 O_TOT=    173.8294385 <-- SPRD
 Delta: O_D= -0.1051598E-02 O_OD= -0.1438608E+00 O_TOT= -0.1449124E+00 <-- DLTA
 ------------------------------------------------------------------------------
 Cycle:     10
  WF centre and spread    1  ( -0.511293, -4.070502,  3.991565 )     4.80069699
  WF centre and spread    2  (  1.489588,  4.070225, -3.991519 )     4.79578943
  WF centre and spread    3  (  0.511290,  1.786306,  2.189468 )     4.80069376
  WF centre and spread    4  ( -1.489592, -1.786584, -2.189507 )     4.79580057
  WF centre and spread    5  ( -1.602180,  1.145441, -5.045474 )     5.08630525
  WF centre and spread    6  ( -0.398682,  4.711481,  1.135530 )     5.08459763
  WF centre and spread    7  (  0.398688, -1.145328,  5.045503 )     5.08459004
  WF centre and spread    8  (  1.602186, -4.711369, -1.135555 )     5.08629986
  WF centre and spread    9  ( -1.051011,  1.253152, -0.598932 )     4.56847938
  WF centre and spread   10  (  1.051011, -4.603659, -5.582101 )     4.56851356
  WF centre and spread   11  (  0.959221, -1.260189,  0.625744 )     4.53663516
  WF centre and spread   12  ( -0.959221,  4.596626,  5.555292 )     4.53670361
  WF centre and spread   13  ( -0.535665,  0.916854, -4.979708 )     4.82190939
  WF centre and spread   14  (  1.464955, -0.916744,  4.979685 )     4.82127364
  WF centre and spread   15  ( -1.464958,  4.940067,  1.201348 )     4.82131207
  WF centre and spread   16  (  0.535663, -4.939958, -1.201322 )     4.82190904
  WF centre and spread   17  ( -1.482871, -3.971198,  4.041440 )     4.97590880
  WF centre and spread   18  ( -0.517963, -1.885968, -2.139569 )     4.97138669
  WF centre and spread   19  (  0.517967,  3.970843, -4.041457 )     4.97136869
  WF centre and spread   20  (  1.482875,  1.885611,  2.139592 )     4.97590145
  WF centre and spread   21  (  1.004887,  2.640523,  1.966011 )     4.51155259
  WF centre and spread   22  ( -1.004886, -3.216286,  4.215022 )     4.51154517
  WF centre and spread   23  ( -0.995906, -2.641354, -1.965196 )     4.51188066
  WF centre and spread   24  (  0.995907,  3.215453, -4.215835 )     4.51187686
  WF centre and spread   25  (  0.867598, -5.114545, -1.442776 )     4.40737363
  WF centre and spread   26  ( -0.867600,  0.742264, -4.738252 )     4.40736514
  WF centre and spread   27  (  1.133237, -0.742538,  4.738234 )     4.40705827
  WF centre and spread   28  ( -1.133238,  5.114273,  1.442798 )     4.40706196
  WF centre and spread   29  (  0.992125, -1.142937, -0.162639 )     4.69348341
  WF centre and spread   30  ( -0.992125,  4.713873,  6.343675 )     4.69349373
  WF centre and spread   31  ( -1.020624,  1.256635, -0.158181 )     5.02436856
  WF centre and spread   32  (  1.020624, -4.600175, -6.022858 )     5.02439642
  WF centre and spread   33  ( -0.928798,  1.138451, -0.155948 )     5.32610167
  WF centre and spread   34  (  0.928798, -4.718361, -6.025087 )     5.32614275
  WF centre and spread   35  (  1.051273, -1.243295,  0.446898 )     5.49211278
  WF centre and spread   36  ( -1.051273,  4.613515,  5.734139 )     5.49217477
  Sum of centres and spreads (  0.000005,  0.000602,  0.000030 )   173.67406338
 
     10    -0.155E+00     0.7300939880      173.6740666017       0.33  <-- CONV
        O_D=      0.0883079 O_OD=     12.0284145 O_TOT=    173.6740666 <-- SPRD
 Delta: O_D=  0.2962456E-03 O_OD= -0.1556682E+00 O_TOT= -0.1553719E+00 <-- DLTA
 ------------------------------------------------------------------------------
 Cycle:     11
  WF centre and spread    1  ( -0.508086, -4.072053,  3.989705 )     4.79260996
  WF centre and spread    2  (  1.492704,  4.071592, -3.989796 )     4.78682801
  WF centre and spread    3  (  0.508082,  1.784755,  2.191329 )     4.79260783
  WF centre and spread    4  ( -1.492708, -1.785218, -2.191231 )     4.78684169
  WF centre and spread    5  ( -1.605958,  1.145551, -5.045423 )     5.07826472
  WF centre and spread    6  ( -0.394893,  4.711360,  1.135580 )     5.07670189
  WF centre and spread    7  (  0.394898, -1.145449,  5.045453 )     5.07669356
  WF centre and spread    8  (  1.605964, -4.711258, -1.135606 )     5.07826140
  WF centre and spread    9  ( -1.050920,  1.254401, -0.601513 )     4.56756710
  WF centre and spread   10  (  1.050921, -4.602410, -5.579521 )     4.56759740
  WF centre and spread   11  (  0.958826, -1.261451,  0.628211 )     4.53627158
  WF centre and spread   12  ( -0.958826,  4.595363,  5.552825 )     4.53634272
  WF centre and spread   13  ( -0.532175,  0.920956, -4.980500 )     4.82225460
  WF centre and spread   14  (  1.468452, -0.920841,  4.980472 )     4.82171628
  WF centre and spread   15  ( -1.468456,  4.935970,  1.200562 )     4.82177175
  WF centre and spread   16  (  0.532172, -4.935857, -1.200530 )     4.82225154
  WF centre and spread   17  ( -1.485823, -3.977969,  4.037185 )     4.97667020
  WF centre and spread   18  ( -0.515037, -1.879247, -2.143806 )     4.97042518
  WF centre and spread   19  (  0.515041,  3.977564, -4.037219 )     4.97040265
  WF centre and spread   20  (  1.485827,  1.878840,  2.143847 )     4.97665863
  WF centre and spread   21  (  1.004603,  2.647271,  1.960884 )     4.51187196
  WF centre and spread   22  ( -1.004602, -3.209538,  4.220149 )     4.51186558
  WF centre and spread   23  ( -0.996193, -2.648367, -1.959817 )     4.51257078
  WF centre and spread   24  (  0.996193,  3.208441, -4.221214 )     4.51256708
  WF centre and spread   25  (  0.867771, -5.116911, -1.443977 )     4.38581814
  WF centre and spread   26  ( -0.867773,  0.739898, -4.737051 )     4.38580876
  WF centre and spread   27  (  1.133076, -0.740190,  4.737034 )     4.38557122
  WF centre and spread   28  ( -1.133077,  5.116621,  1.443998 )     4.38557451
  WF centre and spread   29  (  0.992509, -1.140256, -0.168947 )     4.69012049
  WF centre and spread   30  ( -0.992509,  4.716553,  6.349984 )     4.69012977
  WF centre and spread   31  ( -1.020229,  1.256738, -0.159043 )     5.02996099
  WF centre and spread   32  (  1.020229, -4.600073, -6.021996 )     5.02998892
  WF centre and spread   33  ( -0.929545,  1.138852, -0.156168 )     5.32756564
  WF centre and spread   34  (  0.929545, -4.717960, -6.024866 )     5.32760673
  WF centre and spread   35  (  1.050876, -1.245956,  0.454054 )     5.49171332
  WF centre and spread   36  ( -1.050876,  4.610854,  5.726984 )     5.49177575
  Sum of centres and spreads (  0.000005,  0.000576,  0.000030 )   173.52924833
 
     11    -0.145E+00     0.7224657737      173.5292515630       0.37  <-- CONV
        O_D=      0.0883902 O_OD=     11.8835173 O_TOT=    173.5292516 <-- SPRD
 Delta: O_D=  0.8224831E-04 O_OD= -0.1448973E+00 O_TOT= -0.1448150E+00 <-- DLTA
 ------------------------------------------------------------------------------
 Cycle:     12
  WF centre and spread    1  ( -0.505182, -4.073468,  3.987920 )     4.78623641
  WF centre and spread    2  (  1.495521,  4.072821, -3.988142 )     4.77975646
  WF centre and spread    3  (  0.505178,  1.783340,  2.193114 )     4.78623511
  WF centre and spread    4  ( -1.495525, -1.783988, -2.192885 )     4.77977102
  WF centre and spread    5  ( -1.609401,  1.145556, -5.045337 )     5.07215804
  WF centre and spread    6  ( -0.391449,  4.711347,  1.135670 )     5.07100130
  WF centre and spread    7  (  0.391454, -1.145462,  5.045363 )     5.07099373
  WF centre and spread    8  (  1.609408, -4.711253, -1.135692 )     5.07215515
  WF centre and spread    9  ( -1.050752,  1.255428, -0.603713 )     4.56785897
  WF centre and spread   10  (  1.050752, -4.601383, -5.577321 )     4.56788599
  WF centre and spread   11  (  0.958533, -1.262481,  0.630316 )     4.53703694
  WF centre and spread   12  ( -0.958533,  4.594333,  5.550720 )     4.53710795
  WF centre and spread   13  ( -0.528867,  0.924670, -4.981325 )     4.82259376
  WF centre and spread   14  (  1.471757, -0.924550,  4.981285 )     4.82228327
  WF centre and spread   15  ( -1.471760,  4.932261,  1.199748 )     4.82234847
  WF centre and spread   16  (  0.528864, -4.932142, -1.199705 )     4.82259015
  WF centre and spread   17  ( -1.488591, -3.984178,  4.033112 )     4.97638928
  WF centre and spread   18  ( -0.512289, -1.873103, -2.147830 )     4.96882087
  WF centre and spread   19  (  0.512293,  3.983707, -4.033196 )     4.96879722
  WF centre and spread   20  (  1.488595,  1.872631,  2.147921 )     4.97637488
  WF centre and spread   21  (  1.004325,  2.653692,  1.955797 )     4.51243936
  WF centre and spread   22  ( -1.004324, -3.203118,  4.225236 )     4.51243399
  WF centre and spread   23  ( -0.996472, -2.655011, -1.954529 )     4.51352609
  WF centre and spread   24  (  0.996473,  3.201797, -4.226502 )     4.51352310
  WF centre and spread   25  (  0.867965, -5.119131, -1.444812 )     4.36731709
  WF centre and spread   26  ( -0.867967,  0.737677, -4.736216 )     4.36730775
  WF centre and spread   27  (  1.132891, -0.737987,  4.736195 )     4.36707553
  WF centre and spread   28  ( -1.132892,  5.118824,  1.444837 )     4.36707748
  WF centre and spread   29  (  0.992903, -1.137623, -0.175210 )     4.68673061
  WF centre and spread   30  ( -0.992903,  4.719187,  6.356246 )     4.68673831
  WF centre and spread   31  ( -1.019820,  1.256781, -0.159681 )     5.03553146
  WF centre and spread   32  (  1.019819, -4.600029, -6.021358 )     5.03555933
  WF centre and spread   33  ( -0.930227,  1.139156, -0.156205 )     5.32853745
  WF centre and spread   34  (  0.930228, -4.717656, -6.024829 )     5.32857846
  WF centre and spread   35  (  1.050524, -1.248474,  0.460740 )     5.49159180
  WF centre and spread   36  ( -1.050524,  4.608336,  5.720298 )     5.49165475
  Sum of centres and spreads (  0.000005,  0.000511,  0.000030 )   173.41401753
 
     12    -0.115E+00     0.6857760860      173.4140207677       0.40  <-- CONV
        O_D=      0.0891668 O_OD=     11.7675098 O_TOT=    173.4140208 <-- SPRD
 Delta: O_D=  0.7766143E-03 O_OD= -0.1160074E+00 O_TOT= -0.1152308E+00 <-- DLTA
 ------------------------------------------------------------------------------
 Cycle:     13
  WF centre and spread    1  ( -0.504935, -4.073596,  3.987730 )     4.78468728
  WF centre and spread    2  (  1.495759,  4.072936, -3.987962 )     4.77823993
  WF centre and spread    3  (  0.504931,  1.783212,  2.193304 )     4.78468449
  WF centre and spread    4  ( -1.495763, -1.783874, -2.193065 )     4.77825068
  WF centre and spread    5  ( -1.609702,  1.145542, -5.045307 )     5.07114328
  WF centre and spread    6  ( -0.391150,  4.711361,  1.135702 )     5.07005019
  WF centre and spread    7  (  0.391156, -1.145448,  5.045331 )     5.07004452
  WF centre and spread    8  (  1.609708, -4.711268, -1.135722 )     5.07113715
  WF centre and spread    9  ( -1.050725,  1.255426, -0.603837 )     4.56695811
  WF centre and spread   10  (  1.050726, -4.601385, -5.577197 )     4.56698886
  WF centre and spread   11  (  0.958523, -1.262475,  0.630429 )     4.53618719
  WF centre and spread   12  ( -0.958522,  4.594340,  5.550608 )     4.53625420
  WF centre and spread   13  ( -0.528552,  0.924896, -4.981433 )     4.82057151
  WF centre and spread   14  (  1.472069, -0.924776,  4.981392 )     4.82030472
  WF centre and spread   15  ( -1.472072,  4.932035,  1.199641 )     4.82035117
  WF centre and spread   16  (  0.528550, -4.931917, -1.199597 )     4.82057044
  WF centre and spread   17  ( -1.488865, -3.984693,  4.032687 )     4.97311810
  WF centre and spread   18  ( -0.512020, -1.872598, -2.148246 )     4.96562384
  WF centre and spread   19  (  0.512024,  3.984212, -4.032780 )     4.96560562
  WF centre and spread   20  (  1.488869,  1.872116,  2.148345 )     4.97310789
  WF centre and spread   21  (  1.004309,  2.654342,  1.955266 )     4.51155038
  WF centre and spread   22  ( -1.004308, -3.202468,  4.225767 )     4.51154434
  WF centre and spread   23  ( -0.996489, -2.655652, -1.954006 )     4.51269015
  WF centre and spread   24  (  0.996489,  3.201156, -4.227026 )     4.51268758
  WF centre and spread   25  (  0.867990, -5.119381, -1.444774 )     4.36563418
  WF centre and spread   26  ( -0.867992,  0.737428, -4.736254 )     4.36562517
  WF centre and spread   27  (  1.132865, -0.737738,  4.736232 )     4.36539349
  WF centre and spread   28  ( -1.132866,  5.119074,  1.444800 )     4.36539566
  WF centre and spread   29  (  0.992951, -1.137375, -0.175946 )     4.68456268
  WF centre and spread   30  ( -0.992951,  4.719434,  6.356983 )     4.68457066
  WF centre and spread   31  ( -1.019786,  1.256787, -0.159617 )     5.03473845
  WF centre and spread   32  (  1.019785, -4.600024, -6.021422 )     5.03476558
  WF centre and spread   33  ( -0.930268,  1.139092, -0.156117 )     5.32709398
  WF centre and spread   34  (  0.930269, -4.717720, -6.024918 )     5.32713497
  WF centre and spread   35  (  1.050506, -1.248654,  0.461293 )     5.49048813
  WF centre and spread   36  ( -1.050506,  4.608157,  5.719745 )     5.49055055
  Sum of centres and spreads (  0.000005,  0.000506,  0.000030 )   173.35830513
 
     13    -0.557E-01     0.6660530074      173.3583083613       0.43  <-- CONV
        O_D=      0.0867705 O_OD=     11.7141937 O_TOT=    173.3583084 <-- SPRD
 Delta: O_D= -0.2396291E-02 O_OD= -0.5331611E-01 O_TOT= -0.5571241E-01 <-- DLTA
 ------------------------------------------------------------------------------
 Cycle:     14
  WF centre and spread    1  ( -0.503862, -4.074184,  3.986951 )     4.78191823
  WF centre and spread    2  (  1.496794,  4.073462, -3.987226 )     4.77559558
  WF centre and spread    3  (  0.503858,  1.782623,  2.194083 )     4.78191821
  WF centre and spread    4  ( -1.496798, -1.783348, -2.193801 )     4.77560844
  WF centre and spread    5  ( -1.611011,  1.145551, -5.045171 )     5.07122789
  WF centre and spread    6  ( -0.389847,  4.711350,  1.135840 )     5.07040236
  WF centre and spread    7  (  0.389852, -1.145459,  5.045192 )     5.07039617
  WF centre and spread    8  (  1.611017, -4.711259, -1.135858 )     5.07122416
  WF centre and spread    9  ( -1.050653,  1.255405, -0.604365 )     4.56685600
  WF centre and spread   10  (  1.050653, -4.601406, -5.576669 )     4.56688241
  WF centre and spread   11  (  0.958435, -1.262434,  0.630909 )     4.53606722
  WF centre and spread   12  ( -0.958435,  4.594380,  5.550127 )     4.53613569
  WF centre and spread   13  ( -0.527181,  0.925974, -4.981914 )     4.81815354
  WF centre and spread   14  (  1.473433, -0.925859,  4.981869 )     4.81801867
  WF centre and spread   15  ( -1.473436,  4.930952,  1.199165 )     4.81808220
  WF centre and spread   16  (  0.527179, -4.930838, -1.199117 )     4.81815149
  WF centre and spread   17  ( -1.490056, -3.986983,  4.030907 )     4.96394931
  WF centre and spread   18  ( -0.510848, -1.870354, -2.149989 )     4.95675219
  WF centre and spread   19  (  0.510852,  3.986457, -4.031036 )     4.95673169
  WF centre and spread   20  (  1.490060,  1.869826,  2.150126 )     4.96393442
  WF centre and spread   21  (  1.004236,  2.657131,  1.952986 )     4.51231709
  WF centre and spread   22  ( -1.004236, -3.199679,  4.228047 )     4.51231152
  WF centre and spread   23  ( -0.996565, -2.658404, -1.951756 )     4.51364069
  WF centre and spread   24  (  0.996565,  3.198404, -4.229276 )     4.51364034
  WF centre and spread   25  (  0.868119, -5.120460, -1.444644 )     4.36370214
  WF centre and spread   26  ( -0.868121,  0.736349, -4.736384 )     4.36369310
  WF centre and spread   27  (  1.132732, -0.736657,  4.736359 )     4.36344211
  WF centre and spread   28  ( -1.132732,  5.120154,  1.444673 )     4.36344471
  WF centre and spread   29  (  0.993162, -1.136302, -0.179131 )     4.67926220
  WF centre and spread   30  ( -0.993162,  4.720507,  6.360167 )     4.67926902
  WF centre and spread   31  ( -1.019633,  1.256822, -0.159349 )     5.03469827
  WF centre and spread   32  (  1.019633, -4.599988, -6.021691 )     5.03472574
  WF centre and spread   33  ( -0.930446,  1.138807, -0.155735 )     5.32471965
  WF centre and spread   34  (  0.930447, -4.718005, -6.025299 )     5.32475998
  WF centre and spread   35  (  1.050421, -1.249423,  0.463684 )     5.48981620
  WF centre and spread   36  ( -1.050421,  4.607388,  5.717354 )     5.48987997
  Sum of centres and spreads (  0.000005,  0.000501,  0.000030 )   173.28132856
 
     14    -0.770E-01     0.4552525096      173.2813318014       0.46  <-- CONV
        O_D=      0.0889650 O_OD=     11.6350227 O_TOT=    173.2813318 <-- SPRD
 Delta: O_D=  0.2194515E-02 O_OD= -0.7917108E-01 O_TOT= -0.7697656E-01 <-- DLTA
 ------------------------------------------------------------------------------
 Cycle:     15
  WF centre and spread    1  ( -0.501880, -4.075311,  3.985501 )     4.77699767
  WF centre and spread    2  (  1.498699,  4.074467, -3.985858 )     4.77096294
  WF centre and spread    3  (  0.501876,  1.781497,  2.195532 )     4.77699673
  WF centre and spread    4  ( -1.498704, -1.782342, -2.195168 )     4.77097412
  WF centre and spread    5  ( -1.613361,  1.145611, -5.044813 )     5.07239082
  WF centre and spread    6  ( -0.387501,  4.711281,  1.136198 )     5.07191271
  WF centre and spread    7  (  0.387507, -1.145527,  5.044835 )     5.07190801
  WF centre and spread    8  (  1.613368, -4.711199, -1.136216 )     5.07238529
  WF centre and spread    9  ( -1.050564,  1.255386, -0.605354 )     4.56775179
  WF centre and spread   10  (  1.050565, -4.601425, -5.575679 )     4.56777879
  WF centre and spread   11  (  0.958217, -1.262374,  0.631810 )     4.53709109
  WF centre and spread   12  ( -0.958217,  4.594441,  5.549226 )     4.53715511
  WF centre and spread   13  ( -0.524646,  0.928201, -4.982784 )     4.81511835
  WF centre and spread   14  (  1.475963, -0.928088,  4.982732 )     4.81510698
  WF centre and spread   15  ( -1.475966,  4.928723,  1.198301 )     4.81516264
  WF centre and spread   16  (  0.524643, -4.928611, -1.198247 )     4.81511918
  WF centre and spread   17  ( -1.492241, -3.991382,  4.027557 )     4.94793380
  WF centre and spread   18  ( -0.508701, -1.866043, -2.153270 )     4.94131103
  WF centre and spread   19  (  0.508706,  3.990768, -4.027755 )     4.94129716
  WF centre and spread   20  (  1.492245,  1.865426,  2.153475 )     4.94792095
  WF centre and spread   21  (  1.004078,  2.662342,  1.948649 )     4.51476324
  WF centre and spread   22  ( -1.004078, -3.194468,  4.232384 )     4.51475807
  WF centre and spread   23  ( -0.996727, -2.663550, -1.947469 )     4.51636632
  WF centre and spread   24  (  0.996727,  3.193258, -4.233562 )     4.51636684
  WF centre and spread   25  (  0.868438, -5.122544, -1.444516 )     4.36120401
  WF centre and spread   26  ( -0.868440,  0.734265, -4.736512 )     4.36119621
  WF centre and spread   27  (  1.132408, -0.734568,  4.736490 )     4.36095924
  WF centre and spread   28  ( -1.132409,  5.122244,  1.444542 )     4.36096111
  WF centre and spread   29  (  0.993568, -1.134287, -0.185109 )     4.66974076
  WF centre and spread   30  ( -0.993568,  4.722522,  6.366145 )     4.66974710
  WF centre and spread   31  ( -1.019322,  1.256933, -0.158917 )     5.03529255
  WF centre and spread   32  (  1.019322, -4.599878, -6.022122 )     5.03531957
  WF centre and spread   33  ( -0.930821,  1.138322, -0.155021 )     5.32241765
  WF centre and spread   34  (  0.930822, -4.718490, -6.026014 )     5.32245821
  WF centre and spread   35  (  1.050234, -1.250947,  0.468246 )     5.49078240
  WF centre and spread   36  ( -1.050234,  4.605863,  5.712792 )     5.49084750
  Sum of centres and spreads (  0.000005,  0.000517,  0.000030 )   173.17645591
 
     15    -0.105E+00     0.5849164065      173.1764591458       0.50  <-- CONV
        O_D=      0.0869526 O_OD=     11.5321624 O_TOT=    173.1764591 <-- SPRD
 Delta: O_D= -0.2012435E-02 O_OD= -0.1028602E+00 O_TOT= -0.1048727E+00 <-- DLTA
 ------------------------------------------------------------------------------
 Cycle:     16
  WF centre and spread    1  ( -0.500026, -4.076383,  3.984070 )     4.77230672
  WF centre and spread    2  (  1.500478,  4.075418, -3.984509 )     4.76647917
  WF centre and spread    3  (  0.500022,  1.780424,  2.196963 )     4.77230408
  WF centre and spread    4  ( -1.500482, -1.781391, -2.196518 )     4.76648856
  WF centre and spread    5  ( -1.615508,  1.145627, -5.044372 )     5.07380382
  WF centre and spread    6  ( -0.385357,  4.711259,  1.136633 )     5.07350880
  WF centre and spread    7  (  0.385363, -1.145550,  5.044399 )     5.07350492
  WF centre and spread    8  (  1.615515, -4.711183, -1.136657 )     5.07379574
  WF centre and spread    9  ( -1.050465,  1.255457, -0.606338 )     4.56869862
  WF centre and spread   10  (  1.050465, -4.601354, -5.574696 )     4.56872686
  WF centre and spread   11  (  0.958002, -1.262400,  0.632710 )     4.53824625
  WF centre and spread   12  ( -0.958002,  4.594414,  5.548326 )     4.53830465
  WF centre and spread   13  ( -0.522220,  0.930541, -4.983604 )     4.81462484
  WF centre and spread   14  (  1.478388, -0.930423,  4.983549 )     4.81467815
  WF centre and spread   15  ( -1.478391,  4.926388,  1.197484 )     4.81472299
  WF centre and spread   16  (  0.522217, -4.926271, -1.197426 )     4.81462912
  WF centre and spread   17  ( -1.494286, -3.995708,  4.024234 )     4.93407075
  WF centre and spread   18  ( -0.506696, -1.861808, -2.156527 )     4.92782219
  WF centre and spread   19  (  0.506701,  3.995003, -4.024499 )     4.92781658
  WF centre and spread   20  (  1.494290,  1.861101,  2.156798 )     4.93406056
  WF centre and spread   21  (  1.003899,  2.667422,  1.944313 )     4.51700961
  WF centre and spread   22  ( -1.003898, -3.189387,  4.236720 )     4.51700500
  WF centre and spread   23  ( -0.996907, -2.668575, -1.943167 )     4.51881330
  WF centre and spread   24  (  0.996908,  3.188233, -4.237864 )     4.51881381
  WF centre and spread   25  (  0.868829, -5.124692, -1.444461 )     4.35821031
  WF centre and spread   26  ( -0.868831,  0.732117, -4.736567 )     4.35820342
  WF centre and spread   27  (  1.132015, -0.732410,  4.736554 )     4.35800661
  WF centre and spread   28  ( -1.132016,  5.124401,  1.444478 )     4.35800768
  WF centre and spread   29  (  0.993967, -1.132259, -0.190922 )     4.66065749
  WF centre and spread   30  ( -0.993967,  4.724550,  6.371958 )     4.66066322
  WF centre and spread   31  ( -1.018994,  1.257047, -0.158641 )     5.03573234
  WF centre and spread   32  (  1.018994, -4.599764, -6.022399 )     5.03575856
  WF centre and spread   33  ( -0.931254,  1.137977, -0.154286 )     5.32176430
  WF centre and spread   34  (  0.931254, -4.718835, -6.026748 )     5.32180551
  WF centre and spread   35  (  1.050016, -1.252629,  0.472796 )     5.49271293
  WF centre and spread   36  ( -1.050016,  4.604181,  5.708242 )     5.49277927
  Sum of centres and spreads (  0.000005,  0.000539,  0.000030 )   173.09453674
 
     16    -0.819E-01     0.5789354512      173.0945399773       0.53  <-- CONV
        O_D=      0.0862705 O_OD=     11.4509254 O_TOT=    173.0945400 <-- SPRD
 Delta: O_D= -0.6821062E-03 O_OD= -0.8123706E-01 O_TOT= -0.8191917E-01 <-- DLTA
 ------------------------------------------------------------------------------
 Cycle:     17
  WF centre and spread    1  ( -0.497825, -4.077678,  3.982272 )     4.76645527
  WF centre and spread    2  (  1.502585,  4.076562, -3.982814 )     4.76075302
  WF centre and spread    3  (  0.497821,  1.779129,  2.198762 )     4.76645222
  WF centre and spread    4  ( -1.502589, -1.780247, -2.198213 )     4.76076174
  WF centre and spread    5  ( -1.618044,  1.145548, -5.043763 )     5.07557064
  WF centre and spread    6  ( -0.382824,  4.711334,  1.137234 )     5.07529394
  WF centre and spread    7  (  0.382830, -1.145475,  5.043798 )     5.07529100
  WF centre and spread    8  (  1.618051, -4.711262, -1.137266 )     5.07555997
  WF centre and spread    9  ( -1.050292,  1.255671, -0.607615 )     4.57009111
  WF centre and spread   10  (  1.050292, -4.601140, -5.573419 )     4.57011611
  WF centre and spread   11  (  0.957771, -1.262556,  0.633895 )     4.53992829
  WF centre and spread   12  ( -0.957770,  4.594259,  5.547142 )     4.53997591
  WF centre and spread   13  ( -0.519221,  0.933552, -4.984560 )     4.81735402
  WF centre and spread   14  (  1.481386, -0.933422,  4.984504 )     4.81740758
  WF centre and spread   15  ( -1.481389,  4.923389,  1.196529 )     4.81744920
  WF centre and spread   16  (  0.519218, -4.923260, -1.196470 )     4.81736392
  WF centre and spread   17  ( -1.496751, -4.001060,  4.020067 )     4.91905488
  WF centre and spread   18  ( -0.504281, -1.856567, -2.160608 )     4.91312620
  WF centre and spread   19  (  0.504286,  4.000243, -4.020418 )     4.91313595
  WF centre and spread   20  (  1.496755,  1.855748,  2.160966 )     4.91904460
  WF centre and spread   21  (  1.003641,  2.673759,  1.938805 )     4.51909961
  WF centre and spread   22  ( -1.003641, -3.183051,  4.242228 )     4.51909670
  WF centre and spread   23  ( -0.997165, -2.674858, -1.937688 )     4.52108295
  WF centre and spread   24  (  0.997165,  3.181951, -4.243343 )     4.52108550
  WF centre and spread   25  (  0.869371, -5.127536, -1.444431 )     4.35286935
  WF centre and spread   26  ( -0.869373,  0.729274, -4.736597 )     4.35286464
  WF centre and spread   27  (  1.131474, -0.729555,  4.736592 )     4.35264850
  WF centre and spread   28  ( -1.131475,  5.127256,  1.444440 )     4.35264785
  WF centre and spread   29  (  0.994446, -1.129624, -0.198100 )     4.65045114
  WF centre and spread   30  ( -0.994446,  4.727185,  6.379137 )     4.65045471
  WF centre and spread   31  ( -1.018577,  1.257157, -0.158500 )     5.03618268
  WF centre and spread   32  (  1.018577, -4.599653, -6.022539 )     5.03620850
  WF centre and spread   33  ( -0.931849,  1.137711, -0.153285 )     5.32261080
  WF centre and spread   34  (  0.931849, -4.719101, -6.027749 )     5.32265281
  WF centre and spread   35  (  1.049728, -1.254974,  0.478553 )     5.49562538
  WF centre and spread   36  ( -1.049729,  4.601836,  5.702485 )     5.49569604
  Sum of centres and spreads (  0.000005,  0.000544,  0.000030 )   173.01146277
 
     17    -0.831E-01     0.5339450998      173.0114660180       0.56  <-- CONV
        O_D=      0.0855307 O_OD=     11.3685912 O_TOT=    173.0114660 <-- SPRD
 Delta: O_D= -0.7398011E-03 O_OD= -0.8233416E-01 O_TOT= -0.8307396E-01 <-- DLTA
 ------------------------------------------------------------------------------
 Cycle:     18
  WF centre and spread    1  ( -0.494902, -4.079447,  3.979760 )     4.75863046
  WF centre and spread    2  (  1.505382,  4.078128, -3.980448 )     4.75294059
  WF centre and spread    3  (  0.494898,  1.777360,  2.201273 )     4.75862711
  WF centre and spread    4  ( -1.505386, -1.778681, -2.200579 )     4.75294649
  WF centre and spread    5  ( -1.621481,  1.145338, -5.042865 )     5.07692430
  WF centre and spread    6  ( -0.379389,  4.711539,  1.138123 )     5.07649119
  WF centre and spread    7  (  0.379395, -1.145269,  5.042910 )     5.07648939
  WF centre and spread    8  (  1.621488, -4.711471, -1.138164 )     5.07690846
  WF centre and spread    9  ( -1.050006,  1.256079, -0.609475 )     4.57168053
  WF centre and spread   10  (  1.050006, -4.600732, -5.571559 )     4.57170162
  WF centre and spread   11  (  0.957490, -1.262882,  0.635629 )     4.54204773
  WF centre and spread   12  ( -0.957489,  4.593933,  5.545408 )     4.54207656
  WF centre and spread   13  ( -0.514992,  0.937850, -4.985808 )     4.82460829
  WF centre and spread   14  (  1.485611, -0.937705,  4.985754 )     4.82461134
  WF centre and spread   15  ( -1.485615,  4.919105,  1.195280 )     4.82463810
  WF centre and spread   16  (  0.514989, -4.918962, -1.195223 )     4.82462785
  WF centre and spread   17  ( -1.500096, -4.008391,  4.014319 )     4.90085550
  WF centre and spread   18  ( -0.501006, -1.849393, -2.166228 )     4.89520852
  WF centre and spread   19  (  0.501010,  4.007417, -4.014798 )     4.89524476
  WF centre and spread   20  (  1.500101,  1.848417,  2.166713 )     4.90084602
  WF centre and spread   21  (  1.003244,  2.682543,  1.931042 )     4.52186237
  WF centre and spread   22  ( -1.003243, -3.174268,  4.249991 )     4.52186099
  WF centre and spread   23  ( -0.997561, -2.683578, -1.929958 )     4.52393533
  WF centre and spread   24  (  0.997562,  3.173231, -4.251073 )     4.52394225
  WF centre and spread   25  (  0.870215, -5.131689, -1.444438 )     4.34343535
  WF centre and spread   26  ( -0.870218,  0.725120, -4.736590 )     4.34343477
  WF centre and spread   27  (  1.130632, -0.725390,  4.736594 )     4.34310767
  WF centre and spread   28  ( -1.130633,  5.131422,  1.444438 )     4.34310545
  WF centre and spread   29  (  0.995079, -1.125849, -0.208022 )     4.63785293
  WF centre and spread   30  ( -0.995079,  4.730960,  6.389058 )     4.63785268
  WF centre and spread   31  ( -1.017999,  1.257286, -0.158495 )     5.03711101
  WF centre and spread   32  (  1.017999, -4.599525, -6.022545 )     5.03713584
  WF centre and spread   33  ( -0.932710,  1.137443, -0.151791 )     5.32475141
  WF centre and spread   34  (  0.932711, -4.719368, -6.029243 )     5.32479383
  WF centre and spread   35  (  1.049334, -1.258441,  0.486642 )     5.49931403
  WF centre and spread   36  ( -1.049334,  4.598369,  5.694396 )     5.49939123
  Sum of centres and spreads (  0.000005,  0.000498,  0.000030 )   172.91099196
 
     18    -0.100E+00     0.5790468827      172.9109952102       0.61  <-- CONV
        O_D=      0.0865104 O_OD=     11.2671407 O_TOT=    172.9109952 <-- SPRD
 Delta: O_D=  0.9797239E-03 O_OD= -0.1014505E+00 O_TOT= -0.1004708E+00 <-- DLTA
 ------------------------------------------------------------------------------
 Cycle:     19
  WF centre and spread    1  ( -0.494682, -4.079581,  3.979607 )     4.75647746
[...]
  WF centre and spread   13  ( -0.330607,  1.142046, -5.002910 )     5.04693036
  WF centre and spread   14  (  1.670172, -1.142046,  5.002912 )     5.04702725
  WF centre and spread   15  ( -1.670176,  4.714763,  1.178121 )     5.04702482
  WF centre and spread   16  (  0.330600, -4.714763, -1.178118 )     5.04691374
  WF centre and spread   17  ( -1.523212, -4.091811,  3.931564 )     4.60855821
  WF centre and spread   18  ( -0.477546, -1.764998, -2.249467 )     4.60861024
  WF centre and spread   19  (  0.477552,  4.091810, -3.931560 )     4.60860587
  WF centre and spread   20  (  1.523217,  1.764996,  2.249469 )     4.60855068
  WF centre and spread   21  (  1.000390,  2.786551,  1.789795 )     4.62830736
  WF centre and spread   22  ( -1.000390, -3.070262,  4.391238 )     4.62830104
  WF centre and spread   23  ( -1.000387, -2.786563, -1.789788 )     4.62833956
  WF centre and spread   24  (  1.000387,  3.070251, -4.391241 )     4.62834321
  WF centre and spread   25  (  1.000386, -5.333179, -1.426066 )     3.73106894
  WF centre and spread   26  ( -1.000385,  0.523635, -4.754965 )     3.73105223
  WF centre and spread   27  (  1.000400, -0.523638,  4.754972 )     3.73103743
  WF centre and spread   28  ( -1.000399,  5.333176,  1.426061 )     3.73105091
  WF centre and spread   29  (  1.000799, -1.023063, -0.398985 )     4.43134007
  WF centre and spread   30  ( -1.000799,  4.833747,  6.580020 )     4.43134006
  WF centre and spread   31  ( -0.963793,  1.354793, -0.640850 )     5.35009272
  WF centre and spread   32  (  0.963793, -4.502016, -5.540184 )     5.35013651
  WF centre and spread   33  ( -1.000147,  1.022812,  0.398830 )     4.43211349
  WF centre and spread   34  (  1.000147, -4.834001, -6.579869 )     4.43212916
  WF centre and spread   35  (  1.078595, -1.350868,  0.641870 )     5.30930157
  WF centre and spread   36  ( -1.078594,  4.505942,  5.539169 )     5.30937116
  Sum of centres and spreads (  0.000005,  0.000172,  0.000030 )   167.80031413
 
    496    -0.618E-04     0.0156445437      167.8003174755      17.22  <-- CONV
        O_D=      0.0937783 O_OD=      6.1491950 O_TOT=    167.8003175 <-- SPRD
 Delta: O_D= -0.2648892E-05 O_OD= -0.5914399E-04 O_TOT= -0.6179289E-04 <-- DLTA
 ------------------------------------------------------------------------------
 Cycle:    497
  WF centre and spread    1  ( -0.477612, -4.091842,  3.931558 )     4.60772860
  WF centre and spread    2  (  1.523211,  4.091829, -3.931566 )     4.60780748
  WF centre and spread    3  (  0.477607,  1.764964,  2.249475 )     4.60771947
  WF centre and spread    4  ( -1.523217, -1.764979, -2.249461 )     4.60780999
  WF centre and spread    5  ( -1.670159,  1.142072, -5.002858 )     5.04760633
  WF centre and spread    6  ( -0.330613,  4.714737,  1.178168 )     5.04749855
  WF centre and spread    7  (  0.330619, -1.142071,  5.002865 )     5.04749950
  WF centre and spread    8  (  1.670168, -4.714736, -1.178170 )     5.04759118
  WF centre and spread    9  ( -1.037456,  1.271285, -0.661414 )     4.50154364
  WF centre and spread   10  (  1.037456, -4.585526, -5.519620 )     4.50158285
  WF centre and spread   11  (  0.921319, -1.274860,  0.660556 )     4.53544076
  WF centre and spread   12  ( -0.921320,  4.581954,  5.520480 )     4.53550245
  WF centre and spread   13  ( -0.330609,  1.142050, -5.002908 )     5.04694368
  WF centre and spread   14  (  1.670171, -1.142050,  5.002910 )     5.04704297
  WF centre and spread   15  ( -1.670176,  4.714759,  1.178123 )     5.04704054
  WF centre and spread   16  (  0.330602, -4.714758, -1.178120 )     5.04692707
  WF centre and spread   17  ( -1.523214, -4.091811,  3.931565 )     4.60856470
  WF centre and spread   18  ( -0.477544, -1.764998, -2.249467 )     4.60861856
  WF centre and spread   19  (  0.477550,  4.091810, -3.931560 )     4.60861419
  WF centre and spread   20  (  1.523219,  1.764995,  2.249468 )     4.60855718
  WF centre and spread   21  (  1.000390,  2.786553,  1.789792 )     4.62832217
  WF centre and spread   22  ( -1.000389, -3.070260,  4.391241 )     4.62831584
  WF centre and spread   23  ( -1.000388, -2.786564, -1.789786 )     4.62835697
  WF centre and spread   24  (  1.000388,  3.070249, -4.391243 )     4.62836061
  WF centre and spread   25  (  1.000386, -5.333180, -1.426061 )     3.73104332
  WF centre and spread   26  ( -1.000385,  0.523634, -4.754970 )     3.73102661
  WF centre and spread   27  (  1.000400, -0.523638,  4.754976 )     3.73102476
  WF centre and spread   28  ( -1.000400,  5.333176,  1.426057 )     3.73103823
  WF centre and spread   29  (  1.000800, -1.023061, -0.398985 )     4.43131794
  WF centre and spread   30  ( -1.000800,  4.833749,  6.580021 )     4.43131792
  WF centre and spread   31  ( -0.963703,  1.354784, -0.640851 )     5.35004582
  WF centre and spread   32  (  0.963703, -4.502025, -5.540183 )     5.35008961
  WF centre and spread   33  ( -1.000147,  1.022813,  0.398831 )     4.43208088
  WF centre and spread   34  (  1.000147, -4.834001, -6.579870 )     4.43209654
  WF centre and spread   35  (  1.078755, -1.350847,  0.641873 )     5.30905087
  WF centre and spread   36  ( -1.078754,  4.505962,  5.539165 )     5.30912045
  Sum of centres and spreads (  0.000005,  0.000171,  0.000030 )   167.80024824
 
    497    -0.659E-04     0.0151548829      167.8002515881      17.26  <-- CONV
        O_D=      0.0937708 O_OD=      6.1491367 O_TOT=    167.8002516 <-- SPRD
 Delta: O_D= -0.7514905E-05 O_OD= -0.5837241E-04 O_TOT= -0.6588731E-04 <-- DLTA
 ------------------------------------------------------------------------------
 Cycle:    498
  WF centre and spread    1  ( -0.477611, -4.091842,  3.931558 )     4.60773166
  WF centre and spread    2  (  1.523212,  4.091829, -3.931566 )     4.60781219
  WF centre and spread    3  (  0.477606,  1.764964,  2.249475 )     4.60772249
  WF centre and spread    4  ( -1.523217, -1.764979, -2.249461 )     4.60781470
  WF centre and spread    5  ( -1.670158,  1.142076, -5.002855 )     5.04761921
  WF centre and spread    6  ( -0.330614,  4.714734,  1.178171 )     5.04751159
  WF centre and spread    7  (  0.330620, -1.142075,  5.002862 )     5.04751255
  WF centre and spread    8  (  1.670167, -4.714732, -1.178172 )     5.04760403
  WF centre and spread    9  ( -1.037586,  1.271291, -0.661412 )     4.50160321
  WF centre and spread   10  (  1.037586, -4.585520, -5.519622 )     4.50164242
  WF centre and spread   11  (  0.921088, -1.274888,  0.660549 )     4.53570655
  WF centre and spread   12  ( -0.921089,  4.581926,  5.520488 )     4.53576832
  WF centre and spread   13  ( -0.330609,  1.142054, -5.002904 )     5.04694769
  WF centre and spread   14  (  1.670170, -1.142053,  5.002906 )     5.04704930
  WF centre and spread   15  ( -1.670175,  4.714756,  1.178128 )     5.04704687
  WF centre and spread   16  (  0.330602, -4.714755, -1.178125 )     5.04693106
  WF centre and spread   17  ( -1.523215, -4.091811,  3.931565 )     4.60857027
  WF centre and spread   18  ( -0.477544, -1.764998, -2.249467 )     4.60862551
  WF centre and spread   19  (  0.477550,  4.091810, -3.931560 )     4.60862113
  WF centre and spread   20  (  1.523220,  1.764995,  2.249468 )     4.60856270
  WF centre and spread   21  (  1.000389,  2.786554,  1.789790 )     4.62833249
  WF centre and spread   22  ( -1.000389, -3.070259,  4.391242 )     4.62832616
  WF centre and spread   23  ( -1.000388, -2.786565, -1.789785 )     4.62836702
  WF centre and spread   24  (  1.000388,  3.070248, -4.391245 )     4.62837066
  WF centre and spread   25  (  1.000385, -5.333184, -1.426054 )     3.73103404
  WF centre and spread   26  ( -1.000385,  0.523631, -4.754977 )     3.73101732
  WF centre and spread   27  (  1.000400, -0.523635,  4.754983 )     3.73102544
  WF centre and spread   28  ( -1.000400,  5.333179,  1.426050 )     3.73103891
  WF centre and spread   29  (  1.000801, -1.023060, -0.398985 )     4.43130659
  WF centre and spread   30  ( -1.000800,  4.833749,  6.580021 )     4.43130657
  WF centre and spread   31  ( -0.963574,  1.354772, -0.640855 )     5.34998635
  WF centre and spread   32  (  0.963573, -4.502037, -5.540180 )     5.35003016
  WF centre and spread   33  ( -1.000147,  1.022816,  0.398832 )     4.43205535
  WF centre and spread   34  (  1.000147, -4.833997, -6.579871 )     4.43207102
  WF centre and spread   35  (  1.078985, -1.350818,  0.641880 )     5.30871363
  WF centre and spread   36  ( -1.078983,  4.505992,  5.539158 )     5.30878332
  Sum of centres and spreads (  0.000005,  0.000170,  0.000030 )   167.80016850
 
    498    -0.797E-04     0.0165054080      167.8001718437      17.30  <-- CONV
        O_D=      0.0937724 O_OD=      6.1490553 O_TOT=    167.8001718 <-- SPRD
 Delta: O_D=  0.1665164E-05 O_OD= -0.8140959E-04 O_TOT= -0.7974443E-04 <-- DLTA
 ------------------------------------------------------------------------------
 Cycle:    499
  WF centre and spread    1  ( -0.477612, -4.091842,  3.931558 )     4.60772626
  WF centre and spread    2  (  1.523211,  4.091828, -3.931566 )     4.60780559
  WF centre and spread    3  (  0.477607,  1.764965,  2.249475 )     4.60771713
  WF centre and spread    4  ( -1.523217, -1.764979, -2.249461 )     4.60780809
  WF centre and spread    5  ( -1.670159,  1.142074, -5.002854 )     5.04760578
  WF centre and spread    6  ( -0.330614,  4.714735,  1.178172 )     5.04749873
  WF centre and spread    7  (  0.330620, -1.142073,  5.002861 )     5.04749969
  WF centre and spread    8  (  1.670167, -4.714734, -1.178173 )     5.04759064
  WF centre and spread    9  ( -1.037596,  1.271292, -0.661413 )     4.50161277
  WF centre and spread   10  (  1.037596, -4.585519, -5.519621 )     4.50165198
  WF centre and spread   11  (  0.921070, -1.274890,  0.660549 )     4.53573274
  WF centre and spread   12  ( -0.921071,  4.581924,  5.520488 )     4.53579442
  WF centre and spread   13  ( -0.330609,  1.142053, -5.002903 )     5.04693968
  WF centre and spread   14  (  1.670170, -1.142052,  5.002905 )     5.04704019
  WF centre and spread   15  ( -1.670175,  4.714757,  1.178128 )     5.04703776
  WF centre and spread   16  (  0.330602, -4.714756, -1.178125 )     5.04692307
  WF centre and spread   17  ( -1.523214, -4.091811,  3.931565 )     4.60856645
  WF centre and spread   18  ( -0.477544, -1.764998, -2.249467 )     4.60862077
  WF centre and spread   19  (  0.477550,  4.091810, -3.931560 )     4.60861640
  WF centre and spread   20  (  1.523219,  1.764995,  2.249468 )     4.60855893
  WF centre and spread   21  (  1.000389,  2.786553,  1.789792 )     4.62832091
  WF centre and spread   22  ( -1.000389, -3.070260,  4.391241 )     4.62831459
  WF centre and spread   23  ( -1.000388, -2.786564, -1.789786 )     4.62835500
  WF centre and spread   24  (  1.000388,  3.070249, -4.391244 )     4.62835865
  WF centre and spread   25  (  1.000385, -5.333185, -1.426053 )     3.73104520
  WF centre and spread   26  ( -1.000385,  0.523630, -4.754978 )     3.73102848
  WF centre and spread   27  (  1.000400, -0.523633,  4.754984 )     3.73102865
  WF centre and spread   28  ( -1.000400,  5.333181,  1.426049 )     3.73104213
  WF centre and spread   29  (  1.000801, -1.023062, -0.398985 )     4.43131372
  WF centre and spread   30  ( -1.000800,  4.833748,  6.580021 )     4.43131370
  WF centre and spread   31  ( -0.963563,  1.354771, -0.640856 )     5.34998260
  WF centre and spread   32  (  0.963563, -4.502038, -5.540179 )     5.35002638
  WF centre and spread   33  ( -1.000147,  1.022818,  0.398832 )     4.43206177
  WF centre and spread   34  (  1.000147, -4.833995, -6.579871 )     4.43207744
  WF centre and spread   35  (  1.079003, -1.350815,  0.641881 )     5.30870156
  WF centre and spread   36  ( -1.079002,  4.505995,  5.539157 )     5.30877114
  Sum of centres and spreads (  0.000005,  0.000171,  0.000030 )   167.80008900
 
    499    -0.795E-04     0.0234597049      167.8000923460      17.33  <-- CONV
        O_D=      0.0937687 O_OD=      6.1489795 O_TOT=    167.8000923 <-- SPRD
 Delta: O_D= -0.3760278E-05 O_OD= -0.7573748E-04 O_TOT= -0.7949775E-04 <-- DLTA
 ------------------------------------------------------------------------------
 Cycle:    500
  WF centre and spread    1  ( -0.477614, -4.091841,  3.931558 )     4.60771715
  WF centre and spread    2  (  1.523210,  4.091828, -3.931566 )     4.60779457
  WF centre and spread    3  (  0.477609,  1.764966,  2.249475 )     4.60770802
  WF centre and spread    4  ( -1.523216, -1.764980, -2.249461 )     4.60779708
  WF centre and spread    5  ( -1.670159,  1.142070, -5.002852 )     5.04757901
  WF centre and spread    6  ( -0.330613,  4.714739,  1.178174 )     5.04747352
  WF centre and spread    7  (  0.330619, -1.142069,  5.002858 )     5.04747447
  WF centre and spread    8  (  1.670168, -4.714738, -1.178176 )     5.04756386
  WF centre and spread    9  ( -1.037622,  1.271294, -0.661413 )     4.50163541
  WF centre and spread   10  (  1.037622, -4.585517, -5.519621 )     4.50167461
  WF centre and spread   11  (  0.921024, -1.274896,  0.660548 )     4.53579594
  WF centre and spread   12  ( -0.921025,  4.581918,  5.520488 )     4.53585763
  WF centre and spread   13  ( -0.330609,  1.142050, -5.002901 )     5.04692501
  WF centre and spread   14  (  1.670170, -1.142050,  5.002903 )     5.04702372
  WF centre and spread   15  ( -1.670175,  4.714759,  1.178130 )     5.04702129
  WF centre and spread   16  (  0.330602, -4.714758, -1.178127 )     5.04690839
  WF centre and spread   17  ( -1.523212, -4.091811,  3.931564 )     4.60856042
  WF centre and spread   18  ( -0.477546, -1.764998, -2.249468 )     4.60861340
  WF centre and spread   19  (  0.477552,  4.091810, -3.931560 )     4.60860903
  WF centre and spread   20  (  1.523217,  1.764996,  2.249469 )     4.60855289
  WF centre and spread   21  (  1.000390,  2.786551,  1.789794 )     4.62830470
  WF centre and spread   22  ( -1.000390, -3.070262,  4.391239 )     4.62829838
  WF centre and spread   23  ( -1.000387, -2.786563, -1.789787 )     4.62833606
  WF centre and spread   24  (  1.000387,  3.070250, -4.391242 )     4.62833971
  WF centre and spread   25  (  1.000385, -5.333188, -1.426051 )     3.73107197
  WF centre and spread   26  ( -1.000385,  0.523627, -4.754980 )     3.73105526
  WF centre and spread   27  (  1.000400, -0.523630,  4.754987 )     3.73104254
  WF centre and spread   28  ( -1.000400,  5.333184,  1.426046 )     3.73105602
  WF centre and spread   29  (  1.000801, -1.023065, -0.398985 )     4.43133259
  WF centre and spread   30  ( -1.000800,  4.833745,  6.580020 )     4.43133257
  WF centre and spread   31  ( -0.963537,  1.354769, -0.640858 )     5.34997617
  WF centre and spread   32  (  0.963537, -4.502040, -5.540176 )     5.35001996
  WF centre and spread   33  ( -1.000147,  1.022822,  0.398832 )     4.43207843
  WF centre and spread   34  (  1.000147, -4.833991, -6.579871 )     4.43209409
  WF centre and spread   35  (  1.079048, -1.350809,  0.641884 )     5.30866469
  WF centre and spread   36  ( -1.079047,  4.506001,  5.539154 )     5.30873428
  Sum of centres and spreads (  0.000005,  0.000172,  0.000030 )   167.80002281
 
    500    -0.662E-04     0.0165121925      167.8000261590      17.37  <-- CONV
        O_D=      0.0937743 O_OD=      6.1489077 O_TOT=    167.8000262 <-- SPRD
 Delta: O_D=  0.5607027E-05 O_OD= -0.7179398E-04 O_TOT= -0.6618696E-04 <-- DLTA
 ------------------------------------------------------------------------------

 Writing checkpoint file mp-2160.chk... done

 Final State
  WF centre and spread    1  ( -0.477614, -4.091841,  3.931558 )     4.60771715
  WF centre and spread    2  (  1.523210,  4.091828, -3.931566 )     4.60779457
  WF centre and spread    3  (  0.477609,  1.764966,  2.249475 )     4.60770802
  WF centre and spread    4  ( -1.523216, -1.764980, -2.249461 )     4.60779708
  WF centre and spread    5  ( -1.670159,  1.142070, -5.002852 )     5.04757901
  WF centre and spread    6  ( -0.330613,  4.714739,  1.178174 )     5.04747352
  WF centre and spread    7  (  0.330619, -1.142069,  5.002858 )     5.04747447
  WF centre and spread    8  (  1.670168, -4.714738, -1.178176 )     5.04756386
  WF centre and spread    9  ( -1.037622,  1.271294, -0.661413 )     4.50163541
  WF centre and spread   10  (  1.037622, -4.585517, -5.519621 )     4.50167461
  WF centre and spread   11  (  0.921024, -1.274896,  0.660548 )     4.53579594
  WF centre and spread   12  ( -0.921025,  4.581918,  5.520488 )     4.53585763
  WF centre and spread   13  ( -0.330609,  1.142050, -5.002901 )     5.04692501
  WF centre and spread   14  (  1.670170, -1.142050,  5.002903 )     5.04702372
  WF centre and spread   15  ( -1.670175,  4.714759,  1.178130 )     5.04702129
  WF centre and spread   16  (  0.330602, -4.714758, -1.178127 )     5.04690839
  WF centre and spread   17  ( -1.523212, -4.091811,  3.931564 )     4.60856042
  WF centre and spread   18  ( -0.477546, -1.764998, -2.249468 )     4.60861340
  WF centre and spread   19  (  0.477552,  4.091810, -3.931560 )     4.60860903
  WF centre and spread   20  (  1.523217,  1.764996,  2.249469 )     4.60855289
  WF centre and spread   21  (  1.000390,  2.786551,  1.789794 )     4.62830470
  WF centre and spread   22  ( -1.000390, -3.070262,  4.391239 )     4.62829838
  WF centre and spread   23  ( -1.000387, -2.786563, -1.789787 )     4.62833606
  WF centre and spread   24  (  1.000387,  3.070250, -4.391242 )     4.62833971
  WF centre and spread   25  (  1.000385, -5.333188, -1.426051 )     3.73107197
  WF centre and spread   26  ( -1.000385,  0.523627, -4.754980 )     3.73105526
  WF centre and spread   27  (  1.000400, -0.523630,  4.754987 )     3.73104254
  WF centre and spread   28  ( -1.000400,  5.333184,  1.426046 )     3.73105602
  WF centre and spread   29  (  1.000801, -1.023065, -0.398985 )     4.43133259
  WF centre and spread   30  ( -1.000800,  4.833745,  6.580020 )     4.43133257
  WF centre and spread   31  ( -0.963537,  1.354769, -0.640858 )     5.34997617
  WF centre and spread   32  (  0.963537, -4.502040, -5.540176 )     5.35001996
  WF centre and spread   33  ( -1.000147,  1.022822,  0.398832 )     4.43207843
  WF centre and spread   34  (  1.000147, -4.833991, -6.579871 )     4.43209409
  WF centre and spread   35  (  1.079048, -1.350809,  0.641884 )     5.30866469
  WF centre and spread   36  ( -1.079047,  4.506001,  5.539154 )     5.30873428
  Sum of centres and spreads (  0.000005,  0.000172,  0.000030 )   167.80002281
 
         Spreads (Ang^2)       Omega I      =   161.557344146
        ================       Omega D      =     0.093774281
                               Omega OD     =     6.148907732
    Final Spread (Ang^2)       Omega Total  =   167.800026159
 ------------------------------------------------------------------------------
 Time for wannierise           17.311 (sec)

 Writing checkpoint file mp-2160.chk... done

 Time for plotting              0.000 (sec)
 Total Execution Time          19.065 (sec)

 *===========================================================================*
 |                             TIMING INFORMATION                            |
 *===========================================================================*
 |    Tag                                                Ncalls      Time (s)|
 |---------------------------------------------------------------------------|
 |kmesh: get                                        :         1         0.128|
 |overlap: allocate                                 :         1         0.013|
 |overlap: read                                     :         1         1.582|
 |wann: main                                        :         1        17.311|
 |plot: main                                        :         1         0.000|
 *---------------------------------------------------------------------------*
 
 All done: wannier90 exiting
