 
             +---------------------------------------------------+
             |                                                   |
             |                   WANNIER90                       |
             |                                                   |
             +---------------------------------------------------+
             |                                                   |
             |        Welcome to the Maximally-Localized         |
             |        Generalized Wannier Functions code         |
             |            http://www.wannier.org                 |
             |                                                   |
             |                                                   |
             |  Wannier90 Developer Group:                       |
             |    Giovanni Pizzi    (EPFL)                       |
             |    Valerio Vitale    (Cambridge)                  |
             |    David Vanderbilt  (Rutgers University)         |
             |    Nicola Marzari    (EPFL)                       |
             |    Ivo Souza         (Universidad del Pais Vasco) |
             |    Arash A. Mostofi  (Imperial College London)    |
             |    Jonathan R. Yates (University of Oxford)       |
             |                                                   |
             |  For the full list of Wannier90 3.x authors,      |
             |  please check the code documentation and the      |
             |  README on the GitHub page of the code            |
             |                                                   |
             |                                                   |
             |  Please cite                                      |
             |                                                   |
             |  [ref] "Wannier90 as a community code:            |
             |        new features and applications",            |
             |        G. Pizzi et al., J. Phys. Cond. Matt. 32,  |
             |        165902 (2020).                             |
             |        http://doi.org/10.1088/1361-648X/ab51ff    |
             |                                                   |
             |  in any publications arising from the use of      |
             |  this code. For the method please cite            |
             |                                                   |
             |  [ref] "Maximally Localized Generalised Wannier   |
             |         Functions for Composite Energy Bands"     |
             |         N. Marzari and D. Vanderbilt              |
             |         Phys. Rev. B 56 12847 (1997)              |
             |                                                   |
             |  [ref] "Maximally Localized Wannier Functions     |
             |         for Entangled Energy Bands"               |
             |         I. Souza, N. Marzari and D. Vanderbilt    |
             |         Phys. Rev. B 65 035109 (2001)             |
             |                                                   |
             |                                                   |
             | Copyright (c) 1996-2020                           |
             |        The Wannier90 Developer Group and          |
             |        individual contributors                    |
             |                                                   |
             |      Release: 3.1.0        5th March    2020      |
             |                                                   |
             | This program is free software; you can            |
             | redistribute it and/or modify it under the terms  |
             | of the GNU General Public License as published by |
             | the Free Software Foundation; either version 2 of |
             | the License, or (at your option) any later version|
             |                                                   |
             | This program is distributed in the hope that it   |
             | will be useful, but WITHOUT ANY WARRANTY; without |
             | even the implied warranty of MERCHANTABILITY or   |
             | FITNESS FOR A PARTICULAR PURPOSE. See the GNU     |
             | General Public License for more details.          |
             |                                                   |
             | You should have received a copy of the GNU General|
             | Public License along with this program; if not,   |
             | write to the Free Software Foundation, Inc.,      |
             | 675 Mass Ave, Cambridge, MA 02139, USA.           |
             |                                                   |
             +---------------------------------------------------+
             |    Execution started on  8Apr2024 at 16:12:09     |
             +---------------------------------------------------+
 
 ******************************************************************************
 * -> Using CODATA 2006 constant values                                       *
 *    (http://physics.nist.gov/cuu/Constants/index.html)                      *
 * -> Using Bohr value from CODATA                                            *
 ******************************************************************************
 

 Running in parallel on  16 CPUs

 
                                    ------
                                    SYSTEM
                                    ------
 
                              Lattice Vectors (Ang)
                    a_1     4.001557   0.000000   0.000000
                    a_2     0.000000  11.713629   0.000000
                    a_3     0.000000   0.000000  12.362072
 
                   Unit Cell Volume:     579.44436  (Ang^3)
 
                        Reciprocal-Space Vectors (Ang^-1)
                    b_1     1.570185   0.000000   0.000000
                    b_2     0.000000   0.536400   0.000000
                    b_3     0.000000   0.000000   0.508263
  
 *----------------------------------------------------------------------------*
 |   Site       Fractional Coordinate          Cartesian Coordinate (Ang)     |
 +----------------------------------------------------------------------------+
 | Sb   1   0.75000   0.03809   0.14032   |    3.00117   0.44623   1.73468    |
 | Sb   2   0.25000   0.96191   0.85968   |    1.00039  11.26740  10.62740    |
 | Sb   3   0.25000   0.53809   0.35968   |    1.00039   6.30304   4.44636    |
 | Sb   4   0.75000   0.46191   0.64032   |    3.00117   5.41059   7.91571    |
 | Sb   5   0.25000   0.32959   0.03381   |    1.00039   3.86071   0.41800    |
 | Sb   6   0.75000   0.67041   0.96619   |    3.00117   7.85292  11.94408    |
 | Sb   7   0.75000   0.82959   0.46619   |    3.00117   9.71753   5.76304    |
 | Sb   8   0.25000   0.17041   0.53381   |    1.00039   1.99610   6.59903    |
 | Se   1   0.75000   0.12753   0.94835   |    3.00117   1.49378  11.72351    |
 | Se   2   0.25000   0.87247   0.05165   |    1.00039  10.21985   0.63856    |
 | Se   3   0.25000   0.62753   0.55165   |    1.00039   7.35060   6.81960    |
 | Se   4   0.75000   0.37247   0.44835   |    3.00117   4.36303   5.54248    |
 | Se   5   0.25000   0.19210   0.20533   |    1.00039   2.25020   2.53832    |
 | Se   6   0.75000   0.80790   0.79467   |    3.00117   9.46343   9.82375    |
 | Se   7   0.75000   0.69210   0.29467   |    3.00117   8.10701   3.64272    |
 | Se   8   0.25000   0.30790   0.70533   |    1.00039   3.60662   8.71936    |
 | Se   9   0.75000   0.05410   0.62735   |    3.00117   0.63369   7.75534    |
 | Se  10   0.25000   0.94590   0.37265   |    1.00039  11.07994   4.60674    |
 | Se  11   0.25000   0.55410   0.87265   |    1.00039   6.49051  10.78777    |
 | Se  12   0.75000   0.44590   0.12735   |    3.00117   5.22312   1.57430    |
 *----------------------------------------------------------------------------*
                                ------------
                                K-POINT GRID
                                ------------
  
             Grid size = 12 x  4 x  4      Total points =  192
  
  
 *---------------------------------- MAIN ------------------------------------*
 |  Number of Wannier Functions               :                36             |
 |  Number of Objective Wannier Functions     :                36             |
 |  Number of input Bloch states              :                36             |
 |  Output verbosity (1=low, 5=high)          :                 1             |
 |  Timing Level (1=low, 5=high)              :                 1             |
 |  Optimisation (0=memory, 3=speed)          :                 3             |
 |  Length Unit                               :               Ang             |
 |  Post-processing setup (write *.nnkp)      :                 F             |
 |  Using Gamma-only branch of algorithms     :                 F             |
 *----------------------------------------------------------------------------*
 *------------------------------- WANNIERISE ---------------------------------*
 |  Total number of iterations                :               500             |
 |  Number of CG steps before reset           :                 5             |
 |  Trial step length for line search         :             2.000             |
 |  Convergence tolerence                     :         0.100E-09             |
 |  Convergence window                        :                -1             |
 |  Iterations between writing output         :                 1             |
 |  Iterations between backing up to disk     :               100             |
 |  Write r^2_nm to file                      :                 F             |
 |  Write xyz WF centres to file              :                 F             |
 |  Write on-site energies <0n|H|0n> to file  :                 F             |
 |  Use guiding centre to control phases      :                 F             |
 |  Use phases for initial projections        :                 F             |
 *----------------------------------------------------------------------------*
 Time to read parameters        0.040 (sec)

 *---------------------------------- K-MESH ----------------------------------*
 +----------------------------------------------------------------------------+
 |                    Distance to Nearest-Neighbour Shells                    |
 |                    ------------------------------------                    |
 |          Shell             Distance (Ang^-1)          Multiplicity         |
 |          -----             -----------------          ------------         |
 |             1                   0.127066                      2            |
 |             2                   0.130849                      2            |
 |             3                   0.134100                      2            |
 |             4                   0.182393                      4            |
 |             5                   0.184739                      4            |
 |             6                   0.187361                      4            |
 |             7                   0.226384                      8            |
 |             8                   0.254132                      2            |
 |             9                   0.261698                      2            |
 |            10                   0.268200                      2            |
 |            11                   0.285840                      4            |
 |            12                   0.287342                      4            |
 |            13                   0.290915                      4            |
 |            14                   0.294055                      4            |
 |            15                   0.296777                      4            |
 |            16                   0.298417                      4            |
 |            17                   0.315733                      8            |
 |            18                   0.320334                      8            |
 |            19                   0.324343                      8            |
 |            20                   0.364785                      4            |
 |            21                   0.369478                      4            |
 |            22                   0.374722                      4            |
 |            23                   0.381197                      2            |
 |            24                   0.388653                      8            |
 |            25                   0.391963                      8            |
 |            26                   0.392546                      2            |
 |            27                   0.395680                      8            |
 |            28                   0.402300                      2            |
 |            29                   0.403030                      4            |
 |            30                   0.404097                      4            |
 |            31                   0.412599                      4            |
 |            32                   0.414820                      4            |
 |            33                   0.421889                      4            |
 |            34                   0.423044                      4            |
 |            35                   0.424754                      8            |
 |            36                   0.433845                      8            |
 +----------------------------------------------------------------------------+
 | The b-vectors are chosen automatically                                     |
 | The following shells are used:   1,  2,  3                                 |
 +----------------------------------------------------------------------------+
 |                        Shell   # Nearest-Neighbours                        |
 |                        -----   --------------------                        |
 |                          1               2                                 |
 |                          2               2                                 |
 |                          3               2                                 |
 +----------------------------------------------------------------------------+
 | Completeness relation is fully satisfied [Eq. (B1), PRB 56, 12847 (1997)]  |
 +----------------------------------------------------------------------------+
 |                  b_k Vectors (Ang^-1) and Weights (Ang^2)                  |
 |                  ----------------------------------------                  |
 |            No.         b_k(x)      b_k(y)      b_k(z)        w_b           |
 |            ---        --------------------------------     --------        |
 |             1         0.000000    0.000000    0.127066    30.967974        |
 |             2         0.000000    0.000000   -0.127066    30.967974        |
 |             3         0.130849    0.000000    0.000000    29.203225        |
 |             4        -0.130849    0.000000    0.000000    29.203225        |
 |             5         0.000000    0.134100    0.000000    27.804378        |
 |             6         0.000000   -0.134100    0.000000    27.804378        |
 +----------------------------------------------------------------------------+
 |                           b_k Directions (Ang^-1)                          |
 |                           -----------------------                          |
 |            No.           x           y           z                         |
 |            ---        --------------------------------                     |
 |             1         0.000000    0.000000    0.127066                     |
 |             2         0.130849    0.000000    0.000000                     |
 |             3         0.000000    0.134100    0.000000                     |
 +----------------------------------------------------------------------------+
  
 Time to get kmesh              0.111 (sec)
 *============================================================================*
 |                              MEMORY ESTIMATE                               |
 |         Maximum RAM allocated during each phase of the calculation         |
 *============================================================================*
 |                            Wannierise:           62.55 Mb                  |
 |                          plot_wannier:           62.55 Mb                  |
 *----------------------------------------------------------------------------*
  
 Starting a new Wannier90 calculation ...


 Reading overlaps from mp-2160.mmn    :  Created on  8Apr2024 at 16:11:46

 Reading projections from mp-2160.amn :  Created on  8Apr2024 at 16:11:12  with SCDM

 Time to read overlaps          1.062 (sec)

 Writing checkpoint file mp-2160.chk... done

 
 *------------------------------- WANNIERISE ---------------------------------*
 +--------------------------------------------------------------------+<-- CONV
 | Iter  Delta Spread     RMS Gradient      Spread (Ang^2)      Time  |<-- CONV
 +--------------------------------------------------------------------+<-- CONV
 
 ------------------------------------------------------------------------------
 Initial State
  WF centre and spread    1  ( -1.464851, -4.072924,  4.019647 )     5.31797836
  WF centre and spread    2  (  0.534873,  4.073668, -4.019425 )     5.34053287
  WF centre and spread    3  (  1.464854,  1.783884,  2.161386 )     5.31798147
  WF centre and spread    4  ( -0.534869, -1.783142, -2.161601 )     5.34054876
  WF centre and spread    5  ( -0.431552,  1.143127, -5.032905 )     5.51388955
  WF centre and spread    6  ( -1.568712,  4.715085,  1.147789 )     5.48498832
  WF centre and spread    7  (  1.568709, -1.141724,  5.033245 )     5.48498278
  WF centre and spread    8  (  0.431548, -4.713684, -1.148125 )     5.51389262
  WF centre and spread    9  ( -0.959478,  1.242387, -0.587323 )     4.89340408
  WF centre and spread   10  (  0.959477, -4.614424, -5.593711 )     4.89345465
  WF centre and spread   11  (  1.028470, -1.247496,  0.616753 )     4.85079872
  WF centre and spread   12  ( -1.028471,  4.609319,  5.564283 )     4.85086580
  WF centre and spread   13  (  0.555176, -0.905641,  4.966738 )     5.61155475
  WF centre and spread   14  ( -1.445490,  0.906314, -4.966515 )     5.62571620
  WF centre and spread   15  ( -0.555172,  4.951170,  1.214295 )     5.61156860
  WF centre and spread   16  (  1.445494, -4.950498, -1.214516 )     5.62573516
  WF centre and spread   17  ( -0.542433, -3.943129,  4.073171 )     5.44127592
  WF centre and spread   18  ( -1.460033, -1.912908, -2.105437 )     5.48632883
  WF centre and spread   19  (  1.460030,  3.943904, -4.075589 )     5.48631506
  WF centre and spread   20  (  0.542432,  1.913682,  2.107862 )     5.44127860
  WF centre and spread   21  (  0.993264,  2.592375,  1.987212 )     4.89711848
  WF centre and spread   22  ( -0.993264, -3.264433,  4.193822 )     4.89711602
  WF centre and spread   23  ( -1.007654, -2.591195, -1.987504 )     4.88084916
  WF centre and spread   24  (  1.007655,  3.265613, -4.193527 )     4.88084982
  WF centre and spread   25  ( -0.867544,  5.098853,  1.430546 )     4.97846513
  WF centre and spread   26  (  0.867545, -0.757957,  4.750485 )     4.97846137
  WF centre and spread   27  (  1.132888, -5.098831, -1.429169 )     4.96997262
  WF centre and spread   28  ( -1.132886,  0.757978, -4.751858 )     4.96996232
  WF centre and spread   29  (  1.010265, -1.148717, -0.107963 )     5.12851025
  WF centre and spread   30  ( -1.010265,  4.708093,  6.289000 )     5.12853139
  WF centre and spread   31  ( -0.981757,  1.243673, -0.177655 )     5.33526960
  WF centre and spread   32  (  0.981758, -4.613137, -6.003384 )     5.33531042
  WF centre and spread   33  ( -1.073308,  1.155973, -0.153667 )     5.61184644
  WF centre and spread   34  (  1.073308, -4.700839, -6.027368 )     5.61189119
  WF centre and spread   35  (  0.948551, -1.251789,  0.407992 )     5.75830999
  WF centre and spread   36  ( -0.948551,  4.605021,  5.773046 )     5.75837178
  Sum of centres and spreads (  0.000005, -0.002349,  0.000030 )   190.25392708
 
      0     0.190E+03     0.0000000000      190.2539302709       0.00  <-- CONV
        O_D=      0.2393026 O_OD=     28.4573683 O_TOT=    190.2539303 <-- SPRD
 ------------------------------------------------------------------------------
 Cycle:      1
  WF centre and spread    1  ( -1.470829, -4.067043,  4.008312 )     5.08792641
  WF centre and spread    2  (  0.529260,  4.067477, -4.008146 )     5.10337758
  WF centre and spread    3  (  1.470832,  1.789766,  2.172721 )     5.08792674
  WF centre and spread    4  ( -0.529255, -1.789333, -2.172880 )     5.10339252
  WF centre and spread    5  ( -0.420124,  1.144717, -5.039778 )     5.31626531
  WF centre and spread    6  ( -1.580614,  4.712882,  1.140997 )     5.29829984
  WF centre and spread    7  (  1.580611, -1.143928,  5.040036 )     5.29829556
  WF centre and spread    8  (  0.420120, -4.712093, -1.141252 )     5.31626175
  WF centre and spread    9  ( -0.952767,  1.244761, -0.587533 )     4.70439438
  WF centre and spread   10  (  0.952767, -4.612050, -5.593501 )     4.70444510
  WF centre and spread   11  (  1.036116, -1.250934,  0.615870 )     4.66576320
  WF centre and spread   12  ( -1.036116,  4.605881,  5.565166 )     4.66583162
  WF centre and spread   13  (  0.551476, -0.903123,  4.971040 )     5.23548027
  WF centre and spread   14  ( -1.449261,  0.903428, -4.970773 )     5.24306080
  WF centre and spread   15  ( -0.551473,  4.953688,  1.209994 )     5.23549303
  WF centre and spread   16  (  1.449264, -4.953384, -1.210257 )     5.24307803
  WF centre and spread   17  ( -0.535024, -3.942048,  4.064446 )     5.18635522
  WF centre and spread   18  ( -1.466520, -1.914728, -2.114992 )     5.21510723
  WF centre and spread   19  (  1.466516,  3.942084, -4.066034 )     5.21509533
  WF centre and spread   20  (  0.535022,  1.914762,  2.116586 )     5.18635535
  WF centre and spread   21  (  0.994383,  2.606253,  1.985931 )     4.71515941
  WF centre and spread   22  ( -0.994382, -3.250555,  4.195104 )     4.71515412
  WF centre and spread   23  ( -1.006417, -2.605361, -1.986522 )     4.70621598
  WF centre and spread   24  (  1.006417,  3.251447, -4.194510 )     4.70621360
  WF centre and spread   25  ( -0.867484,  5.101145,  1.433271 )     4.77583088
  WF centre and spread   26  (  0.867485, -0.755665,  4.747760 )     4.77582720
  WF centre and spread   27  (  1.133142, -5.101171, -1.432477 )     4.77250119
  WF centre and spread   28  ( -1.133140,  0.755638, -4.748550 )     4.77248956
  WF centre and spread   29  (  1.009744, -1.151877, -0.127206 )     4.86977297
  WF centre and spread   30  ( -1.009744,  4.704932,  6.308242 )     4.86979145
  WF centre and spread   31  ( -0.980295,  1.252375, -0.164793 )     5.11986625
  WF centre and spread   32  (  0.980296, -4.604435, -6.016246 )     5.11990395
  WF centre and spread   33  ( -1.074424,  1.144588, -0.153001 )     5.41060934
  WF centre and spread   34  (  1.074424, -4.712224, -6.028033 )     5.41065414
  WF centre and spread   35  (  0.948164, -1.241663,  0.414444 )     5.57290952
  WF centre and spread   36  ( -0.948164,  4.615147,  5.766594 )     5.57297293
  Sum of centres and spreads (  0.000005, -0.000646,  0.000030 )   181.99807775
 
      1    -0.826E+01     3.4510611757      181.9980809533       0.03  <-- CONV
        O_D=      0.2348072 O_OD=     20.2060144 O_TOT=    181.9980810 <-- SPRD
 Delta: O_D= -0.4495421E-02 O_OD= -0.8251354E+01 O_TOT= -0.8255849E+01 <-- DLTA
 ------------------------------------------------------------------------------
 Cycle:      2
  WF centre and spread    1  ( -1.474820, -4.064992,  4.002531 )     4.96310308
  WF centre and spread    2  (  0.525464,  4.065256, -4.002329 )     4.97290858
  WF centre and spread    3  (  1.474823,  1.791817,  2.178501 )     4.96310011
  WF centre and spread    4  ( -0.525460, -1.791554, -2.178697 )     4.97292450
  WF centre and spread    5  ( -0.415165,  1.144816, -5.042596 )     5.21460562
  WF centre and spread    6  ( -1.585612,  4.712437,  1.138244 )     5.20465088
  WF centre and spread    7  (  1.585609, -1.144373,  5.042789 )     5.20464730
  WF centre and spread    8  (  0.415161, -4.711994, -1.138434 )     5.21459963
  WF centre and spread    9  ( -0.950360,  1.246578, -0.587960 )     4.62440921
  WF centre and spread   10  (  0.950360, -4.610233, -5.593074 )     4.62445707
  WF centre and spread   11  (  1.039065, -1.253167,  0.615680 )     4.59081896
  WF centre and spread   12  ( -1.039065,  4.603647,  5.565357 )     4.59088670
  WF centre and spread   13  (  0.549323, -0.902811,  4.974162 )     5.02054062
  WF centre and spread   14  ( -1.451562,  0.903045, -4.973957 )     5.02474746
  WF centre and spread   15  ( -0.549320,  4.954001,  1.206871 )     5.02055464
  WF centre and spread   16  (  1.451566, -4.953767, -1.207073 )     5.02475812
  WF centre and spread   17  ( -0.530533, -3.944434,  4.059265 )     5.06265526
  WF centre and spread   18  ( -1.470520, -1.912714, -2.120832 )     5.07972353
  WF centre and spread   19  (  1.470517,  3.944097, -4.060193 )     5.07971447
  WF centre and spread   20  (  0.530531,  1.912376,  2.121767 )     5.06265590
  WF centre and spread   21  (  0.995029,  2.614584,  1.982874 )     4.61230019
  WF centre and spread   22  ( -0.995028, -3.242224,  4.198160 )     4.61229333
  WF centre and spread   23  ( -1.005755, -2.613962, -1.983381 )     4.60841645
  WF centre and spread   24  (  1.005756,  3.242846, -4.197651 )     4.60841761
  WF centre and spread   25  ( -0.867523,  5.103544,  1.435355 )     4.63658370
  WF centre and spread   26  (  0.867524, -0.753266,  4.745676 )     4.63658190
  WF centre and spread   27  (  1.133186, -5.103631, -1.434973 )     4.63541414
  WF centre and spread   28  ( -1.133184,  0.753178, -4.746054 )     4.63540052
  WF centre and spread   29  (  1.009531, -1.152437, -0.137791 )     4.76172041
  WF centre and spread   30  ( -1.009531,  4.704372,  6.318827 )     4.76173636
  WF centre and spread   31  ( -0.979619,  1.255869, -0.158518 )     5.04350837
  WF centre and spread   32  (  0.979620, -4.600941, -6.022522 )     5.04354378
  WF centre and spread   33  ( -1.074730,  1.139563, -0.153124 )     5.34005710
  WF centre and spread   34  (  1.074730, -4.717248, -6.027910 )     5.34010309
  WF centre and spread   35  (  0.948020, -1.237529,  0.419339 )     5.51366450
  WF centre and spread   36  ( -0.948020,  4.619282,  5.761699 )     5.51372999
  Sum of centres and spreads (  0.000005,  0.000030,  0.000030 )   177.81993308
 
      2    -0.418E+01     3.6664381951      177.8199362904       0.05  <-- CONV
        O_D=      0.1650852 O_OD=     16.0975917 O_TOT=    177.8199363 <-- SPRD
 Delta: O_D= -0.6972198E-01 O_OD= -0.4108423E+01 O_TOT= -0.4178145E+01 <-- DLTA
 ------------------------------------------------------------------------------
 Cycle:      3
  WF centre and spread    1  ( -1.477325, -4.065022,  3.999546 )     4.89769049
  WF centre and spread    2  (  0.523111,  4.065157, -3.999261 )     4.90279848
  WF centre and spread    3  (  1.477328,  1.791787,  2.181487 )     4.89768635
  WF centre and spread    4  ( -0.523106, -1.791653, -2.181766 )     4.90281594
  WF centre and spread    5  ( -0.412554,  1.144872, -5.043971 )     5.16751107
  WF centre and spread    6  ( -1.588164,  4.712225,  1.136930 )     5.16233082
  WF centre and spread    7  (  1.588161, -1.144585,  5.044104 )     5.16232617
  WF centre and spread    8  (  0.412549, -4.711938, -1.137059 )     5.16750725
  WF centre and spread    9  ( -0.949868,  1.247911, -0.588892 )     4.59697099
  WF centre and spread   10  (  0.949868, -4.608900, -5.592142 )     4.59701170
  WF centre and spread   11  (  1.039907, -1.254673,  0.616345 )     4.56402986
  WF centre and spread   12  ( -1.039907,  4.602141,  5.564691 )     4.56408941
  WF centre and spread   13  (  0.547521, -0.904023,  4.976069 )     4.91595726
  WF centre and spread   14  ( -1.453405,  0.904241, -4.975952 )     4.91768435
  WF centre and spread   15  ( -0.547518,  4.952788,  1.204965 )     4.91597029
  WF centre and spread   16  (  1.453409, -4.952572, -1.205078 )     4.91769442
  WF centre and spread   17  ( -0.528355, -3.947815,  4.055974 )     5.01192484
  WF centre and spread   18  ( -1.472486, -1.909442, -2.124524 )     5.02184599
  WF centre and spread   19  (  1.472483,  3.947369, -4.056502 )     5.02183670
  WF centre and spread   20  (  0.528352,  1.908995,  2.125058 )     5.01192574
  WF centre and spread   21  (  0.995250,  2.618771,  1.980637 )     4.56009685
  WF centre and spread   22  ( -0.995250, -3.238038,  4.200397 )     4.56009068
  WF centre and spread   23  ( -1.005540, -2.618389, -1.980949 )     4.55890768
  WF centre and spread   24  (  1.005540,  3.238419, -4.200083 )     4.55891314
  WF centre and spread   25  ( -0.867543,  5.105287,  1.436875 )     4.55308551
  WF centre and spread   26  (  0.867545, -0.751523,  4.744157 )     4.55308541
  WF centre and spread   27  (  1.133188, -5.105433, -1.436687 )     4.55259433
  WF centre and spread   28  ( -1.133186,  0.751376, -4.744341 )     4.55258094
  WF centre and spread   29  (  1.009426, -1.151629, -0.142783 )     4.72205656
  WF centre and spread   30  ( -1.009426,  4.705181,  6.323819 )     4.72207287
  WF centre and spread   31  ( -0.979490,  1.256696, -0.156359 )     5.02170962
  WF centre and spread   32  (  0.979490, -4.600114, -6.024680 )     5.02174152
  WF centre and spread   33  ( -1.074443,  1.138019, -0.153725 )     5.32226338
  WF centre and spread   34  (  1.074443, -4.718793, -6.027310 )     5.32231077
  WF centre and spread   35  (  0.948176, -1.236602,  0.423107 )     5.49938135
  WF centre and spread   36  ( -0.948176,  4.620209,  5.757931 )     5.49944587
  Sum of centres and spreads (  0.000005,  0.000301,  0.000030 )   175.89794459
 
      3    -0.192E+01     2.8809994417      175.8979477955       0.07  <-- CONV
        O_D=      0.1218171 O_OD=     14.2188713 O_TOT=    175.8979478 <-- SPRD
 Delta: O_D= -0.4326815E-01 O_OD= -0.1878720E+01 O_TOT= -0.1921988E+01 <-- DLTA
 ------------------------------------------------------------------------------
 Cycle:      4
  WF centre and spread    1  ( -1.479187, -4.065670,  3.997663 )     4.86315490
  WF centre and spread    2  (  0.521306,  4.065744, -3.997327 )     4.86479013
  WF centre and spread    3  (  1.479190,  1.791139,  2.183370 )     4.86314991
  WF centre and spread    4  ( -0.521302, -1.791066, -2.183699 )     4.86480810
  WF centre and spread    5  ( -0.410600,  1.144901, -5.044686 )     5.14025077
  WF centre and spread    6  ( -1.590072,  4.712119,  1.136263 )     5.13770861
  WF centre and spread    7  (  1.590068, -1.144691,  5.044771 )     5.13770386
  WF centre and spread    8  (  0.410596, -4.711909, -1.136344 )     5.14024490
  WF centre and spread    9  ( -0.949797,  1.248915, -0.590101 )     4.58641784
  WF centre and spread   10  (  0.949797, -4.607896, -5.590933 )     4.58645465
  WF centre and spread   11  (  1.040220, -1.255771,  0.617422 )     4.55313350
  WF centre and spread   12  ( -1.040220,  4.601043,  5.563615 )     4.55318842
  WF centre and spread   13  (  0.546014, -0.905480,  4.977109 )     4.86402633
  WF centre and spread   14  ( -1.454938,  0.905682, -4.977069 )     4.86450402
  WF centre and spread   15  ( -0.546011,  4.951332,  1.203924 )     4.86403716
  WF centre and spread   16  (  1.454942, -4.951130, -1.203961 )     4.86451574
  WF centre and spread   17  ( -0.526887, -3.951060,  4.053579 )     4.99419201
  WF centre and spread   18  ( -1.473895, -1.906170, -2.127137 )     4.99961955
  WF centre and spread   19  (  1.473891,  3.950641, -4.053888 )     4.99960977
  WF centre and spread   20  (  0.526885,  1.905750,  2.127454 )     4.99418880
  WF centre and spread   21  (  0.995297,  2.621598,  1.978893 )     4.53393873
  WF centre and spread   22  ( -0.995297, -3.235210,  4.202141 )     4.53393449
  WF centre and spread   23  ( -1.005491, -2.621456, -1.979005 )     4.53345163
  WF centre and spread   24  (  1.005492,  3.235351, -4.202026 )     4.53345719
  WF centre and spread   25  ( -0.867494,  5.106609,  1.437912 )     4.50721204
  WF centre and spread   26  (  0.867496, -0.750202,  4.743120 )     4.50721048
  WF centre and spread   27  (  1.133250, -5.106796, -1.437815 )     4.50715842
  WF centre and spread   28  ( -1.133248,  0.750013, -4.743213 )     4.50714650
  WF centre and spread   29  (  1.009357, -1.150521, -0.145746 )     4.70930379
  WF centre and spread   30  ( -1.009357,  4.706289,  6.326782 )     4.70931886
  WF centre and spread   31  ( -0.979502,  1.256756, -0.155808 )     5.01617098
  WF centre and spread   32  (  0.979502, -4.600055, -6.025232 )     5.01619975
  WF centre and spread   33  ( -1.074084,  1.137650, -0.154290 )     5.32088740
  WF centre and spread   34  (  1.074083, -4.719161, -6.026744 )     5.32093467
  WF centre and spread   35  (  0.948383, -1.236830,  0.426291 )     5.49670405
  WF centre and spread   36  ( -0.948383,  4.619980,  5.754747 )     5.49676632
  Sum of centres and spreads (  0.000005,  0.000440,  0.000030 )   174.98549427
 
      4    -0.912E+00     2.0695503052      174.9854974854       0.09  <-- CONV
        O_D=      0.1062732 O_OD=     13.3219650 O_TOT=    174.9854975 <-- SPRD
 Delta: O_D= -0.1554392E-01 O_OD= -0.8969064E+00 O_TOT= -0.9124503E+00 <-- DLTA
 ------------------------------------------------------------------------------
 Cycle:      5
  WF centre and spread    1  ( -1.480876, -4.066439,  3.996285 )     4.84033698
  WF centre and spread    2  (  0.519630,  4.066486, -3.995935 )     4.83934060
  WF centre and spread    3  (  1.480879,  1.790370,  2.184747 )     4.84033103
  WF centre and spread    4  ( -0.519625, -1.790324, -2.185092 )     4.83935840
  WF centre and spread    5  ( -0.408746,  1.144929, -5.045076 )     5.12280528
  WF centre and spread    6  ( -1.591903,  4.712042,  1.135908 )     5.12153524
  WF centre and spread    7  (  1.591899, -1.144767,  5.045125 )     5.12153166
  WF centre and spread    8  (  0.408742, -4.711881, -1.135954 )     5.12279712
  WF centre and spread    9  ( -0.949793,  1.249733, -0.591488 )     4.58105554
  WF centre and spread   10  (  0.949792, -4.607078, -5.589546 )     4.58109054
  WF centre and spread   11  (  1.040424, -1.256658,  0.618711 )     4.54741480
  WF centre and spread   12  ( -1.040424,  4.600157,  5.562325 )     4.54746791
  WF centre and spread   13  (  0.544550, -0.906983,  4.977738 )     4.83872532
  WF centre and spread   14  ( -1.456412,  0.907154, -4.977747 )     4.83877430
  WF centre and spread   15  ( -0.544546,  4.949828,  1.203296 )     4.83873341
  WF centre and spread   16  (  1.456416, -4.949658, -1.203283 )     4.83878689
  WF centre and spread   17  ( -0.525549, -3.954165,  4.051574 )     4.98615069
  WF centre and spread   18  ( -1.475229, -1.903007, -2.129283 )     4.98820033
  WF centre and spread   19  (  1.475225,  3.953804, -4.051743 )     4.98819143
  WF centre and spread   20  (  0.525546,  1.902644,  2.129458 )     4.98614466
  WF centre and spread   21  (  0.995320,  2.624198,  1.977251 )     4.52072291
  WF centre and spread   22  ( -0.995319, -3.232610,  4.203783 )     4.52072061
  WF centre and spread   23  ( -1.005463, -2.624278, -1.977172 )     4.52067038
  WF centre and spread   24  (  1.005463,  3.232529, -4.203860 )     4.52067476
  WF centre and spread   25  ( -0.867450,  5.107939,  1.438847 )     4.47988709
  WF centre and spread   26  (  0.867452, -0.748871,  4.742184 )     4.47988624
  WF centre and spread   27  (  1.133298, -5.108157, -1.438799 )     4.48015229
  WF centre and spread   28  ( -1.133296,  0.748652, -4.742229 )     4.48014210
  WF centre and spread   29  (  1.009307, -1.149286, -0.148198 )     4.70575430
  WF centre and spread   30  ( -1.009307,  4.707524,  6.329234 )     4.70576844
  WF centre and spread   31  ( -0.979536,  1.256587, -0.155881 )     5.01595222
  WF centre and spread   32  (  0.979536, -4.600224, -6.025159 )     5.01598087
  WF centre and spread   33  ( -1.073754,  1.137645, -0.154792 )     5.32404074
  WF centre and spread   34  (  1.073754, -4.719166, -6.026243 )     5.32408761
  WF centre and spread   35  (  0.948567, -1.237470,  0.429402 )     5.49726344
  WF centre and spread   36  ( -0.948567,  4.619340,  5.751636 )     5.49732459
  Sum of centres and spreads (  0.000005,  0.000538,  0.000030 )   174.49780072
 
      5    -0.488E+00     1.4919001181      174.4978039345       0.11  <-- CONV
        O_D=      0.0962473 O_OD=     12.8442972 O_TOT=    174.4978039 <-- SPRD
 Delta: O_D= -0.1002583E-01 O_OD= -0.4776677E+00 O_TOT= -0.4876936E+00 <-- DLTA
 ------------------------------------------------------------------------------
 Cycle:      6
  WF centre and spread    1  ( -1.482497, -4.067199,  3.995225 )     4.82527319
  WF centre and spread    2  (  0.518015,  4.067219, -3.994887 )     4.82219924
  WF centre and spread    3  (  1.482501,  1.789609,  2.185808 )     4.82526739
  WF centre and spread    4  ( -0.518011, -1.789590, -2.186139 )     4.82221668
  WF centre and spread    5  ( -0.406859,  1.145002, -5.045305 )     5.11170086
  WF centre and spread    6  ( -1.593780,  4.711938,  1.135705 )     5.11085748
  WF centre and spread    7  (  1.593777, -1.144872,  5.045328 )     5.11085506
  WF centre and spread    8  (  0.406855, -4.711809, -1.135725 )     5.11169143
  WF centre and spread    9  ( -0.949806,  1.250446, -0.592940 )     4.57772447
  WF centre and spread   10  (  0.949806, -4.606365, -5.588094 )     4.57775836
  WF centre and spread   11  (  1.040596, -1.257418,  0.620074 )     4.54403281
  WF centre and spread   12  ( -1.040596,  4.599396,  5.560963 )     4.54408532
  WF centre and spread   13  (  0.543007, -0.908564,  4.978167 )     4.82750409
  WF centre and spread   14  ( -1.457954,  0.908698, -4.978207 )     4.82761534
  WF centre and spread   15  ( -0.543003,  4.948248,  1.202867 )     4.82751167
  WF centre and spread   16  (  1.457958, -4.948114, -1.202823 )     4.82762697
  WF centre and spread   17  ( -0.524200, -3.957189,  4.049760 )     4.98223519
  WF centre and spread   18  ( -1.476583, -1.899937, -2.131195 )     4.98151058
  WF centre and spread   19  (  1.476579,  3.956873, -4.049831 )     4.98150296
  WF centre and spread   20  (  0.524198,  1.899621,  2.131273 )     4.98222795
  WF centre and spread   21  (  0.995377,  2.626875,  1.975552 )     4.51377512
  WF centre and spread   22  ( -0.995377, -3.229933,  4.205482 )     4.51377353
  WF centre and spread   23  ( -1.005400, -2.627148, -1.975296 )     4.51384991
  WF centre and spread   24  (  1.005401,  3.229660, -4.205736 )     4.51385240
  WF centre and spread   25  ( -0.867410,  5.109230,  1.439740 )     4.46140761
  WF centre and spread   26  (  0.867411, -0.747581,  4.741292 )     4.46140838
  WF centre and spread   27  (  1.133339, -5.109468, -1.439714 )     4.46189507
  WF centre and spread   28  ( -1.133336,  0.747341, -4.741314 )     4.46188549
  WF centre and spread   29  (  1.009262, -1.148043, -0.150581 )     4.70477448
  WF centre and spread   30  ( -1.009262,  4.708767,  6.331617 )     4.70478697
  WF centre and spread   31  ( -0.979576,  1.256385, -0.156192 )     5.01780526
  WF centre and spread   32  (  0.979576, -4.600426, -6.024848 )     5.01783438
  WF centre and spread   33  ( -1.073440,  1.137751, -0.155200 )     5.32750107
  WF centre and spread   34  (  1.073440, -4.719061, -6.025834 )     5.32754722
  WF centre and spread   35  (  0.948737, -1.238282,  0.432516 )     5.49827686
  WF centre and spread   36  ( -0.948737,  4.618528,  5.748522 )     5.49833734
  Sum of centres and spreads (  0.000005,  0.000590,  0.000030 )   174.22010813
 
      6    -0.278E+00     1.1183830603      174.2201113512       0.12  <-- CONV
        O_D=      0.0912134 O_OD=     12.5716386 O_TOT=    174.2201114 <-- SPRD
 Delta: O_D= -0.5033922E-02 O_OD= -0.2726587E+00 O_TOT= -0.2776926E+00 <-- DLTA
 ------------------------------------------------------------------------------
 Cycle:      7
  WF centre and spread    1  ( -1.482915, -4.067382,  3.994993 )     4.82184956
  WF centre and spread    2  (  0.517609,  4.067386, -3.994673 )     4.81864371
  WF centre and spread    3  (  1.482918,  1.789427,  2.186039 )     4.82184421
  WF centre and spread    4  ( -0.517604, -1.789423, -2.186353 )     4.81866106
  WF centre and spread    5  ( -0.406352,  1.145014, -5.045332 )     5.10756069
  WF centre and spread    6  ( -1.594292,  4.711924,  1.135679 )     5.10660208
  WF centre and spread    7  (  1.594289, -1.144886,  5.045354 )     5.10659952
  WF centre and spread    8  (  0.406348, -4.711796, -1.135697 )     5.10755111
  WF centre and spread    9  ( -0.949811,  1.250619, -0.593327 )     4.57534814
  WF centre and spread   10  (  0.949811, -4.606192, -5.587707 )     4.57538143
  WF centre and spread   11  (  1.040644, -1.257595,  0.620437 )     4.54181001
  WF centre and spread   12  ( -1.040645,  4.599219,  5.560600 )     4.54186213
  WF centre and spread   13  (  0.542580, -0.909000,  4.978245 )     4.82372784
  WF centre and spread   14  ( -1.458378,  0.909130, -4.978286 )     4.82393919
  WF centre and spread   15  ( -0.542576,  4.947812,  1.202788 )     4.82373546
  WF centre and spread   16  (  1.458381, -4.947682, -1.202744 )     4.82395091
  WF centre and spread   17  ( -0.523830, -3.957989,  4.049260 )     4.97942503
  WF centre and spread   18  ( -1.476948, -1.899138, -2.131700 )     4.97848060
  WF centre and spread   19  (  1.476944,  3.957673, -4.049326 )     4.97847314
  WF centre and spread   20  (  0.523827,  1.898820,  2.131773 )     4.97941788
  WF centre and spread   21  (  0.995407,  2.627676,  1.975044 )     4.51155962
  WF centre and spread   22  ( -0.995406, -3.229132,  4.205990 )     4.51155800
  WF centre and spread   23  ( -1.005370, -2.627979, -1.974754 )     4.51162752
  WF centre and spread   24  (  1.005370,  3.228829, -4.206277 )     4.51162970
  WF centre and spread   25  ( -0.867408,  5.109545,  1.439939 )     4.45545392
  WF centre and spread   26  (  0.867409, -0.747265,  4.741093 )     4.45545473
  WF centre and spread   27  (  1.133339, -5.109786, -1.439912 )     4.45592186
  WF centre and spread   28  ( -1.133336,  0.747022, -4.741116 )     4.45591205
  WF centre and spread   29  (  1.009237, -1.147761, -0.151255 )     4.70208800
  WF centre and spread   30  ( -1.009237,  4.709049,  6.332291 )     4.70210029
  WF centre and spread   31  ( -0.979597,  1.256397, -0.156310 )     5.01643503
  WF centre and spread   32  (  0.979597, -4.600414, -6.024730 )     5.01646408
  WF centre and spread   33  ( -1.073353,  1.137784, -0.155256 )     5.32555159
  WF centre and spread   34  (  1.073352, -4.719027, -6.025778 )     5.32559781
  WF centre and spread   35  (  0.948781, -1.238555,  0.433352 )     5.49591010
  WF centre and spread   36  ( -0.948781,  4.618255,  5.747687 )     5.49597035
  Sum of centres and spreads (  0.000005,  0.000581,  0.000030 )   174.10409831
 
      7    -0.116E+00     0.9004622054      174.1041015250       0.14  <-- CONV
        O_D=      0.0884989 O_OD=     12.4583432 O_TOT=    174.1041015 <-- SPRD
 Delta: O_D= -0.2714481E-02 O_OD= -0.1132953E+00 O_TOT= -0.1160098E+00 <-- DLTA
 ------------------------------------------------------------------------------
 Cycle:      8
  WF centre and spread    1  ( -1.484244, -4.067997,  3.994322 )     4.81650806
  WF centre and spread    2  (  0.516310,  4.067953, -3.994057 )     4.81294039
  WF centre and spread    3  (  1.484247,  1.788811,  2.186711 )     4.81650373
  WF centre and spread    4  ( -0.516306, -1.788857, -2.186969 )     4.81295743
  WF centre and spread    5  ( -0.404748,  1.145115, -5.045420 )     5.10202885
  WF centre and spread    6  ( -1.595910,  4.711819,  1.135593 )     5.10080045
  WF centre and spread    7  (  1.595907, -1.144990,  5.045441 )     5.10079836
  WF centre and spread    8  (  0.404743, -4.711695, -1.135610 )     5.10201859
  WF centre and spread    9  ( -0.949800,  1.251129, -0.594503 )     4.57287422
  WF centre and spread   10  (  0.949800, -4.605682, -5.586531 )     4.57290688
  WF centre and spread   11  (  1.040821, -1.258120,  0.621544 )     4.53969111
  WF centre and spread   12  ( -1.040821,  4.598694,  5.559492 )     4.53974335
  WF centre and spread   13  (  0.541223, -0.910474,  4.978539 )     4.82197098
  WF centre and spread   14  ( -1.459727,  0.910593, -4.978575 )     4.82232623
  WF centre and spread   15  ( -0.541219,  4.946337,  1.202494 )     4.82197877
  WF centre and spread   16  (  1.459731, -4.946219, -1.202455 )     4.82233757
  WF centre and spread   17  ( -0.522632, -3.960579,  4.047749 )     4.97713211
  WF centre and spread   18  ( -1.478130, -1.896552, -2.133228 )     4.97550554
  WF centre and spread   19  (  1.478126,  3.960258, -4.047798 )     4.97549847
  WF centre and spread   20  (  0.522630,  1.896230,  2.133284 )     4.97712540
  WF centre and spread   21  (  0.995498,  2.630189,  1.973379 )     4.51063747
  WF centre and spread   22  ( -0.995498, -3.226619,  4.207654 )     4.51063547
  WF centre and spread   23  ( -1.005275, -2.630594, -1.972987 )     4.51066339
  WF centre and spread   24  (  1.005276,  3.226214, -4.208045 )     4.51066422
  WF centre and spread   25  ( -0.867404,  5.110507,  1.440531 )     4.44422933
  WF centre and spread   26  (  0.867406, -0.746304,  4.740501 )     4.44423063
  WF centre and spread   27  (  1.133337, -5.110755, -1.440503 )     4.44467933
  WF centre and spread   28  ( -1.133334,  0.746054, -4.740524 )     4.44466898
  WF centre and spread   29  (  1.009145, -1.146843, -0.153430 )     4.69948406
  WF centre and spread   30  ( -1.009145,  4.709967,  6.334466 )     4.69949561
  WF centre and spread   31  ( -0.979677,  1.256437, -0.156680 )     5.01711753
  WF centre and spread   32  (  0.979678, -4.600374, -6.024359 )     5.01714715
  WF centre and spread   33  ( -1.073087,  1.137889, -0.155412 )     5.32450797
  WF centre and spread   34  (  1.073087, -4.718923, -6.025622 )     5.32455407
  WF centre and spread   35  (  0.948918, -1.239430,  0.435987 )     5.49389495
  WF centre and spread   36  ( -0.948918,  4.617380,  5.745051 )     5.49395486
  Sum of centres and spreads (  0.000005,  0.000570,  0.000030 )   173.97421152
 
      8    -0.130E+00     0.6584143880      173.9742147400       0.15  <-- CONV
        O_D=      0.0890598 O_OD=     12.3278956 O_TOT=    173.9742147 <-- SPRD
 Delta: O_D=  0.5608579E-03 O_OD= -0.1304476E+00 O_TOT= -0.1298868E+00 <-- DLTA
 ------------------------------------------------------------------------------
 Cycle:      9
  WF centre and spread    1  ( -1.486497, -4.069068,  3.993176 )     4.80913621
  WF centre and spread    2  (  0.514106,  4.068934, -3.993005 )     4.80502277
  WF centre and spread    3  (  1.486500,  1.787740,  2.187857 )     4.80913281
  WF centre and spread    4  ( -0.514101, -1.787876, -2.188022 )     4.80504014
  WF centre and spread    5  ( -0.402097,  1.145273, -5.045477 )     5.09480548
  WF centre and spread    6  ( -1.598578,  4.711658,  1.135533 )     5.09325128
  WF centre and spread    7  (  1.598574, -1.145152,  5.045501 )     5.09325047
  WF centre and spread    8  (  0.402092, -4.711538, -1.135552 )     5.09479438
  WF centre and spread    9  ( -0.949767,  1.251983, -0.596436 )     4.57059497
  WF centre and spread   10  (  0.949767, -4.604828, -5.584598 )     4.57062526
  WF centre and spread   11  (  1.041143, -1.258996,  0.623372 )     4.53805675
  WF centre and spread   12  ( -1.041143,  4.597818,  5.557665 )     4.53810849
  WF centre and spread   13  (  0.538939, -0.913079,  4.979018 )     4.82117771
  WF centre and spread   14  ( -1.462006,  0.913191, -4.979046 )     4.82173594
  WF centre and spread   15  ( -0.538935,  4.943732,  1.202016 )     4.82118497
  WF centre and spread   16  (  1.462010, -4.943621, -1.201984 )     4.82174627
  WF centre and spread   17  ( -0.520603, -3.965068,  4.045132 )     4.97570468
  WF centre and spread   18  ( -1.480141, -1.892073, -2.135866 )     4.97289366
  WF centre and spread   19  (  1.480137,  3.964738, -4.045159 )     4.97288674
  WF centre and spread   20  (  0.520600,  1.891741,  2.135901 )     4.97569901
  WF centre and spread   21  (  0.995658,  2.634537,  1.970364 )     4.51094198
  WF centre and spread   22  ( -0.995657, -3.222271,  4.210670 )     4.51093974
  WF centre and spread   23  ( -1.005110, -2.635122, -1.969792 )     4.51104621
  WF centre and spread   24  (  1.005110,  3.221686, -4.211239 )     4.51104643
  WF centre and spread   25  ( -0.867435,  5.112119,  1.441530 )     4.42776610
  WF centre and spread   26  (  0.867437, -0.744691,  4.739502 )     4.42776894
  WF centre and spread   27  (  1.133297, -5.112379, -1.441505 )     4.42817458
  WF centre and spread   28  ( -1.133295,  0.744430, -4.739523 )     4.42816373
  WF centre and spread   29  (  1.008956, -1.145227, -0.157248 )     4.69670034
  WF centre and spread   30  ( -1.008956,  4.711583,  6.338285 )     4.69671154
  WF centre and spread   31  ( -0.979853,  1.256517, -0.157323 )     5.01988175
  WF centre and spread   32  (  0.979853, -4.600294, -6.023717 )     5.01991280
  WF centre and spread   33  ( -1.072632,  1.138103, -0.155658 )     5.32485057
  WF centre and spread   34  (  1.072632, -4.718709, -6.025376 )     5.32489720
  WF centre and spread   35  (  0.949156, -1.241007,  0.440557 )     5.49279350
  WF centre and spread   36  ( -0.949156,  4.615804,  5.740481 )     5.49285336
  Sum of centres and spreads (  0.000005,  0.000585,  0.000030 )   173.82929676
 
      9    -0.145E+00     0.6920073240      173.8292999772       0.16  <-- CONV
        O_D=      0.0880062 O_OD=     12.1840344 O_TOT=    173.8293000 <-- SPRD
 Delta: O_D= -0.1053623E-02 O_OD= -0.1438611E+00 O_TOT= -0.1449148E+00 <-- DLTA
 ------------------------------------------------------------------------------
 Cycle:     10
  WF centre and spread    1  ( -1.489484, -4.070501,  3.991564 )     4.80068606
  WF centre and spread    2  (  0.511191,  4.070225, -3.991518 )     4.79578846
  WF centre and spread    3  (  1.489488,  1.786307,  2.189469 )     4.80068382
  WF centre and spread    4  ( -0.511186, -1.786585, -2.189508 )     4.79580730
  WF centre and spread    5  ( -0.398598,  1.145441, -5.045474 )     5.08630331
  WF centre and spread    6  ( -1.602094,  4.711483,  1.135531 )     5.08458912
  WF centre and spread    7  (  1.602090, -1.145327,  5.045502 )     5.08458966
  WF centre and spread    8  (  0.398593, -4.711370, -1.135555 )     5.08629101
  WF centre and spread    9  ( -0.949768,  1.253153, -0.598933 )     4.56847341
  WF centre and spread   10  (  0.949768, -4.603658, -5.582101 )     4.56849978
  WF centre and spread   11  (  1.041558, -1.260189,  0.625745 )     4.53664668
  WF centre and spread   12  ( -1.041558,  4.596625,  5.555291 )     4.53669683
  WF centre and spread   13  (  0.535824, -0.916744,  4.979685 )     4.82127501
  WF centre and spread   14  ( -1.465112,  0.916854, -4.979707 )     4.82190312
  WF centre and spread   15  ( -0.535820,  4.940067,  1.201349 )     4.82128173
  WF centre and spread   16  (  1.465116, -4.939958, -1.201323 )     4.82191254
  WF centre and spread   17  ( -0.517907, -3.971199,  4.041439 )     4.97590099
  WF centre and spread   18  ( -1.482815, -1.885968, -2.139571 )     4.97138345
  WF centre and spread   19  (  1.482811,  3.970843, -4.041455 )     4.97137564
  WF centre and spread   20  (  0.517904,  1.885610,  2.139594 )     4.97589723
  WF centre and spread   21  (  0.995891,  2.640524,  1.966011 )     4.51154670
  WF centre and spread   22  ( -0.995891, -3.216285,  4.215023 )     4.51154365
  WF centre and spread   23  ( -1.004871, -2.641356, -1.965195 )     4.51187551
  WF centre and spread   24  (  1.004872,  3.215452, -4.215836 )     4.51187512
  WF centre and spread   25  ( -0.867540,  5.114273,  1.442798 )     4.40704419
  WF centre and spread   26  (  0.867542, -0.742538,  4.738233 )     4.40704806
  WF centre and spread   27  (  1.133180, -5.114546, -1.442777 )     4.40736399
  WF centre and spread   28  ( -1.133177,  0.742263, -4.738251 )     4.40735266
  WF centre and spread   29  (  1.008653, -1.142936, -0.162641 )     4.69348328
  WF centre and spread   30  ( -1.008652,  4.713873,  6.343677 )     4.69349468
  WF centre and spread   31  ( -0.980154,  1.256636, -0.158182 )     5.02436794
  WF centre and spread   32  (  0.980154, -4.600175, -6.022857 )     5.02440005
  WF centre and spread   33  ( -1.071980,  1.138452, -0.155947 )     5.32609853
  WF centre and spread   34  (  1.071980, -4.718360, -6.025086 )     5.32614627
  WF centre and spread   35  (  0.949504, -1.243296,  0.446900 )     5.49211885
  WF centre and spread   36  ( -0.949504,  4.613514,  5.734138 )     5.49217870
  Sum of centres and spreads (  0.000005,  0.000605,  0.000030 )   173.67392331
 
     10    -0.155E+00     0.7300730722      173.6739265386       0.18  <-- CONV
        O_D=      0.0883008 O_OD=     12.0283664 O_TOT=    173.6739265 <-- SPRD
 Delta: O_D=  0.2946066E-03 O_OD= -0.1556680E+00 O_TOT= -0.1553734E+00 <-- DLTA
 ------------------------------------------------------------------------------
 Cycle:     11
  WF centre and spread    1  ( -1.492692, -4.072052,  3.989703 )     4.79259767
  WF centre and spread    2  (  0.508075,  4.071592, -3.989794 )     4.78682969
  WF centre and spread    3  (  1.492696,  1.784756,  2.191330 )     4.79259670
  WF centre and spread    4  ( -0.508070, -1.785218, -2.191232 )     4.78685308
  WF centre and spread    5  ( -0.394820,  1.145551, -5.045423 )     5.07826233
  WF centre and spread    6  ( -1.605884,  4.711362,  1.135582 )     5.07669604
  WF centre and spread    7  (  1.605880, -1.145447,  5.045452 )     5.07669841
  WF centre and spread    8  (  0.394815, -4.711259, -1.135607 )     5.07824780
  WF centre and spread    9  ( -0.949858,  1.254401, -0.601513 )     4.56755800
  WF centre and spread   10  (  0.949858, -4.602410, -5.579521 )     4.56757633
  WF centre and spread   11  (  1.041953, -1.261452,  0.628212 )     4.53628580
  WF centre and spread   12  ( -1.041953,  4.595363,  5.552824 )     4.53633200
  WF centre and spread   13  (  0.532326, -0.920842,  4.980472 )     4.82172367
  WF centre and spread   14  ( -1.468603,  0.920956, -4.980499 )     4.82224866
  WF centre and spread   15  ( -0.532323,  4.935969,  1.200562 )     4.82172863
  WF centre and spread   16  (  1.468607, -4.935856, -1.200531 )     4.82225838
  WF centre and spread   17  ( -0.514955, -3.977970,  4.037184 )     4.97665706
  WF centre and spread   18  ( -1.485741, -1.879246, -2.143809 )     4.97042530
  WF centre and spread   19  (  1.485737,  3.977564, -4.037217 )     4.97041578
  WF centre and spread   20  (  0.514952,  1.878839,  2.143849 )     4.97665669
  WF centre and spread   21  (  0.996175,  2.647273,  1.960883 )     4.51186655
  WF centre and spread   22  ( -0.996175, -3.209536,  4.220150 )     4.51186336
  WF centre and spread   23  ( -1.004585, -2.648369, -1.959816 )     4.51256580
  WF centre and spread   24  (  1.004585,  3.208439, -4.221215 )     4.51256555
  WF centre and spread   25  ( -0.867700,  5.116621,  1.443997 )     4.38555610
  WF centre and spread   26  (  0.867702, -0.740190,  4.737034 )     4.38556220
  WF centre and spread   27  (  1.133007, -5.116912, -1.443977 )     4.38580780
  WF centre and spread   28  ( -1.133004,  0.739897, -4.737051 )     4.38579574
  WF centre and spread   29  (  1.008269, -1.140255, -0.168950 )     4.69011881
  WF centre and spread   30  ( -1.008269,  4.716554,  6.349986 )     4.69013094
  WF centre and spread   31  ( -0.980549,  1.256739, -0.159044 )     5.02996100
  WF centre and spread   32  (  0.980549, -4.600072, -6.021996 )     5.02999488
  WF centre and spread   33  ( -1.071233,  1.138853, -0.156168 )     5.32756130
  WF centre and spread   34  (  1.071233, -4.717959, -6.024866 )     5.32761176
  WF centre and spread   35  (  0.949901, -1.245957,  0.454057 )     5.49171899
  WF centre and spread   36  ( -0.949901,  4.610853,  5.726982 )     5.49177957
  Sum of centres and spreads (  0.000005,  0.000579,  0.000030 )   173.52910836
 
     11    -0.145E+00     0.7224483879      173.5291115929       0.19  <-- CONV
        O_D=      0.0883785 O_OD=     11.8834737 O_TOT=    173.5291116 <-- SPRD
 Delta: O_D=  0.7771488E-04 O_OD= -0.1448927E+00 O_TOT= -0.1448149E+00 <-- DLTA
 ------------------------------------------------------------------------------
 Cycle:     12
  WF centre and spread    1  ( -1.495596, -4.073467,  3.987918 )     4.78622325
  WF centre and spread    2  (  0.505258,  4.072821, -3.988140 )     4.77975867
  WF centre and spread    3  (  1.495600,  1.783341,  2.193115 )     4.78622317
  WF centre and spread    4  ( -0.505253, -1.783988, -2.192886 )     4.77978443
  WF centre and spread    5  ( -0.391376,  1.145556, -5.045337 )     5.07215500
  WF centre and spread    6  ( -1.609328,  4.711349,  1.135672 )     5.07099765
  WF centre and spread    7  (  1.609324, -1.145461,  5.045362 )     5.07100159
  WF centre and spread    8  (  0.391371, -4.711254, -1.135692 )     5.07213922
  WF centre and spread    9  ( -0.950027,  1.255429, -0.603714 )     4.56784743
  WF centre and spread   10  (  0.950026, -4.601382, -5.577320 )     4.56786323
  WF centre and spread   11  (  1.042246, -1.262482,  0.630317 )     4.53705160
  WF centre and spread   12  ( -1.042246,  4.594332,  5.550719 )     4.53709700
  WF centre and spread   13  (  0.529022, -0.924551,  4.981285 )     4.82229410
  WF centre and spread   14  ( -1.471911,  0.924671, -4.981324 )     4.82258775
  WF centre and spread   15  ( -0.529018,  4.932261,  1.199748 )     4.82229861
  WF centre and spread   16  (  1.471915, -4.932141, -1.199705 )     4.82259705
  WF centre and spread   17  ( -0.512187, -3.984179,  4.033110 )     4.97637231
  WF centre and spread   18  ( -1.488489, -1.873102, -2.147833 )     4.96882298
  WF centre and spread   19  (  1.488485,  3.983708, -4.033193 )     4.96881266
  WF centre and spread   20  (  0.512183,  1.872630,  2.147923 )     4.97637451
  WF centre and spread   21  (  0.996453,  2.653694,  1.955795 )     4.51243520
  WF centre and spread   22  ( -0.996453, -3.203116,  4.225238 )     4.51243098
  WF centre and spread   23  ( -1.004305, -2.655014, -1.954528 )     4.51352242
  WF centre and spread   24  (  1.004305,  3.201795, -4.226504 )     4.51352109
  WF centre and spread   25  ( -0.867886,  5.118824,  1.444837 )     4.36705931
  WF centre and spread   26  (  0.867888, -0.737986,  4.736195 )     4.36706635
  WF centre and spread   27  (  1.132813, -5.119133, -1.444812 )     4.36730618
  WF centre and spread   28  ( -1.132810,  0.737676, -4.736216 )     4.36729374
  WF centre and spread   29  (  1.007874, -1.137622, -0.175213 )     4.68672733
  WF centre and spread   30  ( -1.007874,  4.719187,  6.356249 )     4.68673912
  WF centre and spread   31  ( -0.980958,  1.256782, -0.159682 )     5.03553149
  WF centre and spread   32  (  0.980959, -4.600029, -6.021358 )     5.03556672
  WF centre and spread   33  ( -1.070550,  1.139157, -0.156204 )     5.32853235
  WF centre and spread   34  (  1.070550, -4.717655, -6.024829 )     5.32858396
  WF centre and spread   35  (  0.950253, -1.248475,  0.460743 )     5.49159682
  WF centre and spread   36  ( -0.950253,  4.608335,  5.720295 )     5.49165839
  Sum of centres and spreads (  0.000005,  0.000514,  0.000030 )   173.41387365
 
     12    -0.115E+00     0.6857571699      173.4138768799       0.20  <-- CONV
        O_D=      0.0891522 O_OD=     11.7674653 O_TOT=    173.4138769 <-- SPRD
 Delta: O_D=  0.7737513E-03 O_OD= -0.1160085E+00 O_TOT= -0.1152347E+00 <-- DLTA
 ------------------------------------------------------------------------------
 Cycle:     13
  WF centre and spread    1  ( -1.495843, -4.073596,  3.987728 )     4.78467501
  WF centre and spread    2  (  0.505019,  4.072936, -3.987960 )     4.77823907
  WF centre and spread    3  (  1.495847,  1.783213,  2.193305 )     4.78467412
  WF centre and spread    4  ( -0.505014, -1.783874, -2.193066 )     4.77825865
  WF centre and spread    5  ( -0.391075,  1.145542, -5.045307 )     5.07114063
  WF centre and spread    6  ( -1.609627,  4.711363,  1.135703 )     5.07004437
  WF centre and spread    7  (  1.609623, -1.145447,  5.045330 )     5.07004701
  WF centre and spread    8  (  0.391070, -4.711268, -1.135723 )     5.07112665
  WF centre and spread    9  ( -0.950053,  1.255427, -0.603838 )     4.56695014
  WF centre and spread   10  (  0.950053, -4.601384, -5.577196 )     4.56697518
  WF centre and spread   11  (  1.042257, -1.262475,  0.630430 )     4.53619796
  WF centre and spread   12  ( -1.042257,  4.594339,  5.550606 )     4.53624801
  WF centre and spread   13  (  0.528710, -0.924777,  4.981392 )     4.82030945
  WF centre and spread   14  ( -1.472226,  0.924896, -4.981432 )     4.82056526
  WF centre and spread   15  ( -0.528706,  4.932034,  1.199642 )     4.82031654
  WF centre and spread   16  (  1.472230, -4.931915, -1.199597 )     4.82057345
  WF centre and spread   17  ( -0.511913, -3.984694,  4.032685 )     4.97310593
  WF centre and spread   18  ( -1.488758, -1.872597, -2.148249 )     4.96562165
  WF centre and spread   19  (  1.488754,  3.984213, -4.032777 )     4.96561315
  WF centre and spread   20  (  0.511910,  1.872115,  2.148348 )     4.97310539
  WF centre and spread   21  (  0.996469,  2.654344,  1.955265 )     4.51154648
  WF centre and spread   22  ( -0.996469, -3.202465,  4.225769 )     4.51154117
  WF centre and spread   23  ( -1.004289, -2.655654, -1.954004 )     4.51268736
  WF centre and spread   24  (  1.004289,  3.201154, -4.227027 )     4.51268489
  WF centre and spread   25  ( -0.867912,  5.119074,  1.444800 )     4.36537901
  WF centre and spread   26  (  0.867914, -0.737737,  4.736231 )     4.36538275
  WF centre and spread   27  (  1.132788, -5.119383, -1.444774 )     4.36562347
  WF centre and spread   28  ( -1.132785,  0.737427, -4.736254 )     4.36561165
  WF centre and spread   29  (  1.007826, -1.137374, -0.175950 )     4.68455976
  WF centre and spread   30  ( -1.007826,  4.719435,  6.356986 )     4.68457022
  WF centre and spread   31  ( -0.980992,  1.256787, -0.159618 )     5.03473808
  WF centre and spread   32  (  0.980993, -4.600024, -6.021422 )     5.03477086
  WF centre and spread   33  ( -1.070509,  1.139092, -0.156116 )     5.32709005
  WF centre and spread   34  (  1.070509, -4.717719, -6.024917 )     5.32713883
  WF centre and spread   35  (  0.950272, -1.248655,  0.461296 )     5.49049352
  WF centre and spread   36  ( -0.950272,  4.608156,  5.719742 )     5.49055388
  Sum of centres and spreads (  0.000005,  0.000509,  0.000030 )   173.35815960
 
     13    -0.557E-01     0.6660281620      173.3581628389       0.21  <-- CONV
        O_D=      0.0867614 O_OD=     11.7141420 O_TOT=    173.3581628 <-- SPRD
 Delta: O_D= -0.2390791E-02 O_OD= -0.5332325E-01 O_TOT= -0.5571404E-01 <-- DLTA
 ------------------------------------------------------------------------------
 Cycle:     14
  WF centre and spread    1  ( -1.496916, -4.074184,  3.986949 )     4.78190435
  WF centre and spread    2  (  0.503985,  4.073462, -3.987224 )     4.77559567
  WF centre and spread    3  (  1.496920,  1.782624,  2.194084 )     4.78190528
  WF centre and spread    4  ( -0.503980, -1.783348, -2.193802 )     4.77562012
  WF centre and spread    5  ( -0.389766,  1.145550, -5.045171 )     5.07122565
  WF centre and spread    6  ( -1.610930,  4.711352,  1.135842 )     5.07040027
  WF centre and spread    7  (  1.610926, -1.145458,  5.045191 )     5.07040477
  WF centre and spread    8  (  0.389761, -4.711260, -1.135858 )     5.07121034
  WF centre and spread    9  ( -0.950126,  1.255406, -0.604365 )     4.56684392
  WF centre and spread   10  (  0.950125, -4.601405, -5.576668 )     4.56686478
  WF centre and spread   11  (  1.042344, -1.262435,  0.630910 )     4.53607985
  WF centre and spread   12  ( -1.042344,  4.594380,  5.550126 )     4.53612830
  WF centre and spread   13  (  0.527345, -0.925860,  4.981868 )     4.81802828
  WF centre and spread   14  ( -1.473597,  0.925975, -4.981913 )     4.81814634
  WF centre and spread   15  ( -0.527342,  4.930951,  1.199165 )     4.81803400
  WF centre and spread   16  (  1.473601, -4.930836, -1.199117 )     4.81815481
  WF centre and spread   17  ( -0.510722, -3.986985,  4.030905 )     4.96392883
  WF centre and spread   18  ( -1.489931, -1.870352, -2.149993 )     4.95675162
  WF centre and spread   19  (  1.489926,  3.986458, -4.031033 )     4.95674248
  WF centre and spread   20  (  0.510718,  1.869824,  2.150128 )     4.96393191
  WF centre and spread   21  (  0.996542,  2.657133,  1.952984 )     4.51231407
  WF centre and spread   22  ( -0.996542, -3.199676,  4.228049 )     4.51230845
  WF centre and spread   23  ( -1.004213, -2.658407, -1.951754 )     4.51363961
  WF centre and spread   24  (  1.004213,  3.198402, -4.229278 )     4.51363628
  WF centre and spread   25  ( -0.868045,  5.120155,  1.444673 )     4.36342719
  WF centre and spread   26  (  0.868047, -0.736656,  4.736359 )     4.36343356
  WF centre and spread   27  (  1.132659, -5.120462, -1.444644 )     4.36369240
  WF centre and spread   28  ( -1.132656,  0.736347, -4.736384 )     4.36367928
  WF centre and spread   29  (  1.007616, -1.136301, -0.179135 )     4.67925617
  WF centre and spread   30  ( -1.007616,  4.720508,  6.360171 )     4.67926639
  WF centre and spread   31  ( -0.981145,  1.256823, -0.159350 )     5.03469722
  WF centre and spread   32  (  0.981145, -4.599988, -6.021690 )     5.03473267
  WF centre and spread   33  ( -1.070331,  1.138807, -0.155734 )     5.32471377
  WF centre and spread   34  (  1.070331, -4.718004, -6.025299 )     5.32476470
  WF centre and spread   35  (  0.950356, -1.249424,  0.463687 )     5.48982220
  WF centre and spread   36  ( -0.950356,  4.607386,  5.717351 )     5.48988456
  Sum of centres and spreads (  0.000005,  0.000504,  0.000030 )   173.28117008
 
     14    -0.770E-01     0.4552461304      173.2811733142       0.23  <-- CONV
        O_D=      0.0889521 O_OD=     11.6349619 O_TOT=    173.2811733 <-- SPRD
 Delta: O_D=  0.2190638E-02 O_OD= -0.7918016E-01 O_TOT= -0.7698952E-01 <-- DLTA
 ------------------------------------------------------------------------------
 Cycle:     15
  WF centre and spread    1  ( -1.498898, -4.075311,  3.985499 )     4.77698305
  WF centre and spread    2  (  0.502079,  4.074467, -3.985856 )     4.77096030
  WF centre and spread    3  (  1.498902,  1.781498,  2.195534 )     4.77698364
  WF centre and spread    4  ( -0.502074, -1.782342, -2.195170 )     4.77098219
  WF centre and spread    5  ( -0.387415,  1.145611, -5.044813 )     5.07238905
  WF centre and spread    6  ( -1.613276,  4.711283,  1.136200 )     5.07191084
  WF centre and spread    7  (  1.613272, -1.145526,  5.044833 )     5.07191634
  WF centre and spread    8  (  0.387410, -4.711200, -1.136217 )     5.07237551
  WF centre and spread    9  ( -0.950214,  1.255387, -0.605355 )     4.56774123
  WF centre and spread   10  (  0.950214, -4.601424, -5.575678 )     4.56777083
  WF centre and spread   11  (  1.042562, -1.262374,  0.631812 )     4.53710043
  WF centre and spread   12  ( -1.042562,  4.594440,  5.549225 )     4.53715371
  WF centre and spread   13  (  0.524815, -0.928090,  4.982732 )     4.81511379
  WF centre and spread   14  ( -1.476133,  0.928203, -4.982783 )     4.81510909
  WF centre and spread   15  ( -0.524811,  4.928721,  1.198301 )     4.81512115
  WF centre and spread   16  (  1.476137, -4.928609, -1.198247 )     4.81511622
  WF centre and spread   17  ( -0.508536, -3.991384,  4.027555 )     4.94791096
  WF centre and spread   18  ( -1.492077, -1.866041, -2.153274 )     4.94130636
  WF centre and spread   19  (  1.492073,  3.990769, -4.027752 )     4.94129825
  WF centre and spread   20  (  0.508533,  1.865424,  2.153478 )     4.94791382
  WF centre and spread   21  (  0.996700,  2.662345,  1.948647 )     4.51476148
  WF centre and spread   22  ( -0.996700, -3.194464,  4.232386 )     4.51475431
  WF centre and spread   23  ( -1.004051, -2.663554, -1.947466 )     4.51636608
  WF centre and spread   24  (  1.004051,  3.193255, -4.233565 )     4.51636216
  WF centre and spread   25  ( -0.868369,  5.122244,  1.444541 )     4.36094523
  WF centre and spread   26  (  0.868371, -0.734566,  4.736490 )     4.36095066
  WF centre and spread   27  (  1.132340, -5.122546, -1.444516 )     4.36119512
  WF centre and spread   28  ( -1.132337,  0.734263, -4.736512 )     4.36118240
  WF centre and spread   29  (  1.007210, -1.134285, -0.185114 )     4.66973219
  WF centre and spread   30  ( -1.007209,  4.722524,  6.366150 )     4.66974159
  WF centre and spread   31  ( -0.981456,  1.256934, -0.158918 )     5.03529134
  WF centre and spread   32  (  0.981457, -4.599877, -6.022122 )     5.03532679
  WF centre and spread   33  ( -1.069956,  1.138322, -0.155020 )     5.32241237
  WF centre and spread   34  (  1.069956, -4.718489, -6.026014 )     5.32246287
  WF centre and spread   35  (  0.950544, -1.250949,  0.468250 )     5.49078970
  WF centre and spread   36  ( -0.950544,  4.605862,  5.712788 )     5.49085313
  Sum of centres and spreads (  0.000005,  0.000519,  0.000030 )   173.17628419
 
     15    -0.105E+00     0.5849211380      173.1762874337       0.24  <-- CONV
        O_D=      0.0869382 O_OD=     11.5320898 O_TOT=    173.1762874 <-- SPRD
 Delta: O_D= -0.2013860E-02 O_OD= -0.1028720E+00 O_TOT= -0.1048859E+00 <-- DLTA
 ------------------------------------------------------------------------------
 Cycle:     16
  WF centre and spread    1  ( -1.500753, -4.076383,  3.984068 )     4.77229175
  WF centre and spread    2  (  0.500300,  4.075418, -3.984507 )     4.76647377
  WF centre and spread    3  (  1.500757,  1.780425,  2.196966 )     4.77229120
  WF centre and spread    4  ( -0.500295, -1.781391, -2.196519 )     4.76649300
  WF centre and spread    5  ( -0.385268,  1.145626, -5.044371 )     5.07380209
  WF centre and spread    6  ( -1.615421,  4.711261,  1.136636 )     5.07350637
  WF centre and spread    7  (  1.615416, -1.145549,  5.044398 )     5.07351275
  WF centre and spread    8  (  0.385263, -4.711184, -1.136658 )     5.07379072
  WF centre and spread    9  ( -0.950314,  1.255458, -0.606339 )     4.56869039
  WF centre and spread   10  (  0.950314, -4.601353, -5.574695 )     4.56873015
  WF centre and spread   11  (  1.042777, -1.262401,  0.632712 )     4.53825170
  WF centre and spread   12  ( -1.042777,  4.594414,  5.548325 )     4.53830978
  WF centre and spread   13  (  0.522389, -0.930425,  4.983549 )     4.81468252
  WF centre and spread   14  ( -1.478559,  0.930543, -4.983604 )     4.81461438
  WF centre and spread   15  ( -0.522386,  4.926386,  1.197484 )     4.81469126
  WF centre and spread   16  (  1.478563, -4.926269, -1.197426 )     4.81462006
  WF centre and spread   17  ( -0.506491, -3.995710,  4.024231 )     4.93404705
  WF centre and spread   18  ( -1.494083, -1.861805, -2.156531 )     4.92781367
  WF centre and spread   19  (  1.494078,  3.995005, -4.024495 )     4.92780648
  WF centre and spread   20  (  0.506487,  1.861098,  2.156802 )     4.93404903
  WF centre and spread   21  (  0.996880,  2.667427,  1.944310 )     4.51700793
  WF centre and spread   22  ( -0.996879, -3.189383,  4.236723 )     4.51699954
  WF centre and spread   23  ( -1.003870, -2.668580, -1.943164 )     4.51881255
  WF centre and spread   24  (  1.003871,  3.188229, -4.237867 )     4.51880873
  WF centre and spread   25  ( -0.868762,  5.124403,  1.444478 )     4.35799245
  WF centre and spread   26  (  0.868763, -0.732408,  4.736553 )     4.35799676
  WF centre and spread   27  (  1.131948, -5.124695, -1.444461 )     4.35820057
  WF centre and spread   28  ( -1.131946,  0.732115, -4.736567 )     4.35818881
  WF centre and spread   29  (  1.006811, -1.132257, -0.190928 )     4.66064684
  WF centre and spread   30  ( -1.006811,  4.724552,  6.371963 )     4.66065588
  WF centre and spread   31  ( -0.981784,  1.257048, -0.158641 )     5.03573137
  WF centre and spread   32  (  0.981785, -4.599763, -6.022399 )     5.03576670
  WF centre and spread   33  ( -1.069523,  1.137977, -0.154285 )     5.32176088
  WF centre and spread   34  (  1.069523, -4.718834, -6.026749 )     5.32181112
  WF centre and spread   35  (  0.950761, -1.252631,  0.472801 )     5.49272125
  WF centre and spread   36  ( -0.950761,  4.604179,  5.708237 )     5.49278605
  Sum of centres and spreads (  0.000005,  0.000542,  0.000030 )   173.09435554
 
     16    -0.819E-01     0.5788591550      173.0943587787       0.25  <-- CONV
        O_D=      0.0862584 O_OD=     11.4508410 O_TOT=    173.0943588 <-- SPRD
 Delta: O_D= -0.6798358E-03 O_OD= -0.8124882E-01 O_TOT= -0.8192865E-01 <-- DLTA
 ------------------------------------------------------------------------------
 Cycle:     17
  WF centre and spread    1  ( -1.502955, -4.077679,  3.982268 )     4.76643766
  WF centre and spread    2  (  0.498192,  4.076563, -3.982811 )     4.76074321
  WF centre and spread    3  (  1.502959,  1.779129,  2.198765 )     4.76643631
  WF centre and spread    4  ( -0.498187, -1.780246, -2.198215 )     4.76076336
  WF centre and spread    5  ( -0.382731,  1.145547, -5.043762 )     5.07556868
  WF centre and spread    6  ( -1.617955,  4.711336,  1.137237 )     5.07529350
  WF centre and spread    7  (  1.617951, -1.145474,  5.043797 )     5.07530508
  WF centre and spread    8  (  0.382725, -4.711263, -1.137267 )     5.07556031
  WF centre and spread    9  ( -0.950487,  1.255671, -0.607617 )     4.57008246
  WF centre and spread   10  (  0.950487, -4.601140, -5.573417 )     4.57013923
  WF centre and spread   11  (  1.043008, -1.262556,  0.633897 )     4.53992845
  WF centre and spread   12  ( -1.043009,  4.594258,  5.547140 )     4.53999464
  WF centre and spread   13  (  0.519390, -0.933426,  4.984505 )     4.81741351
  WF centre and spread   14  ( -1.481559,  0.933555, -4.984560 )     4.81733948
  WF centre and spread   15  ( -0.519386,  4.923385,  1.196529 )     4.81742209
  WF centre and spread   16  (  1.481564, -4.923256, -1.196470 )     4.81734211
  WF centre and spread   17  ( -0.504025, -4.001066,  4.020061 )     4.91901979
  WF centre and spread   18  ( -1.496499, -1.856562, -2.160614 )     4.91311289
  WF centre and spread   19  (  1.496494,  4.000248, -4.020412 )     4.91310704
  WF centre and spread   20  (  0.504021,  1.855742,  2.160972 )     4.91902426
  WF centre and spread   21  (  0.997137,  2.673767,  1.938799 )     4.51909860
  WF centre and spread   22  ( -0.997137, -3.183043,  4.242234 )     4.51908871
  WF centre and spread   23  ( -1.003613, -2.674866, -1.937681 )     4.52108292
  WF centre and spread   24  (  1.003613,  3.181943, -4.243350 )     4.52107907
  WF centre and spread   25  ( -0.869303,  5.127259,  1.444439 )     4.35262869
  WF centre and spread   26  (  0.869305, -0.729551,  4.736592 )     4.35263521
  WF centre and spread   27  (  1.131406, -5.127540, -1.444432 )     4.35285545
  WF centre and spread   28  ( -1.131403,  0.729269, -4.736597 )     4.35284405
  WF centre and spread   29  (  1.006332, -1.129621, -0.198111 )     4.65043295
  WF centre and spread   30  ( -1.006332,  4.727188,  6.379146 )     4.65044202
  WF centre and spread   31  ( -0.982201,  1.257158, -0.158501 )     5.03618308
  WF centre and spread   32  (  0.982202, -4.599653, -6.022539 )     5.03622317
  WF centre and spread   33  ( -1.068928,  1.137711, -0.153283 )     5.32260900
  WF centre and spread   34  (  1.068928, -4.719100, -6.027750 )     5.32266262
  WF centre and spread   35  (  0.951049, -1.254977,  0.478562 )     5.49563619
  WF centre and spread   36  ( -0.951049,  4.601833,  5.702477 )     5.49570664
  Sum of centres and spreads (  0.000005,  0.000547,  0.000030 )   173.01124243
 
     17    -0.831E-01     0.5338788062      173.0112456754       0.26  <-- CONV
        O_D=      0.0855096 O_OD=     11.3684767 O_TOT=    173.0112457 <-- SPRD
 Delta: O_D= -0.7487987E-03 O_OD= -0.8236430E-01 O_TOT= -0.8311310E-01 <-- DLTA
 ------------------------------------------------------------------------------
 Cycle:     18
  WF centre and spread    1  ( -1.505879, -4.079449,  3.979755 )     4.75861001
  WF centre and spread    2  (  0.495394,  4.078130, -3.980443 )     4.75292248
  WF centre and spread    3  (  1.505883,  1.777359,  2.201278 )     4.75860666
  WF centre and spread    4  ( -0.495388, -1.778679, -2.200583 )     4.75294140
  WF centre and spread    5  ( -0.379292,  1.145338, -5.042864 )     5.07691923
  WF centre and spread    6  ( -1.621392,  4.711542,  1.138126 )     5.07648935
  WF centre and spread    7  (  1.621388, -1.145268,  5.042907 )     5.07650884
  WF centre and spread    8  (  0.379287, -4.711472, -1.138166 )     5.07691650
  WF centre and spread    9  ( -0.950773,  1.256080, -0.609478 )     4.57167037
  WF centre and spread   10  (  0.950773, -4.600731, -5.571556 )     4.57175937
  WF centre and spread   11  (  1.043289, -1.262883,  0.635632 )     4.54203712
  WF centre and spread   12  ( -1.043290,  4.593932,  5.545405 )     4.54211832
  WF centre and spread   13  (  0.515162, -0.937711,  4.985755 )     4.82461742
  WF centre and spread   14  ( -1.485792,  0.937856, -4.985808 )     4.82458787
  WF centre and spread   15  ( -0.515158,  4.919099,  1.195279 )     4.82462549
  WF centre and spread   16  (  1.485796, -4.918955, -1.195221 )     4.82458534
  WF centre and spread   17  ( -0.500678, -4.008401,  4.014310 )     4.90080678
  WF centre and spread   18  ( -1.499776, -1.849383, -2.166237 )     4.89518773
  WF centre and spread   19  (  1.499772,  4.007427, -4.014789 )     4.89518538
  WF centre and spread   20  (  0.500674,  1.848407,  2.166723 )     4.90081273
  WF centre and spread   21  (  0.997535,  2.682556,  1.931031 )     4.52186395
  WF centre and spread   22  ( -0.997535, -3.174254,  4.250002 )     4.52185240
  WF centre and spread   23  ( -1.003216, -2.683592, -1.929946 )     4.52393996
  WF centre and spread   24  (  1.003216,  3.173218, -4.251084 )     4.52393523
  WF centre and spread   25  ( -0.870146,  5.131428,  1.444438 )     4.34307939
  WF centre and spread   26  (  0.870148, -0.725383,  4.736594 )     4.34308947
  WF centre and spread   27  (  1.130561, -5.131696, -1.444438 )     4.34341553
  WF centre and spread   28  ( -1.130558,  0.725113, -4.736590 )     4.34340484
  WF centre and spread   29  (  1.005698, -1.125843, -0.208038 )     4.63782489
  WF centre and spread   30  ( -1.005698,  4.730966,  6.389074 )     4.63783288
  WF centre and spread   31  ( -0.982780,  1.257287, -0.158496 )     5.03711366
  WF centre and spread   32  (  0.982780, -4.599524, -6.022544 )     5.03716163
  WF centre and spread   33  ( -1.068066,  1.137443, -0.151789 )     5.32475185
  WF centre and spread   34  (  1.068066, -4.719368, -6.029245 )     5.32480972
  WF centre and spread   35  (  0.951444, -1.258447,  0.486655 )     5.49932765
  WF centre and spread   36  ( -0.951444,  4.598363,  5.694383 )     5.49940693
  Sum of centres and spreads (  0.000005,  0.000500,  0.000030 )   172.91071836
 
     18    -0.101E+00     0.5790087280      172.9107216094       0.27  <-- CONV
        O_D=      0.0864706 O_OD=     11.2669917 O_TOT=    172.9107216 <-- SPRD
 Delta: O_D=  0.9609860E-03 O_OD= -0.1014851E+00 O_TOT= -0.1005241E+00 <-- DLTA
 ------------------------------------------------------------------------------
 Cycle:     19
  WF centre and spread    1  ( -1.506099, -4.079583,  3.979602 )     4.75645595
[...]
  WF centre and spread   13  (  0.330608, -1.142045,  5.002912 )     5.04702394
  WF centre and spread   14  ( -1.670169,  1.142044, -5.002909 )     5.04692429
  WF centre and spread   15  ( -0.330602,  4.714764,  1.178121 )     5.04702140
  WF centre and spread   16  (  1.670177, -4.714763, -1.178118 )     5.04691136
  WF centre and spread   17  ( -0.477567, -4.091810,  3.931564 )     4.60855741
  WF centre and spread   18  ( -1.523231, -1.764999, -2.249468 )     4.60860392
  WF centre and spread   19  (  1.523226,  4.091808, -3.931559 )     4.60860193
  WF centre and spread   20  (  0.477563,  1.764997,  2.249469 )     4.60854657
  WF centre and spread   21  (  1.000388,  2.786550,  1.789795 )     4.62830385
  WF centre and spread   22  ( -1.000388, -3.070263,  4.391238 )     4.62829812
  WF centre and spread   23  ( -1.000391, -2.786562, -1.789789 )     4.62833701
  WF centre and spread   24  (  1.000391,  3.070251, -4.391240 )     4.62833981
  WF centre and spread   25  ( -1.000378,  5.333175,  1.426062 )     3.73103838
  WF centre and spread   26  (  1.000379, -0.523639,  4.754971 )     3.73102717
  WF centre and spread   27  (  1.000392, -5.333179, -1.426066 )     3.73106323
  WF centre and spread   28  ( -1.000392,  0.523635, -4.754965 )     3.73104433
  WF centre and spread   29  (  0.999979, -1.023063, -0.398985 )     4.43134106
  WF centre and spread   30  ( -0.999979,  4.833747,  6.580020 )     4.43134164
  WF centre and spread   31  ( -1.036972,  1.354795, -0.640850 )     5.35009585
  WF centre and spread   32  (  1.036972, -4.502014, -5.540184 )     5.35014388
  WF centre and spread   33  ( -1.000632,  1.022812,  0.398829 )     4.43211504
  WF centre and spread   34  (  1.000631, -4.834001, -6.579868 )     4.43213022
  WF centre and spread   35  (  0.922201, -1.350870,  0.641869 )     5.30933464
  WF centre and spread   36  ( -0.922203,  4.505939,  5.539169 )     5.30940090
  Sum of centres and spreads (  0.000005,  0.000174,  0.000030 )   167.80023319
 
    496    -0.617E-04     0.0156314826      167.8002365417       5.43  <-- CONV
        O_D=      0.0937788 O_OD=      6.1491984 O_TOT=    167.8002365 <-- SPRD
 Delta: O_D= -0.2407606E-05 O_OD= -0.5926079E-04 O_TOT= -0.6166840E-04 <-- DLTA
 ------------------------------------------------------------------------------
 Cycle:    497
  WF centre and spread    1  ( -1.523165, -4.091841,  3.931558 )     4.60772132
  WF centre and spread    2  (  0.477568,  4.091828, -3.931566 )     4.60780493
  WF centre and spread    3  (  1.523170,  1.764966,  2.249476 )     4.60771429
  WF centre and spread    4  ( -0.477562, -1.764979, -2.249461 )     4.60781070
  WF centre and spread    5  ( -0.330619,  1.142072, -5.002858 )     5.04760651
  WF centre and spread    6  ( -1.670163,  4.714739,  1.178169 )     5.04748863
  WF centre and spread    7  (  1.670158, -1.142070,  5.002864 )     5.04749348
  WF centre and spread    8  (  0.330612, -4.714736, -1.178170 )     5.04759137
  WF centre and spread    9  ( -0.963336,  1.271284, -0.661415 )     4.50153626
  WF centre and spread   10  (  0.963335, -4.585526, -5.519619 )     4.50157850
  WF centre and spread   11  (  1.079441, -1.274858,  0.660556 )     4.53542222
  WF centre and spread   12  ( -1.079439,  4.581957,  5.520480 )     4.53548094
  WF centre and spread   13  (  0.330609, -1.142049,  5.002910 )     5.04703973
  WF centre and spread   14  ( -1.670168,  1.142049, -5.002907 )     5.04693773
  WF centre and spread   15  ( -0.330603,  4.714759,  1.178123 )     5.04703719
  WF centre and spread   16  (  1.670176, -4.714759, -1.178120 )     5.04692480
  WF centre and spread   17  ( -0.477565, -4.091810,  3.931564 )     4.60856381
  WF centre and spread   18  ( -1.523233, -1.764999, -2.249468 )     4.60861215
  WF centre and spread   19  (  1.523227,  4.091808, -3.931559 )     4.60861015
  WF centre and spread   20  (  0.477561,  1.764996,  2.249469 )     4.60855298
  WF centre and spread   21  (  1.000389,  2.786552,  1.789792 )     4.62831861
  WF centre and spread   22  ( -1.000388, -3.070260,  4.391240 )     4.62831287
  WF centre and spread   23  ( -1.000390, -2.786564, -1.789787 )     4.62835439
  WF centre and spread   24  (  1.000390,  3.070250, -4.391242 )     4.62835719
  WF centre and spread   25  ( -1.000378,  5.333175,  1.426058 )     3.73102560
  WF centre and spread   26  (  1.000378, -0.523638,  4.754975 )     3.73101438
  WF centre and spread   27  (  1.000393, -5.333180, -1.426062 )     3.73103764
  WF centre and spread   28  ( -1.000392,  0.523635, -4.754969 )     3.73101873
  WF centre and spread   29  (  0.999978, -1.023061, -0.398985 )     4.43131902
  WF centre and spread   30  ( -0.999978,  4.833749,  6.580021 )     4.43131960
  WF centre and spread   31  ( -1.037062,  1.354786, -0.640851 )     5.35004908
  WF centre and spread   32  (  1.037062, -4.502023, -5.540183 )     5.35009710
  WF centre and spread   33  ( -1.000631,  1.022812,  0.398830 )     4.43208247
  WF centre and spread   34  (  1.000631, -4.834001, -6.579869 )     4.43209764
  WF centre and spread   35  (  0.922041, -1.350849,  0.641873 )     5.30908460
  WF centre and spread   36  ( -0.922043,  4.505960,  5.539166 )     5.30915087
  Sum of centres and spreads (  0.000005,  0.000174,  0.000030 )   167.80016750
 
    497    -0.657E-04     0.0151661786      167.8001708449       5.44  <-- CONV
        O_D=      0.0937715 O_OD=      6.1491400 O_TOT=    167.8001708 <-- SPRD
 Delta: O_D= -0.7315658E-05 O_OD= -0.5838121E-04 O_TOT= -0.6569687E-04 <-- DLTA
 ------------------------------------------------------------------------------
 Cycle:    498
  WF centre and spread    1  ( -1.523165, -4.091841,  3.931558 )     4.60772431
  WF centre and spread    2  (  0.477568,  4.091828, -3.931566 )     4.60780957
  WF centre and spread    3  (  1.523170,  1.764966,  2.249476 )     4.60771728
  WF centre and spread    4  ( -0.477561, -1.764979, -2.249461 )     4.60781533
  WF centre and spread    5  ( -0.330620,  1.142076, -5.002856 )     5.04761938
  WF centre and spread    6  ( -1.670162,  4.714736,  1.178172 )     5.04750167
  WF centre and spread    7  (  1.670157, -1.142073,  5.002861 )     5.04750652
  WF centre and spread    8  (  0.330613, -4.714733, -1.178173 )     5.04760424
  WF centre and spread    9  ( -0.963206,  1.271291, -0.661413 )     4.50159553
  WF centre and spread   10  (  0.963206, -4.585520, -5.519621 )     4.50163778
  WF centre and spread   11  (  1.079671, -1.274886,  0.660549 )     4.53568690
  WF centre and spread   12  ( -1.079669,  4.581929,  5.520487 )     4.53574561
  WF centre and spread   13  (  0.330610, -1.142052,  5.002905 )     5.04704613
  WF centre and spread   14  ( -1.670167,  1.142052, -5.002903 )     5.04694181
  WF centre and spread   15  ( -0.330604,  4.714756,  1.178127 )     5.04704359
  WF centre and spread   16  (  1.670175, -4.714756, -1.178125 )     5.04692889
  WF centre and spread   17  ( -0.477564, -4.091810,  3.931565 )     4.60856930
  WF centre and spread   18  ( -1.523233, -1.764999, -2.249468 )     4.60861902
  WF centre and spread   19  (  1.523228,  4.091808, -3.931559 )     4.60861702
  WF centre and spread   20  (  0.477560,  1.764996,  2.249468 )     4.60855846
  WF centre and spread   21  (  1.000389,  2.786554,  1.789791 )     4.62832890
  WF centre and spread   22  ( -1.000389, -3.070259,  4.391242 )     4.62832316
  WF centre and spread   23  ( -1.000390, -2.786565, -1.789785 )     4.62836443
  WF centre and spread   24  (  1.000390,  3.070249, -4.391244 )     4.62836723
  WF centre and spread   25  ( -1.000378,  5.333178,  1.426050 )     3.73102621
  WF centre and spread   26  (  1.000378, -0.523635,  4.754982 )     3.73101499
  WF centre and spread   27  (  1.000393, -5.333184, -1.426055 )     3.73102838
  WF centre and spread   28  ( -1.000393,  0.523631, -4.754976 )     3.73100948
  WF centre and spread   29  (  0.999977, -1.023061, -0.398986 )     4.43130771
  WF centre and spread   30  ( -0.999977,  4.833749,  6.580021 )     4.43130829
  WF centre and spread   31  ( -1.037191,  1.354774, -0.640854 )     5.34998990
  WF centre and spread   32  (  1.037191, -4.502035, -5.540180 )     5.35003793
  WF centre and spread   33  ( -1.000631,  1.022816,  0.398831 )     4.43205695
  WF centre and spread   34  (  1.000631, -4.833997, -6.579871 )     4.43207212
  WF centre and spread   35  (  0.921813, -1.350820,  0.641880 )     5.30874889
  WF centre and spread   36  ( -0.921814,  4.505989,  5.539159 )     5.30881517
  Sum of centres and spreads (  0.000005,  0.000173,  0.000030 )   167.80008809
 
    498    -0.794E-04     0.0165375226      167.8000914387       5.45  <-- CONV
        O_D=      0.0937730 O_OD=      6.1490590 O_TOT=    167.8000914 <-- SPRD
 Delta: O_D=  0.1553642E-05 O_OD= -0.8095978E-04 O_TOT= -0.7940613E-04 <-- DLTA
 ------------------------------------------------------------------------------
 Cycle:    499
  WF centre and spread    1  ( -1.523165, -4.091840,  3.931557 )     4.60771897
  WF centre and spread    2  (  0.477568,  4.091828, -3.931566 )     4.60780301
  WF centre and spread    3  (  1.523170,  1.764966,  2.249476 )     4.60771194
  WF centre and spread    4  ( -0.477562, -1.764979, -2.249462 )     4.60780879
  WF centre and spread    5  ( -0.330620,  1.142074, -5.002855 )     5.04760597
  WF centre and spread    6  ( -1.670162,  4.714738,  1.178173 )     5.04748882
  WF centre and spread    7  (  1.670157, -1.142072,  5.002860 )     5.04749366
  WF centre and spread    8  (  0.330613, -4.714735, -1.178174 )     5.04759083
  WF centre and spread    9  ( -0.963196,  1.271292, -0.661413 )     4.50160506
  WF centre and spread   10  (  0.963195, -4.585519, -5.519621 )     4.50164730
  WF centre and spread   11  (  1.079689, -1.274888,  0.660549 )     4.53571294
  WF centre and spread   12  ( -1.079687,  4.581926,  5.520487 )     4.53577164
  WF centre and spread   13  (  0.330610, -1.142051,  5.002904 )     5.04703697
  WF centre and spread   14  ( -1.670167,  1.142051, -5.002902 )     5.04693375
  WF centre and spread   15  ( -0.330604,  4.714757,  1.178128 )     5.04703443
  WF centre and spread   16  (  1.670176, -4.714757, -1.178126 )     5.04692083
  WF centre and spread   17  ( -0.477565, -4.091810,  3.931564 )     4.60856554
  WF centre and spread   18  ( -1.523233, -1.764999, -2.249468 )     4.60861434
  WF centre and spread   19  (  1.523227,  4.091808, -3.931559 )     4.60861233
  WF centre and spread   20  (  0.477561,  1.764996,  2.249469 )     4.60855470
  WF centre and spread   21  (  1.000389,  2.786552,  1.789792 )     4.62831736
  WF centre and spread   22  ( -1.000388, -3.070260,  4.391241 )     4.62831162
  WF centre and spread   23  ( -1.000390, -2.786564, -1.789786 )     4.62835244
  WF centre and spread   24  (  1.000390,  3.070249, -4.391243 )     4.62835524
  WF centre and spread   25  ( -1.000378,  5.333180,  1.426050 )     3.73102953
  WF centre and spread   26  (  1.000378, -0.523634,  4.754983 )     3.73101831
  WF centre and spread   27  (  1.000393, -5.333185, -1.426054 )     3.73103956
  WF centre and spread   28  ( -1.000392,  0.523630, -4.754977 )     3.73102065
  WF centre and spread   29  (  0.999977, -1.023062, -0.398985 )     4.43131481
  WF centre and spread   30  ( -0.999977,  4.833748,  6.580021 )     4.43131539
  WF centre and spread   31  ( -1.037201,  1.354773, -0.640855 )     5.34998623
  WF centre and spread   32  (  1.037202, -4.502036, -5.540179 )     5.35003425
  WF centre and spread   33  ( -1.000631,  1.022818,  0.398831 )     4.43206335
  WF centre and spread   34  (  1.000631, -4.833995, -6.579871 )     4.43207852
  WF centre and spread   35  (  0.921795, -1.350817,  0.641881 )     5.30873679
  WF centre and spread   36  ( -0.921796,  4.505992,  5.539157 )     5.30880308
  Sum of centres and spreads (  0.000005,  0.000174,  0.000030 )   167.80000893
 
    499    -0.792E-04     0.0234481938      167.8000122773       5.46  <-- CONV
        O_D=      0.0937694 O_OD=      6.1489835 O_TOT=    167.8000123 <-- SPRD
 Delta: O_D= -0.3635403E-05 O_OD= -0.7552601E-04 O_TOT= -0.7916142E-04 <-- DLTA
 ------------------------------------------------------------------------------
 Cycle:    500
  WF centre and spread    1  ( -1.523163, -4.091839,  3.931557 )     4.60770991
  WF centre and spread    2  (  0.477569,  4.091827, -3.931565 )     4.60779205
  WF centre and spread    3  (  1.523168,  1.764967,  2.249476 )     4.60770288
  WF centre and spread    4  ( -0.477563, -1.764980, -2.249462 )     4.60779782
  WF centre and spread    5  ( -0.330619,  1.142070, -5.002852 )     5.04757921
  WF centre and spread    6  ( -1.670163,  4.714741,  1.178176 )     5.04746363
  WF centre and spread    7  (  1.670158, -1.142068,  5.002858 )     5.04746847
  WF centre and spread    8  (  0.330612, -4.714739, -1.178176 )     5.04756407
  WF centre and spread    9  ( -0.963170,  1.271293, -0.661414 )     4.50162760
  WF centre and spread   10  (  0.963170, -4.585517, -5.519620 )     4.50166985
  WF centre and spread   11  (  1.079734, -1.274894,  0.660549 )     4.53577584
  WF centre and spread   12  ( -1.079732,  4.581920,  5.520487 )     4.53583454
  WF centre and spread   13  (  0.330610, -1.142049,  5.002902 )     5.04702041
  WF centre and spread   14  ( -1.670168,  1.142049, -5.002900 )     5.04691896
  WF centre and spread   15  ( -0.330604,  4.714759,  1.178130 )     5.04701787
  WF centre and spread   16  (  1.670176, -4.714759, -1.178127 )     5.04690603
  WF centre and spread   17  ( -0.477567, -4.091810,  3.931564 )     4.60855960
  WF centre and spread   18  ( -1.523231, -1.764999, -2.249469 )     4.60860705
  WF centre and spread   19  (  1.523226,  4.091808, -3.931558 )     4.60860506
  WF centre and spread   20  (  0.477563,  1.764997,  2.249470 )     4.60854877
  WF centre and spread   21  (  1.000388,  2.786550,  1.789794 )     4.62830119
  WF centre and spread   22  ( -1.000388, -3.070262,  4.391238 )     4.62829546
  WF centre and spread   23  ( -1.000391, -2.786563, -1.789788 )     4.62833352
  WF centre and spread   24  (  1.000391,  3.070251, -4.391241 )     4.62833631
  WF centre and spread   25  ( -1.000378,  5.333183,  1.426047 )     3.73104356
  WF centre and spread   26  (  1.000378, -0.523630,  4.754986 )     3.73103235
  WF centre and spread   27  (  1.000393, -5.333188, -1.426052 )     3.73106634
  WF centre and spread   28  ( -1.000393,  0.523627, -4.754980 )     3.73104743
  WF centre and spread   29  (  0.999977, -1.023065, -0.398985 )     4.43133359
  WF centre and spread   30  ( -0.999977,  4.833745,  6.580020 )     4.43133417
  WF centre and spread   31  ( -1.037227,  1.354771, -0.640858 )     5.34997993
  WF centre and spread   32  (  1.037227, -4.502038, -5.540176 )     5.35002795
  WF centre and spread   33  ( -1.000631,  1.022822,  0.398832 )     4.43207993
  WF centre and spread   34  (  1.000631, -4.833991, -6.579871 )     4.43209510
  WF centre and spread   35  (  0.921749, -1.350811,  0.641884 )     5.30870009
  WF centre and spread   36  ( -0.921751,  4.505998,  5.539154 )     5.30876638
  Sum of centres and spreads (  0.000005,  0.000175,  0.000030 )   167.79994294
 
    500    -0.660E-04     0.0165440783      167.7999462822       5.47  <-- CONV
        O_D=      0.0937748 O_OD=      6.1489121 O_TOT=    167.7999463 <-- SPRD
 Delta: O_D=  0.5418585E-05 O_OD= -0.7141365E-04 O_TOT= -0.6599507E-04 <-- DLTA
 ------------------------------------------------------------------------------

 Writing checkpoint file mp-2160.chk... done

 Final State
  WF centre and spread    1  ( -1.523163, -4.091839,  3.931557 )     4.60770991
  WF centre and spread    2  (  0.477569,  4.091827, -3.931565 )     4.60779205
  WF centre and spread    3  (  1.523168,  1.764967,  2.249476 )     4.60770288
  WF centre and spread    4  ( -0.477563, -1.764980, -2.249462 )     4.60779782
  WF centre and spread    5  ( -0.330619,  1.142070, -5.002852 )     5.04757921
  WF centre and spread    6  ( -1.670163,  4.714741,  1.178176 )     5.04746363
  WF centre and spread    7  (  1.670158, -1.142068,  5.002858 )     5.04746847
  WF centre and spread    8  (  0.330612, -4.714739, -1.178176 )     5.04756407
  WF centre and spread    9  ( -0.963170,  1.271293, -0.661414 )     4.50162760
  WF centre and spread   10  (  0.963170, -4.585517, -5.519620 )     4.50166985
  WF centre and spread   11  (  1.079734, -1.274894,  0.660549 )     4.53577584
  WF centre and spread   12  ( -1.079732,  4.581920,  5.520487 )     4.53583454
  WF centre and spread   13  (  0.330610, -1.142049,  5.002902 )     5.04702041
  WF centre and spread   14  ( -1.670168,  1.142049, -5.002900 )     5.04691896
  WF centre and spread   15  ( -0.330604,  4.714759,  1.178130 )     5.04701787
  WF centre and spread   16  (  1.670176, -4.714759, -1.178127 )     5.04690603
  WF centre and spread   17  ( -0.477567, -4.091810,  3.931564 )     4.60855960
  WF centre and spread   18  ( -1.523231, -1.764999, -2.249469 )     4.60860705
  WF centre and spread   19  (  1.523226,  4.091808, -3.931558 )     4.60860506
  WF centre and spread   20  (  0.477563,  1.764997,  2.249470 )     4.60854877
  WF centre and spread   21  (  1.000388,  2.786550,  1.789794 )     4.62830119
  WF centre and spread   22  ( -1.000388, -3.070262,  4.391238 )     4.62829546
  WF centre and spread   23  ( -1.000391, -2.786563, -1.789788 )     4.62833352
  WF centre and spread   24  (  1.000391,  3.070251, -4.391241 )     4.62833631
  WF centre and spread   25  ( -1.000378,  5.333183,  1.426047 )     3.73104356
  WF centre and spread   26  (  1.000378, -0.523630,  4.754986 )     3.73103235
  WF centre and spread   27  (  1.000393, -5.333188, -1.426052 )     3.73106634
  WF centre and spread   28  ( -1.000393,  0.523627, -4.754980 )     3.73104743
  WF centre and spread   29  (  0.999977, -1.023065, -0.398985 )     4.43133359
  WF centre and spread   30  ( -0.999977,  4.833745,  6.580020 )     4.43133417
  WF centre and spread   31  ( -1.037227,  1.354771, -0.640858 )     5.34997993
  WF centre and spread   32  (  1.037227, -4.502038, -5.540176 )     5.35002795
  WF centre and spread   33  ( -1.000631,  1.022822,  0.398832 )     4.43207993
  WF centre and spread   34  (  1.000631, -4.833991, -6.579871 )     4.43209510
  WF centre and spread   35  (  0.921749, -1.350811,  0.641884 )     5.30870009
  WF centre and spread   36  ( -0.921751,  4.505998,  5.539154 )     5.30876638
  Sum of centres and spreads (  0.000005,  0.000175,  0.000030 )   167.79994294
 
         Spreads (Ang^2)       Omega I      =   161.557259372
        ================       Omega D      =     0.093774800
                               Omega OD     =     6.148912110
    Final Spread (Ang^2)       Omega Total  =   167.799946282
 ------------------------------------------------------------------------------
 Time for wannierise            5.438 (sec)

 Writing checkpoint file mp-2160.chk... done

 Time for plotting              0.000 (sec)
 Total Execution Time           6.658 (sec)

 *===========================================================================*
 |                             TIMING INFORMATION                            |
 *===========================================================================*
 |    Tag                                                Ncalls      Time (s)|
 |---------------------------------------------------------------------------|
 |kmesh: get                                        :         1         0.111|
 |overlap: allocate                                 :         1         0.005|
 |overlap: read                                     :         1         1.056|
 |wann: main                                        :         1         5.438|
 |plot: main                                        :         1         0.000|
 *---------------------------------------------------------------------------*
 
 All done: wannier90 exiting
