
     Program PWSCF v.7.1 starts on  8Apr2024 at 15:10:44 

     This program is part of the open-source Quantum ESPRESSO suite
     for quantum simulation of materials; please cite
         "P. Giannozzi et al., J. Phys.:Condens. Matter 21 395502 (2009);
         "P. Giannozzi et al., J. Phys.:Condens. Matter 29 465901 (2017);
         "P. Giannozzi et al., J. Chem. Phys. 152 154105 (2020);
          URL http://www.quantum-espresso.org", 
     in publications or presentations arising from this work. More details at
     http://www.quantum-espresso.org/quote

     Parallel version (MPI), running on    16 processors

     MPI processes distributed on     1 nodes
     246206 MiB available memory on the printing compute node when the environment starts
 
     Reading input from pw_mp-804_scf_k3000_E65.in
Warning: card &CELL ignored
Warning: card / ignored

     Current dimensions of program PWSCF are:
     Max number of different atomic species (ntypx) = 10
     Max number of k-points (npk) =  40000
     Max angular momentum in pseudopotentials (lmaxx) =  4
 
     R & G space division:  proc/nbgrp/npool/nimage =      16
     Subspace diagonalization in iterative solution of the eigenvalue problem:
     a serial algorithm will be used

 
     Parallelization info
     --------------------
     sticks:   dense  smooth     PW     G-vecs:    dense   smooth      PW
     Min          40      40     12                 1362     1362     217
     Max          41      41     14                 1369     1369     220
     Sum         649     649    199                21843    21843    3489
 
     Using Slab Decomposition
 


     bravais-lattice index     =            4
     lattice parameter (alat)  =       6.0262  a.u.
     unit-cell volume          =     308.5900 (a.u.)^3
     number of atoms/cell      =            4
     number of atomic types    =            2
     number of electrons       =        36.00
     number of Kohn-Sham states=           36
     kinetic-energy cutoff     =      65.0000  Ry
     charge density cutoff     =     260.0000  Ry
     scf convergence threshold =      1.0E-10
     mixing beta               =       0.7000
     number of iterations used =            8  plain     mixing
     Exchange-correlation= PBE
                           (   1   4   3   4   0   0   0)

     celldm(1)=   6.026205  celldm(2)=   0.000000  celldm(3)=   1.628244
     celldm(4)=   0.000000  celldm(5)=   0.000000  celldm(6)=   0.000000

     crystal axes: (cart. coord. in units of alat)
               a(1) = (   1.000000   0.000000   0.000000 )  
               a(2) = (  -0.500000   0.866025   0.000000 )  
               a(3) = (   0.000000   0.000000   1.628244 )  

     reciprocal axes: (cart. coord. in units 2 pi/alat)
               b(1) = (  1.000000  0.577350  0.000000 )  
               b(2) = (  0.000000  1.154701  0.000000 )  
               b(3) = (  0.000000  0.000000  0.614159 )  


     PseudoPot. # 1 for Ga read from file:
     /usr/scratch4/magr4826/Promotion/Python/Code/devEb/pseudo/SG15/Ga.upf
     MD5 check sum: 9961a622ff199abf6dfec9a0a10b8555
     Pseudo is Norm-conserving, Zval = 13.0
     Generated using ONCVPSP code by D. R. Hamann
     Using radial grid of  602 points,  6 beta functions with: 
                l(1) =   0
                l(2) =   0
                l(3) =   1
                l(4) =   1
                l(5) =   2
                l(6) =   2

     PseudoPot. # 2 for N  read from file:
     /usr/scratch4/magr4826/Promotion/Python/Code/devEb/pseudo/SG15/N.upf
     MD5 check sum: c233fa8df51455e992258b7c3dee8a9f
     Pseudo is Norm-conserving, Zval =  5.0
     Generated using ONCVPSP code by D. R. Hamann
     Using radial grid of  602 points,  4 beta functions with: 
                l(1) =   0
                l(2) =   0
                l(3) =   1
                l(4) =   1

     atomic species   valence    mass     pseudopotential
        Ga            13.00    69.72300     Ga( 1.00)
        N              5.00    14.00670     N ( 1.00)

     12 Sym. Ops. (no inversion) found ( 6 have fractional translation)



   Cartesian axes

     site n.     atom                  positions (alat units)
         1           Ga  tau(   1) = (   0.0000000   0.5773502   0.8126302  )
         2           Ga  tau(   2) = (   0.5000000   0.2886752   1.6267523  )
         3           N   tau(   3) = (   0.0000000   0.5773502   1.4262057  )
         4           N   tau(   4) = (   0.5000000   0.2886752   0.6120835  )

     number of k points=    56  Gaussian smearing, width (Ry)=  0.0005
                       cart. coord. in units 2pi/alat
        k(    1) = (   0.0000000   0.0000000   0.0000000), wk =   0.0033333
        k(    2) = (   0.0000000   0.0000000   0.1023598), wk =   0.0066667
        k(    3) = (   0.0000000   0.0000000   0.2047195), wk =   0.0066667
        k(    4) = (   0.0000000   0.0000000  -0.3070793), wk =   0.0033333
        k(    5) = (   0.0000000   0.1154701   0.0000000), wk =   0.0200000
        k(    6) = (   0.0000000   0.1154701   0.1023598), wk =   0.0400000
        k(    7) = (   0.0000000   0.1154701   0.2047195), wk =   0.0400000
        k(    8) = (   0.0000000   0.1154701  -0.3070793), wk =   0.0200000
        k(    9) = (   0.0000000   0.2309401   0.0000000), wk =   0.0200000
        k(   10) = (   0.0000000   0.2309401   0.1023598), wk =   0.0400000
        k(   11) = (   0.0000000   0.2309401   0.2047195), wk =   0.0400000
        k(   12) = (   0.0000000   0.2309401  -0.3070793), wk =   0.0200000
        k(   13) = (   0.0000000   0.3464102   0.0000000), wk =   0.0200000
        k(   14) = (   0.0000000   0.3464102   0.1023598), wk =   0.0400000
        k(   15) = (   0.0000000   0.3464102   0.2047195), wk =   0.0400000
        k(   16) = (   0.0000000   0.3464102  -0.3070793), wk =   0.0200000
        k(   17) = (   0.0000000   0.4618802   0.0000000), wk =   0.0200000
        k(   18) = (   0.0000000   0.4618802   0.1023598), wk =   0.0400000
        k(   19) = (   0.0000000   0.4618802   0.2047195), wk =   0.0400000
        k(   20) = (   0.0000000   0.4618802  -0.3070793), wk =   0.0200000
        k(   21) = (   0.0000000  -0.5773503   0.0000000), wk =   0.0100000
        k(   22) = (   0.0000000  -0.5773503   0.1023598), wk =   0.0200000
        k(   23) = (   0.0000000  -0.5773503   0.2047195), wk =   0.0200000
        k(   24) = (   0.0000000  -0.5773503  -0.3070793), wk =   0.0100000
        k(   25) = (   0.1000000   0.1732051   0.0000000), wk =   0.0200000
        k(   26) = (   0.1000000   0.1732051   0.1023598), wk =   0.0400000
        k(   27) = (   0.1000000   0.1732051   0.2047195), wk =   0.0400000
        k(   28) = (   0.1000000   0.1732051  -0.3070793), wk =   0.0200000
        k(   29) = (   0.1000000   0.2886751   0.0000000), wk =   0.0400000
        k(   30) = (   0.1000000   0.2886751   0.1023598), wk =   0.0800000
        k(   31) = (   0.1000000   0.2886751   0.2047195), wk =   0.0800000
        k(   32) = (   0.1000000   0.2886751  -0.3070793), wk =   0.0400000
        k(   33) = (   0.1000000   0.4041452   0.0000000), wk =   0.0400000
        k(   34) = (   0.1000000   0.4041452   0.1023598), wk =   0.0800000
        k(   35) = (   0.1000000   0.4041452   0.2047195), wk =   0.0800000
        k(   36) = (   0.1000000   0.4041452  -0.3070793), wk =   0.0400000
        k(   37) = (   0.1000000   0.5196152   0.0000000), wk =   0.0400000
        k(   38) = (   0.1000000   0.5196152   0.1023598), wk =   0.0800000
        k(   39) = (   0.1000000   0.5196152   0.2047195), wk =   0.0800000
        k(   40) = (   0.1000000   0.5196152  -0.3070793), wk =   0.0400000
        k(   41) = (   0.2000000   0.3464102   0.0000000), wk =   0.0200000
        k(   42) = (   0.2000000   0.3464102   0.1023598), wk =   0.0400000
        k(   43) = (   0.2000000   0.3464102   0.2047195), wk =   0.0400000
        k(   44) = (   0.2000000   0.3464102  -0.3070793), wk =   0.0200000
        k(   45) = (   0.2000000   0.4618802   0.0000000), wk =   0.0400000
        k(   46) = (   0.2000000   0.4618802   0.1023598), wk =   0.0800000
        k(   47) = (   0.2000000   0.4618802   0.2047195), wk =   0.0800000
        k(   48) = (   0.2000000   0.4618802  -0.3070793), wk =   0.0400000
        k(   49) = (   0.2000000   0.5773503   0.0000000), wk =   0.0200000
        k(   50) = (   0.2000000   0.5773503   0.1023598), wk =   0.0400000
        k(   51) = (   0.2000000   0.5773503   0.2047195), wk =   0.0400000
        k(   52) = (   0.2000000   0.5773503  -0.3070793), wk =   0.0200000
        k(   53) = (   0.3000000   0.5196152   0.0000000), wk =   0.0200000
        k(   54) = (   0.3000000   0.5196152   0.1023598), wk =   0.0400000
        k(   55) = (   0.3000000   0.5196152   0.2047195), wk =   0.0400000
        k(   56) = (   0.3000000   0.5196152  -0.3070793), wk =   0.0200000

     Dense  grid:    21843 G-vectors     FFT dimensions: (  32,  32,  54)

     Estimated max dynamical RAM per process >       9.58 MB

     Estimated total dynamical RAM >     153.26 MB

     Initial potential from superposition of free atoms

     starting charge      35.8431, renormalised to      36.0000
     Starting wfcs are random

     total cpu time spent up to now is        0.4 secs

     Self-consistent Calculation

     iteration #  1     ecut=    65.00 Ry     beta= 0.70
     Davidson diagonalization with overlap
     c_bands:  1 eigenvalues not converged
     c_bands:  1 eigenvalues not converged
     c_bands:  1 eigenvalues not converged
     c_bands:  1 eigenvalues not converged
     c_bands:  1 eigenvalues not converged
     c_bands:  2 eigenvalues not converged
     c_bands:  1 eigenvalues not converged
     c_bands:  1 eigenvalues not converged
     c_bands:  1 eigenvalues not converged
     c_bands:  3 eigenvalues not converged
     c_bands:  1 eigenvalues not converged
     c_bands:  1 eigenvalues not converged
     c_bands:  1 eigenvalues not converged
     c_bands:  1 eigenvalues not converged
     c_bands:  1 eigenvalues not converged
     c_bands:  2 eigenvalues not converged
     c_bands:  2 eigenvalues not converged
     c_bands:  2 eigenvalues not converged
     c_bands:  1 eigenvalues not converged
     ethr =  5.00E-06,  avg # of iterations = 19.2

     total cpu time spent up to now is        4.5 secs

     total energy              =    -302.05724019 Ry
     estimated scf accuracy    <       1.02573404 Ry

     iteration #  2     ecut=    65.00 Ry     beta= 0.70
     Davidson diagonalization with overlap
     ethr =  2.85E-03,  avg # of iterations =  2.3

     total cpu time spent up to now is        7.2 secs

     total energy              =    -302.33588647 Ry
     estimated scf accuracy    <       0.98746226 Ry

     iteration #  3     ecut=    65.00 Ry     beta= 0.70
     Davidson diagonalization with overlap
     ethr =  2.74E-03,  avg # of iterations =  1.9

     total cpu time spent up to now is        9.2 secs

     total energy              =    -302.51829631 Ry
     estimated scf accuracy    <       0.00361330 Ry

     iteration #  4     ecut=    65.00 Ry     beta= 0.70
     Davidson diagonalization with overlap
     ethr =  1.00E-05,  avg # of iterations =  5.1

     total cpu time spent up to now is       10.5 secs

     total energy              =    -302.51928422 Ry
     estimated scf accuracy    <       0.00056049 Ry

     iteration #  5     ecut=    65.00 Ry     beta= 0.70
     Davidson diagonalization with overlap
     ethr =  1.56E-06,  avg # of iterations =  2.4

     total cpu time spent up to now is       11.5 secs

     total energy              =    -302.51931922 Ry
     estimated scf accuracy    <       0.00003564 Ry

     iteration #  6     ecut=    65.00 Ry     beta= 0.70
     Davidson diagonalization with overlap
     ethr =  9.90E-08,  avg # of iterations =  5.0

     total cpu time spent up to now is       12.8 secs

     total energy              =    -302.51932485 Ry
     estimated scf accuracy    <       0.00000043 Ry

     iteration #  7     ecut=    65.00 Ry     beta= 0.70
     Davidson diagonalization with overlap
     ethr =  1.19E-09,  avg # of iterations =  6.4

     total cpu time spent up to now is       14.3 secs

     total energy              =    -302.51932480 Ry
     estimated scf accuracy    <       0.00000136 Ry

     iteration #  8     ecut=    65.00 Ry     beta= 0.70
     Davidson diagonalization with overlap
     ethr =  1.19E-09,  avg # of iterations =  2.0

     total cpu time spent up to now is       15.7 secs

     total energy              =    -302.51932485 Ry
     estimated scf accuracy    <       0.00000009 Ry

     iteration #  9     ecut=    65.00 Ry     beta= 0.70
     Davidson diagonalization with overlap
     ethr =  2.36E-10,  avg # of iterations =  3.1

     total cpu time spent up to now is       16.7 secs

     total energy              =    -302.51932486 Ry
     estimated scf accuracy    <          2.0E-09 Ry

     iteration # 10     ecut=    65.00 Ry     beta= 0.70
     Davidson diagonalization with overlap
     ethr =  5.46E-12,  avg # of iterations =  5.8

     total cpu time spent up to now is       17.6 secs

     End of self-consistent calculation

          k = 0.0000 0.0000 0.0000 (  2743 PWs)   bands (ev):

    -5.2248  -4.3589  -2.8281  -2.8187  -2.8187  -2.7599  -2.7599  -2.5709
    -2.5709  -2.4744  -2.4744  -1.1879   3.6867   9.6800   9.6800  10.6729
    10.7069  10.7069  12.6629  14.9942  19.9174  20.6393  20.6393  21.4802
    22.4469  22.4469  25.3443  26.3986  26.3986  28.6484  28.6484  28.9009
    28.9611  32.4139  34.8922  34.8922

          k = 0.0000 0.0000 0.1024 (  2743 PWs)   bands (ev):

    -5.1454  -4.3859  -2.8173  -2.8173  -2.8041  -2.7662  -2.7662  -2.5620
    -2.5620  -2.4788  -2.4788  -1.4669   4.1857   9.7456   9.7456   9.8691
    10.6342  10.6342  13.3395  15.0497  19.7264  20.6719  20.6719  20.8364
    22.1965  22.1965  25.6223  26.7698  26.7698  28.6938  29.1042  29.1042
    30.0026  32.4670  33.9561  33.9561

          k = 0.0000 0.0000 0.2047 (  2731 PWs)   bands (ev):

    -4.9355  -4.4845  -2.8115  -2.8115  -2.7817  -2.7817  -2.7064  -2.5399
    -2.5399  -2.4921  -2.4921  -2.0131   5.3859   8.4374   9.9273   9.9273
    10.4404  10.4404  14.3335  15.1391  19.3315  19.7794  20.8201  20.8201
    21.6627  21.6627  26.2231  27.7844  27.7844  27.9848  29.8703  29.8703
    32.3810  32.7039  32.7039  33.0853

          k = 0.0000 0.0000-0.3071 (  2786 PWs)   bands (ev):

    -4.6803  -4.6803  -2.7990  -2.7990  -2.7990  -2.7990  -2.5140  -2.5140
    -2.5140  -2.5140  -2.4621  -2.4621   6.8820   6.8820  10.1796  10.1796
    10.1796  10.1796  14.9889  14.9889  19.2080  19.2080  21.1544  21.1544
    21.1544  21.1544  27.0486  27.0486  29.1470  29.1470  29.1470  29.1470
    33.4968  33.4968  33.4968  33.4968

          k = 0.0000 0.1155 0.0000 (  2743 PWs)   bands (ev):

    -5.1291  -4.3356  -2.8188  -2.8046  -2.7848  -2.7482  -2.7408  -2.5789
    -2.5720  -2.4903  -2.4723  -1.1182   3.8288   8.9668   9.4762   9.8801
    10.5750  10.6176  13.4168  15.5919  19.6186  20.0155  20.8949  21.5625
    22.0217  22.6614  24.4504  25.9085  27.2415  28.5489  29.7704  29.8588
    30.1756  33.1513  34.3600  34.8451

          k = 0.0000 0.1155 0.1024 (  2743 PWs)   bands (ev):

    -5.0536  -4.3589  -2.8126  -2.8027  -2.7692  -2.7523  -2.7473  -2.5661
    -2.5632  -2.4965  -2.4771  -1.3892   4.3064   9.0403   9.4150   9.5475
    10.4018  10.5353  13.8641  15.6385  19.4000  19.9631  20.9302  20.9614
    21.8704  22.4217  25.0923  26.3323  27.4498  28.7350  29.7807  30.1215
    30.7861  33.0073  33.8432  34.2843

          k = 0.0000 0.1155 0.2047 (  2739 PWs)   bands (ev):

    -4.8560  -4.4452  -2.8022  -2.7955  -2.7715  -2.7632  -2.6834  -2.5410
    -2.5293  -2.5117  -2.4916  -1.9251   5.4522   8.2468   9.3115   9.7462
    10.0617  10.3157  14.7268  15.6888  18.9387  19.4354  20.6283  21.0842
    21.5116  21.9118  26.1274  27.4490  27.8728  28.5793  30.0286  30.3336
    31.8960  32.7807  32.9062  34.7696

          k = 0.0000 0.1155-0.3071 (  2742 PWs)   bands (ev):

    -4.6208  -4.6208  -2.7884  -2.7884  -2.7815  -2.7815  -2.5658  -2.5658
    -2.5145  -2.5145  -2.3577  -2.3577   6.8562   6.8562   9.6661   9.6661
    10.0254  10.0254  15.4403  15.4403  18.8490  18.8490  21.0124  21.0124
    21.4184  21.4184  27.1246  27.1246  28.9831  28.9832  29.5066  29.5066
    32.3620  32.3620  34.1077  34.1077

          k = 0.0000 0.2309 0.0000 (  2727 PWs)   bands (ev):

    -4.8833  -4.2840  -2.7886  -2.7735  -2.7202  -2.6907  -2.6557  -2.5990
    -2.5670  -2.5150  -2.4673  -0.9287   4.2293   7.4864   8.5315   9.0015
    10.2586  10.3699  14.5344  16.5242  18.5524  19.4753  20.9814  21.3669
    22.1862  23.1245  23.4724  25.8820  27.2092  30.2089  31.5493  31.7901
    31.9481  33.0739  34.8633  36.3394

          k = 0.0000 0.2309 0.1024 (  2733 PWs)   bands (ev):

    -4.8202  -4.2984  -2.7872  -2.7694  -2.7289  -2.6975  -2.6500  -2.5740
    -2.5594  -2.5080  -2.4731  -1.1748   4.6231   7.6055   8.2590   9.0843
    10.1286  10.2667  14.7149  16.5758  18.4585  19.2537  20.8284  21.4347
    21.7409  22.9417  24.0890  26.2635  27.5134  30.2132  30.7475  32.0421
    32.6813  33.2181  33.8357  35.7783

          k = 0.0000 0.2309 0.2047 (  2729 PWs)   bands (ev):

    -4.6599  -4.3554  -2.7787  -2.7569  -2.7447  -2.7152  -2.6309  -2.5693
    -2.5393  -2.4897  -2.4060  -1.6841   5.5377   7.4292   8.1729   9.3155
     9.6191   9.9964  15.2595  16.5416  18.1907  18.8807  20.5005  21.3551
    21.6550  22.5096  25.1052  27.3302  27.4050  30.3595  30.8008  31.0114
    32.3560  33.3067  34.0556  35.9997

          k = 0.0000 0.2309-0.3071 (  2728 PWs)   bands (ev):

    -4.4801  -4.4801  -2.7624  -2.7624  -2.7374  -2.7374  -2.5987  -2.5987
    -2.5136  -2.5136  -2.1367  -2.1367   6.5563   6.5563   8.8447   8.8447
     9.6458   9.6458  16.0074  16.0074  18.3675  18.3675  20.8141  20.8141
    22.0328  22.0328  26.3413  26.3413  28.9170  28.9170  31.0326  31.0326
    32.4480  32.4480  35.5038  35.5038

          k = 0.0000 0.3464 0.0000 (  2725 PWs)   bands (ev):

    -4.6069  -4.2380  -2.7669  -2.7505  -2.6742  -2.6299  -2.6107  -2.5738
    -2.5412  -2.4609  -2.2961  -0.6932   4.7277   6.1073   7.2023   8.4912
     9.6967  10.0579  15.4164  16.5740  17.7152  19.1662  20.9541  21.4389
    22.1883  23.7491  23.7879  26.9798  27.0498  29.5149  32.5711  33.9421
    34.4747  34.6180  35.2658  36.7915

          k = 0.0000 0.3464 0.1024 (  2721 PWs)   bands (ev):

    -4.5627  -4.2437  -2.7697  -2.7422  -2.6906  -2.6373  -2.6058  -2.5714
    -2.5368  -2.4674  -2.2439  -0.8887   4.8438   6.3683   7.0287   8.5836
     9.7287   9.9365  15.2450  16.6443  17.8244  19.0337  20.7636  21.5992
    21.9614  23.6254  23.8037  27.3174  27.3611  29.5747  32.1853  33.4730
    34.0445  35.0015  35.2800  36.3894

          k = 0.0000 0.3464 0.2047 (  2727 PWs)   bands (ev):

    -4.4548  -4.2715  -2.7694  -2.7222  -2.7196  -2.6585  -2.5973  -2.5739
    -2.5241  -2.4842  -2.0740  -1.3258   5.1601   6.1902   7.5462   8.8431
     9.4535   9.6199  15.2469  16.4635  17.9991  18.8491  20.5393  21.3052
    22.0276  23.1861  24.4539  27.0198  28.1424  30.3268  31.3597  31.8962
    34.3158  34.9972  35.8038  37.5560

          k = 0.0000 0.3464-0.3071 (  2714 PWs)   bands (ev):

    -4.3422  -4.3422  -2.7527  -2.7527  -2.6887  -2.6887  -2.5851  -2.5851
    -2.5051  -2.5051  -1.7631  -1.7631   5.6339   5.6339   8.6121   8.6121
     9.2178   9.2178  15.7808  15.7808  18.4696  18.4696  20.7055  20.7055
    22.6033  22.6033  25.7092  25.7092  29.5186  29.5186  31.3838  31.3838
    34.6376  34.6377  36.7970  36.7970

          k = 0.0000 0.4619 0.0000 (  2720 PWs)   bands (ev):

    -4.4252  -4.2138  -2.7647  -2.7442  -2.6540  -2.6069  -2.5839  -2.5672
    -2.5037  -2.4538  -1.7417  -0.6022   4.5431   5.7303   6.3550   8.1194
     8.9680   9.8100  15.7873  16.3417  17.0275  19.2225  21.0574  21.2418
    22.8003  23.9977  24.4628  27.2665  28.5912  28.8800  32.3436  34.2500
    35.0302  35.9515  36.0497  36.2957

          k = 0.0000 0.4619 0.1024 (  2726 PWs)   bands (ev):

    -4.3966  -4.2141  -2.7708  -2.7327  -2.6672  -2.6223  -2.5923  -2.5418
    -2.5023  -2.4602  -1.6956  -0.7127   4.3945   5.5903   6.7269   8.2177
     9.1719   9.6763  15.3732  16.1373  17.7443  18.9174  20.9636  21.4709
    22.2163  23.9906  24.2536  27.8219  29.0098  29.0883  31.7154  34.3508
    34.4261  35.4768  36.0466  36.7563

          k = 0.0000 0.4619 0.2047 (  2742 PWs)   bands (ev):

    -4.3287  -4.2240  -2.7769  -2.7215  -2.7010  -2.6182  -2.5908  -2.5321
    -2.4974  -2.4744  -1.5505  -0.9880   4.3444   5.0751   7.7240   8.4947
     9.2883   9.3311  14.9801  15.9494  18.1857  18.7499  20.7940  21.1114
    22.0819  23.6806  24.5968  27.1955  29.7371  30.4674  31.6148  32.4325
    34.6324  35.5365  36.1656  36.7506

          k = 0.0000 0.4619-0.3071 (  2732 PWs)   bands (ev):

    -4.2614  -4.2614  -2.7629  -2.7629  -2.6584  -2.6584  -2.5527  -2.5527
    -2.4880  -2.4880  -1.3020  -1.3020   4.5941   4.5941   8.7437   8.7437
     8.8966   8.8966  15.3314  15.3314  18.5322  18.5323  20.6924  20.6924
    22.8908  22.8909  25.7759  25.7759  30.8564  30.8565  31.5459  31.5459
    35.1216  35.1216  36.4531  36.4531

          k = 0.0000-0.5774 0.0000 (  2718 PWs)   bands (ev):

    -4.3682  -4.2074  -2.7680  -2.7441  -2.6474  -2.6104  -2.5678  -2.5552
    -2.4861  -2.4500  -1.2988  -0.7471   4.2800   5.4400   6.5328   7.9843
     8.5248   9.7169  15.7996  16.2969  16.7854  19.3150  21.0704  21.1441
    23.1649  24.0373  24.7330  27.5584  28.2709  30.0829  32.1282  34.1609
    34.6600  34.7656  36.0905  37.0785

          k = 0.0000-0.5774 0.1024 (  2728 PWs)   bands (ev):

    -4.3451  -4.2059  -2.7747  -2.7315  -2.6589  -2.6288  -2.5768  -2.5272
    -2.4854  -2.4563  -1.2734  -0.7910   4.1190   5.1380   6.9900   8.0848
     8.8193   9.5793  15.4214  15.8413  17.7739  18.8975  21.0502  21.3941
    22.2209  24.2431  24.4953  28.2927  28.7325  30.2814  31.4100  34.1512
    34.6654  35.0821  35.1809  36.7379

          k = 0.0000-0.5774 0.2047 (  2750 PWs)   bands (ev):

    -4.2904  -4.2102  -2.7821  -2.7246  -2.6968  -2.6052  -2.5847  -2.5153
    -2.4832  -2.4688  -1.1946  -0.9111   3.9796   4.5760   7.9415   8.3677
     9.1553   9.2238  14.8681  15.7238  18.3193  18.6169  20.9224  20.9522
    22.0643  23.8473  24.8551  27.4179  30.6766  30.8840  31.3590  33.2938
    34.2373  35.0713  35.1236  36.0658

          k = 0.0000-0.5774-0.3071 (  2720 PWs)   bands (ev):

    -4.2373  -4.2373  -2.7689  -2.7689  -2.6496  -2.6496  -2.5387  -2.5387
    -2.4782  -2.4782  -1.0643  -1.0643   4.1355   4.1355   8.7790   8.7790
     8.8317   8.8317  15.1471  15.1471  18.4924  18.4924  20.6960  20.6960
    22.9618  22.9619  25.9757  25.9757  31.6420  31.6420  31.8985  31.8985
    34.7120  34.7120  35.4584  35.4584

          k = 0.1000 0.1732 0.0000 (  2727 PWs)   bands (ev):

    -4.9580  -4.2985  -2.7945  -2.7840  -2.7296  -2.7290  -2.6800  -2.5910
    -2.5718  -2.5135  -2.4675  -0.9878   4.1011   8.0417   8.6148   9.3255
    10.3548  10.3733  14.2784  16.4255  19.1201  19.1659  21.3879  21.4347
    21.5069  23.0830  24.2195  24.8539  28.8788  29.0775  30.0208  31.1904
    32.3663  32.8630  34.7481  35.6802

          k = 0.1000 0.1732 0.1024 (  2729 PWs)   bands (ev):

    -4.8907  -4.3155  -2.7923  -2.7805  -2.7349  -2.7286  -2.6754  -2.5655
    -2.5644  -2.5205  -2.4712  -1.2426   4.5276   8.1627   8.4368   9.2387
    10.2383  10.2550  14.5425  16.4638  18.8564  19.1629  20.9201  21.3135
    21.5907  22.8077  24.9166  25.1806  28.8763  29.2748  30.4779  31.0401
    32.0617  32.9317  34.0734  36.0462

          k = 0.1000 0.1732 0.2047 (  2729 PWs)   bands (ev):

    -4.7182  -4.3810  -2.7833  -2.7700  -2.7495  -2.7352  -2.6451  -2.5609
    -2.5306  -2.5019  -2.4477  -1.7615   5.5355   7.7422   8.5212   9.3224
     9.7873   9.9949  15.2167  16.4458  18.3728  18.9575  20.4392  21.2164
    21.6389  22.3224  26.0032  26.1387  28.3187  29.7736  30.4631  31.2694
    31.9554  32.4367  34.2501  36.0602

          k = 0.1000 0.1732-0.3071 (  2726 PWs)   bands (ev):

    -4.5209  -4.5209  -2.7686  -2.7686  -2.7517  -2.7517  -2.5951  -2.5951
    -2.5141  -2.5141  -2.2081  -2.2081   6.7027   6.7027   9.0750   9.0750
     9.6762   9.6763  15.9948  15.9948  18.4267  18.4267  20.7816  20.7816
    21.8823  21.8823  26.8081  26.8081  28.3769  28.3769  31.1088  31.1088
    32.3063  32.3063  34.6758  34.6758

          k = 0.1000 0.2887 0.0000 (  2736 PWs)   bands (ev):

    -4.6967  -4.2517  -2.7663  -2.7614  -2.6898  -2.6673  -2.6080  -2.5584
    -2.5497  -2.4951  -2.4086  -0.7674   4.5744   6.7524   7.5084   8.5663
     9.9460   9.9535  15.3084  17.1521  18.0769  18.8530  20.7113  21.4123
    21.7622  23.7611  24.0737  25.3483  28.5296  30.4046  31.0647  32.5515
    34.1656  34.1877  35.0447  36.0980

          k = 0.1000 0.2887 0.1024 (  2731 PWs)   bands (ev):

    -4.6456  -4.2601  -2.7637  -2.7583  -2.7012  -2.6755  -2.5996  -2.5717
    -2.5383  -2.4927  -2.3677  -0.9851   4.8408   6.9336   7.3682   8.5639
     9.8036   9.9569  15.3254  17.2032  17.9773  18.8201  20.5587  21.2641
    21.8197  23.3879  24.4202  25.7288  28.5497  30.3728  31.5001  32.1360
    33.1068  34.2627  35.5937  36.5056

          k = 0.1000 0.2887 0.2047 (  2724 PWs)   bands (ev):

    -4.5193  -4.2968  -2.7602  -2.7390  -2.7206  -2.6911  -2.6014  -2.5896
    -2.5231  -2.4963  -2.2126  -1.4566   5.4299   6.7119   7.7528   8.7279
     9.4453   9.6395  15.5917  16.9668  17.9519  18.7306  20.2835  20.9955
    22.0067  22.9005  25.1119  26.4045  28.2088  29.9136  31.4145  32.0732
    33.6457  34.3856  35.1323  36.7505

          k = 0.1000 0.2887-0.3071 (  2720 PWs)   bands (ev):

    -4.3845  -4.3844  -2.7437  -2.7437  -2.7125  -2.7125  -2.6023  -2.6023
    -2.5080  -2.5080  -1.9081  -1.9081   6.0841   6.0841   8.6609   8.6609
     9.1477   9.1477  16.2360  16.2360  18.3542  18.3543  20.5108  20.5109
    22.4145  22.4145  26.1207  26.1207  28.5512  28.5512  32.0967  32.0967
    34.0376  34.0377  35.7711  35.7711

          k = 0.1000 0.4041 0.0000 (  2727 PWs)   bands (ev):

    -4.4739  -4.2206  -2.7670  -2.7415  -2.6485  -2.6170  -2.6057  -2.5688
    -2.5209  -2.4685  -1.9709  -0.5791   4.8250   5.8752   6.5912   7.8875
     9.3057   9.5795  16.1025  16.9398  17.2245  19.0655  20.5760  21.4305
    22.0385  24.1170  24.4870  26.5860  28.5690  29.6207  32.0846  34.1990
    34.5113  35.0474  35.8589  36.5443

          k = 0.1000 0.4041 0.1024 (  2728 PWs)   bands (ev):

    -4.4406  -4.2222  -2.7599  -2.7431  -2.6700  -2.6197  -2.6039  -2.5635
    -2.5138  -2.4763  -1.9190  -0.7286   4.7306   5.9832   6.7362   7.9619
     9.3620   9.5200  15.7359  16.9270  17.6071  18.9586  20.5135  21.1814
    22.0991  23.7906  24.5951  26.8110  28.6862  29.9822  31.8279  33.1766
    34.5735  35.2016  36.3236  37.0931

          k = 0.1000 0.4041 0.2047 (  2732 PWs)   bands (ev):

    -4.3612  -4.2363  -2.7591  -2.7240  -2.7030  -2.6412  -2.5941  -2.5620
    -2.5048  -2.4875  -1.7539  -1.0830   4.7776   5.5737   7.6095   8.2639
     8.9981   9.4914  15.4961  16.6057  18.0492  18.9328  20.3880  20.6575
    22.2666  23.3891  24.9586  26.6967  28.8776  30.3453  31.6781  32.5048
    34.9014  35.5625  36.2346  36.9829

          k = 0.1000 0.4041-0.3071 (  2730 PWs)   bands (ev):

    -4.2819  -4.2819  -2.7461  -2.7461  -2.6748  -2.6748  -2.5783  -2.5783
    -2.4953  -2.4953  -1.4645  -1.4645   5.0886   5.0886   8.4202   8.4202
     8.9377   8.9377  15.8974  15.8974  18.6176  18.6176  20.3464  20.3464
    22.8024  22.8024  25.8090  25.8090  29.5762  29.5762  32.2134  32.2134
    35.4182  35.4182  36.5394  36.5394

          k = 0.1000 0.5196 0.0000 (  2739 PWs)   bands (ev):

    -4.3629  -4.2093  -2.7747  -2.7359  -2.6335  -2.6096  -2.5749  -2.5626
    -2.4984  -2.4610  -1.3869  -0.6394   4.4464   5.5700   6.5127   7.5858
     8.6172   9.3644  16.4048  16.6587  16.7987  19.2298  20.7219  21.0895
    23.0484  24.1700  24.4802  27.8302  28.5241  29.6208  31.8551  33.9597
    34.7047  35.4235  36.0765  36.6168

          k = 0.1000 0.5196 0.1024 (  2733 PWs)   bands (ev):

    -4.3399  -4.2072  -2.7679  -2.7368  -2.6553  -2.6149  -2.5861  -2.5358
    -2.4965  -2.4692  -1.3520  -0.7013   4.2874   5.2963   6.9104   7.7403
     8.8727   9.2281  15.7519  16.5256  17.7342  18.8779  20.6858  20.9439
    22.7131  24.0805  24.5667  27.9188  28.9240  30.0373  31.4750  33.4601
    34.6625  35.3346  36.2609  36.7642

          k = 0.1000 0.5196 0.2047 (  2726 PWs)   bands (ev):

    -4.2860  -4.2098  -2.7671  -2.7173  -2.7053  -2.6136  -2.5817  -2.5273
    -2.4929  -2.4814  -1.2453  -0.8662   4.1610   4.7592   7.6076   8.2866
     8.7230   9.2987  15.2958  16.2900  18.3000  18.7798  20.2558  20.6469
    22.5745  23.7400  25.0374  27.1416  29.7248  31.0237  31.6858  32.3613
    34.6970  35.1716  36.3582  36.6045

          k = 0.1000 0.5196-0.3071 (  2738 PWs)   bands (ev):

    -4.2348  -4.2348  -2.7550  -2.7550  -2.6587  -2.6587  -2.5480  -2.5480
    -2.4879  -2.4879  -1.0712  -1.0712   4.3254   4.3254   8.1856   8.1856
     9.0316   9.0316  15.5985  15.5985  18.6667  18.6667  20.2611  20.2611
    23.0711  23.0711  25.9873  25.9873  30.6360  30.6360  32.0749  32.0749
    35.0598  35.0598  36.4177  36.4177

          k = 0.2000 0.3464 0.0000 (  2716 PWs)   bands (ev):

    -4.4926  -4.2237  -2.7788  -2.7182  -2.6598  -2.6318  -2.6141  -2.5577
    -2.5272  -2.4858  -2.0403  -0.5732   4.9329   6.3717   6.3771   7.7100
     9.2695   9.4528  16.3626  17.2970  18.1805  18.3223  20.4680  21.0772
    21.5658  24.5140  24.6629  25.5565  30.2844  30.4656  30.6151  33.1382
    33.7917  35.1898  35.3646  36.9043

          k = 0.2000 0.3464 0.1024 (  2731 PWs)   bands (ev):

    -4.4574  -4.2256  -2.7668  -2.7269  -2.6675  -2.6532  -2.5858  -2.5771
    -2.5128  -2.4962  -1.9874  -0.7368   4.9206   6.2397   6.8153   7.6586
     9.1031   9.5875  16.2080  17.2342  18.3007  18.4093  20.3402  20.6893
    21.7934  24.1391  24.8382  25.8470  29.4640  30.7826  31.7676  31.7693
    34.0574  35.4277  36.1484  36.8730

          k = 0.2000 0.3464 0.2047 (  2730 PWs)   bands (ev):

    -4.3734  -4.2409  -2.7365  -2.7358  -2.6889  -2.6699  -2.5990  -2.5807
    -2.5031  -2.4990  -1.8184  -1.1177   5.0487   5.8468   7.7864   7.7871
     8.6995   9.5417  16.1006  16.9546  18.4915  18.5649  20.1004  20.2494
    22.1220  23.4453  25.3102  26.2094  29.0307  29.4897  32.6004  32.6734
    34.3684  35.7156  36.2413  36.5427

          k = 0.2000 0.3464-0.3071 (  2732 PWs)   bands (ev):

    -4.2895  -4.2894  -2.7261  -2.7261  -2.6904  -2.6904  -2.6003  -2.6003
    -2.4966  -2.4966  -1.5190  -1.5189   5.3859   5.3859   8.1538   8.1538
     8.8975   8.8975  16.4378  16.4378  18.6034  18.6035  20.0374  20.0374
    22.7086  22.7086  25.9389  25.9389  28.9285  28.9285  32.8806  32.8806
    35.4097  35.4097  36.4212  36.4212

          k = 0.2000 0.4619 0.0000 (  2731 PWs)   bands (ev):

    -4.3534  -4.2130  -2.7949  -2.6929  -2.6207  -2.6132  -2.5990  -2.5694
    -2.5139  -2.4827  -1.4848  -0.5101   4.8742   5.6553   6.5994   6.9123
     8.7266   8.8054  16.5297  17.2624  17.9750  18.9277  20.3139  21.1012
    22.0402  24.3288  24.5913  26.8924  30.0555  30.3977  31.4398  32.6422
    33.9867  35.4148  35.7421  36.8554

          k = 0.2000 0.4619 0.1024 (  2737 PWs)   bands (ev):

    -4.3308  -4.2099  -2.7799  -2.7063  -2.6472  -2.6157  -2.5882  -2.5637
    -2.5052  -2.4944  -1.4400  -0.5959   4.6981   5.4964   6.7461   7.2476
     8.5417   9.0620  16.4371  17.2418  18.0608  18.8677  20.2331  20.5056
    22.3568  24.2811  24.7819  26.7389  29.5676  30.5036  31.6339  32.6685
    34.2787  35.3337  36.5607  36.8581

          k = 0.2000 0.4619 0.2047 (  2732 PWs)   bands (ev):

    -4.2786  -4.2096  -2.7430  -2.7218  -2.6850  -2.6338  -2.5840  -2.5617
    -2.5072  -2.4928  -1.3035  -0.8168   4.5633   5.0850   7.0014   7.9872
     8.2639   9.3659  16.2174  16.9922  18.3331  18.9682  19.6735  20.1055
    22.6825  23.8839  25.2626  26.3893  29.2153  29.9917  32.5449  32.7847
    34.8718  35.1840  36.6969  37.1382

          k = 0.2000 0.4619-0.3071 (  2730 PWs)   bands (ev):

    -4.2307  -4.2307  -2.7253  -2.7253  -2.6729  -2.6729  -2.5781  -2.5781
    -2.4957  -2.4957  -1.0818  -1.0818   4.7088   4.7088   7.4703   7.4703
     9.0792   9.0792  16.4178  16.4178  18.7764  18.7764  19.7332  19.7332
    23.1950  23.1950  25.8353  25.8353  29.5321  29.5321  32.7523  32.7523
    35.2653  35.2653  37.0915  37.0915

          k = 0.2000 0.5774 0.0000 (  2746 PWs)   bands (ev):

    -4.3043  -4.2143  -2.8015  -2.6887  -2.6075  -2.6065  -2.5801  -2.5696
    -2.5185  -2.4807  -1.0770  -0.6415   4.6870   5.5557   6.3080   7.1949
     8.2822   8.5789  16.2293  17.6333  17.8442  19.0940  20.4223  20.8601
    23.3317  23.5040  24.3103  28.6299  28.6980  30.4383  31.1476  32.2620
    35.2225  36.0170  36.1341  36.9993

          k = 0.2000 0.5774 0.1024 (  2740 PWs)   bands (ev):

    -4.2866  -4.2089  -2.7856  -2.7020  -2.6423  -2.5957  -2.5929  -2.5390
    -2.5169  -2.4934  -1.0525  -0.6714   4.5278   5.2660   6.3897   7.6411
     8.3059   8.6881  16.2122  17.7735  17.8307  18.7445  20.2231  20.5813
    23.2279  23.7814  24.6406  27.9813  28.5170  30.7454  31.1902  32.5972
    35.1072  35.4967  36.9779  37.0160

          k = 0.2000 0.5774 0.2047 (  2720 PWs)   bands (ev):

    -4.2465  -4.2019  -2.7467  -2.7140  -2.6931  -2.6202  -2.5707  -2.5358
    -2.5118  -2.5049  -0.9807  -0.7560   4.3397   4.7588   6.7067   7.8135
     8.5064   9.1862  16.1020  17.2403  18.3447  18.5389  19.7780  20.1336
    23.2311  23.9148  25.2554  26.7285  28.7748  30.2872  32.2532  32.5897
    35.2626  35.2917  37.0978  37.6538

          k = 0.2000 0.5774-0.3071 (  2732 PWs)   bands (ev):

    -4.2122  -4.2122  -2.7262  -2.7262  -2.6713  -2.6713  -2.5534  -2.5534
    -2.5054  -2.5054  -0.8721  -0.8721   4.4058   4.4058   7.2186   7.2186
     9.1712   9.1712  16.3793  16.3793  18.7602  18.7602  19.6475  19.6475
    23.5500  23.5500  25.8783  25.8783  29.5183  29.5183  32.5719  32.5719
    35.4480  35.4481  37.4712  37.4712

          k = 0.3000 0.5196 0.0000 (  2738 PWs)   bands (ev):

    -4.2735  -4.2244  -2.8136  -2.6390  -2.6074  -2.6057  -2.5904  -2.5776
    -2.5331  -2.4925  -0.9830  -0.6031   5.1816   5.3073   5.9055   7.3312
     8.1286   8.1563  16.0119  18.1806  18.6890  18.9549  20.4059  20.7528
    22.6942  23.8613  23.9068  28.1432  29.7685  30.1711  31.4324  32.5568
    33.9427  35.8700  36.2883  36.8775

          k = 0.3000 0.5196 0.1024 (  2735 PWs)   bands (ev):

    -4.2589  -4.2166  -2.7963  -2.6654  -2.6387  -2.6079  -2.5675  -2.5640
    -2.5266  -2.5087  -0.9595  -0.6276   4.9356   5.1816   5.8832   7.7665
     7.9238   8.5219  16.3224  17.8517  18.5421  18.8829  20.1595  20.2398
    23.1286  24.1594  24.1968  27.5855  29.0538  29.5972  32.4393  32.7612
    34.5343  35.5931  37.1539  37.2442

          k = 0.3000 0.5196 0.2047 (  2718 PWs)   bands (ev):

    -4.2269  -4.2028  -2.7489  -2.6962  -2.6791  -2.6266  -2.5610  -2.5535
    -2.5269  -2.5153  -0.8924  -0.6974   4.6216   4.8169   6.1646   7.3371
     8.6508   9.1083  16.9322  17.1971  18.0733  18.6955  19.6955  19.9601
    23.5610  24.5129  24.8019  26.2465  28.6434  29.2949  32.9581  32.9590
    35.4741  35.5482  37.5150  37.5839

          k = 0.3000 0.5196-0.3071 (  2720 PWs)   bands (ev):

    -4.2032  -4.2032  -2.7054  -2.7054  -2.6796  -2.6796  -2.5617  -2.5617
    -2.5154  -2.5154  -0.7958  -0.7958   4.5727   4.5727   6.7008   6.7008
     9.2215   9.2215  16.9530  16.9530  18.2862  18.2862  19.7274  19.7274
    24.0962  24.0962  25.3950  25.3950  28.9321  28.9321  32.9979  32.9979
    35.6868  35.6868  37.5412  37.5412

     the Fermi energy is    10.8390 ev

!    total energy              =    -302.51932486 Ry
     estimated scf accuracy    <          5.8E-12 Ry
     smearing contrib. (-TS)   =      -0.00000000 Ry
     internal energy E=F+TS    =    -302.51932486 Ry

     The total energy is F=E-TS. E is the sum of the following terms:
     one-electron contribution =    -107.90254030 Ry
     hartree contribution      =      85.11631173 Ry
     xc contribution           =     -46.55826165 Ry
     ewald contribution        =    -233.17483464 Ry

     convergence has been achieved in  10 iterations

     Writing all to output data dir out/mp-804.save/
 
     init_run     :      0.29s CPU      0.33s WALL (       1 calls)
     electrons    :     11.48s CPU     17.17s WALL (       1 calls)

     Called by init_run:
     wfcinit      :      0.24s CPU      0.25s WALL (       1 calls)
     potinit      :      0.02s CPU      0.04s WALL (       1 calls)
     hinit0       :      0.01s CPU      0.03s WALL (       1 calls)

     Called by electrons:
     c_bands      :     10.67s CPU     15.91s WALL (      10 calls)
     sum_band     :      0.79s CPU      0.84s WALL (      10 calls)
     v_of_rho     :      0.02s CPU      0.02s WALL (      11 calls)
     mix_rho      :      0.00s CPU      0.00s WALL (      10 calls)

     Called by c_bands:
     init_us_2    :      0.04s CPU      0.05s WALL (    1176 calls)
     init_us_2:cp :      0.04s CPU      0.05s WALL (    1176 calls)
     cegterg      :     10.43s CPU     10.88s WALL (     560 calls)

     Called by *egterg:
     cdiaghg      :      3.63s CPU      3.76s WALL (    3535 calls)
     h_psi        :      6.17s CPU      6.47s WALL (    3591 calls)
     g_psi        :      0.03s CPU      0.03s WALL (    2975 calls)

     Called by h_psi:
     h_psi:calbec :      0.18s CPU      0.19s WALL (    3591 calls)
     vloc_psi     :      5.84s CPU      6.12s WALL (    3591 calls)
     add_vuspsi   :      0.12s CPU      0.12s WALL (    3591 calls)

     General routines
     calbec       :      0.18s CPU      0.19s WALL (    3591 calls)
     fft          :      0.01s CPU      0.02s WALL (     109 calls)
     ffts         :      0.00s CPU      0.00s WALL (      10 calls)
     fftw         :      6.13s CPU      6.42s WALL (  173422 calls)
 
     Parallel routines
 
     PWSCF        :     11.96s CPU     18.71s WALL

 
   This run was terminated on:  15:11: 3   8Apr2024            

=------------------------------------------------------------------------------=
   JOB DONE.
=------------------------------------------------------------------------------=
