
     Program PWSCF v.7.1 starts on  4Jan2024 at  2:20:18 

     This program is part of the open-source Quantum ESPRESSO suite
     for quantum simulation of materials; please cite
         "P. Giannozzi et al., J. Phys.:Condens. Matter 21 395502 (2009);
         "P. Giannozzi et al., J. Phys.:Condens. Matter 29 465901 (2017);
         "P. Giannozzi et al., J. Chem. Phys. 152 154105 (2020);
          URL http://www.quantum-espresso.org", 
     in publications or presentations arising from this work. More details at
     http://www.quantum-espresso.org/quote

     Parallel version (MPI), running on     8 processors

     MPI processes distributed on     1 nodes
     248928 MiB available memory on the printing compute node when the environment starts
 
     Reading input from pw_mp-732337_emass_k3000_E130.in
Warning: card &IONS ignored
Warning: card / ignored
Warning: card &CELL ignored
Warning: card / ignored

     Current dimensions of program PWSCF are:
     Max number of different atomic species (ntypx) = 10
     Max number of k-points (npk) =  40000
     Max angular momentum in pseudopotentials (lmaxx) =  4

     Atomic positions and unit cell read from directory:
     out/mp-732337.save/
     Atomic positions from file used, from input discarded
 
 
     R & G space division:  proc/nbgrp/npool/nimage =       8
     Subspace diagonalization in iterative solution of the eigenvalue problem:
     one sub-group per band group will be used
     scalapack distributed-memory algorithm (size of sub-group:  2*  2 procs)

 
     Parallelization info
     --------------------
     sticks:   dense  smooth     PW     G-vecs:    dense   smooth      PW
     Min        1307    1307    326               144461   144461   18070
     Max        1308    1308    327               144464   144464   18073
     Sum       10459   10459   2611              1155695  1155695  144577
 
     Using Slab Decomposition
 


     bravais-lattice index     =            8
     lattice parameter (alat)  =      15.2399  a.u.
     unit-cell volume          =    5771.0237 (a.u.)^3
     number of atoms/cell      =           48
     number of atomic types    =            5
     number of electrons       =       200.00
     number of Kohn-Sham states=          200
     kinetic-energy cutoff     =     130.0000  Ry
     charge density cutoff     =     520.0000  Ry
     Exchange-correlation= PBE
                           (   1   4   3   4   0   0   0)

     celldm(1)=  15.239867  celldm(2)=   1.088215  celldm(3)=   1.498286
     celldm(4)=   0.000000  celldm(5)=   0.000000  celldm(6)=   0.000000

     crystal axes: (cart. coord. in units of alat)
               a(1) = (   1.000000   0.000000   0.000000 )  
               a(2) = (   0.000000   1.088215   0.000000 )  
               a(3) = (   0.000000   0.000000   1.498286 )  

     reciprocal axes: (cart. coord. in units 2 pi/alat)
               b(1) = (  1.000000  0.000000  0.000000 )  
               b(2) = (  0.000000  0.918936  0.000000 )  
               b(3) = (  0.000000  0.000000  0.667429 )  


     PseudoPot. # 1 for Br read from file:
     /usr/scratch4/magr4985/MG/devEb/pseudo/SG15/Br.upf
     MD5 check sum: d26c51d81abb03042b648ee3fecf55db
     Pseudo is Norm-conserving, Zval =  7.0
     Generated using ONCVPSP code by D. R. Hamann
     Using radial grid of  602 points,  6 beta functions with: 
                l(1) =   0
                l(2) =   0
                l(3) =   1
                l(4) =   1
                l(5) =   2
                l(6) =   2

     PseudoPot. # 2 for C  read from file:
     /usr/scratch4/magr4985/MG/devEb/pseudo/SG15/C.upf
     MD5 check sum: 3d2597e5eef38528f7293c089e88409c
     Pseudo is Norm-conserving, Zval =  4.0
     Generated using ONCVPSP code by D. R. Hamann
     Using radial grid of  602 points,  4 beta functions with: 
                l(1) =   0
                l(2) =   0
                l(3) =   1
                l(4) =   1

     PseudoPot. # 3 for H  read from file:
     /usr/scratch4/magr4985/MG/devEb/pseudo/SG15/H.upf
     MD5 check sum: ae0d01b4bdfb70e4e0e3a1de63306ab0
     Pseudo is Norm-conserving, Zval =  1.0
     Generated using ONCVPSP code by D. R. Hamann
     Using radial grid of  602 points,  2 beta functions with: 
                l(1) =   0
                l(2) =   0

     PseudoPot. # 4 for N  read from file:
     /usr/scratch4/magr4985/MG/devEb/pseudo/SG15/N.upf
     MD5 check sum: 505747f69e3b1670e9a20de136ca1593
     Pseudo is Norm-conserving, Zval =  5.0
     Generated using ONCVPSP code by D. R. Hamann
     Using radial grid of  602 points,  4 beta functions with: 
                l(1) =   0
                l(2) =   0
                l(3) =   1
                l(4) =   1

     PseudoPot. # 5 for Pb read from file:
     /usr/scratch4/magr4985/MG/devEb/pseudo/SG15/Pb.upf
     MD5 check sum: 18da7c9819a8d2a15024df9e07e1e14a
     Pseudo is Norm-conserving, Zval = 14.0
     Generated using ONCVPSP code by D. R. Hamann
     Using radial grid of  602 points,  8 beta functions with: 
                l(1) =   0
                l(2) =   0
                l(3) =   1
                l(4) =   1
                l(5) =   2
                l(6) =   2
                l(7) =   3
                l(8) =   3

     atomic species   valence    mass     pseudopotential
        Br             7.00    79.90400     Br( 1.00)
        C              4.00    12.01070     C ( 1.00)
        H              1.00     1.00790     H ( 1.00)
        N              5.00    14.00670     N ( 1.00)
        Pb            14.00   207.20000     Pb( 1.00)

      8 Sym. Ops., with inversion, found ( 6 have fractional translation)



   Cartesian axes

     site n.     atom                  positions (alat units)
         1           H   tau(   1) = (   0.5087350   0.7130256   1.0199282  )
         2           H   tau(   2) = (   0.0087350   0.9192967   1.2275008  )
         3           H   tau(   3) = (   0.4912650   0.3751893   0.2707852  )
         4           H   tau(   4) = (   0.9912651   0.1689181   0.4783578  )
         5           H   tau(   5) = (   0.4912650   0.3751893   0.4783578  )
         6           H   tau(   6) = (   0.9912651   0.1689181   0.2707852  )
         7           H   tau(   7) = (   0.5087350   0.7130256   1.2275008  )
         8           H   tau(   8) = (   0.0087350   0.9192967   1.0199282  )
         9           H   tau(   9) = (   0.6782720   0.6478187   1.1237145  )
        10           H   tau(  10) = (   0.1782720   0.9845036   1.1237145  )
        11           H   tau(  11) = (   0.3217280   0.4403962   0.3745715  )
        12           H   tau(  12) = (   0.8217281   0.1037112   0.3745715  )
        13           H   tau(  13) = (   0.5240280   0.4117925   1.0122945  )
        14           H   tau(  14) = (   0.0240280   0.1323150   1.2351345  )
        15           H   tau(  15) = (   0.4759720   0.6764224   0.2631515  )
        16           H   tau(  16) = (   0.9759721   0.9558999   0.4859915  )
        17           H   tau(  17) = (   0.4759720   0.6764224   0.4859915  )
        18           H   tau(  18) = (   0.9759721   0.9558999   0.2631515  )
        19           H   tau(  19) = (   0.5240280   0.4117925   1.2351345  )
        20           H   tau(  20) = (   0.0240280   0.1323150   1.0122945  )
        21           H   tau(  21) = (   0.3458690   0.4830172   1.1237145  )
        22           H   tau(  22) = (   0.8458691   0.0610902   1.1237145  )
        23           H   tau(  23) = (   0.6541310   0.6051976   0.3745715  )
        24           H   tau(  24) = (   0.1541310   1.0271246   0.3745715  )
        25           Pb  tau(  25) = (   0.5000000   0.0000000   0.0000000  )
        26           Pb  tau(  26) = (   0.0000000   0.5441074   0.7491430  )
        27           Pb  tau(  27) = (   0.5000000   0.0000000   0.7491430  )
        28           Pb  tau(  28) = (   0.0000000   0.5441074   0.0000000  )
        29           C   tau(  29) = (   0.4810650   0.4763639   1.1237145  )
        30           C   tau(  30) = (   0.9810651   0.0677435   1.1237145  )
        31           C   tau(  31) = (   0.5189350   0.6118510   0.3745715  )
        32           C   tau(  32) = (   0.0189350   1.0204713   0.3745715  )
        33           Br  tau(  33) = (   0.4669710   0.0197130   1.1237145  )
        34           Br  tau(  34) = (   0.9669711   0.5243944   1.1237145  )
        35           Br  tau(  35) = (   0.5330290   1.0685018   0.3745715  )
        36           Br  tau(  36) = (   0.0330290   0.5638204   0.3745715  )
        37           Br  tau(  37) = (   0.7957761   0.8585504   1.4542963  )
        38           Br  tau(  38) = (   0.2957760   0.7737719   0.7931327  )
        39           Br  tau(  39) = (   0.2042240   0.2296645   0.7051533  )
        40           Br  tau(  40) = (   0.7042240   0.3144429   0.0439897  )
        41           Br  tau(  41) = (   0.2042240   0.2296645   0.0439897  )
        42           Br  tau(  42) = (   0.7042240   0.3144429   0.7051533  )
        43           Br  tau(  43) = (   0.7957761   0.8585504   0.7931327  )
        44           Br  tau(  44) = (   0.2957760   0.7737719   1.4542963  )
        45           N   tau(  45) = (   0.5491350   0.6488481   1.1237145  )
        46           N   tau(  46) = (   0.0491350   0.9834742   1.1237145  )
        47           N   tau(  47) = (   0.4508650   0.4393667   0.3745715  )
        48           N   tau(  48) = (   0.9508651   0.1047407   0.3745715  )

     number of k points=     7  Gaussian smearing, width (Ry)=  0.0005
                       cart. coord. in units 2pi/alat
        k(    1) = (   0.0000000   0.0000000   0.0000000), wk =   0.2857143
        k(    2) = (   0.0100000   0.0000000   0.0000000), wk =   0.2857143
        k(    3) = (  -0.0100000   0.0000000   0.0000000), wk =   0.2857143
        k(    4) = (   0.0000000   0.0100000   0.0000000), wk =   0.2857143
        k(    5) = (   0.0000000  -0.0100000   0.0000000), wk =   0.2857143
        k(    6) = (   0.0000000   0.0000000   0.0100000), wk =   0.2857143
        k(    7) = (   0.0000000   0.0000000  -0.0100000), wk =   0.2857143

     Dense  grid:  1155695 G-vectors     FFT dimensions: ( 120, 128, 180)

     Estimated max dynamical RAM per process >     761.32 MB

     Estimated total dynamical RAM >       5.95 GB

     The potential is recalculated from file :
     out/mp-732337.save/charge-density

     Starting wfcs are random

     Band Structure Calculation
     ParO style diagonalization

     ethr =  5.00E-06,  avg # of iterations = 30.3

     total cpu time spent up to now is      839.9 secs

     End of band structure calculation

          k = 0.0000 0.0000 0.0000 (144377 PWs)   bands (ev):

   -17.2675 -17.2666 -17.2587 -17.2582 -14.3086 -14.3005 -14.3003 -14.2929
   -14.2747 -14.2573 -14.2500 -14.2498 -14.2374 -14.2369 -14.2367 -14.2363
   -14.2235 -14.2218 -14.2212 -14.2205 -14.2123 -14.2118 -14.2117 -14.2114
   -11.8057 -11.6536 -11.5748 -11.5593 -11.5418 -11.5145 -11.5119 -11.4586
   -11.4512 -11.3166 -11.2936 -11.2909 -10.2614 -10.2487 -10.2450 -10.2437
    -6.8139  -6.8021  -6.7726  -6.7690  -6.7652  -6.7649  -6.7525  -6.7290
    -5.9759  -5.5293  -5.1033  -4.6498  -4.6293  -4.6222  -4.6133  -4.5680
    -2.6237  -2.6233  -2.6119  -2.5929  -2.5674  -2.5658  -2.5543  -2.5483
    -1.3652  -1.2806  -1.2797  -1.0641  -0.9397  -0.8794  -0.0710  -0.0502
     0.0815   0.0945   0.1425   0.2536   0.3830   0.4563   0.4597   0.4959
     0.5104   0.5615   0.5756   0.5892   0.6226   0.6227   0.6328   0.6736
     0.7201   0.7455   0.8447   0.9506   0.9707   0.9990   1.0503   1.1116
     1.1289   1.2501   1.6515   2.0995   4.2133   4.2344   4.3352   4.6667
     4.7022   4.9148   6.4021   6.9716   6.9920   7.3921   7.5707   7.6921
     7.7066   7.8478   7.8562   7.9023   7.9679   8.0441   8.2654   8.3871
     8.5201   8.6348   8.7065   8.8272   9.0336   9.0381   9.0682   9.0748
     9.1242   9.1692   9.2233   9.4068   9.4871   9.4948   9.6852   9.6890
     9.8574   9.9184  10.0225  10.0263  10.0392  10.1841  10.2172  10.5843
    10.5915  10.6007  10.6018  10.6375  10.7767  10.8685  10.9642  11.0611
    11.1098  11.2241  11.3368  11.3593  11.4614  11.5008  11.5107  11.5850
    11.6754  11.6891  11.8696  12.0819  12.1739  12.3343  12.4550  12.5210
    12.6480  12.7141  12.7672  12.8320  13.0585  13.1545  13.1689  13.3345
    13.3817  13.5431  13.6007  13.6934  13.7259  13.8565  13.9563  14.1574
    14.2288  14.2434  14.3568  14.5159  14.5469  14.8410  14.9031  14.9579
    14.9622  15.0516  15.2266  15.2810  15.4001  15.4081  15.4163  15.4385

          k = 0.0100 0.0000 0.0000 (144375 PWs)   bands (ev):

   -17.2675 -17.2666 -17.2587 -17.2582 -14.3086 -14.3004 -14.3003 -14.2929
   -14.2747 -14.2573 -14.2501 -14.2498 -14.2374 -14.2369 -14.2367 -14.2363
   -14.2235 -14.2218 -14.2212 -14.2205 -14.2123 -14.2118 -14.2117 -14.2114
   -11.8056 -11.6536 -11.5748 -11.5594 -11.5417 -11.5147 -11.5119 -11.4586
   -11.4510 -11.3166 -11.2937 -11.2909 -10.2614 -10.2487 -10.2450 -10.2437
    -6.8139  -6.8021  -6.7725  -6.7690  -6.7652  -6.7649  -6.7525  -6.7290
    -5.9758  -5.5291  -5.1035  -4.6498  -4.6293  -4.6222  -4.6133  -4.5683
    -2.6237  -2.6233  -2.6119  -2.5929  -2.5674  -2.5658  -2.5543  -2.5483
    -1.3649  -1.2804  -1.2796  -1.0636  -0.9396  -0.8791  -0.0709  -0.0501
     0.0817   0.0944   0.1424   0.2537   0.3814   0.4562   0.4609   0.4952
     0.5091   0.5626   0.5756   0.5892   0.6206   0.6248   0.6329   0.6736
     0.7202   0.7455   0.8448   0.9503   0.9706   0.9986   1.0502   1.1116
     1.1288   1.2502   1.6508   2.0988   4.2135   4.2354   4.3361   4.6675
     4.7030   4.9147   6.4025   6.9716   6.9913   7.3915   7.5708   7.6921
     7.7058   7.8476   7.8561   7.9027   7.9684   8.0438   8.2654   8.3870
     8.5206   8.6349   8.7057   8.8274   9.0330   9.0383   9.0682   9.0749
     9.1243   9.1704   9.2232   9.4059   9.4874   9.4949   9.6833   9.6906
     9.8568   9.9187  10.0231  10.0264  10.0390  10.1835  10.2173  10.5792
    10.5912  10.6008  10.6075  10.6368  10.7762  10.8672  10.9642  11.0614
    11.1101  11.2241  11.3342  11.3574  11.4644  11.4963  11.5125  11.5865
    11.6798  11.6891  11.8702  12.0818  12.1744  12.3343  12.4535  12.5214
    12.6498  12.7142  12.7672  12.8318  13.0561  13.1553  13.1697  13.3289
    13.3871  13.5439  13.6004  13.6924  13.7266  13.8564  13.9578  14.1585
    14.2281  14.2435  14.3550  14.5169  14.5471  14.8398  14.8996  14.9613
    14.9624  15.0495  15.2291  15.2758  15.4001  15.4113  15.4155  15.4381

          k =-0.0100 0.0000 0.0000 (144375 PWs)   bands (ev):

   -17.2675 -17.2666 -17.2587 -17.2582 -14.3086 -14.3004 -14.3003 -14.2929
   -14.2747 -14.2573 -14.2501 -14.2498 -14.2374 -14.2369 -14.2367 -14.2363
   -14.2235 -14.2218 -14.2212 -14.2205 -14.2123 -14.2118 -14.2117 -14.2114
   -11.8056 -11.6536 -11.5748 -11.5594 -11.5417 -11.5147 -11.5119 -11.4586
   -11.4510 -11.3166 -11.2937 -11.2909 -10.2614 -10.2487 -10.2450 -10.2437
    -6.8139  -6.8021  -6.7725  -6.7690  -6.7652  -6.7649  -6.7525  -6.7290
    -5.9758  -5.5291  -5.1035  -4.6498  -4.6293  -4.6222  -4.6133  -4.5683
    -2.6237  -2.6233  -2.6119  -2.5929  -2.5674  -2.5658  -2.5543  -2.5483
    -1.3649  -1.2804  -1.2796  -1.0636  -0.9396  -0.8791  -0.0709  -0.0501
     0.0817   0.0944   0.1424   0.2537   0.3814   0.4562   0.4609   0.4952
     0.5091   0.5626   0.5756   0.5892   0.6206   0.6248   0.6329   0.6736
     0.7202   0.7455   0.8448   0.9503   0.9706   0.9986   1.0502   1.1116
     1.1288   1.2502   1.6508   2.0988   4.2135   4.2354   4.3361   4.6675
     4.7030   4.9147   6.4025   6.9716   6.9913   7.3915   7.5708   7.6921
     7.7058   7.8476   7.8561   7.9027   7.9684   8.0438   8.2654   8.3870
     8.5206   8.6349   8.7057   8.8274   9.0330   9.0383   9.0682   9.0749
     9.1243   9.1704   9.2232   9.4059   9.4874   9.4949   9.6833   9.6906
     9.8568   9.9187  10.0231  10.0264  10.0390  10.1835  10.2173  10.5792
    10.5912  10.6008  10.6075  10.6368  10.7762  10.8672  10.9642  11.0614
    11.1101  11.2241  11.3342  11.3574  11.4644  11.4963  11.5125  11.5865
    11.6798  11.6891  11.8702  12.0818  12.1744  12.3343  12.4535  12.5214
    12.6498  12.7142  12.7672  12.8318  13.0561  13.1553  13.1697  13.3289
    13.3871  13.5439  13.6004  13.6924  13.7266  13.8564  13.9578  14.1585
    14.2281  14.2435  14.3550  14.5169  14.5471  14.8398  14.8996  14.9613
    14.9624  15.0495  15.2291  15.2758  15.4001  15.4113  15.4155  15.4381

          k = 0.0000 0.0100 0.0000 (144393 PWs)   bands (ev):

   -17.2675 -17.2666 -17.2587 -17.2582 -14.3086 -14.3004 -14.3002 -14.2929
   -14.2747 -14.2573 -14.2501 -14.2498 -14.2374 -14.2369 -14.2367 -14.2363
   -14.2235 -14.2218 -14.2212 -14.2205 -14.2123 -14.2118 -14.2117 -14.2114
   -11.8056 -11.6536 -11.5750 -11.5593 -11.5418 -11.5166 -11.5097 -11.4585
   -11.4512 -11.3166 -11.2937 -11.2909 -10.2614 -10.2487 -10.2450 -10.2436
    -6.8139  -6.8021  -6.7726  -6.7690  -6.7652  -6.7649  -6.7525  -6.7290
    -5.9757  -5.5290  -5.1036  -4.6498  -4.6294  -4.6223  -4.6134  -4.5683
    -2.6237  -2.6233  -2.6119  -2.5929  -2.5676  -2.5656  -2.5543  -2.5483
    -1.3645  -1.2803  -1.2796  -1.0638  -0.9396  -0.8792  -0.0709  -0.0502
     0.0816   0.0945   0.1425   0.2528   0.3831   0.4562   0.4595   0.4945
     0.5106   0.5618   0.5763   0.5893   0.6225   0.6227   0.6329   0.6733
     0.7202   0.7453   0.8448   0.9506   0.9706   0.9990   1.0503   1.1115
     1.1289   1.2502   1.6507   2.0986   4.2135   4.2353   4.3365   4.6674
     4.7033   4.9146   6.4022   6.9715   6.9911   7.3910   7.5705   7.6905
     7.7038   7.8490   7.8586   7.9018   7.9679   8.0434   8.2651   8.3870
     8.5205   8.6348   8.7055   8.8261   9.0222   9.0513   9.0667   9.0748
     9.1263   9.1683   9.2232   9.4073   9.4864   9.4944   9.6854   9.6892
     9.8579   9.9181  10.0233  10.0263  10.0394  10.1843  10.2177  10.5831
    10.5928  10.5938  10.6085  10.6368  10.7765  10.8682  10.9644  11.0612
    11.1097  11.2244  11.3365  11.3599  11.4623  11.5023  11.5108  11.5843
    11.6764  11.6897  11.8695  12.0817  12.1742  12.3347  12.4547  12.5208
    12.6486  12.7141  12.7680  12.8318  13.0519  13.1543  13.1771  13.3336
    13.3820  13.5432  13.6008  13.6937  13.7254  13.8584  13.9563  14.1572
    14.2284  14.2422  14.3563  14.5170  14.5471  14.8377  14.9017  14.9523
    14.9617  15.0517  15.2283  15.2806  15.4060  15.4093  15.4152  15.4377

          k = 0.0000-0.0100 0.0000 (144393 PWs)   bands (ev):

   -17.2675 -17.2666 -17.2587 -17.2582 -14.3086 -14.3004 -14.3002 -14.2929
   -14.2747 -14.2573 -14.2501 -14.2498 -14.2374 -14.2369 -14.2367 -14.2363
   -14.2235 -14.2218 -14.2212 -14.2205 -14.2123 -14.2118 -14.2117 -14.2114
   -11.8056 -11.6536 -11.5750 -11.5593 -11.5418 -11.5166 -11.5097 -11.4585
   -11.4512 -11.3166 -11.2937 -11.2909 -10.2614 -10.2487 -10.2450 -10.2436
    -6.8139  -6.8021  -6.7726  -6.7690  -6.7652  -6.7649  -6.7525  -6.7290
    -5.9757  -5.5290  -5.1036  -4.6498  -4.6294  -4.6223  -4.6134  -4.5683
    -2.6237  -2.6233  -2.6119  -2.5929  -2.5676  -2.5656  -2.5543  -2.5483
    -1.3645  -1.2803  -1.2796  -1.0638  -0.9396  -0.8792  -0.0709  -0.0502
     0.0816   0.0945   0.1425   0.2528   0.3831   0.4562   0.4595   0.4945
     0.5106   0.5618   0.5763   0.5893   0.6225   0.6227   0.6329   0.6733
     0.7202   0.7453   0.8448   0.9506   0.9706   0.9990   1.0503   1.1115
     1.1289   1.2502   1.6507   2.0986   4.2135   4.2353   4.3365   4.6674
     4.7033   4.9146   6.4022   6.9715   6.9911   7.3910   7.5705   7.6905
     7.7038   7.8490   7.8586   7.9018   7.9679   8.0434   8.2651   8.3870
     8.5205   8.6348   8.7055   8.8261   9.0222   9.0513   9.0667   9.0748
     9.1263   9.1683   9.2232   9.4073   9.4864   9.4944   9.6854   9.6892
     9.8579   9.9181  10.0233  10.0263  10.0394  10.1843  10.2177  10.5831
    10.5928  10.5938  10.6085  10.6368  10.7765  10.8682  10.9644  11.0612
    11.1097  11.2244  11.3365  11.3599  11.4623  11.5023  11.5108  11.5843
    11.6764  11.6897  11.8695  12.0817  12.1742  12.3347  12.4547  12.5208
    12.6486  12.7141  12.7680  12.8318  13.0519  13.1543  13.1771  13.3336
    13.3820  13.5432  13.6008  13.6937  13.7254  13.8584  13.9563  14.1572
    14.2284  14.2422  14.3563  14.5170  14.5471  14.8377  14.9017  14.9523
    14.9617  15.0517  15.2283  15.2806  15.4060  15.4093  15.4152  15.4377

          k = 0.0000 0.0000 0.0100 (144409 PWs)   bands (ev):

   -17.2675 -17.2666 -17.2587 -17.2582 -14.3086 -14.3005 -14.3003 -14.2928
   -14.2747 -14.2574 -14.2500 -14.2498 -14.2374 -14.2369 -14.2367 -14.2363
   -14.2235 -14.2218 -14.2212 -14.2205 -14.2123 -14.2118 -14.2117 -14.2114
   -11.8056 -11.6539 -11.5746 -11.5593 -11.5418 -11.5146 -11.5118 -11.4586
   -11.4512 -11.3167 -11.2936 -11.2909 -10.2614 -10.2487 -10.2450 -10.2437
    -6.8139  -6.8021  -6.7726  -6.7690  -6.7652  -6.7649  -6.7525  -6.7290
    -5.9757  -5.5296  -5.1030  -4.6498  -4.6294  -4.6222  -4.6133  -4.5683
    -2.6237  -2.6233  -2.6119  -2.5929  -2.5674  -2.5659  -2.5542  -2.5483
    -1.3651  -1.2804  -1.2789  -1.0640  -0.9392  -0.8794  -0.0708  -0.0502
     0.0814   0.0942   0.1426   0.2536   0.3831   0.4553   0.4585   0.4961
     0.5107   0.5616   0.5756   0.5892   0.6225   0.6231   0.6331   0.6734
     0.7201   0.7454   0.8447   0.9505   0.9705   0.9990   1.0501   1.1115
     1.1289   1.2496   1.6516   2.0985   4.2156   4.2346   4.3354   4.6664
     4.7022   4.9164   6.4025   6.9704   6.9920   7.3917   7.5708   7.6884
     7.7058   7.8486   7.8595   7.9001   7.9686   8.0438   8.2655   8.3865
     8.5213   8.6348   8.7067   8.8268   9.0330   9.0378   9.0680   9.0719
     9.1240   9.1698   9.2260   9.4075   9.4876   9.4947   9.6857   9.6891
     9.8573   9.9172  10.0217  10.0269  10.0397  10.1843  10.2177  10.5836
    10.5910  10.6006  10.6018  10.6373  10.7774  10.8678  10.9643  11.0618
    11.1096  11.2214  11.3371  11.3597  11.4647  11.4997  11.5101  11.5851
    11.6763  11.6889  11.8703  12.0819  12.1743  12.3333  12.4523  12.5243
    12.6484  12.7120  12.7664  12.8356  13.0568  13.1528  13.1694  13.3293
    13.3830  13.5479  13.6003  13.6953  13.7272  13.8561  13.9575  14.1589
    14.2142  14.2580  14.3557  14.5152  14.5463  14.8395  14.9025  14.9483
    14.9714  15.0527  15.2252  15.2802  15.3978  15.4020  15.4201  15.4433

          k = 0.0000 0.0000-0.0100 (144409 PWs)   bands (ev):

   -17.2675 -17.2666 -17.2587 -17.2582 -14.3086 -14.3005 -14.3003 -14.2928
   -14.2747 -14.2574 -14.2500 -14.2498 -14.2374 -14.2369 -14.2367 -14.2363
   -14.2235 -14.2218 -14.2212 -14.2205 -14.2123 -14.2118 -14.2117 -14.2114
   -11.8056 -11.6539 -11.5746 -11.5593 -11.5418 -11.5146 -11.5118 -11.4586
   -11.4512 -11.3167 -11.2936 -11.2909 -10.2614 -10.2487 -10.2450 -10.2437
    -6.8139  -6.8021  -6.7726  -6.7690  -6.7652  -6.7649  -6.7525  -6.7290
    -5.9757  -5.5296  -5.1030  -4.6498  -4.6294  -4.6222  -4.6133  -4.5683
    -2.6237  -2.6233  -2.6119  -2.5929  -2.5674  -2.5659  -2.5542  -2.5483
    -1.3651  -1.2804  -1.2789  -1.0640  -0.9392  -0.8794  -0.0708  -0.0502
     0.0814   0.0942   0.1426   0.2536   0.3831   0.4553   0.4585   0.4961
     0.5107   0.5616   0.5756   0.5892   0.6225   0.6231   0.6331   0.6734
     0.7201   0.7454   0.8447   0.9505   0.9705   0.9990   1.0501   1.1115
     1.1289   1.2496   1.6516   2.0985   4.2156   4.2346   4.3354   4.6664
     4.7022   4.9164   6.4025   6.9704   6.9920   7.3917   7.5708   7.6884
     7.7058   7.8486   7.8595   7.9001   7.9686   8.0438   8.2655   8.3865
     8.5213   8.6348   8.7067   8.8268   9.0330   9.0378   9.0680   9.0719
     9.1240   9.1698   9.2260   9.4075   9.4876   9.4947   9.6857   9.6891
     9.8573   9.9172  10.0217  10.0269  10.0397  10.1843  10.2177  10.5836
    10.5910  10.6006  10.6018  10.6373  10.7774  10.8678  10.9643  11.0618
    11.1096  11.2214  11.3371  11.3597  11.4647  11.4997  11.5101  11.5851
    11.6763  11.6889  11.8703  12.0819  12.1743  12.3333  12.4523  12.5243
    12.6484  12.7120  12.7664  12.8356  13.0568  13.1528  13.1694  13.3293
    13.3830  13.5479  13.6003  13.6953  13.7272  13.8561  13.9575  14.1589
    14.2142  14.2580  14.3557  14.5152  14.5463  14.8395  14.9025  14.9483
    14.9714  15.0527  15.2252  15.2802  15.3978  15.4020  15.4201  15.4433

     the Fermi energy is     3.1924 ev
     (compare with:     3.1924 eV, computed in scf)

     Writing all to output data dir out/mp-732337.save/
 
     init_run     :      1.98s CPU      2.07s WALL (       1 calls)
     electrons    :    810.80s CPU    837.64s WALL (       1 calls)

     Called by init_run:
     wfcinit      :      0.00s CPU      0.00s WALL (       1 calls)
     potinit      :      0.23s CPU      0.28s WALL (       1 calls)
     hinit0       :      1.39s CPU      1.42s WALL (       1 calls)

     Called by electrons:
     c_bands      :    810.80s CPU    837.64s WALL (       1 calls)
     v_of_rho     :      0.20s CPU      0.22s WALL (       1 calls)

     Called by c_bands:
     init_us_2    :      0.30s CPU      0.33s WALL (       7 calls)
     init_us_2:cp :      0.30s CPU      0.33s WALL (       7 calls)
     paro_k       :    785.14s CPU    811.03s WALL (       7 calls)

     Called by paro_*:
     h_psi        :    501.84s CPU    524.14s WALL (     819 calls)
     g_psi        :      4.95s CPU      5.15s WALL (   45910 calls)

     Called by h_psi:
     h_psi:calbec :     83.00s CPU     83.22s WALL (     819 calls)
     vloc_psi     :    320.38s CPU    342.00s WALL (     819 calls)
     add_vuspsi   :     95.65s CPU     95.66s WALL (     819 calls)

     General routines
     calbec       :     82.99s CPU     83.21s WALL (     819 calls)
     fft          :      0.08s CPU      0.10s WALL (      10 calls)
     fftw         :    269.06s CPU    290.45s WALL (   80258 calls)
 
     Parallel routines
 
     PWSCF        :  13m32.96s CPU  13m59.94s WALL

 
   This run was terminated on:   2:34:18   4Jan2024            

=------------------------------------------------------------------------------=
   JOB DONE.
=------------------------------------------------------------------------------=
