 
             +---------------------------------------------------+
             |                                                   |
             |                   WANNIER90                       |
             |                                                   |
             +---------------------------------------------------+
             |                                                   |
             |        Welcome to the Maximally-Localized         |
             |        Generalized Wannier Functions code         |
             |            http://www.wannier.org                 |
             |                                                   |
             |                                                   |
             |  Wannier90 Developer Group:                       |
             |    Giovanni Pizzi    (EPFL)                       |
             |    Valerio Vitale    (Cambridge)                  |
             |    David Vanderbilt  (Rutgers University)         |
             |    Nicola Marzari    (EPFL)                       |
             |    Ivo Souza         (Universidad del Pais Vasco) |
             |    Arash A. Mostofi  (Imperial College London)    |
             |    Jonathan R. Yates (University of Oxford)       |
             |                                                   |
             |  For the full list of Wannier90 3.x authors,      |
             |  please check the code documentation and the      |
             |  README on the GitHub page of the code            |
             |                                                   |
             |                                                   |
             |  Please cite                                      |
             |                                                   |
             |  [ref] "Wannier90 as a community code:            |
             |        new features and applications",            |
             |        G. Pizzi et al., J. Phys. Cond. Matt. 32,  |
             |        165902 (2020).                             |
             |        http://doi.org/10.1088/1361-648X/ab51ff    |
             |                                                   |
             |  in any publications arising from the use of      |
             |  this code. For the method please cite            |
             |                                                   |
             |  [ref] "Maximally Localized Generalised Wannier   |
             |         Functions for Composite Energy Bands"     |
             |         N. Marzari and D. Vanderbilt              |
             |         Phys. Rev. B 56 12847 (1997)              |
             |                                                   |
             |  [ref] "Maximally Localized Wannier Functions     |
             |         for Entangled Energy Bands"               |
             |         I. Souza, N. Marzari and D. Vanderbilt    |
             |         Phys. Rev. B 65 035109 (2001)             |
             |                                                   |
             |                                                   |
             | Copyright (c) 1996-2020                           |
             |        The Wannier90 Developer Group and          |
             |        individual contributors                    |
             |                                                   |
             |      Release: 3.1.0        5th March    2020      |
             |                                                   |
             | This program is free software; you can            |
             | redistribute it and/or modify it under the terms  |
             | of the GNU General Public License as published by |
             | the Free Software Foundation; either version 2 of |
             | the License, or (at your option) any later version|
             |                                                   |
             | This program is distributed in the hope that it   |
             | will be useful, but WITHOUT ANY WARRANTY; without |
             | even the implied warranty of MERCHANTABILITY or   |
             | FITNESS FOR A PARTICULAR PURPOSE. See the GNU     |
             | General Public License for more details.          |
             |                                                   |
             | You should have received a copy of the GNU General|
             | Public License along with this program; if not,   |
             | write to the Free Software Foundation, Inc.,      |
             | 675 Mass Ave, Cambridge, MA 02139, USA.           |
             |                                                   |
             +---------------------------------------------------+
             |    Execution started on  3Jan2024 at 14:35:56     |
             +---------------------------------------------------+
 
 ******************************************************************************
 * -> Using CODATA 2006 constant values                                       *
 *    (http://physics.nist.gov/cuu/Constants/index.html)                      *
 * -> Using Bohr value from CODATA                                            *
 ******************************************************************************
 

 Running in parallel on   8 CPUs

 
                                    ------
                                    SYSTEM
                                    ------
 
                              Lattice Vectors (Ang)
                    a_1    -2.961542   0.000000   2.961542
                    a_2     0.000000   2.961542   2.961542
                    a_3    -2.961542   2.961542   0.000000
 
                   Unit Cell Volume:      51.94978  (Ang^3)
 
                        Reciprocal-Space Vectors (Ang^-1)
                    b_1    -1.060796  -1.060796   1.060796
                    b_2     1.060796   1.060796   1.060796
                    b_3    -1.060796   1.060796  -1.060796
  
 *----------------------------------------------------------------------------*
 |   Site       Fractional Coordinate          Cartesian Coordinate (Ang)     |
 +----------------------------------------------------------------------------+
 | Na   1   0.00000   0.00000   0.00000   |    0.00000   0.00000   0.00000    |
 | Br   1   0.50000   0.50000   0.50000   |   -2.96154   2.96154   2.96154    |
 *----------------------------------------------------------------------------*
                                ------------
                                K-POINT GRID
                                ------------
  
             Grid size = 12 x 12 x 12      Total points = 1728
  
  
 *---------------------------------- MAIN ------------------------------------*
 |  Number of Wannier Functions               :                 3             |
 |  Number of Objective Wannier Functions     :                 3             |
 |  Number of input Bloch states              :                 3             |
 |  Output verbosity (1=low, 5=high)          :                 1             |
 |  Timing Level (1=low, 5=high)              :                 1             |
 |  Optimisation (0=memory, 3=speed)          :                 3             |
 |  Length Unit                               :               Ang             |
 |  Post-processing setup (write *.nnkp)      :                 F             |
 |  Using Gamma-only branch of algorithms     :                 F             |
 *----------------------------------------------------------------------------*
 *------------------------------- WANNIERISE ---------------------------------*
 |  Total number of iterations                :               500             |
 |  Number of CG steps before reset           :                 5             |
 |  Trial step length for line search         :             2.000             |
 |  Convergence tolerence                     :         0.100E-09             |
 |  Convergence window                        :                -1             |
 |  Iterations between writing output         :                 1             |
 |  Iterations between backing up to disk     :               100             |
 |  Write r^2_nm to file                      :                 F             |
 |  Write xyz WF centres to file              :                 F             |
 |  Write on-site energies <0n|H|0n> to file  :                 F             |
 |  Use guiding centre to control phases      :                 F             |
 |  Use phases for initial projections        :                 F             |
 *----------------------------------------------------------------------------*
 Time to read parameters        0.118 (sec)

 *---------------------------------- K-MESH ----------------------------------*
 +----------------------------------------------------------------------------+
 |                    Distance to Nearest-Neighbour Shells                    |
 |                    ------------------------------------                    |
 |          Shell             Distance (Ang^-1)          Multiplicity         |
 |          -----             -----------------          ------------         |
 |             1                   0.153113                      8            |
 |             2                   0.176799                      6            |
 |             3                   0.250032                     12            |
 |             4                   0.293189                     24            |
 |             5                   0.306226                      8            |
 |             6                   0.353599                      6            |
 |             7                   0.385325                     24            |
 |             8                   0.395335                     24            |
 |             9                   0.433068                     24            |
 |            10                   0.459338                     32            |
 |            11                   0.500064                     12            |
 |            12                   0.522980                     48            |
 |            13                   0.530398                     30            |
 |            14                   0.559089                     24            |
 |            15                   0.579676                     24            |
 |            16                   0.586377                     24            |
 |            17                   0.612451                      8            |
 |            18                   0.631300                     48            |
 |            19                   0.637459                     24            |
 |            20                   0.661523                     48            |
 |            21                   0.679011                     72            |
 |            22                   0.707197                      6            |
 |            23                   0.723583                     24            |
 |            24                   0.728963                     48            |
 |            25                   0.750096                     36            |
 |            26                   0.765564                     56            |
 |            27                   0.770651                     24            |
 |            28                   0.790671                     24            |
 |            29                   0.805359                     72            |
 |            30                   0.810197                     48            |
 |            31                   0.829263                     24            |
 |            32                   0.843279                     48            |
 |            33                   0.866137                     24            |
 |            34                   0.879566                     72            |
 |            35                   0.883997                     30            |
 |            36                   0.901503                     72            |
 +----------------------------------------------------------------------------+
 | The b-vectors are chosen automatically                                     |
 | The following shells are used:   1                                         |
 +----------------------------------------------------------------------------+
 |                        Shell   # Nearest-Neighbours                        |
 |                        -----   --------------------                        |
 |                          1               8                                 |
 +----------------------------------------------------------------------------+
 | Completeness relation is fully satisfied [Eq. (B1), PRB 56, 12847 (1997)]  |
 +----------------------------------------------------------------------------+
 |                  b_k Vectors (Ang^-1) and Weights (Ang^2)                  |
 |                  ----------------------------------------                  |
 |            No.         b_k(x)      b_k(y)      b_k(z)        w_b           |
 |            ---        --------------------------------     --------        |
 |             1        -0.088400    0.088400   -0.088400    15.995897        |
 |             2         0.088400    0.088400    0.088400    15.995897        |
 |             3        -0.088400   -0.088400    0.088400    15.995897        |
 |             4        -0.088400    0.088400    0.088400    15.995897        |
 |             5         0.088400   -0.088400    0.088400    15.995897        |
 |             6        -0.088400   -0.088400   -0.088400    15.995897        |
 |             7         0.088400    0.088400   -0.088400    15.995897        |
 |             8         0.088400   -0.088400   -0.088400    15.995897        |
 +----------------------------------------------------------------------------+
 |                           b_k Directions (Ang^-1)                          |
 |                           -----------------------                          |
 |            No.           x           y           z                         |
 |            ---        --------------------------------                     |
 |             1        -0.088400    0.088400   -0.088400                     |
 |             2         0.088400    0.088400    0.088400                     |
 |             3        -0.088400   -0.088400    0.088400                     |
 |             4        -0.088400    0.088400    0.088400                     |
 +----------------------------------------------------------------------------+
  
 Time to get kmesh              1.072 (sec)
 *============================================================================*
 |                              MEMORY ESTIMATE                               |
 |         Maximum RAM allocated during each phase of the calculation         |
 *============================================================================*
 |                            Wannierise:            7.00 Mb                  |
 |                          plot_wannier:            7.00 Mb                  |
 *----------------------------------------------------------------------------*
  
 Starting a new Wannier90 calculation ...


 Reading overlaps from mp-22916.mmn    :  Created on  3Jan2024 at 14:35:50

 Reading projections from mp-22916.amn :  Created on  3Jan2024 at 14:35:49  with SCDM

 Time to read overlaps          0.137 (sec)

 Writing checkpoint file mp-22916.chk... done

 
 *------------------------------- WANNIERISE ---------------------------------*
 +--------------------------------------------------------------------+<-- CONV
 | Iter  Delta Spread     RMS Gradient      Spread (Ang^2)      Time  |<-- CONV
 +--------------------------------------------------------------------+<-- CONV
 
 ------------------------------------------------------------------------------
 Initial State
  WF centre and spread    1  (  2.963383,  0.000868,  0.001066 )     1.78702964
  WF centre and spread    2  ( -0.000605,  0.000879, -2.963677 )     1.78706748
  WF centre and spread    3  ( -0.000916, -2.963627,  0.000783 )     1.79118228
  Sum of centres and spreads (  2.961862, -2.961880, -2.961828 )     5.36527941
 
      0     0.537E+01     0.0000000000        5.3652815141       0.00  <-- CONV
        O_D=      0.0740781 O_OD=      0.0999974 O_TOT=      5.3652815 <-- SPRD
 ------------------------------------------------------------------------------
 Cycle:      1
  WF centre and spread    1  (  2.961747,  0.000101,  0.000123 )     1.74182103
  WF centre and spread    2  ( -0.000069,  0.000100, -2.961775 )     1.74180536
  WF centre and spread    3  ( -0.000104, -2.961774,  0.000084 )     1.74233205
  Sum of centres and spreads (  2.961573, -2.961573, -2.961568 )     5.22595845
 
      1    -0.139E+00     0.0799515978        5.2259605547       0.01  <-- CONV
        O_D=      0.0075921 O_OD=      0.0271624 O_TOT=      5.2259606 <-- SPRD
 Delta: O_D= -0.6648594E-01 O_OD= -0.7283502E-01 O_TOT= -0.1393210E+00 <-- DLTA
 ------------------------------------------------------------------------------
 Cycle:      2
  WF centre and spread    1  (  2.961627,  0.000042,  0.000051 )     1.73816984
  WF centre and spread    2  ( -0.000028,  0.000041, -2.961640 )     1.73823893
  WF centre and spread    3  ( -0.000043, -2.961639,  0.000034 )     1.73834581
  Sum of centres and spreads (  2.961557, -2.961556, -2.961554 )     5.21475458
 
      2    -0.112E-01     0.0556987100        5.2147566861       0.01  <-- CONV
        O_D=      0.0026112 O_OD=      0.0209395 O_TOT=      5.2147567 <-- SPRD
 Delta: O_D= -0.4980952E-02 O_OD= -0.6222916E-02 O_TOT= -0.1120387E-01 <-- DLTA
 ------------------------------------------------------------------------------
 Cycle:      3
  WF centre and spread    1  (  2.961575,  0.000015,  0.000019 )     1.73664428
  WF centre and spread    2  ( -0.000009,  0.000014, -2.961580 )     1.73665773
  WF centre and spread    3  ( -0.000015, -2.961579,  0.000012 )     1.73674328
  Sum of centres and spreads (  2.961551, -2.961550, -2.961549 )     5.21004529
 
      3    -0.471E-02     0.0501753906        5.2100473956       0.02  <-- CONV
        O_D=      0.0008483 O_OD=      0.0179930 O_TOT=      5.2100474 <-- SPRD
 Delta: O_D= -0.1762817E-02 O_OD= -0.2946474E-02 O_TOT= -0.4709291E-02 <-- DLTA
 ------------------------------------------------------------------------------
 Cycle:      4
  WF centre and spread    1  (  2.961560,  0.000007,  0.000009 )     1.73619485
  WF centre and spread    2  ( -0.000004,  0.000007, -2.961562 )     1.73620142
  WF centre and spread    3  ( -0.000007, -2.961561,  0.000006 )     1.73625718
  Sum of centres and spreads (  2.961549, -2.961547, -2.961547 )     5.20865345
 
      4    -0.139E-02     0.0250056556        5.2086555522       0.03  <-- CONV
        O_D=      0.0002736 O_OD=      0.0171759 O_TOT=      5.2086556 <-- SPRD
 Delta: O_D= -0.5747321E-03 O_OD= -0.8171112E-03 O_TOT= -0.1391843E-02 <-- DLTA
 ------------------------------------------------------------------------------
 Cycle:      5
  WF centre and spread    1  (  2.961553,  0.000004,  0.000005 )     1.73603933
  WF centre and spread    2  ( -0.000002,  0.000004, -2.961555 )     1.73604295
  WF centre and spread    3  ( -0.000004, -2.961554,  0.000004 )     1.73609185
  Sum of centres and spreads (  2.961547, -2.961546, -2.961546 )     5.20817413
 
      5    -0.479E-03     0.0152534917        5.2081762332       0.03  <-- CONV
        O_D=      0.0000781 O_OD=      0.0168921 O_TOT=      5.2081762 <-- SPRD
 Delta: O_D= -0.1955366E-03 O_OD= -0.2837825E-03 O_TOT= -0.4793191E-03 <-- DLTA
 ------------------------------------------------------------------------------
 Cycle:      6
  WF centre and spread    1  (  2.961551,  0.000003,  0.000004 )     1.73599746
  WF centre and spread    2  ( -0.000002,  0.000003, -2.961552 )     1.73599872
  WF centre and spread    3  ( -0.000003, -2.961552,  0.000003 )     1.73604662
  Sum of centres and spreads (  2.961547, -2.961545, -2.961545 )     5.20804279
 
      6    -0.131E-03     0.0081527573        5.2080448953       0.04  <-- CONV
        O_D=      0.0000266 O_OD=      0.0168122 O_TOT=      5.2080449 <-- SPRD
 Delta: O_D= -0.5142670E-04 O_OD= -0.7991112E-04 O_TOT= -0.1313378E-03 <-- DLTA
 ------------------------------------------------------------------------------
 Cycle:      7
  WF centre and spread    1  (  2.961551,  0.000003,  0.000004 )     1.73598604
  WF centre and spread    2  ( -0.000002,  0.000003, -2.961551 )     1.73598691
  WF centre and spread    3  ( -0.000003, -2.961551,  0.000003 )     1.73603465
  Sum of centres and spreads (  2.961546, -2.961545, -2.961545 )     5.20800760
 
      7    -0.352E-04     0.0045187232        5.2080097053       0.05  <-- CONV
        O_D=      0.0000145 O_OD=      0.0167892 O_TOT=      5.2080097 <-- SPRD
 Delta: O_D= -0.1216045E-04 O_OD= -0.2302956E-04 O_TOT= -0.3519001E-04 <-- DLTA
 ------------------------------------------------------------------------------
 Cycle:      8
  WF centre and spread    1  (  2.961550,  0.000003,  0.000003 )     1.73597657
  WF centre and spread    2  ( -0.000002,  0.000003, -2.961550 )     1.73597639
  WF centre and spread    3  ( -0.000003, -2.961550,  0.000003 )     1.73602439
  Sum of centres and spreads (  2.961546, -2.961544, -2.961544 )     5.20797736
 
      8    -0.302E-04     0.0031936723        5.2079794631       0.06  <-- CONV
        O_D=      0.0000073 O_OD=      0.0167662 O_TOT=      5.2079795 <-- SPRD
 Delta: O_D= -0.7226308E-05 O_OD= -0.2301590E-04 O_TOT= -0.3024221E-04 <-- DLTA
 ------------------------------------------------------------------------------
 Cycle:      9
  WF centre and spread    1  (  2.961549,  0.000003,  0.000003 )     1.73597167
  WF centre and spread    2  ( -0.000001,  0.000003, -2.961549 )     1.73597094
  WF centre and spread    3  ( -0.000002, -2.961549,  0.000002 )     1.73601919
  Sum of centres and spreads (  2.961545, -2.961544, -2.961544 )     5.20796180
 
      9    -0.156E-04     0.0025568450        5.2079639087       0.06  <-- CONV
        O_D=      0.0000037 O_OD=      0.0167542 O_TOT=      5.2079639 <-- SPRD
 Delta: O_D= -0.3571223E-05 O_OD= -0.1198315E-04 O_TOT= -0.1555438E-04 <-- DLTA
 ------------------------------------------------------------------------------
 Cycle:     10
  WF centre and spread    1  (  2.961548,  0.000002,  0.000003 )     1.73596964
  WF centre and spread    2  ( -0.000001,  0.000002, -2.961548 )     1.73596869
  WF centre and spread    3  ( -0.000002, -2.961548,  0.000002 )     1.73601712
  Sum of centres and spreads (  2.961545, -2.961543, -2.961543 )     5.20795545
 
     10    -0.635E-05     0.0016672822        5.2079575555       0.07  <-- CONV
        O_D=      0.0000017 O_OD=      0.0167499 O_TOT=      5.2079576 <-- SPRD
 Delta: O_D= -0.2024643E-05 O_OD= -0.4328582E-05 O_TOT= -0.6353226E-05 <-- DLTA
 ------------------------------------------------------------------------------
 Cycle:     11
  WF centre and spread    1  (  2.961547,  0.000002,  0.000002 )     1.73596894
  WF centre and spread    2  ( -0.000001,  0.000002, -2.961547 )     1.73596793
  WF centre and spread    3  ( -0.000002, -2.961547,  0.000002 )     1.73601650
  Sum of centres and spreads (  2.961544, -2.961543, -2.961543 )     5.20795336
 
     11    -0.209E-05     0.0010342472        5.2079554664       0.08  <-- CONV
        O_D=      0.0000010 O_OD=      0.0167485 O_TOT=      5.2079555 <-- SPRD
 Delta: O_D= -0.6941569E-06 O_OD= -0.1394997E-05 O_TOT= -0.2089154E-05 <-- DLTA
 ------------------------------------------------------------------------------
 Cycle:     12
  WF centre and spread    1  (  2.961546,  0.000002,  0.000002 )     1.73596850
  WF centre and spread    2  ( -0.000001,  0.000002, -2.961546 )     1.73596753
  WF centre and spread    3  ( -0.000001, -2.961546,  0.000001 )     1.73601627
  Sum of centres and spreads (  2.961544, -2.961543, -2.961543 )     5.20795230
 
     12    -0.106E-05     0.0005911357        5.2079544064       0.08  <-- CONV
        O_D=      0.0000005 O_OD=      0.0167479 O_TOT=      5.2079544 <-- SPRD
 Delta: O_D= -0.4474214E-06 O_OD= -0.6125554E-06 O_TOT= -0.1059977E-05 <-- DLTA
 ------------------------------------------------------------------------------
 Cycle:     13
  WF centre and spread    1  (  2.961546,  0.000002,  0.000002 )     1.73596838
  WF centre and spread    2  ( -0.000001,  0.000002, -2.961546 )     1.73596743
  WF centre and spread    3  ( -0.000001, -2.961546,  0.000001 )     1.73601619
  Sum of centres and spreads (  2.961544, -2.961543, -2.961543 )     5.20795199
 
     13    -0.308E-06     0.0004641932        5.2079540983       0.09  <-- CONV
        O_D=      0.0000004 O_OD=      0.0167477 O_TOT=      5.2079541 <-- SPRD
 Delta: O_D= -0.1438764E-06 O_OD= -0.1642246E-06 O_TOT= -0.3081011E-06 <-- DLTA
 ------------------------------------------------------------------------------
 Cycle:     14
  WF centre and spread    1  (  2.961545,  0.000001,  0.000001 )     1.73596821
  WF centre and spread    2  ( -0.000000,  0.000001, -2.961545 )     1.73596735
  WF centre and spread    3  ( -0.000001, -2.961545,  0.000001 )     1.73601619
  Sum of centres and spreads (  2.961544, -2.961543, -2.961543 )     5.20795175
 
     14    -0.243E-06     0.0002713064        5.2079538554       0.10  <-- CONV
        O_D=      0.0000002 O_OD=      0.0167476 O_TOT=      5.2079539 <-- SPRD
 Delta: O_D= -0.1304730E-06 O_OD= -0.1123932E-06 O_TOT= -0.2428661E-06 <-- DLTA
 ------------------------------------------------------------------------------
 Cycle:     15
  WF centre and spread    1  (  2.961545,  0.000001,  0.000001 )     1.73596801
  WF centre and spread    2  ( -0.000000,  0.000001, -2.961544 )     1.73596728
  WF centre and spread    3  ( -0.000001, -2.961544,  0.000001 )     1.73601625
  Sum of centres and spreads (  2.961544, -2.961542, -2.961543 )     5.20795154
 
     15    -0.213E-06     0.0002708710        5.2079536421       0.10  <-- CONV
        O_D=      0.0000001 O_OD=      0.0167475 O_TOT=      5.2079536 <-- SPRD
 Delta: O_D= -0.1067991E-06 O_OD= -0.1065177E-06 O_TOT= -0.2133168E-06 <-- DLTA
 ------------------------------------------------------------------------------
 Cycle:     16
  WF centre and spread    1  (  2.961544,  0.000001,  0.000001 )     1.73596784
  WF centre and spread    2  (  0.000000,  0.000001, -2.961544 )     1.73596724
  WF centre and spread    3  ( -0.000000, -2.961543,  0.000000 )     1.73601631
  Sum of centres and spreads (  2.961544, -2.961542, -2.961542 )     5.20795140
 
     16    -0.139E-06     0.0002252504        5.2079535028       0.11  <-- CONV
        O_D=      0.0000001 O_OD=      0.0167474 O_TOT=      5.2079535 <-- SPRD
 Delta: O_D= -0.6709107E-07 O_OD= -0.7225660E-07 O_TOT= -0.1393477E-06 <-- DLTA
 ------------------------------------------------------------------------------
 Cycle:     17
  WF centre and spread    1  (  2.961543,  0.000000,  0.000000 )     1.73596771
  WF centre and spread    2  (  0.000000,  0.000000, -2.961543 )     1.73596722
  WF centre and spread    3  (  0.000000, -2.961543,  0.000000 )     1.73601637
  Sum of centres and spreads (  2.961543, -2.961542, -2.961542 )     5.20795131
 
     17    -0.855E-07     0.0001859678        5.2079534173       0.12  <-- CONV
        O_D=      0.0000000 O_OD=      0.0167474 O_TOT=      5.2079534 <-- SPRD
 Delta: O_D= -0.3419486E-07 O_OD= -0.5129688E-07 O_TOT= -0.8549174E-07 <-- DLTA
 ------------------------------------------------------------------------------
 Cycle:     18
  WF centre and spread    1  (  2.961543,  0.000000,  0.000000 )     1.73596763
  WF centre and spread    2  (  0.000000,  0.000000, -2.961542 )     1.73596722
  WF centre and spread    3  (  0.000000, -2.961542,  0.000000 )     1.73601641
  Sum of centres and spreads (  2.961543, -2.961542, -2.961542 )     5.20795127
 
     18    -0.452E-07     0.0001332447        5.2079533721       0.12  <-- CONV
        O_D=      0.0000000 O_OD=      0.0167473 O_TOT=      5.2079534 <-- SPRD
 Delta: O_D= -0.1683314E-07 O_OD= -0.2836875E-07 O_TOT= -0.4520190E-07 <-- DLTA
 ------------------------------------------------------------------------------
 Cycle:     19
  WF centre and spread    1  (  2.961543,  0.000000,  0.000000 )     1.73596762
  WF centre and spread    2  (  0.000000,  0.000000, -2.961542 )     1.73596721
  WF centre and spread    3  (  0.000000, -2.961542,  0.000000 )     1.73601641
  Sum of centres and spreads (  2.961543, -2.961542, -2.961542 )     5.20795124
 
     19    -0.224E-07     0.0001231451        5.2079533497       0.13  <-- CONV
        O_D=      0.0000000 O_OD=      0.0167473 O_TOT=      5.2079533 <-- SPRD
 Delta: O_D= -0.9169863E-08 O_OD= -0.1321215E-07 O_TOT= -0.2238201E-07 <-- DLTA
 ------------------------------------------------------------------------------
 Cycle:     20
  WF centre and spread    1  (  2.961543,  0.000000,  0.000000 )     1.73596761
  WF centre and spread    2  (  0.000000,  0.000000, -2.961542 )     1.73596721
  WF centre and spread    3  (  0.000000, -2.961542,  0.000000 )     1.73601640
  Sum of centres and spreads (  2.961543, -2.961542, -2.961542 )     5.20795123
 
     20    -0.165E-07     0.0000727162        5.2079533332       0.14  <-- CONV
        O_D=      0.0000000 O_OD=      0.0167473 O_TOT=      5.2079533 <-- SPRD
 Delta: O_D= -0.5193374E-08 O_OD= -0.1131839E-07 O_TOT= -0.1651176E-07 <-- DLTA
 ------------------------------------------------------------------------------
 Cycle:     21
  WF centre and spread    1  (  2.961543,  0.000000,  0.000000 )     1.73596759
  WF centre and spread    2  (  0.000000,  0.000000, -2.961542 )     1.73596721
  WF centre and spread    3  (  0.000000, -2.961542,  0.000000 )     1.73601641
  Sum of centres and spreads (  2.961543, -2.961542, -2.961542 )     5.20795121
 
     21    -0.137E-07     0.0000623923        5.2079533195       0.14  <-- CONV
        O_D=      0.0000000 O_OD=      0.0167473 O_TOT=      5.2079533 <-- SPRD
 Delta: O_D=  0.7435713E-09 O_OD= -0.1443397E-07 O_TOT= -0.1369040E-07 <-- DLTA
 ------------------------------------------------------------------------------
 Cycle:     22
  WF centre and spread    1  (  2.961542,  0.000000,  0.000000 )     1.73596757
  WF centre and spread    2  (  0.000000,  0.000000, -2.961542 )     1.73596721
  WF centre and spread    3  (  0.000000, -2.961542,  0.000000 )     1.73601642
  Sum of centres and spreads (  2.961543, -2.961542, -2.961542 )     5.20795120
 
     22    -0.151E-07     0.0000776542        5.2079533044       0.15  <-- CONV
        O_D=      0.0000000 O_OD=      0.0167473 O_TOT=      5.2079533 <-- SPRD
 Delta: O_D=  0.5585802E-08 O_OD= -0.2069326E-07 O_TOT= -0.1510746E-07 <-- DLTA
 ------------------------------------------------------------------------------
 Cycle:     23
  WF centre and spread    1  (  2.961542,  0.000000,  0.000000 )     1.73596754
  WF centre and spread    2  (  0.000000,  0.000000, -2.961542 )     1.73596721
  WF centre and spread    3  (  0.000000, -2.961542,  0.000000 )     1.73601643
  Sum of centres and spreads (  2.961543, -2.961542, -2.961542 )     5.20795118
 
     23    -0.233E-07     0.0000788367        5.2079532811       0.16  <-- CONV
        O_D=      0.0000000 O_OD=      0.0167472 O_TOT=      5.2079533 <-- SPRD
 Delta: O_D=  0.7181115E-08 O_OD= -0.3047899E-07 O_TOT= -0.2329787E-07 <-- DLTA
 ------------------------------------------------------------------------------
 Cycle:     24
  WF centre and spread    1  (  2.961542, -0.000000, -0.000000 )     1.73596747
  WF centre and spread    2  (  0.000001, -0.000000, -2.961542 )     1.73596719
  WF centre and spread    3  (  0.000000, -2.961542, -0.000000 )     1.73601647
  Sum of centres and spreads (  2.961543, -2.961542, -2.961542 )     5.20795113
 
     24    -0.491E-07     0.0000913165        5.2079532320       0.16  <-- CONV
        O_D=      0.0000000 O_OD=      0.0167472 O_TOT=      5.2079532 <-- SPRD
 Delta: O_D=  0.1734224E-07 O_OD= -0.6640252E-07 O_TOT= -0.4906028E-07 <-- DLTA
 ------------------------------------------------------------------------------
 Cycle:     25
  WF centre and spread    1  (  2.961542, -0.000000, -0.000000 )     1.73596746
  WF centre and spread    2  (  0.000001, -0.000000, -2.961542 )     1.73596717
  WF centre and spread    3  (  0.000000, -2.961542, -0.000000 )     1.73601645
  Sum of centres and spreads (  2.961543, -2.961542, -2.961542 )     5.20795108
 
     25    -0.471E-07     0.0001774574        5.2079531849       0.17  <-- CONV
        O_D=      0.0000000 O_OD=      0.0167471 O_TOT=      5.2079532 <-- SPRD
 Delta: O_D= -0.1948125E-07 O_OD= -0.2760535E-07 O_TOT= -0.4708660E-07 <-- DLTA
 ------------------------------------------------------------------------------
 Cycle:     26
  WF centre and spread    1  (  2.961542, -0.000000, -0.000000 )     1.73596746
  WF centre and spread    2  (  0.000001, -0.000000, -2.961542 )     1.73596715
  WF centre and spread    3  (  0.000000, -2.961542, -0.000000 )     1.73601644
  Sum of centres and spreads (  2.961543, -2.961542, -2.961542 )     5.20795106
 
     26    -0.221E-07     0.0000915268        5.2079531628       0.18  <-- CONV
        O_D=      0.0000000 O_OD=      0.0167471 O_TOT=      5.2079532 <-- SPRD
 Delta: O_D= -0.8767904E-08 O_OD= -0.1333460E-07 O_TOT= -0.2210250E-07 <-- DLTA
 ------------------------------------------------------------------------------
 Cycle:     27
  WF centre and spread    1  (  2.961542, -0.000000, -0.000000 )     1.73596747
  WF centre and spread    2  (  0.000001, -0.000000, -2.961542 )     1.73596714
  WF centre and spread    3  (  0.000000, -2.961542, -0.000000 )     1.73601644
  Sum of centres and spreads (  2.961543, -2.961542, -2.961542 )     5.20795104
 
     27    -0.151E-07     0.0000715324        5.2079531477       0.19  <-- CONV
        O_D=      0.0000000 O_OD=      0.0167471 O_TOT=      5.2079531 <-- SPRD
 Delta: O_D= -0.3158424E-08 O_OD= -0.1197390E-07 O_TOT= -0.1513232E-07 <-- DLTA
 ------------------------------------------------------------------------------
 Cycle:     28
  WF centre and spread    1  (  2.961542,  0.000000,  0.000000 )     1.73596747
  WF centre and spread    2  (  0.000000, -0.000000, -2.961542 )     1.73596712
  WF centre and spread    3  (  0.000000, -2.961542, -0.000000 )     1.73601644
  Sum of centres and spreads (  2.961543, -2.961542, -2.961542 )     5.20795103
 
     28    -0.152E-07     0.0000662983        5.2079531325       0.19  <-- CONV
        O_D=      0.0000000 O_OD=      0.0167471 O_TOT=      5.2079531 <-- SPRD
 Delta: O_D=  0.1498707E-08 O_OD= -0.1666111E-07 O_TOT= -0.1516240E-07 <-- DLTA
 ------------------------------------------------------------------------------
 Cycle:     29
  WF centre and spread    1  (  2.961542,  0.000000,  0.000000 )     1.73596748
  WF centre and spread    2  (  0.000000, -0.000000, -2.961542 )     1.73596709
  WF centre and spread    3  (  0.000000, -2.961542,  0.000000 )     1.73601643
  Sum of centres and spreads (  2.961543, -2.961542, -2.961542 )     5.20795101
 
     29    -0.204E-07     0.0000714529        5.2079531121       0.20  <-- CONV
        O_D=      0.0000000 O_OD=      0.0167471 O_TOT=      5.2079531 <-- SPRD
 Delta: O_D=  0.5912640E-08 O_OD= -0.2634229E-07 O_TOT= -0.2042965E-07 <-- DLTA
 ------------------------------------------------------------------------------
 Cycle:     30
  WF centre and spread    1  (  2.961543,  0.000000,  0.000000 )     1.73596748
  WF centre and spread    2  (  0.000000,  0.000000, -2.961542 )     1.73596707
  WF centre and spread    3  (  0.000000, -2.961542,  0.000000 )     1.73601643
  Sum of centres and spreads (  2.961543, -2.961542, -2.961542 )     5.20795098
 
     30    -0.295E-07     0.0000664431        5.2079530826       0.21  <-- CONV
        O_D=      0.0000000 O_OD=      0.0167470 O_TOT=      5.2079531 <-- SPRD
 Delta: O_D=  0.7881648E-08 O_OD= -0.3742884E-07 O_TOT= -0.2954719E-07 <-- DLTA
 ------------------------------------------------------------------------------
 Cycle:     31
  WF centre and spread    1  (  2.961543,  0.000000,  0.000000 )     1.73596747
  WF centre and spread    2  (  0.000000,  0.000000, -2.961542 )     1.73596706
  WF centre and spread    3  (  0.000000, -2.961542,  0.000000 )     1.73601642
  Sum of centres and spreads (  2.961543, -2.961542, -2.961542 )     5.20795096
 
     31    -0.206E-07     0.0001256535        5.2079530620       0.21  <-- CONV
        O_D=      0.0000000 O_OD=      0.0167470 O_TOT=      5.2079531 <-- SPRD
 Delta: O_D= -0.8940748E-08 O_OD= -0.1163399E-07 O_TOT= -0.2057474E-07 <-- DLTA
 ------------------------------------------------------------------------------
 Cycle:     32
  WF centre and spread    1  (  2.961543,  0.000000,  0.000000 )     1.73596746
  WF centre and spread    2  (  0.000000,  0.000000, -2.961542 )     1.73596707
  WF centre and spread    3  (  0.000000, -2.961542,  0.000000 )     1.73601642
  Sum of centres and spreads (  2.961543, -2.961542, -2.961542 )     5.20795094
 
     32    -0.162E-07     0.0000689550        5.2079530458       0.22  <-- CONV
        O_D=      0.0000000 O_OD=      0.0167470 O_TOT=      5.2079530 <-- SPRD
 Delta: O_D= -0.5286293E-08 O_OD= -0.1089394E-07 O_TOT= -0.1618023E-07 <-- DLTA
 ------------------------------------------------------------------------------
 Cycle:     33
  WF centre and spread    1  (  2.961543,  0.000000,  0.000000 )     1.73596744
  WF centre and spread    2  (  0.000000,  0.000000, -2.961542 )     1.73596707
  WF centre and spread    3  (  0.000000, -2.961542,  0.000000 )     1.73601642
  Sum of centres and spreads (  2.961543, -2.961542, -2.961542 )     5.20795092
 
     33    -0.169E-07     0.0000700150        5.2079530289       0.23  <-- CONV
        O_D=      0.0000000 O_OD=      0.0167470 O_TOT=      5.2079530 <-- SPRD
 Delta: O_D= -0.1900123E-08 O_OD= -0.1501096E-07 O_TOT= -0.1691108E-07 <-- DLTA
 ------------------------------------------------------------------------------
 Cycle:     34
  WF centre and spread    1  (  2.961543,  0.000000,  0.000000 )     1.73596742
  WF centre and spread    2  (  0.000000,  0.000000, -2.961542 )     1.73596707
  WF centre and spread    3  (  0.000000, -2.961542,  0.000000 )     1.73601642
  Sum of centres and spreads (  2.961543, -2.961542, -2.961542 )     5.20795091
 
     34    -0.153E-07     0.0000584653        5.2079530136       0.23  <-- CONV
        O_D=      0.0000000 O_OD=      0.0167470 O_TOT=      5.2079530 <-- SPRD
 Delta: O_D=  0.3706733E-08 O_OD= -0.1899579E-07 O_TOT= -0.1528905E-07 <-- DLTA
 ------------------------------------------------------------------------------
 Cycle:     35
  WF centre and spread    1  (  2.961542,  0.000000,  0.000000 )     1.73596738
  WF centre and spread    2  (  0.000000,  0.000000, -2.961542 )     1.73596706
  WF centre and spread    3  (  0.000000, -2.961542,  0.000000 )     1.73601643
  Sum of centres and spreads (  2.961543, -2.961542, -2.961542 )     5.20795088
 
     35    -0.262E-07     0.0000763454        5.2079529874       0.24  <-- CONV
        O_D=      0.0000000 O_OD=      0.0167469 O_TOT=      5.2079530 <-- SPRD
 Delta: O_D=  0.1253577E-07 O_OD= -0.3872256E-07 O_TOT= -0.2618679E-07 <-- DLTA
 ------------------------------------------------------------------------------
 Cycle:     36
  WF centre and spread    1  (  2.961542,  0.000000,  0.000000 )     1.73596731
  WF centre and spread    2  (  0.000000, -0.000000, -2.961542 )     1.73596704
  WF centre and spread    3  (  0.000000, -2.961542, -0.000000 )     1.73601647
  Sum of centres and spreads (  2.961543, -2.961542, -2.961542 )     5.20795083
 
     36    -0.526E-07     0.0001074947        5.2079529348       0.25  <-- CONV
        O_D=      0.0000000 O_OD=      0.0167469 O_TOT=      5.2079529 <-- SPRD
 Delta: O_D=  0.2688630E-07 O_OD= -0.7953040E-07 O_TOT= -0.5264410E-07 <-- DLTA
 ------------------------------------------------------------------------------
 Cycle:     37
  WF centre and spread    1  (  2.961542,  0.000000,  0.000000 )     1.73596730
  WF centre and spread    2  (  0.000000, -0.000000, -2.961542 )     1.73596702
  WF centre and spread    3  (  0.000000, -2.961542, -0.000000 )     1.73601645
  Sum of centres and spreads (  2.961543, -2.961542, -2.961542 )     5.20795078
 
     37    -0.539E-07     0.0001782706        5.2079528809       0.25  <-- CONV
        O_D=      0.0000000 O_OD=      0.0167468 O_TOT=      5.2079529 <-- SPRD
 Delta: O_D= -0.2368144E-07 O_OD= -0.3020311E-07 O_TOT= -0.5388454E-07 <-- DLTA
 ------------------------------------------------------------------------------
 Cycle:     38
  WF centre and spread    1  (  2.961542,  0.000000,  0.000000 )     1.73596730
  WF centre and spread    2  (  0.000001, -0.000000, -2.961542 )     1.73596700
  WF centre and spread    3  (  0.000000, -2.961542, -0.000000 )     1.73601645
  Sum of centres and spreads (  2.961543, -2.961542, -2.961542 )     5.20795074
 
     38    -0.317E-07     0.0001125907        5.2079528491       0.26  <-- CONV
        O_D=      0.0000000 O_OD=      0.0167468 O_TOT=      5.2079528 <-- SPRD
 Delta: O_D= -0.1277190E-07 O_OD= -0.1897647E-07 O_TOT= -0.3174838E-07 <-- DLTA
 ------------------------------------------------------------------------------
 Cycle:     39
  WF centre and spread    1  (  2.961542,  0.000000,  0.000000 )     1.73596731
  WF centre and spread    2  (  0.000001, -0.000000, -2.961542 )     1.73596698
  WF centre and spread    3  (  0.000000, -2.961542, -0.000000 )     1.73601644
  Sum of centres and spreads (  2.961543, -2.961542, -2.961542 )     5.20795072
 
     39    -0.201E-07     0.0000811039        5.2079528290       0.27  <-- CONV
        O_D=      0.0000000 O_OD=      0.0167468 O_TOT=      5.2079528 <-- SPRD
 Delta: O_D= -0.6003727E-08 O_OD= -0.1414338E-07 O_TOT= -0.2014710E-07 <-- DLTA
 ------------------------------------------------------------------------------
 Cycle:     40
  WF centre and spread    1  (  2.961542,  0.000000,  0.000000 )     1.73596731
  WF centre and spread    2  (  0.000000, -0.000000, -2.961542 )     1.73596696
  WF centre and spread    3  (  0.000000, -2.961542, -0.000000 )     1.73601644
  Sum of centres and spreads (  2.961543, -2.961542, -2.961542 )     5.20795071
 
     40    -0.152E-07     0.0000618423        5.2079528138       0.27  <-- CONV
        O_D=      0.0000000 O_OD=      0.0167468 O_TOT=      5.2079528 <-- SPRD
 Delta: O_D= -0.8900797E-09 O_OD= -0.1427091E-07 O_TOT= -0.1516099E-07 <-- DLTA
 ------------------------------------------------------------------------------
 Cycle:     41
  WF centre and spread    1  (  2.961542,  0.000000,  0.000000 )     1.73596732
  WF centre and spread    2  (  0.000000, -0.000000, -2.961542 )     1.73596694
  WF centre and spread    3  (  0.000000, -2.961542, -0.000000 )     1.73601644
  Sum of centres and spreads (  2.961543, -2.961542, -2.961542 )     5.20795069
 
     41    -0.155E-07     0.0000574654        5.2079527984       0.28  <-- CONV
        O_D=      0.0000000 O_OD=      0.0167468 O_TOT=      5.2079528 <-- SPRD
 Delta: O_D=  0.4844949E-08 O_OD= -0.2031992E-07 O_TOT= -0.1547497E-07 <-- DLTA
 ------------------------------------------------------------------------------
 Cycle:     42
  WF centre and spread    1  (  2.961543,  0.000000,  0.000000 )     1.73596733
  WF centre and spread    2  (  0.000000,  0.000000, -2.961542 )     1.73596690
  WF centre and spread    3  (  0.000000, -2.961542,  0.000000 )     1.73601644
  Sum of centres and spreads (  2.961543, -2.961542, -2.961542 )     5.20795067
 
     42    -0.210E-07     0.0000689398        5.2079527774       0.29  <-- CONV
        O_D=      0.0000000 O_OD=      0.0167467 O_TOT=      5.2079528 <-- SPRD
 Delta: O_D=  0.1808853E-07 O_OD= -0.3907665E-07 O_TOT= -0.2098813E-07 <-- DLTA
 ------------------------------------------------------------------------------
 Cycle:     43
  WF centre and spread    1  (  2.961543,  0.000000,  0.000000 )     1.73596731
  WF centre and spread    2  (  0.000000,  0.000000, -2.961542 )     1.73596690
  WF centre and spread    3  (  0.000000, -2.961542,  0.000000 )     1.73601643
  Sum of centres and spreads (  2.961543, -2.961542, -2.961542 )     5.20795064
 
     43    -0.320E-07     0.0001606763        5.2079527453       0.29  <-- CONV
        O_D=      0.0000000 O_OD=      0.0167467 O_TOT=      5.2079527 <-- SPRD
 Delta: O_D= -0.1262787E-07 O_OD= -0.1941956E-07 O_TOT= -0.3204742E-07 <-- DLTA
 ------------------------------------------------------------------------------
 Cycle:     44
  WF centre and spread    1  (  2.961543,  0.000000,  0.000000 )     1.73596730
  WF centre and spread    2  (  0.000000,  0.000000, -2.961542 )     1.73596690
  WF centre and spread    3  (  0.000000, -2.961542,  0.000000 )     1.73601642
  Sum of centres and spreads (  2.961543, -2.961542, -2.961542 )     5.20795062
 
     44    -0.211E-07     0.0000812102        5.2079527242       0.30  <-- CONV
        O_D=      0.0000000 O_OD=      0.0167467 O_TOT=      5.2079527 <-- SPRD
 Delta: O_D= -0.6973942E-08 O_OD= -0.1413599E-07 O_TOT= -0.2110993E-07 <-- DLTA
 ------------------------------------------------------------------------------
 Cycle:     45
  WF centre and spread    1  (  2.961543,  0.000000,  0.000000 )     1.73596728
  WF centre and spread    2  (  0.000000,  0.000000, -2.961542 )     1.73596690
  WF centre and spread    3  (  0.000000, -2.961542,  0.000000 )     1.73601642
  Sum of centres and spreads (  2.961543, -2.961542, -2.961542 )     5.20795060
 
     45    -0.150E-07     0.0000784218        5.2079527092       0.31  <-- CONV
        O_D=      0.0000000 O_OD=      0.0167467 O_TOT=      5.2079527 <-- SPRD
 Delta: O_D= -0.2043345E-08 O_OD= -0.1299492E-07 O_TOT= -0.1503827E-07 <-- DLTA
 ------------------------------------------------------------------------------
 Cycle:     46
  WF centre and spread    1  (  2.961543,  0.000000,  0.000000 )     1.73596726
  WF centre and spread    2  (  0.000000,  0.000000, -2.961542 )     1.73596691
  WF centre and spread    3  (  0.000000, -2.961542,  0.000000 )     1.73601642
  Sum of centres and spreads (  2.961543, -2.961542, -2.961542 )     5.20795059
 
     46    -0.155E-07     0.0000634954        5.2079526937       0.31  <-- CONV
        O_D=      0.0000000 O_OD=      0.0167467 O_TOT=      5.2079527 <-- SPRD
 Delta: O_D=  0.2760551E-08 O_OD= -0.1826520E-07 O_TOT= -0.1550465E-07 <-- DLTA
 ------------------------------------------------------------------------------
 Cycle:     47
  WF centre and spread    1  (  2.961542,  0.000000,  0.000000 )     1.73596723
  WF centre and spread    2  (  0.000000,  0.000000, -2.961542 )     1.73596691
  WF centre and spread    3  (  0.000000, -2.961542,  0.000000 )     1.73601643
  Sum of centres and spreads (  2.961543, -2.961542, -2.961542 )     5.20795057
 
     47    -0.176E-07     0.0000828406        5.2079526761       0.32  <-- CONV
        O_D=      0.0000000 O_OD=      0.0167466 O_TOT=      5.2079527 <-- SPRD
 Delta: O_D=  0.6442578E-08 O_OD= -0.2404672E-07 O_TOT= -0.1760414E-07 <-- DLTA
 ------------------------------------------------------------------------------
 Cycle:     48
  WF centre and spread    1  (  2.961542,  0.000000,  0.000000 )     1.73596720
  WF centre and spread    2  (  0.000000,  0.000000, -2.961542 )     1.73596690
  WF centre and spread    3  (  0.000000, -2.961542,  0.000000 )     1.73601645
  Sum of centres and spreads (  2.961543, -2.961542, -2.961542 )     5.20795054
 
     48    -0.313E-07     0.0000867328        5.2079526448       0.33  <-- CONV
        O_D=      0.0000000 O_OD=      0.0167466 O_TOT=      5.2079526 <-- SPRD
 Delta: O_D=  0.9860656E-08 O_OD= -0.4112080E-07 O_TOT= -0.3126014E-07 <-- DLTA
 ------------------------------------------------------------------------------
 Cycle:     49
  WF centre and spread    1  (  2.961542,  0.000000,  0.000000 )     1.73596719
  WF centre and spread    2  (  0.000000,  0.000000, -2.961542 )     1.73596688
  WF centre and spread    3  (  0.000000, -2.961542,  0.000000 )     1.73601644
  Sum of centres and spreads (  2.961543, -2.961542, -2.961542 )     5.20795051
 
     49    -0.332E-07     0.0001192070        5.2079526116       0.34  <-- CONV
        O_D=      0.0000000 O_OD=      0.0167466 O_TOT=      5.2079526 <-- SPRD
 Delta: O_D= -0.1387253E-07 O_OD= -0.1931719E-07 O_TOT= -0.3318972E-07 <-- DLTA
 ------------------------------------------------------------------------------
 Cycle:     50
  WF centre and spread    1  (  2.961542,  0.000000,  0.000000 )     1.73596719
  WF centre and spread    2  (  0.000000,  0.000000, -2.961542 )     1.73596686
  WF centre and spread    3  (  0.000000, -2.961542,  0.000000 )     1.73601644
  Sum of centres and spreads (  2.961543, -2.961542, -2.961542 )     5.20795049
 
     50    -0.160E-07     0.0000738891        5.2079525956       0.34  <-- CONV
        O_D=      0.0000000 O_OD=      0.0167466 O_TOT=      5.2079526 <-- SPRD
 Delta: O_D= -0.5010221E-08 O_OD= -0.1100116E-07 O_TOT= -0.1601138E-07 <-- DLTA
 ------------------------------------------------------------------------------
 Cycle:     51
  WF centre and spread    1  (  2.961542,  0.000000,  0.000000 )     1.73596720
  WF centre and spread    2  (  0.000000, -0.000000, -2.961542 )     1.73596684
  WF centre and spread    3  (  0.000000, -2.961542,  0.000000 )     1.73601644
  Sum of centres and spreads (  2.961543, -2.961542, -2.961542 )     5.20795048
 
     51    -0.154E-07     0.0000626930        5.2079525802       0.35  <-- CONV
        O_D=      0.0000000 O_OD=      0.0167466 O_TOT=      5.2079526 <-- SPRD
 Delta: O_D= -0.1522478E-08 O_OD= -0.1388896E-07 O_TOT= -0.1541143E-07 <-- DLTA
 ------------------------------------------------------------------------------
 Cycle:     52
  WF centre and spread    1  (  2.961542,  0.000000,  0.000000 )     1.73596720
  WF centre and spread    2  (  0.000000, -0.000000, -2.961542 )     1.73596681
  WF centre and spread    3  (  0.000000, -2.961542,  0.000000 )     1.73601645
  Sum of centres and spreads (  2.961543, -2.961542, -2.961542 )     5.20795046
 
     52    -0.155E-07     0.0000580426        5.2079525647       0.36  <-- CONV
        O_D=      0.0000000 O_OD=      0.0167465 O_TOT=      5.2079526 <-- SPRD
 Delta: O_D=  0.9442926E-08 O_OD= -0.2492511E-07 O_TOT= -0.1548218E-07 <-- DLTA
 ------------------------------------------------------------------------------
 Cycle:     53
  WF centre and spread    1  (  2.961542,  0.000000,  0.000000 )     1.73596720
  WF centre and spread    2  (  0.000000, -0.000000, -2.961542 )     1.73596681
  WF centre and spread    3  (  0.000000, -2.961542,  0.000000 )     1.73601644
  Sum of centres and spreads (  2.961543, -2.961542, -2.961542 )     5.20795045
 
     53    -0.146E-07     0.0001086207        5.2079525501       0.36  <-- CONV
        O_D=      0.0000000 O_OD=      0.0167465 O_TOT=      5.2079526 <-- SPRD
 Delta: O_D= -0.5661370E-08 O_OD= -0.8921164E-08 O_TOT= -0.1458253E-07 <-- DLTA
 ------------------------------------------------------------------------------
 Cycle:     54
  WF centre and spread    1  (  2.961542,  0.000000,  0.000000 )     1.73596718
  WF centre and spread    2  (  0.000000,  0.000000, -2.961542 )     1.73596681
  WF centre and spread    3  (  0.000000, -2.961542,  0.000000 )     1.73601644
  Sum of centres and spreads (  2.961543, -2.961542, -2.961542 )     5.20795043
 
     54    -0.147E-07     0.0000553591        5.2079525354       0.37  <-- CONV
        O_D=      0.0000000 O_OD=      0.0167465 O_TOT=      5.2079525 <-- SPRD
 Delta: O_D= -0.2745576E-08 O_OD= -0.1197625E-07 O_TOT= -0.1472182E-07 <-- DLTA
 ------------------------------------------------------------------------------
 Cycle:     55
  WF centre and spread    1  (  2.961542,  0.000000,  0.000000 )     1.73596717
  WF centre and spread    2  (  0.000000,  0.000000, -2.961542 )     1.73596681
  WF centre and spread    3  (  0.000000, -2.961542,  0.000000 )     1.73601643
  Sum of centres and spreads (  2.961543, -2.961542, -2.961542 )     5.20795041
 
     55    -0.201E-07     0.0000716806        5.2079525153       0.38  <-- CONV
        O_D=      0.0000000 O_OD=      0.0167465 O_TOT=      5.2079525 <-- SPRD
 Delta: O_D= -0.1183701E-09 O_OD= -0.1993787E-07 O_TOT= -0.2005623E-07 <-- DLTA
 ------------------------------------------------------------------------------
 Cycle:     56
  WF centre and spread    1  (  2.961542,  0.000000,  0.000000 )     1.73596715
  WF centre and spread    2  (  0.000000,  0.000000, -2.961542 )     1.73596681
  WF centre and spread    3  (  0.000000, -2.961542,  0.000000 )     1.73601643
  Sum of centres and spreads (  2.961543, -2.961542, -2.961542 )     5.20795040
 
     56    -0.146E-07     0.0000582612        5.2079525008       0.38  <-- CONV
        O_D=      0.0000000 O_OD=      0.0167465 O_TOT=      5.2079525 <-- SPRD
 Delta: O_D=  0.4633879E-08 O_OD= -0.1918725E-07 O_TOT= -0.1455337E-07 <-- DLTA
 ------------------------------------------------------------------------------
 Cycle:     57
  WF centre and spread    1  (  2.961543,  0.000000,  0.000000 )     1.73596712
  WF centre and spread    2  (  0.000000,  0.000000, -2.961542 )     1.73596679
  WF centre and spread    3  (  0.000000, -2.961542,  0.000000 )     1.73601644
  Sum of centres and spreads (  2.961543, -2.961542, -2.961542 )     5.20795035
 
     57    -0.486E-07     0.0000740832        5.2079524522       0.39  <-- CONV
        O_D=      0.0000000 O_OD=      0.0167464 O_TOT=      5.2079525 <-- SPRD
 Delta: O_D=  0.1401992E-07 O_OD= -0.6263051E-07 O_TOT= -0.4861060E-07 <-- DLTA
 ------------------------------------------------------------------------------
 Cycle:     58
  WF centre and spread    1  (  2.961543,  0.000000,  0.000000 )     1.73596711
  WF centre and spread    2  (  0.000000,  0.000000, -2.961542 )     1.73596678
  WF centre and spread    3  (  0.000000, -2.961542,  0.000000 )     1.73601643
  Sum of centres and spreads (  2.961543, -2.961542, -2.961542 )     5.20795032
 
     58    -0.244E-07     0.0001370513        5.2079524278       0.40  <-- CONV
        O_D=      0.0000000 O_OD=      0.0167464 O_TOT=      5.2079524 <-- SPRD
 Delta: O_D= -0.1021214E-07 O_OD= -0.1414061E-07 O_TOT= -0.2435275E-07 <-- DLTA
 ------------------------------------------------------------------------------
 Cycle:     59
  WF centre and spread    1  (  2.961542,  0.000000,  0.000000 )     1.73596711
  WF centre and spread    2  (  0.000000,  0.000000, -2.961542 )     1.73596676
  WF centre and spread    3  (  0.000000, -2.961542,  0.000000 )     1.73601643
  Sum of centres and spreads (  2.961543, -2.961542, -2.961542 )     5.20795030
 
     59    -0.183E-07     0.0000723159        5.2079524095       0.40  <-- CONV
        O_D=      0.0000000 O_OD=      0.0167464 O_TOT=      5.2079524 <-- SPRD
 Delta: O_D= -0.6350160E-08 O_OD= -0.1196245E-07 O_TOT= -0.1831261E-07 <-- DLTA
 ------------------------------------------------------------------------------
 Cycle:     60
  WF centre and spread    1  (  2.961542,  0.000000,  0.000000 )     1.73596711
  WF centre and spread    2  (  0.000000,  0.000000, -2.961542 )     1.73596674
  WF centre and spread    3  (  0.000000, -2.961542,  0.000000 )     1.73601644
  Sum of centres and spreads (  2.961543, -2.961542, -2.961542 )     5.20795028
 
     60    -0.207E-07     0.0000757650        5.2079523888       0.41  <-- CONV
        O_D=      0.0000000 O_OD=      0.0167464 O_TOT=      5.2079524 <-- SPRD
 Delta: O_D= -0.2343376E-08 O_OD= -0.1837708E-07 O_TOT= -0.2072046E-07 <-- DLTA
 ------------------------------------------------------------------------------
 Cycle:     61
  WF centre and spread    1  (  2.961542,  0.000000,  0.000000 )     1.73596711
  WF centre and spread    2  (  0.000000,  0.000000, -2.961542 )     1.73596673
  WF centre and spread    3  (  0.000000, -2.961542,  0.000000 )     1.73601644
  Sum of centres and spreads (  2.961543, -2.961542, -2.961542 )     5.20795027
 
     61    -0.116E-07     0.0000629833        5.2079523772       0.42  <-- CONV
        O_D=      0.0000000 O_OD=      0.0167463 O_TOT=      5.2079524 <-- SPRD
 Delta: O_D=  0.1431209E-08 O_OD= -0.1301301E-07 O_TOT= -0.1158180E-07 <-- DLTA
 ------------------------------------------------------------------------------
 Cycle:     62
  WF centre and spread    1  (  2.961542,  0.000000,  0.000000 )     1.73596710
  WF centre and spread    2  (  0.000000, -0.000000, -2.961542 )     1.73596670
  WF centre and spread    3  (  0.000000, -2.961542,  0.000000 )     1.73601645
  Sum of centres and spreads (  2.961543, -2.961542, -2.961542 )     5.20795025
 
     62    -0.238E-07     0.0000546526        5.2079523534       0.42  <-- CONV
        O_D=      0.0000000 O_OD=      0.0167463 O_TOT=      5.2079524 <-- SPRD
 Delta: O_D=  0.7123813E-08 O_OD= -0.3088723E-07 O_TOT= -0.2376342E-07 <-- DLTA
 ------------------------------------------------------------------------------
 Cycle:     63
  WF centre and spread    1  (  2.961542,  0.000000,  0.000000 )     1.73596709
  WF centre and spread    2  (  0.000000, -0.000000, -2.961542 )     1.73596670
  WF centre and spread    3  (  0.000000, -2.961542,  0.000000 )     1.73601644
  Sum of centres and spreads (  2.961543, -2.961542, -2.961542 )     5.20795023
 
     63    -0.188E-07     0.0001231170        5.2079523346       0.43  <-- CONV
        O_D=      0.0000000 O_OD=      0.0167463 O_TOT=      5.2079523 <-- SPRD
 Delta: O_D= -0.5610437E-08 O_OD= -0.1318778E-07 O_TOT= -0.1879822E-07 <-- DLTA
 ------------------------------------------------------------------------------
 Cycle:     64
  WF centre and spread    1  (  2.961542,  0.000000,  0.000000 )     1.73596708
  WF centre and spread    2  (  0.000000,  0.000000, -2.961542 )     1.73596670
  WF centre and spread    3  (  0.000000, -2.961542,  0.000000 )     1.73601644
  Sum of centres and spreads (  2.961543, -2.961542, -2.961542 )     5.20795022
 
     64    -0.145E-07     0.0000610742        5.2079523201       0.44  <-- CONV
        O_D=      0.0000000 O_OD=      0.0167463 O_TOT=      5.2079523 <-- SPRD
 Delta: O_D= -0.3341045E-08 O_OD= -0.1120159E-07 O_TOT= -0.1454263E-07 <-- DLTA
 ------------------------------------------------------------------------------
 Cycle:     65
  WF centre and spread    1  (  2.961542,  0.000000,  0.000000 )     1.73596707
  WF centre and spread    2  (  0.000000,  0.000000, -2.961542 )     1.73596670
  WF centre and spread    3  (  0.000000, -2.961542,  0.000000 )     1.73601644
  Sum of centres and spreads (  2.961543, -2.961542, -2.961542 )     5.20795020
 
     65    -0.130E-07     0.0000561238        5.2079523071       0.44  <-- CONV
        O_D=      0.0000000 O_OD=      0.0167463 O_TOT=      5.2079523 <-- SPRD
 Delta: O_D= -0.1480376E-09 O_OD= -0.1287213E-07 O_TOT= -0.1302016E-07 <-- DLTA
 ------------------------------------------------------------------------------
 Cycle:     66
  WF centre and spread    1  (  2.961542,  0.000000,  0.000000 )     1.73596704
  WF centre and spread    2  (  0.000000,  0.000000, -2.961542 )     1.73596670
  WF centre and spread    3  (  0.000000, -2.961542,  0.000000 )     1.73601643
  Sum of centres and spreads (  2.961543, -2.961542, -2.961542 )     5.20795018
 
     66    -0.262E-07     0.0000582226        5.2079522809       0.45  <-- CONV
        O_D=      0.0000000 O_OD=      0.0167462 O_TOT=      5.2079523 <-- SPRD
 Delta: O_D=  0.3832334E-08 O_OD= -0.3003642E-07 O_TOT= -0.2620408E-07 <-- DLTA
 ------------------------------------------------------------------------------
 Cycle:     67
  WF centre and spread    1  (  2.961543,  0.000000,  0.000000 )     1.73596702
  WF centre and spread    2  (  0.000000,  0.000000, -2.961542 )     1.73596669
  WF centre and spread    3  (  0.000000, -2.961542,  0.000000 )     1.73601644
  Sum of centres and spreads (  2.961543, -2.961542, -2.961542 )     5.20795015
 
     67    -0.219E-07     0.0000664775        5.2079522590       0.46  <-- CONV
        O_D=      0.0000000 O_OD=      0.0167462 O_TOT=      5.2079523 <-- SPRD
 Delta: O_D=  0.1049826E-07 O_OD= -0.3241990E-07 O_TOT= -0.2192164E-07 <-- DLTA
 ------------------------------------------------------------------------------
 Cycle:     68
  WF centre and spread    1  (  2.961543,  0.000000,  0.000000 )     1.73596701
  WF centre and spread    2  (  0.000000,  0.000000, -2.961542 )     1.73596669
  WF centre and spread    3  (  0.000000, -2.961542,  0.000000 )     1.73601643
  Sum of centres and spreads (  2.961543, -2.961542, -2.961542 )     5.20795013
 
     68    -0.200E-07     0.0001313995        5.2079522389       0.47  <-- CONV
        O_D=      0.0000000 O_OD=      0.0167462 O_TOT=      5.2079522 <-- SPRD
 Delta: O_D= -0.6871776E-08 O_OD= -0.1316053E-07 O_TOT= -0.2003231E-07 <-- DLTA
 ------------------------------------------------------------------------------
 Cycle:     69
  WF centre and spread    1  (  2.961542,  0.000000,  0.000000 )     1.73596701
  WF centre and spread    2  (  0.000000,  0.000000, -2.961542 )     1.73596666
  WF centre and spread    3  (  0.000000, -2.961542,  0.000000 )     1.73601644
  Sum of centres and spreads (  2.961543, -2.961542, -2.961542 )     5.20795011
 
     69    -0.231E-07     0.0000649546        5.2079522159       0.47  <-- CONV
        O_D=      0.0000000 O_OD=      0.0167462 O_TOT=      5.2079522 <-- SPRD
 Delta: O_D= -0.4582849E-08 O_OD= -0.1848928E-07 O_TOT= -0.2307213E-07 <-- DLTA
 ------------------------------------------------------------------------------
 Cycle:     70
  WF centre and spread    1  (  2.961542,  0.000000,  0.000000 )     1.73596702
  WF centre and spread    2  (  0.000000,  0.000000, -2.961542 )     1.73596664
  WF centre and spread    3  (  0.000000, -2.961542,  0.000000 )     1.73601644
  Sum of centres and spreads (  2.961543, -2.961542, -2.961542 )     5.20795010
 
     70    -0.138E-07     0.0000907869        5.2079522020       0.48  <-- CONV
        O_D=      0.0000000 O_OD=      0.0167462 O_TOT=      5.2079522 <-- SPRD
 Delta: O_D=  0.6803015E-09 O_OD= -0.1450264E-07 O_TOT= -0.1382234E-07 <-- DLTA
 ------------------------------------------------------------------------------
 Cycle:     71
  WF centre and spread    1  (  2.961542,  0.000000,  0.000000 )     1.73596701
  WF centre and spread    2  (  0.000000, -0.000000, -2.961542 )     1.73596662
  WF centre and spread    3  (  0.000000, -2.961542,  0.000000 )     1.73601645
  Sum of centres and spreads (  2.961543, -2.961542, -2.961542 )     5.20795008
 
     71    -0.159E-07     0.0000621328        5.2079521861       0.49  <-- CONV
        O_D=      0.0000000 O_OD=      0.0167462 O_TOT=      5.2079522 <-- SPRD
 Delta: O_D=  0.1444935E-08 O_OD= -0.1738825E-07 O_TOT= -0.1594332E-07 <-- DLTA
 ------------------------------------------------------------------------------
 Cycle:     72
  WF centre and spread    1  (  2.961542,  0.000000,  0.000000 )     1.73596700
  WF centre and spread    2  (  0.000000, -0.000000, -2.961542 )     1.73596661
  WF centre and spread    3  (  0.000000, -2.961542,  0.000000 )     1.73601645
  Sum of centres and spreads (  2.961543, -2.961542, -2.961542 )     5.20795006
 
     72    -0.203E-07     0.0000726555        5.2079521658       0.49  <-- CONV
        O_D=      0.0000000 O_OD=      0.0167461 O_TOT=      5.2079522 <-- SPRD
 Delta: O_D=  0.4966493E-08 O_OD= -0.2523965E-07 O_TOT= -0.2027316E-07 <-- DLTA
 ------------------------------------------------------------------------------
 Cycle:     73
  WF centre and spread    1  (  2.961543,  0.000000,  0.000000 )     1.73596690
  WF centre and spread    2  (  0.000000,  0.000000, -2.961542 )     1.73596653
  WF centre and spread    3  (  0.000000, -2.961542,  0.000000 )     1.73601651
  Sum of centres and spreads (  2.961543, -2.961542, -2.961542 )     5.20794994
 
     73    -0.117E-06     0.0000918544        5.2079520486       0.50  <-- CONV
        O_D=      0.0000001 O_OD=      0.0167459 O_TOT=      5.2079520 <-- SPRD
 Delta: O_D=  0.6587243E-07 O_OD= -0.1830492E-06 O_TOT= -0.1171768E-06 <-- DLTA
 ------------------------------------------------------------------------------
 Cycle:     74
  WF centre and spread    1  (  2.961543,  0.000000,  0.000000 )     1.73596685
  WF centre and spread    2  (  0.000000,  0.000000, -2.961542 )     1.73596647
  WF centre and spread    3  (  0.000000, -2.961542,  0.000000 )     1.73601646
  Sum of centres and spreads (  2.961543, -2.961542, -2.961542 )     5.20794977
 
     74    -0.173E-06     0.0003648056        5.2079518760       0.51  <-- CONV
        O_D=      0.0000000 O_OD=      0.0167458 O_TOT=      5.2079519 <-- SPRD
 Delta: O_D= -0.5759753E-07 O_OD= -0.1150790E-06 O_TOT= -0.1726765E-06 <-- DLTA
 ------------------------------------------------------------------------------
 Cycle:     75
  WF centre and spread    1  (  2.961542,  0.000000,  0.000000 )     1.73596683
  WF centre and spread    2  (  0.000000,  0.000000, -2.961542 )     1.73596646
  WF centre and spread    3  (  0.000000, -2.961542,  0.000000 )     1.73601644
  Sum of centres and spreads (  2.961543, -2.961542, -2.961542 )     5.20794973
 
     75    -0.434E-07     0.0001536332        5.2079518326       0.51  <-- CONV
        O_D=      0.0000000 O_OD=      0.0167458 O_TOT=      5.2079518 <-- SPRD
 Delta: O_D= -0.1634273E-07 O_OD= -0.2701481E-07 O_TOT= -0.4335754E-07 <-- DLTA
 ------------------------------------------------------------------------------
 Cycle:     76
  WF centre and spread    1  (  2.961542,  0.000000,  0.000000 )     1.73596682
  WF centre and spread    2  (  0.000000,  0.000000, -2.961542 )     1.73596645
  WF centre and spread    3  (  0.000000, -2.961542,  0.000000 )     1.73601644
  Sum of centres and spreads (  2.961543, -2.961542, -2.961542 )     5.20794972
 
     76    -0.117E-07     0.0000743350        5.2079518209       0.52  <-- CONV
        O_D=      0.0000000 O_OD=      0.0167458 O_TOT=      5.2079518 <-- SPRD
 Delta: O_D= -0.2314788E-08 O_OD= -0.9366417E-08 O_TOT= -0.1168121E-07 <-- DLTA
 ------------------------------------------------------------------------------
 Cycle:     77
  WF centre and spread    1  (  2.961542,  0.000000,  0.000000 )     1.73596682
  WF centre and spread    2  (  0.000000,  0.000000, -2.961542 )     1.73596645
  WF centre and spread    3  (  0.000000, -2.961542,  0.000000 )     1.73601644
  Sum of centres and spreads (  2.961543, -2.961542, -2.961542 )     5.20794971
 
     77    -0.104E-07     0.0000497114        5.2079518105       0.53  <-- CONV
        O_D=      0.0000000 O_OD=      0.0167458 O_TOT=      5.2079518 <-- SPRD
 Delta: O_D= -0.1612184E-09 O_OD= -0.1023393E-07 O_TOT= -0.1039515E-07 <-- DLTA
 ------------------------------------------------------------------------------
 Cycle:     78
  WF centre and spread    1  (  2.961542,  0.000000,  0.000000 )     1.73596678
  WF centre and spread    2  (  0.000000, -0.000000, -2.961542 )     1.73596643
  WF centre and spread    3  (  0.000000, -2.961542, -0.000000 )     1.73601646
  Sum of centres and spreads (  2.961543, -2.961542, -2.961542 )     5.20794968
 
     78    -0.273E-07     0.0000536128        5.2079517832       0.53  <-- CONV
        O_D=      0.0000000 O_OD=      0.0167457 O_TOT=      5.2079518 <-- SPRD
 Delta: O_D=  0.1766832E-07 O_OD= -0.4495303E-07 O_TOT= -0.2728470E-07 <-- DLTA
 ------------------------------------------------------------------------------
 Cycle:     79
  WF centre and spread    1  (  2.961542,  0.000000,  0.000000 )     1.73596678
  WF centre and spread    2  (  0.000000, -0.000000, -2.961542 )     1.73596642
  WF centre and spread    3  (  0.000000, -2.961542, -0.000000 )     1.73601645
  Sum of centres and spreads (  2.961543, -2.961542, -2.961542 )     5.20794965
 
     79    -0.291E-07     0.0001638245        5.2079517542       0.54  <-- CONV
        O_D=      0.0000000 O_OD=      0.0167457 O_TOT=      5.2079518 <-- SPRD
 Delta: O_D= -0.1242511E-07 O_OD= -0.1666736E-07 O_TOT= -0.2909247E-07 <-- DLTA
 ------------------------------------------------------------------------------
 Cycle:     80
  WF centre and spread    1  (  2.961542,  0.000000,  0.000000 )     1.73596677
  WF centre and spread    2  (  0.000000,  0.000000, -2.961542 )     1.73596642
  WF centre and spread    3  (  0.000000, -2.961542,  0.000000 )     1.73601645
  Sum of centres and spreads (  2.961543, -2.961542, -2.961542 )     5.20794964
 
     80    -0.123E-07     0.0000591018        5.2079517418       0.55  <-- CONV
        O_D=      0.0000000 O_OD=      0.0167457 O_TOT=      5.2079517 <-- SPRD
 Delta: O_D= -0.2875555E-08 O_OD= -0.9434949E-08 O_TOT= -0.1231050E-07 <-- DLTA
 ------------------------------------------------------------------------------
 Cycle:     81
  WF centre and spread    1  (  2.961542,  0.000000,  0.000000 )     1.73596677
  WF centre and spread    2  (  0.000000,  0.000000, -2.961542 )     1.73596641
  WF centre and spread    3  (  0.000000, -2.961542,  0.000000 )     1.73601644
  Sum of centres and spreads (  2.961543, -2.961542, -2.961542 )     5.20794962
 
     81    -0.191E-07     0.0000774326        5.2079517228       0.55  <-- CONV
        O_D=      0.0000000 O_OD=      0.0167457 O_TOT=      5.2079517 <-- SPRD
 Delta: O_D=  0.6797872E-09 O_OD= -0.1975953E-07 O_TOT= -0.1907974E-07 <-- DLTA
 ------------------------------------------------------------------------------
 Cycle:     82
  WF centre and spread    1  (  2.961543,  0.000000,  0.000000 )     1.73596676
  WF centre and spread    2  (  0.000000,  0.000000, -2.961542 )     1.73596639
  WF centre and spread    3  (  0.000000, -2.961542,  0.000000 )     1.73601645
  Sum of centres and spreads (  2.961543, -2.961542, -2.961542 )     5.20794960
 
     82    -0.202E-07     0.0000615130        5.2079517026       0.56  <-- CONV
        O_D=      0.0000000 O_OD=      0.0167457 O_TOT=      5.2079517 <-- SPRD
 Delta: O_D=  0.5466665E-08 O_OD= -0.2564464E-07 O_TOT= -0.2017797E-07 <-- DLTA
 ------------------------------------------------------------------------------
 Cycle:     83
  WF centre and spread    1  (  2.961543,  0.000000,  0.000000 )     1.73596675
  WF centre and spread    2  (  0.000000,  0.000000, -2.961542 )     1.73596638
  WF centre and spread    3  (  0.000000, -2.961542,  0.000000 )     1.73601645
  Sum of centres and spreads (  2.961543, -2.961542, -2.961542 )     5.20794958
 
     83    -0.225E-07     0.0001056665        5.2079516801       0.57  <-- CONV
        O_D=      0.0000000 O_OD=      0.0167456 O_TOT=      5.2079517 <-- SPRD
 Delta: O_D=  0.1310726E-07 O_OD= -0.3560576E-07 O_TOT= -0.2249850E-07 <-- DLTA
 ------------------------------------------------------------------------------
 Cycle:     84
  WF centre and spread    1  (  2.961543,  0.000000,  0.000000 )     1.73596673
  WF centre and spread    2  (  0.000000,  0.000000, -2.961542 )     1.73596634
  WF centre and spread    3  (  0.000000, -2.961542,  0.000000 )     1.73601646
  Sum of centres and spreads (  2.961543, -2.961542, -2.961542 )     5.20794953
 
     84    -0.470E-07     0.0000933390        5.2079516331       0.57  <-- CONV
        O_D=      0.0000000 O_OD=      0.0167456 O_TOT=      5.2079516 <-- SPRD
 Delta: O_D=  0.7955520E-08 O_OD= -0.5497609E-07 O_TOT= -0.4702057E-07 <-- DLTA
 ------------------------------------------------------------------------------
 Cycle:     85
  WF centre and spread    1  (  2.961543,  0.000000,  0.000000 )     1.73596671
  WF centre and spread    2  (  0.000000,  0.000000, -2.961542 )     1.73596632
  WF centre and spread    3  (  0.000000, -2.961542,  0.000000 )     1.73601645
  Sum of centres and spreads (  2.961543, -2.961542, -2.961542 )     5.20794948
 
     85    -0.463E-07     0.0001897562        5.2079515868       0.58  <-- CONV
        O_D=      0.0000000 O_OD=      0.0167455 O_TOT=      5.2079516 <-- SPRD
 Delta: O_D= -0.1651424E-07 O_OD= -0.2976139E-07 O_TOT= -0.4627563E-07 <-- DLTA
 ------------------------------------------------------------------------------
 Cycle:     86
  WF centre and spread    1  (  2.961543,  0.000000,  0.000000 )     1.73596670
  WF centre and spread    2  (  0.000000,  0.000000, -2.961542 )     1.73596631
  WF centre and spread    3  (  0.000000, -2.961542,  0.000000 )     1.73601645
  Sum of centres and spreads (  2.961543, -2.961542, -2.961542 )     5.20794946
 
     86    -0.237E-07     0.0000815818        5.2079515631       0.59  <-- CONV
        O_D=      0.0000000 O_OD=      0.0167455 O_TOT=      5.2079516 <-- SPRD
 Delta: O_D= -0.7950722E-08 O_OD= -0.1575945E-07 O_TOT= -0.2371017E-07 <-- DLTA
 ------------------------------------------------------------------------------
 Cycle:     87
  WF centre and spread    1  (  2.961542,  0.000000,  0.000000 )     1.73596668
  WF centre and spread    2  (  0.000000,  0.000000, -2.961542 )     1.73596631
  WF centre and spread    3  (  0.000000, -2.961542,  0.000000 )     1.73601645
  Sum of centres and spreads (  2.961543, -2.961542, -2.961542 )     5.20794944
 
     87    -0.196E-07     0.0000998185        5.2079515435       0.60  <-- CONV
        O_D=      0.0000000 O_OD=      0.0167455 O_TOT=      5.2079515 <-- SPRD
 Delta: O_D= -0.1889711E-08 O_OD= -0.1766079E-07 O_TOT= -0.1955050E-07 <-- DLTA
 ------------------------------------------------------------------------------
 Cycle:     88
  WF centre and spread    1  (  2.961542,  0.000000,  0.000000 )     1.73596667
  WF centre and spread    2  (  0.000000,  0.000000, -2.961542 )     1.73596630
  WF centre and spread    3  (  0.000000, -2.961542,  0.000000 )     1.73601645
  Sum of centres and spreads (  2.961543, -2.961542, -2.961542 )     5.20794942
 
     88    -0.152E-07     0.0000674080        5.2079515284       0.60  <-- CONV
        O_D=      0.0000000 O_OD=      0.0167455 O_TOT=      5.2079515 <-- SPRD
 Delta: O_D=  0.1969378E-08 O_OD= -0.1713519E-07 O_TOT= -0.1516581E-07 <-- DLTA
 ------------------------------------------------------------------------------
 Cycle:     89
  WF centre and spread    1  (  2.961542,  0.000000,  0.000000 )     1.73596665
  WF centre and spread    2  (  0.000000, -0.000000, -2.961542 )     1.73596630
  WF centre and spread    3  (  0.000000, -2.961542, -0.000000 )     1.73601646
  Sum of centres and spreads (  2.961543, -2.961542, -2.961542 )     5.20794941
 
     89    -0.113E-07     0.0000917463        5.2079515171       0.61  <-- CONV
        O_D=      0.0000000 O_OD=      0.0167455 O_TOT=      5.2079515 <-- SPRD
 Delta: O_D=  0.5703997E-08 O_OD= -0.1697279E-07 O_TOT= -0.1126879E-07 <-- DLTA
 ------------------------------------------------------------------------------
 Cycle:     90
  WF centre and spread    1  (  2.961542,  0.000000,  0.000000 )     1.73596664
  WF centre and spread    2  (  0.000000, -0.000000, -2.961542 )     1.73596629
  WF centre and spread    3  (  0.000000, -2.961542, -0.000000 )     1.73601646
  Sum of centres and spreads (  2.961543, -2.961542, -2.961542 )     5.20794939
 
     90    -0.176E-07     0.0000790378        5.2079514995       0.62  <-- CONV
        O_D=      0.0000000 O_OD=      0.0167455 O_TOT=      5.2079515 <-- SPRD
 Delta: O_D=  0.2319420E-08 O_OD= -0.1988468E-07 O_TOT= -0.1756526E-07 <-- DLTA
 ------------------------------------------------------------------------------
 Cycle:     91
  WF centre and spread    1  (  2.961542,  0.000000,  0.000000 )     1.73596663
  WF centre and spread    2  (  0.000000, -0.000000, -2.961542 )     1.73596629
  WF centre and spread    3  (  0.000000, -2.961542, -0.000000 )     1.73601646
  Sum of centres and spreads (  2.961543, -2.961542, -2.961542 )     5.20794938
 
     91    -0.195E-07     0.0001104793        5.2079514801       0.62  <-- CONV
        O_D=      0.0000000 O_OD=      0.0167454 O_TOT=      5.2079515 <-- SPRD
 Delta: O_D= -0.7400767E-08 O_OD= -0.1206813E-07 O_TOT= -0.1946890E-07 <-- DLTA
 ------------------------------------------------------------------------------
 Cycle:     92
  WF centre and spread    1  (  2.961542,  0.000000,  0.000000 )     1.73596663
  WF centre and spread    2  (  0.000000,  0.000000, -2.961542 )     1.73596628
  WF centre and spread    3  (  0.000000, -2.961542,  0.000000 )     1.73601645
  Sum of centres and spreads (  2.961543, -2.961542, -2.961542 )     5.20794936
 
     92    -0.190E-07     0.0000688755        5.2079514611       0.63  <-- CONV
        O_D=      0.0000000 O_OD=      0.0167454 O_TOT=      5.2079515 <-- SPRD
 Delta: O_D= -0.3626502E-08 O_OD= -0.1535888E-07 O_TOT= -0.1898539E-07 <-- DLTA
 ------------------------------------------------------------------------------
 Cycle:     93
  WF centre and spread    1  (  2.961542,  0.000000,  0.000000 )     1.73596662
  WF centre and spread    2  (  0.000000,  0.000000, -2.961542 )     1.73596627
  WF centre and spread    3  (  0.000000, -2.961542,  0.000000 )     1.73601645
  Sum of centres and spreads (  2.961543, -2.961542, -2.961542 )     5.20794934
 
     93    -0.145E-07     0.0000719792        5.2079514466       0.64  <-- CONV
        O_D=      0.0000000 O_OD=      0.0167454 O_TOT=      5.2079514 <-- SPRD
 Delta: O_D=  0.3120779E-09 O_OD= -0.1481029E-07 O_TOT= -0.1449821E-07 <-- DLTA
 ------------------------------------------------------------------------------
 Cycle:     94
  WF centre and spread    1  (  2.961543,  0.000000,  0.000000 )     1.73596662
  WF centre and spread    2  (  0.000000,  0.000000, -2.961542 )     1.73596625
  WF centre and spread    3  (  0.000000, -2.961542,  0.000000 )     1.73601645
  Sum of centres and spreads (  2.961543, -2.961542, -2.961542 )     5.20794932
 
     94    -0.205E-07     0.0000667250        5.2079514261       0.64  <-- CONV
        O_D=      0.0000000 O_OD=      0.0167454 O_TOT=      5.2079514 <-- SPRD
 Delta: O_D=  0.4298402E-08 O_OD= -0.2480512E-07 O_TOT= -0.2050672E-07 <-- DLTA
 ------------------------------------------------------------------------------
 Cycle:     95
  WF centre and spread    1  (  2.961543,  0.000000,  0.000000 )     1.73596661
  WF centre and spread    2  (  0.000000,  0.000000, -2.961542 )     1.73596624
  WF centre and spread    3  (  0.000000, -2.961542,  0.000000 )     1.73601645
  Sum of centres and spreads (  2.961543, -2.961542, -2.961542 )     5.20794930
 
     95    -0.183E-07     0.0000830737        5.2079514078       0.65  <-- CONV
        O_D=      0.0000000 O_OD=      0.0167454 O_TOT=      5.2079514 <-- SPRD
 Delta: O_D=  0.7275769E-08 O_OD= -0.2556954E-07 O_TOT= -0.1829377E-07 <-- DLTA
 ------------------------------------------------------------------------------
 Cycle:     96
  WF centre and spread    1  (  2.961543,  0.000000,  0.000000 )     1.73596658
  WF centre and spread    2  (  0.000000,  0.000000, -2.961542 )     1.73596615
  WF centre and spread    3  (  0.000000, -2.961542,  0.000000 )     1.73601649
  Sum of centres and spreads (  2.961543, -2.961542, -2.961542 )     5.20794921
 
     96    -0.885E-07     0.0000887715        5.2079513193       0.66  <-- CONV
        O_D=      0.0000000 O_OD=      0.0167453 O_TOT=      5.2079513 <-- SPRD
 Delta: O_D=  0.2255575E-07 O_OD= -0.1110542E-06 O_TOT= -0.8849842E-07 <-- DLTA
 ------------------------------------------------------------------------------
 Cycle:     97
  WF centre and spread    1  (  2.961543,  0.000000,  0.000000 )     1.73596654
  WF centre and spread    2  (  0.000000,  0.000000, -2.961542 )     1.73596612
  WF centre and spread    3  (  0.000000, -2.961542,  0.000000 )     1.73601646
  Sum of centres and spreads (  2.961543, -2.961542, -2.961542 )     5.20794913
 
[...]
  Sum of centres and spreads (  2.961543, -2.961542, -2.961542 )     5.20793807
 
    473    -0.981E-08     0.0000460349        5.2079401708       3.41  <-- CONV
        O_D=      0.0000000 O_OD=      0.0167341 O_TOT=      5.2079402 <-- SPRD
 Delta: O_D=  0.1390587E-08 O_OD= -0.1120224E-07 O_TOT= -0.9811654E-08 <-- DLTA
 ------------------------------------------------------------------------------
 Cycle:    474
  WF centre and spread    1  (  2.961542,  0.000000,  0.000000 )     1.73596090
  WF centre and spread    2  (  0.000000,  0.000000, -2.961542 )     1.73596053
  WF centre and spread    3  (  0.000000, -2.961542,  0.000000 )     1.73601663
  Sum of centres and spreads (  2.961543, -2.961542, -2.961542 )     5.20793805
 
    474    -0.112E-07     0.0000848299        5.2079401596       3.42  <-- CONV
        O_D=      0.0000000 O_OD=      0.0167341 O_TOT=      5.2079402 <-- SPRD
 Delta: O_D= -0.1833146E-08 O_OD= -0.9395254E-08 O_TOT= -0.1122840E-07 <-- DLTA
 ------------------------------------------------------------------------------
 Cycle:    475
  WF centre and spread    1  (  2.961542,  0.000000,  0.000000 )     1.73596089
  WF centre and spread    2  (  0.000000,  0.000000, -2.961542 )     1.73596052
  WF centre and spread    3  (  0.000000, -2.961542,  0.000000 )     1.73601663
  Sum of centres and spreads (  2.961543, -2.961542, -2.961542 )     5.20793805
 
    475    -0.833E-08     0.0000513720        5.2079401512       3.42  <-- CONV
        O_D=      0.0000000 O_OD=      0.0167341 O_TOT=      5.2079402 <-- SPRD
 Delta: O_D= -0.3191004E-09 O_OD= -0.8009617E-08 O_TOT= -0.8328717E-08 <-- DLTA
 ------------------------------------------------------------------------------
 Cycle:    476
  WF centre and spread    1  (  2.961542,  0.000000,  0.000000 )     1.73596089
  WF centre and spread    2  (  0.000000,  0.000000, -2.961542 )     1.73596052
  WF centre and spread    3  (  0.000000, -2.961542,  0.000000 )     1.73601663
  Sum of centres and spreads (  2.961543, -2.961542, -2.961542 )     5.20793805
 
    476    -0.107E-10     0.0000491419        5.2079401512       3.43  <-- CONV
        O_D=      0.0000000 O_OD=      0.0167341 O_TOT=      5.2079402 <-- SPRD
 Delta: O_D=  0.1110180E-12 O_OD= -0.1076697E-10 O_TOT= -0.1065636E-10 <-- DLTA
 ------------------------------------------------------------------------------
 Cycle:    477
  WF centre and spread    1  (  2.961542,  0.000000,  0.000000 )     1.73596088
  WF centre and spread    2  (  0.000000,  0.000000, -2.961542 )     1.73596051
  WF centre and spread    3  (  0.000000, -2.961542,  0.000000 )     1.73601663
  Sum of centres and spreads (  2.961543, -2.961542, -2.961542 )     5.20793803
 
    477    -0.184E-07     0.0000491347        5.2079401328       3.43  <-- CONV
        O_D=      0.0000000 O_OD=      0.0167341 O_TOT=      5.2079401 <-- SPRD
 Delta: O_D=  0.1217012E-08 O_OD= -0.1964233E-07 O_TOT= -0.1842532E-07 <-- DLTA
 ------------------------------------------------------------------------------
 Cycle:    478
  WF centre and spread    1  (  2.961542,  0.000000,  0.000000 )     1.73596086
  WF centre and spread    2  (  0.000000,  0.000000, -2.961542 )     1.73596049
  WF centre and spread    3  (  0.000000, -2.961542,  0.000000 )     1.73601665
  Sum of centres and spreads (  2.961543, -2.961542, -2.961542 )     5.20793800
 
    478    -0.292E-07     0.0000755056        5.2079401036       3.44  <-- CONV
        O_D=      0.0000000 O_OD=      0.0167341 O_TOT=      5.2079401 <-- SPRD
 Delta: O_D=  0.5123023E-08 O_OD= -0.3436712E-07 O_TOT= -0.2924409E-07 <-- DLTA
 ------------------------------------------------------------------------------
 Cycle:    479
  WF centre and spread    1  (  2.961542,  0.000000,  0.000000 )     1.73596084
  WF centre and spread    2  (  0.000000,  0.000000, -2.961542 )     1.73596047
  WF centre and spread    3  (  0.000000, -2.961542,  0.000000 )     1.73601663
  Sum of centres and spreads (  2.961543, -2.961542, -2.961542 )     5.20793794
 
    479    -0.546E-07     0.0001762531        5.2079400489       3.45  <-- CONV
        O_D=      0.0000000 O_OD=      0.0167340 O_TOT=      5.2079400 <-- SPRD
 Delta: O_D= -0.6024468E-08 O_OD= -0.4860361E-07 O_TOT= -0.5462808E-07 <-- DLTA
 ------------------------------------------------------------------------------
 Cycle:    480
  WF centre and spread    1  (  2.961542,  0.000000,  0.000000 )     1.73596084
  WF centre and spread    2  (  0.000000,  0.000000, -2.961542 )     1.73596047
  WF centre and spread    3  (  0.000000, -2.961542,  0.000000 )     1.73601663
  Sum of centres and spreads (  2.961543, -2.961542, -2.961542 )     5.20793794
 
    480    -0.472E-08     0.0000442505        5.2079400442       3.45  <-- CONV
        O_D=      0.0000000 O_OD=      0.0167340 O_TOT=      5.2079400 <-- SPRD
 Delta: O_D= -0.7753081E-11 O_OD= -0.4712890E-08 O_TOT= -0.4720643E-08 <-- DLTA
 ------------------------------------------------------------------------------
 Cycle:    481
  WF centre and spread    1  (  2.961542,  0.000000,  0.000000 )     1.73596084
  WF centre and spread    2  (  0.000000,  0.000000, -2.961542 )     1.73596047
  WF centre and spread    3  (  0.000000, -2.961542,  0.000000 )     1.73601663
  Sum of centres and spreads (  2.961543, -2.961542, -2.961542 )     5.20793793
 
    481    -0.799E-08     0.0000828401        5.2079400362       3.46  <-- CONV
        O_D=      0.0000000 O_OD=      0.0167340 O_TOT=      5.2079400 <-- SPRD
 Delta: O_D= -0.5366969E-09 O_OD= -0.7455568E-08 O_TOT= -0.7992265E-08 <-- DLTA
 ------------------------------------------------------------------------------
 Cycle:    482
  WF centre and spread    1  (  2.961542,  0.000000,  0.000000 )     1.73596084
  WF centre and spread    2  (  0.000000,  0.000000, -2.961542 )     1.73596047
  WF centre and spread    3  (  0.000000, -2.961542,  0.000000 )     1.73601663
  Sum of centres and spreads (  2.961543, -2.961542, -2.961542 )     5.20793793
 
    482    -0.594E-11     0.0000390605        5.2079400362       3.46  <-- CONV
        O_D=      0.0000000 O_OD=      0.0167340 O_TOT=      5.2079400 <-- SPRD
 Delta: O_D= -0.7452099E-13 O_OD= -0.5868115E-11 O_TOT= -0.5942802E-11 <-- DLTA
 ------------------------------------------------------------------------------
 Cycle:    483
  WF centre and spread    1  (  2.961542,  0.000000,  0.000000 )     1.73596083
  WF centre and spread    2  (  0.000000,  0.000000, -2.961542 )     1.73596046
  WF centre and spread    3  (  0.000000, -2.961542,  0.000000 )     1.73601663
  Sum of centres and spreads (  2.961543, -2.961542, -2.961542 )     5.20793792
 
    483    -0.108E-07     0.0000390541        5.2079400254       3.47  <-- CONV
        O_D=      0.0000000 O_OD=      0.0167340 O_TOT=      5.2079400 <-- SPRD
 Delta: O_D=  0.8928411E-09 O_OD= -0.1167753E-07 O_TOT= -0.1078469E-07 <-- DLTA
 ------------------------------------------------------------------------------
 Cycle:    484
  WF centre and spread    1  (  2.961542,  0.000000,  0.000000 )     1.73596082
  WF centre and spread    2  (  0.000000,  0.000000, -2.961542 )     1.73596045
  WF centre and spread    3  (  0.000000, -2.961542,  0.000000 )     1.73601663
  Sum of centres and spreads (  2.961543, -2.961542, -2.961542 )     5.20793791
 
    484    -0.144E-07     0.0001142451        5.2079400110       3.48  <-- CONV
        O_D=      0.0000000 O_OD=      0.0167340 O_TOT=      5.2079400 <-- SPRD
 Delta: O_D= -0.8053602E-09 O_OD= -0.1357899E-07 O_TOT= -0.1438435E-07 <-- DLTA
 ------------------------------------------------------------------------------
 Cycle:    485
  WF centre and spread    1  (  2.961542,  0.000000,  0.000000 )     1.73596082
  WF centre and spread    2  (  0.000000,  0.000000, -2.961542 )     1.73596045
  WF centre and spread    3  (  0.000000, -2.961542,  0.000000 )     1.73601663
  Sum of centres and spreads (  2.961543, -2.961542, -2.961542 )     5.20793790
 
    485    -0.843E-08     0.0000417642        5.2079400026       3.49  <-- CONV
        O_D=      0.0000000 O_OD=      0.0167340 O_TOT=      5.2079400 <-- SPRD
 Delta: O_D=  0.3037306E-09 O_OD= -0.8733148E-08 O_TOT= -0.8429417E-08 <-- DLTA
 ------------------------------------------------------------------------------
 Cycle:    486
  WF centre and spread    1  (  2.961542,  0.000000,  0.000000 )     1.73596082
  WF centre and spread    2  (  0.000000,  0.000000, -2.961542 )     1.73596045
  WF centre and spread    3  (  0.000000, -2.961542,  0.000000 )     1.73601663
  Sum of centres and spreads (  2.961543, -2.961542, -2.961542 )     5.20793790
 
    486    -0.126E-10     0.0000527607        5.2079400026       3.49  <-- CONV
        O_D=      0.0000000 O_OD=      0.0167340 O_TOT=      5.2079400 <-- SPRD
 Delta: O_D= -0.2078212E-12 O_OD= -0.1235026E-10 O_TOT= -0.1255795E-10 <-- DLTA
 ------------------------------------------------------------------------------
 Cycle:    487
  WF centre and spread    1  (  2.961542,  0.000000,  0.000000 )     1.73596080
  WF centre and spread    2  (  0.000000,  0.000000, -2.961542 )     1.73596043
  WF centre and spread    3  (  0.000000, -2.961542,  0.000000 )     1.73601664
  Sum of centres and spreads (  2.961543, -2.961542, -2.961542 )     5.20793787
 
    487    -0.281E-07     0.0000527575        5.2079399745       3.50  <-- CONV
        O_D=      0.0000000 O_OD=      0.0167339 O_TOT=      5.2079400 <-- SPRD
 Delta: O_D=  0.4393502E-08 O_OD= -0.3250383E-07 O_TOT= -0.2811033E-07 <-- DLTA
 ------------------------------------------------------------------------------
 Cycle:    488
  WF centre and spread    1  (  2.961542,  0.000000,  0.000000 )     1.73596080
  WF centre and spread    2  (  0.000000,  0.000000, -2.961542 )     1.73596043
  WF centre and spread    3  (  0.000000, -2.961542,  0.000000 )     1.73601663
  Sum of centres and spreads (  2.961543, -2.961542, -2.961542 )     5.20793785
 
    488    -0.151E-07     0.0001025175        5.2079399594       3.50  <-- CONV
        O_D=      0.0000000 O_OD=      0.0167339 O_TOT=      5.2079400 <-- SPRD
 Delta: O_D= -0.3955764E-08 O_OD= -0.1116612E-07 O_TOT= -0.1512188E-07 <-- DLTA
 ------------------------------------------------------------------------------
 Cycle:    489
  WF centre and spread    1  (  2.961542,  0.000000,  0.000000 )     1.73596079
  WF centre and spread    2  (  0.000000,  0.000000, -2.961542 )     1.73596042
  WF centre and spread    3  (  0.000000, -2.961542,  0.000000 )     1.73601663
  Sum of centres and spreads (  2.961543, -2.961542, -2.961542 )     5.20793785
 
    489    -0.578E-08     0.0000471355        5.2079399536       3.51  <-- CONV
        O_D=      0.0000000 O_OD=      0.0167339 O_TOT=      5.2079400 <-- SPRD
 Delta: O_D= -0.2093914E-09 O_OD= -0.5568124E-08 O_TOT= -0.5777514E-08 <-- DLTA
 ------------------------------------------------------------------------------
 Cycle:    490
  WF centre and spread    1  (  2.961542,  0.000000,  0.000000 )     1.73596079
  WF centre and spread    2  (  0.000000,  0.000000, -2.961542 )     1.73596042
  WF centre and spread    3  (  0.000000, -2.961542,  0.000000 )     1.73601663
  Sum of centres and spreads (  2.961543, -2.961542, -2.961542 )     5.20793785
 
    490    -0.102E-10     0.0000480115        5.2079399536       3.51  <-- CONV
        O_D=      0.0000000 O_OD=      0.0167339 O_TOT=      5.2079400 <-- SPRD
 Delta: O_D= -0.6893557E-12 O_OD= -0.9549642E-11 O_TOT= -0.1023892E-10 <-- DLTA
 ------------------------------------------------------------------------------
 Cycle:    491
  WF centre and spread    1  (  2.961542,  0.000000,  0.000000 )     1.73596078
  WF centre and spread    2  (  0.000000,  0.000000, -2.961542 )     1.73596041
  WF centre and spread    3  (  0.000000, -2.961542,  0.000000 )     1.73601664
  Sum of centres and spreads (  2.961543, -2.961542, -2.961542 )     5.20793783
 
    491    -0.151E-07     0.0000480049        5.2079399384       3.52  <-- CONV
        O_D=      0.0000000 O_OD=      0.0167339 O_TOT=      5.2079399 <-- SPRD
 Delta: O_D=  0.1000557E-07 O_OD= -0.2515381E-07 O_TOT= -0.1514824E-07 <-- DLTA
 ------------------------------------------------------------------------------
 Cycle:    492
  WF centre and spread    1  (  2.961542,  0.000000,  0.000000 )     1.73596078
  WF centre and spread    2  (  0.000000,  0.000000, -2.961542 )     1.73596041
  WF centre and spread    3  (  0.000000, -2.961542,  0.000000 )     1.73601663
  Sum of centres and spreads (  2.961543, -2.961542, -2.961542 )     5.20793782
 
    492    -0.139E-07     0.0001178286        5.2079399245       3.53  <-- CONV
        O_D=      0.0000000 O_OD=      0.0167339 O_TOT=      5.2079399 <-- SPRD
 Delta: O_D= -0.1025893E-07 O_OD= -0.3621537E-08 O_TOT= -0.1388046E-07 <-- DLTA
 ------------------------------------------------------------------------------
 Cycle:    493
  WF centre and spread    1  (  2.961542,  0.000000,  0.000000 )     1.73596078
  WF centre and spread    2  (  0.000000,  0.000000, -2.961542 )     1.73596041
  WF centre and spread    3  (  0.000000, -2.961542,  0.000000 )     1.73601663
  Sum of centres and spreads (  2.961543, -2.961542, -2.961542 )     5.20793782
 
    493    -0.610E-11     0.0000396281        5.2079399245       3.53  <-- CONV
        O_D=      0.0000000 O_OD=      0.0167339 O_TOT=      5.2079399 <-- SPRD
 Delta: O_D= -0.9294675E-12 O_OD= -0.5168688E-11 O_TOT= -0.6098233E-11 <-- DLTA
 ------------------------------------------------------------------------------
 Cycle:    494
  WF centre and spread    1  (  2.961542,  0.000000,  0.000000 )     1.73596077
  WF centre and spread    2  (  0.000000,  0.000000, -2.961542 )     1.73596040
  WF centre and spread    3  (  0.000000, -2.961542,  0.000000 )     1.73601664
  Sum of centres and spreads (  2.961543, -2.961542, -2.961542 )     5.20793781
 
    494    -0.726E-08     0.0000396137        5.2079399173       3.54  <-- CONV
        O_D=      0.0000000 O_OD=      0.0167339 O_TOT=      5.2079399 <-- SPRD
 Delta: O_D=  0.2562306E-08 O_OD= -0.9825650E-08 O_TOT= -0.7263345E-08 <-- DLTA
 ------------------------------------------------------------------------------
 Cycle:    495
  WF centre and spread    1  (  2.961542,  0.000000,  0.000000 )     1.73596077
  WF centre and spread    2  (  0.000000,  0.000000, -2.961542 )     1.73596040
  WF centre and spread    3  (  0.000000, -2.961542,  0.000000 )     1.73601663
  Sum of centres and spreads (  2.961543, -2.961542, -2.961542 )     5.20793781
 
    495    -0.580E-08     0.0000687997        5.2079399115       3.54  <-- CONV
        O_D=      0.0000000 O_OD=      0.0167339 O_TOT=      5.2079399 <-- SPRD
 Delta: O_D= -0.2433750E-08 O_OD= -0.3365418E-08 O_TOT= -0.5799167E-08 <-- DLTA
 ------------------------------------------------------------------------------
 Cycle:    496
  WF centre and spread    1  (  2.961542,  0.000000,  0.000000 )     1.73596077
  WF centre and spread    2  (  0.000000,  0.000000, -2.961542 )     1.73596040
  WF centre and spread    3  (  0.000000, -2.961542,  0.000000 )     1.73601663
  Sum of centres and spreads (  2.961543, -2.961542, -2.961542 )     5.20793781
 
    496    -0.656E-11     0.0000417194        5.2079399115       3.55  <-- CONV
        O_D=      0.0000000 O_OD=      0.0167339 O_TOT=      5.2079399 <-- SPRD
 Delta: O_D= -0.5719604E-12 O_OD= -0.5992460E-11 O_TOT= -0.6564527E-11 <-- DLTA
 ------------------------------------------------------------------------------
 Cycle:    497
  WF centre and spread    1  (  2.961542,  0.000000,  0.000000 )     1.73596076
  WF centre and spread    2  (  0.000000,  0.000000, -2.961542 )     1.73596039
  WF centre and spread    3  (  0.000000, -2.961542,  0.000000 )     1.73601664
  Sum of centres and spreads (  2.961543, -2.961542, -2.961542 )     5.20793780
 
    497    -0.899E-08     0.0000417107        5.2079399025       3.55  <-- CONV
        O_D=      0.0000000 O_OD=      0.0167339 O_TOT=      5.2079399 <-- SPRD
 Delta: O_D=  0.6933220E-08 O_OD= -0.1592743E-07 O_TOT= -0.8994214E-08 <-- DLTA
 ------------------------------------------------------------------------------
 Cycle:    498
  WF centre and spread    1  (  2.961542,  0.000000,  0.000000 )     1.73596076
  WF centre and spread    2  (  0.000000,  0.000000, -2.961542 )     1.73596039
  WF centre and spread    3  (  0.000000, -2.961542,  0.000000 )     1.73601663
  Sum of centres and spreads (  2.961543, -2.961542, -2.961542 )     5.20793779
 
    498    -0.992E-08     0.0001010063        5.2079398926       3.56  <-- CONV
        O_D=      0.0000000 O_OD=      0.0167339 O_TOT=      5.2079399 <-- SPRD
 Delta: O_D= -0.7249134E-08 O_OD= -0.2672645E-08 O_TOT= -0.9921781E-08 <-- DLTA
 ------------------------------------------------------------------------------
 Cycle:    499
  WF centre and spread    1  (  2.961542,  0.000000,  0.000000 )     1.73596076
  WF centre and spread    2  (  0.000000,  0.000000, -2.961542 )     1.73596039
  WF centre and spread    3  (  0.000000, -2.961542,  0.000000 )     1.73601663
  Sum of centres and spreads (  2.961543, -2.961542, -2.961542 )     5.20793779
 
    499    -0.542E-11     0.0000374704        5.2079398926       3.57  <-- CONV
        O_D=      0.0000000 O_OD=      0.0167339 O_TOT=      5.2079399 <-- SPRD
 Delta: O_D= -0.2137889E-12 O_OD= -0.5211234E-11 O_TOT= -0.5424994E-11 <-- DLTA
 ------------------------------------------------------------------------------
 Cycle:    500
  WF centre and spread    1  (  2.961542,  0.000000,  0.000000 )     1.73596075
  WF centre and spread    2  (  0.000000,  0.000000, -2.961542 )     1.73596038
  WF centre and spread    3  (  0.000000, -2.961542,  0.000000 )     1.73601664
  Sum of centres and spreads (  2.961543, -2.961542, -2.961542 )     5.20793777
 
    500    -0.129E-07     0.0000374651        5.2079398797       3.57  <-- CONV
        O_D=      0.0000000 O_OD=      0.0167338 O_TOT=      5.2079399 <-- SPRD
 Delta: O_D=  0.5211392E-08 O_OD= -0.1807650E-07 O_TOT= -0.1286511E-07 <-- DLTA
 ------------------------------------------------------------------------------

 Writing checkpoint file mp-22916.chk... done

 Final State
  WF centre and spread    1  (  2.961542,  0.000000,  0.000000 )     1.73596075
  WF centre and spread    2  (  0.000000,  0.000000, -2.961542 )     1.73596038
  WF centre and spread    3  (  0.000000, -2.961542,  0.000000 )     1.73601664
  Sum of centres and spreads (  2.961543, -2.961542, -2.961542 )     5.20793777
 
         Spreads (Ang^2)       Omega I      =     5.191206026
        ================       Omega D      =     0.000000005
                               Omega OD     =     0.016733849
    Final Spread (Ang^2)       Omega Total  =     5.207939880
 ------------------------------------------------------------------------------
 Time for wannierise            3.569 (sec)

 Writing checkpoint file mp-22916.chk... done

 Time for plotting              0.000 (sec)
 Total Execution Time           4.897 (sec)

 *===========================================================================*
 |                             TIMING INFORMATION                            |
 *===========================================================================*
 |    Tag                                                Ncalls      Time (s)|
 |---------------------------------------------------------------------------|
 |kmesh: get                                        :         1         1.072|
 |overlap: allocate                                 :         1         0.002|
 |overlap: read                                     :         1         0.133|
 |wann: main                                        :         1         3.569|
 |plot: main                                        :         1         0.000|
 *---------------------------------------------------------------------------*
 
 All done: wannier90 exiting
