<?xml version="1.0" encoding="ISO-8859-1"?>
<modeling>
 <generator>
  <i name="program" type="string">vasp </i>
  <i name="version" type="string">5.4.4.18Apr17-6-g9f103f2a35  </i>
  <i name="subversion" type="string">(build Aug 24 2017 11:22:49) complex            parallel </i>
  <i name="platform" type="string">LinuxIFC </i>
  <i name="date" type="string">2023 12 25 </i>
  <i name="time" type="string">13:07:16 </i>
 </generator>
 <incar>
  <i type="string" name="PREC">accurate</i>
  <i type="string" name="ALGO"> Normal</i>
  <i type="int" name="NELM">   100</i>
  <i type="int" name="IBRION">     8</i>
  <i name="EDIFF">      0.00000001</i>
  <i name="SYMPREC">      0.00000001</i>
  <i name="ENCUT">    520.00000000</i>
  <i type="logical" name="LREAL"> F  </i>
  <i type="int" name="ISMEAR">     0</i>
  <i name="SIGMA">      0.01000000</i>
  <i type="logical" name="LWAVE"> F  </i>
  <v type="int" name="KPOINT_BSE">    -1     0     0     0</v>
  <i type="int" name="NELM">   100</i>
  <i type="logical" name="LPEAD"> T  </i>
  <i type="logical" name="LEPSILON"> T  </i>
 </incar>
 <structure name="primitive_cell" >
  <crystal>
   <varray name="basis" >
    <v>      -2.04171342       0.00000000       2.04171342 </v>
    <v>       0.00000000       2.04171342       2.04171342 </v>
    <v>      -2.04171342       2.04171342       0.00000000 </v>
   </varray>
   <i name="volume">     17.02214728 </i>
   <varray name="rec_basis" >
    <v>      -0.24489235      -0.24489235       0.24489235 </v>
    <v>       0.24489235       0.24489235       0.24489235 </v>
    <v>      -0.24489235       0.24489235      -0.24489235 </v>
   </varray>
  </crystal>
  <varray name="positions" >
   <v>       0.00000000       0.00000000       0.00000000 </v>
   <v>       0.49999996      -0.49999996       0.49999996 </v>
  </varray>
 </structure>
 <varray name="primitive_index" >
  <v type="int" >        1 </v>
  <v type="int" >        2 </v>
 </varray>
 <kpoints>
  <generation param="Gamma">
   <v type="int" name="divisions">      12       12       12 </v>
   <v name="usershift">      0.00000000       0.00000000       0.00000000 </v>
   <v name="genvec1">      0.08333333      -0.00000000      -0.00000000 </v>
   <v name="genvec2">     -0.00000000       0.08333333       0.00000000 </v>
   <v name="genvec3">      0.00000000       0.00000000       0.08333333 </v>
   <v name="shift">      0.00000000       0.00000000       0.00000000 </v>
  </generation>
  <varray name="kpointlist" >
   <v>       0.00000000       0.00000000       0.00000000 </v>
   <v>       0.08333333       0.00000000       0.00000000 </v>
   <v>       0.16666667      -0.00000000      -0.00000000 </v>
   <v>       0.25000000       0.00000000       0.00000000 </v>
   <v>       0.33333333       0.00000000      -0.00000000 </v>
   <v>       0.41666667       0.00000000       0.00000000 </v>
   <v>       0.50000000       0.00000000       0.00000000 </v>
   <v>       0.08333333       0.08333333      -0.00000000 </v>
   <v>       0.16666667       0.08333333      -0.00000000 </v>
   <v>       0.25000000       0.08333333      -0.00000000 </v>
   <v>       0.33333333       0.08333333       0.00000000 </v>
   <v>       0.41666667       0.08333333      -0.00000000 </v>
   <v>       0.50000000       0.08333333       0.00000000 </v>
   <v>      -0.41666667       0.08333333      -0.00000000 </v>
   <v>      -0.33333333       0.08333333       0.00000000 </v>
   <v>      -0.25000000       0.08333333       0.00000000 </v>
   <v>      -0.16666667       0.08333333      -0.00000000 </v>
   <v>      -0.08333333       0.08333333      -0.00000000 </v>
   <v>       0.16666667       0.16666667      -0.00000000 </v>
   <v>       0.25000000       0.16666667      -0.00000000 </v>
   <v>       0.33333333       0.16666667       0.00000000 </v>
   <v>       0.41666667       0.16666667       0.00000000 </v>
   <v>       0.50000000       0.16666667      -0.00000000 </v>
   <v>      -0.41666667       0.16666667      -0.00000000 </v>
   <v>      -0.33333333       0.16666667      -0.00000000 </v>
   <v>      -0.25000000       0.16666667      -0.00000000 </v>
   <v>      -0.16666667       0.16666667       0.00000000 </v>
   <v>       0.25000000       0.25000000      -0.00000000 </v>
   <v>       0.33333333       0.25000000      -0.00000000 </v>
   <v>       0.41666667       0.25000000      -0.00000000 </v>
   <v>       0.50000000       0.25000000       0.00000000 </v>
   <v>      -0.41666667       0.25000000       0.00000000 </v>
   <v>      -0.33333333       0.25000000       0.00000000 </v>
   <v>      -0.25000000       0.25000000      -0.00000000 </v>
   <v>       0.33333333       0.33333333      -0.00000000 </v>
   <v>       0.41666667       0.33333333      -0.00000000 </v>
   <v>       0.50000000       0.33333333      -0.00000000 </v>
   <v>      -0.41666667       0.33333333      -0.00000000 </v>
   <v>      -0.33333333       0.33333333       0.00000000 </v>
   <v>       0.41666667       0.41666667      -0.00000000 </v>
   <v>       0.50000000       0.41666667      -0.00000000 </v>
   <v>      -0.41666667       0.41666667      -0.00000000 </v>
   <v>       0.50000000       0.50000000      -0.00000000 </v>
   <v>       0.08333333      -0.00000000       0.08333333 </v>
   <v>       0.16666667       0.00000000       0.08333333 </v>
   <v>       0.25000000      -0.00000000       0.08333333 </v>
   <v>       0.33333333       0.00000000       0.08333333 </v>
   <v>       0.41666667      -0.00000000       0.08333333 </v>
   <v>       0.50000000       0.00000000       0.08333333 </v>
   <v>      -0.41666667      -0.00000000       0.08333333 </v>
   <v>      -0.33333333       0.00000000       0.08333333 </v>
   <v>      -0.25000000       0.00000000       0.08333333 </v>
   <v>      -0.16666667      -0.00000000       0.08333333 </v>
   <v>      -0.08333333      -0.00000000       0.08333333 </v>
   <v>       0.25000000       0.16666667       0.08333333 </v>
   <v>       0.33333333       0.16666667       0.08333333 </v>
   <v>       0.41666667       0.16666667       0.08333333 </v>
   <v>       0.50000000       0.16666667       0.08333333 </v>
   <v>      -0.41666667       0.16666667       0.08333333 </v>
   <v>       0.16666667       0.25000000       0.08333333 </v>
   <v>       0.33333333       0.25000000       0.08333333 </v>
   <v>       0.41666667       0.25000000       0.08333333 </v>
   <v>       0.50000000       0.25000000       0.08333333 </v>
   <v>      -0.41666667       0.25000000       0.08333333 </v>
   <v>      -0.33333333       0.25000000       0.08333333 </v>
   <v>      -0.25000000       0.25000000       0.08333333 </v>
   <v>      -0.16666667       0.25000000       0.08333333 </v>
   <v>       0.16666667       0.33333333       0.08333333 </v>
   <v>       0.25000000       0.33333333       0.08333333 </v>
   <v>       0.41666667       0.33333333       0.08333333 </v>
   <v>       0.50000000       0.33333333       0.08333333 </v>
   <v>      -0.41666667       0.33333333       0.08333333 </v>
   <v>      -0.33333333       0.33333333       0.08333333 </v>
   <v>      -0.25000000       0.33333333       0.08333333 </v>
   <v>       0.16666667       0.41666667       0.08333333 </v>
   <v>       0.25000000       0.41666667       0.08333333 </v>
   <v>       0.33333333       0.41666667       0.08333333 </v>
   <v>       0.50000000       0.41666667       0.08333333 </v>
   <v>      -0.41666667       0.41666667       0.08333333 </v>
   <v>      -0.33333333       0.41666667       0.08333333 </v>
   <v>       0.16666667       0.50000000       0.08333333 </v>
   <v>       0.25000000       0.50000000       0.08333333 </v>
   <v>       0.33333333       0.50000000       0.08333333 </v>
   <v>       0.41666667       0.50000000       0.08333333 </v>
   <v>      -0.41666667       0.50000000       0.08333333 </v>
   <v>       0.16666667      -0.41666667       0.08333333 </v>
   <v>       0.25000000      -0.41666667       0.08333333 </v>
   <v>       0.33333333      -0.41666667       0.08333333 </v>
   <v>       0.41666667      -0.41666667       0.08333333 </v>
   <v>       0.50000000      -0.41666667       0.08333333 </v>
   <v>       0.16666667      -0.33333333       0.08333333 </v>
   <v>       0.25000000      -0.33333333       0.08333333 </v>
   <v>       0.33333333      -0.33333333       0.08333333 </v>
   <v>       0.41666667      -0.33333333       0.08333333 </v>
   <v>       0.16666667      -0.25000000       0.08333333 </v>
   <v>       0.25000000      -0.25000000       0.08333333 </v>
   <v>       0.33333333      -0.25000000       0.08333333 </v>
   <v>       0.16666667      -0.16666667       0.08333333 </v>
   <v>       0.25000000      -0.16666667       0.08333333 </v>
   <v>       0.16666667      -0.08333333       0.08333333 </v>
   <v>       0.16666667      -0.00000000       0.16666667 </v>
   <v>       0.25000000       0.00000000       0.16666667 </v>
   <v>       0.33333333       0.00000000       0.16666667 </v>
   <v>       0.41666667       0.00000000       0.16666667 </v>
   <v>       0.50000000      -0.00000000       0.16666667 </v>
   <v>      -0.41666667      -0.00000000       0.16666667 </v>
   <v>      -0.33333333      -0.00000000       0.16666667 </v>
   <v>      -0.25000000      -0.00000000       0.16666667 </v>
   <v>      -0.16666667       0.00000000       0.16666667 </v>
   <v>       0.50000000       0.33333333       0.16666667 </v>
   <v>      -0.41666667       0.33333333       0.16666667 </v>
   <v>      -0.33333333       0.33333333       0.16666667 </v>
   <v>       0.25000000       0.41666667       0.16666667 </v>
   <v>      -0.41666667       0.41666667       0.16666667 </v>
   <v>      -0.33333333       0.41666667       0.16666667 </v>
   <v>      -0.25000000       0.41666667       0.16666667 </v>
   <v>       0.25000000       0.50000000       0.16666667 </v>
   <v>       0.33333333       0.50000000       0.16666667 </v>
   <v>      -0.33333333       0.50000000       0.16666667 </v>
   <v>       0.25000000      -0.41666667       0.16666667 </v>
   <v>       0.33333333      -0.41666667       0.16666667 </v>
   <v>       0.41666667      -0.41666667       0.16666667 </v>
   <v>       0.25000000      -0.33333333       0.16666667 </v>
   <v>       0.33333333      -0.33333333       0.16666667 </v>
   <v>       0.41666667      -0.33333333       0.16666667 </v>
   <v>       0.50000000      -0.33333333       0.16666667 </v>
   <v>       0.25000000      -0.25000000       0.16666667 </v>
   <v>       0.33333333      -0.25000000       0.16666667 </v>
   <v>       0.41666667      -0.25000000       0.16666667 </v>
   <v>       0.25000000      -0.16666667       0.16666667 </v>
   <v>       0.33333333      -0.16666667       0.16666667 </v>
   <v>       0.25000000      -0.08333333       0.16666667 </v>
   <v>       0.25000000      -0.00000000       0.25000000 </v>
   <v>       0.33333333      -0.00000000       0.25000000 </v>
   <v>       0.41666667      -0.00000000       0.25000000 </v>
   <v>       0.50000000       0.00000000       0.25000000 </v>
   <v>      -0.41666667      -0.00000000       0.25000000 </v>
   <v>      -0.33333333       0.00000000       0.25000000 </v>
   <v>      -0.25000000      -0.00000000       0.25000000 </v>
   <v>      -0.25000000       0.50000000       0.25000000 </v>
   <v>       0.33333333      -0.41666667       0.25000000 </v>
   <v>       0.33333333      -0.33333333       0.25000000 </v>
   <v>       0.41666667      -0.33333333       0.25000000 </v>
   <v>       0.33333333      -0.25000000       0.25000000 </v>
   <v>       0.41666667      -0.25000000       0.25000000 </v>
   <v>       0.50000000      -0.25000000       0.25000000 </v>
   <v>       0.33333333      -0.16666667       0.25000000 </v>
   <v>       0.41666667      -0.16666667       0.25000000 </v>
   <v>       0.33333333      -0.08333333       0.25000000 </v>
   <v>       0.33333333      -0.00000000       0.33333333 </v>
   <v>       0.41666667      -0.00000000       0.33333333 </v>
   <v>       0.50000000      -0.00000000       0.33333333 </v>
   <v>      -0.41666667      -0.00000000       0.33333333 </v>
   <v>      -0.33333333       0.00000000       0.33333333 </v>
   <v>       0.41666667      -0.25000000       0.33333333 </v>
   <v>       0.41666667      -0.16666667       0.33333333 </v>
   <v>       0.50000000      -0.16666667       0.33333333 </v>
   <v>       0.41666667      -0.08333333       0.33333333 </v>
   <v>       0.41666667      -0.00000000       0.41666667 </v>
   <v>       0.50000000      -0.00000000       0.41666667 </v>
   <v>      -0.41666667       0.00000000       0.41666667 </v>
   <v>       0.50000000      -0.08333333       0.41666667 </v>
   <v>       0.50000000      -0.00000000       0.50000000 </v>
  </varray>
  <varray name="weights" >
   <v>       0.00057870 </v>
   <v>       0.00462963 </v>
   <v>       0.00462963 </v>
   <v>       0.00462963 </v>
   <v>       0.00462963 </v>
   <v>       0.00462963 </v>
   <v>       0.00231481 </v>
   <v>       0.00231481 </v>
   <v>       0.00925926 </v>
   <v>       0.00925926 </v>
   <v>       0.00925926 </v>
   <v>       0.00925926 </v>
   <v>       0.00925926 </v>
   <v>       0.00925926 </v>
   <v>       0.00925926 </v>
   <v>       0.00925926 </v>
   <v>       0.00925926 </v>
   <v>       0.00462963 </v>
   <v>       0.00231481 </v>
   <v>       0.00925926 </v>
   <v>       0.00925926 </v>
   <v>       0.00925926 </v>
   <v>       0.00925926 </v>
   <v>       0.00925926 </v>
   <v>       0.00925926 </v>
   <v>       0.00925926 </v>
   <v>       0.00462963 </v>
   <v>       0.00231481 </v>
   <v>       0.00925926 </v>
   <v>       0.00925926 </v>
   <v>       0.00925926 </v>
   <v>       0.00925926 </v>
   <v>       0.00925926 </v>
   <v>       0.00462963 </v>
   <v>       0.00231481 </v>
   <v>       0.00925926 </v>
   <v>       0.00925926 </v>
   <v>       0.00925926 </v>
   <v>       0.00462963 </v>
   <v>       0.00231481 </v>
   <v>       0.00925926 </v>
   <v>       0.00462963 </v>
   <v>       0.00115741 </v>
   <v>       0.00115741 </v>
   <v>       0.00462963 </v>
   <v>       0.00462963 </v>
   <v>       0.00462963 </v>
   <v>       0.00462963 </v>
   <v>       0.00462963 </v>
   <v>       0.00462963 </v>
   <v>       0.00462963 </v>
   <v>       0.00462963 </v>
   <v>       0.00462963 </v>
   <v>       0.00231481 </v>
   <v>       0.00462963 </v>
   <v>       0.00925926 </v>
   <v>       0.00925926 </v>
   <v>       0.00925926 </v>
   <v>       0.00462963 </v>
   <v>       0.00462963 </v>
   <v>       0.00462963 </v>
   <v>       0.00925926 </v>
   <v>       0.00925926 </v>
   <v>       0.00925926 </v>
   <v>       0.00925926 </v>
   <v>       0.00925926 </v>
   <v>       0.00462963 </v>
   <v>       0.00925926 </v>
   <v>       0.00462963 </v>
   <v>       0.00462963 </v>
   <v>       0.00925926 </v>
   <v>       0.00925926 </v>
   <v>       0.00925926 </v>
   <v>       0.00462963 </v>
   <v>       0.00925926 </v>
   <v>       0.00925926 </v>
   <v>       0.00462963 </v>
   <v>       0.00462963 </v>
   <v>       0.00925926 </v>
   <v>       0.00462963 </v>
   <v>       0.00925926 </v>
   <v>       0.00925926 </v>
   <v>       0.00925926 </v>
   <v>       0.00462963 </v>
   <v>       0.00231481 </v>
   <v>       0.00925926 </v>
   <v>       0.00925926 </v>
   <v>       0.00925926 </v>
   <v>       0.00925926 </v>
   <v>       0.00231481 </v>
   <v>       0.00925926 </v>
   <v>       0.00925926 </v>
   <v>       0.00925926 </v>
   <v>       0.00462963 </v>
   <v>       0.00925926 </v>
   <v>       0.00925926 </v>
   <v>       0.00462963 </v>
   <v>       0.00925926 </v>
   <v>       0.00462963 </v>
   <v>       0.00462963 </v>
   <v>       0.00115741 </v>
   <v>       0.00462963 </v>
   <v>       0.00462963 </v>
   <v>       0.00462963 </v>
   <v>       0.00462963 </v>
   <v>       0.00462963 </v>
   <v>       0.00462963 </v>
   <v>       0.00462963 </v>
   <v>       0.00231481 </v>
   <v>       0.00462963 </v>
   <v>       0.00925926 </v>
   <v>       0.00462963 </v>
   <v>       0.00462963 </v>
   <v>       0.00462963 </v>
   <v>       0.00925926 </v>
   <v>       0.00462963 </v>
   <v>       0.00925926 </v>
   <v>       0.00462963 </v>
   <v>       0.00231481 </v>
   <v>       0.00925926 </v>
   <v>       0.00925926 </v>
   <v>       0.00462963 </v>
   <v>       0.00925926 </v>
   <v>       0.00925926 </v>
   <v>       0.00925926 </v>
   <v>       0.00231481 </v>
   <v>       0.00925926 </v>
   <v>       0.00925926 </v>
   <v>       0.00462963 </v>
   <v>       0.00925926 </v>
   <v>       0.00462963 </v>
   <v>       0.00462963 </v>
   <v>       0.00115741 </v>
   <v>       0.00462963 </v>
   <v>       0.00462963 </v>
   <v>       0.00462963 </v>
   <v>       0.00462963 </v>
   <v>       0.00462963 </v>
   <v>       0.00231481 </v>
   <v>       0.00115741 </v>
   <v>       0.00462963 </v>
   <v>       0.00925926 </v>
   <v>       0.00462963 </v>
   <v>       0.00925926 </v>
   <v>       0.00925926 </v>
   <v>       0.00231481 </v>
   <v>       0.00925926 </v>
   <v>       0.00462963 </v>
   <v>       0.00462963 </v>
   <v>       0.00115741 </v>
   <v>       0.00462963 </v>
   <v>       0.00462963 </v>
   <v>       0.00462963 </v>
   <v>       0.00231481 </v>
   <v>       0.00462963 </v>
   <v>       0.00925926 </v>
   <v>       0.00231481 </v>
   <v>       0.00462963 </v>
   <v>       0.00115741 </v>
   <v>       0.00462963 </v>
   <v>       0.00231481 </v>
   <v>       0.00231481 </v>
   <v>       0.00057870 </v>
  </varray>
 </kpoints>
 <parameters>
  <separator name="general" >
   <i type="string" name="SYSTEM">unknown system</i>
   <i type="logical" name="LCOMPAT"> F  </i>
  </separator>
  <separator name="electronic" >
   <i type="string" name="PREC">accura</i>
   <i name="ENMAX">    520.00000000</i>
   <i name="ENAUG">    628.94500000</i>
   <i name="EDIFF">      0.00000001</i>
   <i type="int" name="IALGO">    38</i>
   <i type="int" name="IWAVPR">    11</i>
   <i type="int" name="NBANDS">    16</i>
   <i name="NELECT">     10.00000000</i>
   <i type="int" name="TURBO">     0</i>
   <i type="int" name="IRESTART">     0</i>
   <i type="int" name="NREBOOT">     0</i>
   <i type="int" name="NMIN">     0</i>
   <i name="EREF">      0.00000000</i>
   <separator name="electronic smearing" >
    <i type="int" name="ISMEAR">     0</i>
    <i name="SIGMA">      0.01000000</i>
    <i name="KSPACING">      0.50000000</i>
    <i type="logical" name="KGAMMA"> T  </i>
   </separator>
   <separator name="electronic projectors" >
    <i type="logical" name="LREAL"> F  </i>
    <v name="ROPT">      0.00000000      0.00000000</v>
    <i type="int" name="LMAXPAW">  -100</i>
    <i type="int" name="LMAXMIX">     2</i>
    <i type="logical" name="NLSPLINE"> F  </i>
   </separator>
   <separator name="electronic startup" >
    <i type="int" name="ISTART">     0</i>
    <i type="int" name="ICHARG">     2</i>
    <i type="int" name="INIWAV">     1</i>
   </separator>
   <separator name="electronic spin" >
    <i type="int" name="ISPIN">     1</i>
    <i type="logical" name="LNONCOLLINEAR"> F  </i>
    <v name="MAGMOM">      1.00000000      1.00000000</v>
    <i name="NUPDOWN">     -1.00000000</i>
    <i type="logical" name="LSORBIT"> F  </i>
    <v name="SAXIS">      0.00000000      0.00000000      1.00000000</v>
    <i type="logical" name="LSPIRAL"> F  </i>
    <v name="QSPIRAL">      0.00000000      0.00000000      0.00000000</v>
    <i type="logical" name="LZEROZ"> F  </i>
   </separator>
   <separator name="electronic exchange-correlation" >
    <i type="logical" name="LASPH"> F  </i>
    <i type="logical" name="LMETAGGA"> F  </i>
   </separator>
   <separator name="electronic convergence" >
    <i type="int" name="NELM">   100</i>
    <i type="int" name="NELMDL">    -5</i>
    <i type="int" name="NELMIN">     2</i>
    <i name="ENINI">    520.00000000</i>
    <separator name="electronic convergence detail" >
     <i type="logical" name="LDIAG"> T  </i>
     <i type="logical" name="LSUBROT"> F  </i>
     <i name="WEIMIN">      0.00100000</i>
     <i name="EBREAK">      0.00000000</i>
     <i name="DEPER">      0.30000000</i>
     <i type="int" name="NRMM">     4</i>
     <i name="TIME">      0.40000000</i>
    </separator>
   </separator>
   <separator name="electronic mixer" >
    <i name="AMIX">      0.40000000</i>
    <i name="BMIX">      1.00000000</i>
    <i name="AMIN">      0.10000000</i>
    <i name="AMIX_MAG">      1.60000000</i>
    <i name="BMIX_MAG">      1.00000000</i>
    <separator name="electronic mixer details" >
     <i type="int" name="IMIX">     4</i>
     <i type="logical" name="MIXFIRST"> F  </i>
     <i type="int" name="MAXMIX">   -45</i>
     <i name="WC">    100.00000000</i>
     <i type="int" name="INIMIX">     1</i>
     <i type="int" name="MIXPRE">     1</i>
     <i type="int" name="MREMOVE">     5</i>
    </separator>
   </separator>
   <separator name="electronic dipolcorrection" >
    <i type="logical" name="LDIPOL"> F  </i>
    <i type="logical" name="LMONO"> F  </i>
    <i type="int" name="IDIPOL">     0</i>
    <i name="EPSILON">      1.00000000</i>
    <v name="DIPOL">   -100.00000000   -100.00000000   -100.00000000</v>
    <i name="EFIELD">      0.00000000</i>
   </separator>
  </separator>
  <separator name="grids" >
   <i type="int" name="NGX">    24</i>
   <i type="int" name="NGY">    24</i>
   <i type="int" name="NGZ">    24</i>
   <i type="int" name="NGXF">    48</i>
   <i type="int" name="NGYF">    48</i>
   <i type="int" name="NGZF">    48</i>
   <i type="logical" name="ADDGRID"> F  </i>
  </separator>
  <separator name="ionic" >
   <i type="int" name="NSW">     1</i>
   <i type="int" name="IBRION">     8</i>
   <i type="int" name="MDALGO">     0</i>
   <i type="int" name="ISIF">     2</i>
   <i name="PSTRESS">      0.00000000</i>
   <i name="EDIFFG">      0.00000010</i>
   <i type="int" name="NFREE">     0</i>
   <i name="POTIM">      0.50000000</i>
   <i name="SMASS">     -3.00000000</i>
   <i name="SCALEE">      1.00000000</i>
  </separator>
  <separator name="ionic md" >
   <i name="TEBEG">      0.00010000</i>
   <i name="TEEND">      0.00010000</i>
   <i type="int" name="NBLOCK">     1</i>
   <i type="int" name="KBLOCK">     1</i>
   <i type="int" name="NPACO">   256</i>
   <i name="APACO">     16.00000000</i>
  </separator>
  <separator name="symmetry" >
   <i type="int" name="ISYM">     2</i>
   <i name="SYMPREC">      0.00000001</i>
  </separator>
  <separator name="dos" >
   <i type="int" name="LORBIT">     0</i>
   <v name="RWIGS">     -1.00000000     -1.00000000</v>
   <i type="int" name="NEDOS">   301</i>
   <i name="EMIN">     10.00000000</i>
   <i name="EMAX">    -10.00000000</i>
   <i name="EFERMI">      0.00000000</i>
  </separator>
  <separator name="writing" >
   <i type="int" name="NWRITE">     2</i>
   <i type="logical" name="LWAVE"> F  </i>
   <i type="logical" name="LDOWNSAMPLE"> F  </i>
   <i type="logical" name="LCHARG"> T  </i>
   <i type="logical" name="LPARD"> F  </i>
   <i type="logical" name="LVTOT"> F  </i>
   <i type="logical" name="LVHAR"> F  </i>
   <i type="logical" name="LELF"> F  </i>
   <i type="logical" name="LOPTICS"> F  </i>
   <v name="STM">      0.00000000      0.00000000      0.00000000      0.00000000      0.00000000      0.00000000      0.00000000</v>
  </separator>
  <separator name="performance" >
   <i type="int" name="NPAR">     8</i>
   <i type="int" name="NSIM">     4</i>
   <i type="int" name="NBLK">    -1</i>
   <i type="logical" name="LPLANE"> T  </i>
   <i type="logical" name="LSCALAPACK"> T  </i>
   <i type="logical" name="LSCAAWARE"> F  </i>
   <i type="logical" name="LSCALU"> F  </i>
   <i type="logical" name="LASYNC"> F  </i>
   <i type="logical" name="LORBITALREAL"> F  </i>
  </separator>
  <separator name="miscellaneous" >
   <i type="int" name="IDIOT">     3</i>
   <i type="int" name="ISPECIAL">     0</i>
   <i type="logical" name="LMUSIC"> F  </i>
   <v name="POMASS">      7.01000000     18.99800000</v>
   <v name="DARWINR">      0.00000000      0.00000000</v>
   <v name="DARWINV">      1.00000000      1.00000000</v>
   <i type="logical" name="LCORR"> T  </i>
  </separator>
  <i type="logical" name="GGA_COMPAT"> T  </i>
  <i type="logical" name="LBERRY"> F  </i>
  <i type="int" name="ICORELEVEL">     0</i>
  <i type="logical" name="LDAU"> F  </i>
  <i type="int" name="I_CONSTRAINED_M">     0</i>
  <separator name="electronic exchange-correlation" >
   <i type="string" name="GGA">--</i>
   <i type="int" name="VOSKOWN">     0</i>
   <i type="logical" name="LHFCALC"> F  </i>
   <i type="string" name="PRECFOCK"></i>
   <i type="logical" name="LSYMGRAD"> F  </i>
   <i type="logical" name="LHFONE"> F  </i>
   <i type="logical" name="LRHFCALC"> F  </i>
   <i type="logical" name="LTHOMAS"> F  </i>
   <i type="logical" name="LMODELHF"> F  </i>
   <i name="ENCUT4O">     -1.00000000</i>
   <i type="int" name="EXXOEP">     0</i>
   <i type="int" name="FOURORBIT">     0</i>
   <i name="AEXX">      0.00000000</i>
   <i name="HFALPHA">      0.00000000</i>
   <i name="MCALPHA">      0.00000000</i>
   <i name="ALDAX">      1.00000000</i>
   <i name="AGGAX">      1.00000000</i>
   <i name="ALDAC">      1.00000000</i>
   <i name="AGGAC">      1.00000000</i>
   <i type="int" name="NKREDX">     1</i>
   <i type="int" name="NKREDY">     1</i>
   <i type="int" name="NKREDZ">     1</i>
   <i type="logical" name="SHIFTRED"> F  </i>
   <i type="logical" name="ODDONLY"> F  </i>
   <i type="logical" name="EVENONLY"> F  </i>
   <i type="int" name="LMAXFOCK">     0</i>
   <i type="int" name="NMAXFOCKAE">     0</i>
   <i type="logical" name="LFOCKAEDFT"> F  </i>
   <i name="HFSCREEN">      0.00000000</i>
   <i name="HFSCREENC">      0.00000000</i>
   <i type="int" name="NBANDSGWLOW">     0</i>
  </separator>
  <separator name="vdW DFT" >
   <i type="logical" name="LUSE_VDW"> F  </i>
   <i name="Zab_VDW">     -0.84910000</i>
   <i name="PARAM1">      0.12340000</i>
   <i name="PARAM2">      1.00000000</i>
   <i name="PARAM3">      0.00000000</i>
  </separator>
  <separator name="model GW" >
   <i type="int" name="MODEL_GW">     0</i>
   <i name="MODEL_EPS0">      5.10664418</i>
   <i name="MODEL_ALPHA">      1.00000000</i>
  </separator>
  <separator name="linear response parameters" >
   <i type="logical" name="LEPSILON"> T  </i>
   <i type="logical" name="LRPA"> F  </i>
   <i type="logical" name="LNABLA"> F  </i>
   <i type="logical" name="LVEL"> F  </i>
   <i type="int" name="KINTER">     0</i>
   <i name="CSHIFT">      0.10000000</i>
   <i name="OMEGAMAX">     -1.00000000</i>
   <i name="DEG_THRESHOLD">      0.00200000</i>
   <i name="RTIME">     -0.10000000</i>
   <i name="WPLASMAI">      0.00000000</i>
   <v name="DFIELD">      0.00000000      0.00000000      0.00000000</v>
   <v name="WPLASMA">      0.00000000      0.00000000      0.00000000      0.00000000      0.00000000      0.00000000      0.00000000      0.00000000      0.00000000</v>
  </separator>
  <separator name="orbital magnetization" >
   <i type="logical" name="NUCIND"> F  </i>
   <v name="MAGPOS">      0.00000000      0.00000000      0.00000000</v>
   <i type="logical" name="LNICSALL"> T  </i>
   <i type="logical" name="ORBITALMAG"> F  </i>
   <i type="logical" name="LMAGBLOCH"> F  </i>
   <i type="logical" name="LCHIMAG"> F  </i>
   <i type="logical" name="LGAUGE"> T  </i>
   <i type="int" name="MAGATOM">     0</i>
   <v name="MAGDIPOL">      0.00000000      0.00000000      0.00000000</v>
   <v name="AVECCONST">      0.00000000      0.00000000      0.00000000</v>
  </separator>
  <separator name="response functions" >
   <i type="logical" name="LADDER"> F  </i>
   <i type="logical" name="LRPAFORCE"> F  </i>
   <i type="logical" name="LFXC"> F  </i>
   <i type="logical" name="LHARTREE"> T  </i>
   <i type="int" name="IBSE">     0</i>
   <v type="int" name="KPOINT">    -1     0     0     0</v>
   <i type="logical" name="LTCTE"> F  </i>
   <i type="logical" name="LTETE"> F  </i>
   <i type="logical" name="LTRIPLET"> F  </i>
   <i type="logical" name="LFXCEPS"> F  </i>
   <i type="logical" name="LFXHEG"> F  </i>
   <i type="int" name="NATURALO">     2</i>
   <i type="logical" name="L2ORDER"> F  </i>
   <i type="logical" name="LMP2LT"> F  </i>
   <i type="logical" name="LUSEW"> F  </i>
   <i name="ENCUTGW">     -2.00000000</i>
   <i name="ENCUTGWSOFT">     -2.00000000</i>
   <i name="ENCUTLF">     -1.00000000</i>
   <i type="int" name="LMAXMP2">    -1</i>
   <i name="SCISSOR">      0.00000000</i>
   <i type="int" name="NOMEGA">     0</i>
   <i type="int" name="NOMEGAR">     0</i>
   <i type="int" name="NBANDSGW">    -1</i>
   <i type="int" name="NBANDSO">    -1</i>
   <i type="int" name="NBANDSV">    -1</i>
   <i type="int" name="NELM">   100</i>
   <i type="int" name="NELMHF">     1</i>
   <i type="int" name="DIM">     3</i>
   <i type="int" name="ANTIRES">     0</i>
   <i name="OMEGAMAX">    -30.00000000</i>
   <i name="OMEGAMIN">    -30.00000000</i>
   <i name="OMEGATL">   -200.00000000</i>
   <i type="int" name="OMEGAGRID">   140</i>
   <i name="CSHIFT">     -0.10000000</i>
   <i type="logical" name="SELFENERGY"> F  </i>
   <i type="logical" name="LSPECTRAL"> F  </i>
   <i type="logical" name="LSPECTRALGW"> F  </i>
   <i type="logical" name="LSINGLES"> F  </i>
   <i type="logical" name="LFERMIGW"> F  </i>
   <i type="logical" name="ODDONLYGW"> F  </i>
   <i type="logical" name="EVENONLYGW"> F  </i>
   <i type="int" name="NKREDLFX">     1</i>
   <i type="int" name="NKREDLFY">     1</i>
   <i type="int" name="NKREDLFZ">     1</i>
   <i type="int" name="MAXMEM">  2800</i>
   <i type="int" name="TELESCOPE">     0</i>
   <i type="int" name="TAUPAR">     1</i>
   <i type="int" name="OMEGAPAR">    -1</i>
   <i name="LAMBDA">      1.00000000</i>
  </separator>
  <separator name="External order field" >
   <i name="OFIELD_KAPPA">      0.00000000</i>
   <v name="OFIELD_K">      0.00000000      0.00000000      0.00000000</v>
   <i name="OFIELD_Q6_NEAR">      0.00000000</i>
   <i name="OFIELD_Q6_FAR">      0.00000000</i>
   <i name="OFIELD_A">      0.00000000</i>
  </separator>
 </parameters>
 <atominfo>
  <atoms>       2 </atoms>
  <types>       2 </types>
  <array name="atoms" >
   <dimension dim="1">ion</dimension>
   <field type="string">element</field>
   <field type="int">atomtype</field>
   <set>
    <rc><c>Li</c><c>   1</c></rc>
    <rc><c>F </c><c>   2</c></rc>
   </set>
  </array>
  <array name="atomtypes" >
   <dimension dim="1">type</dimension>
   <field type="int">atomspertype</field>
   <field type="string">element</field>
   <field>mass</field>
   <field>valence</field>
   <field type="string">pseudopotential</field>
   <set>
    <rc><c>   1</c><c>Li</c><c>      7.01000000</c><c>      3.00000000</c><c>  PAW_PBE Li_sv 10Sep2004               </c></rc>
    <rc><c>   1</c><c>F </c><c>     18.99800000</c><c>      7.00000000</c><c>  PAW_PBE F 08Apr2002                   </c></rc>
   </set>
  </array>
 </atominfo>
 <structure name="initialpos" >
  <crystal>
   <varray name="basis" >
    <v>      -2.04171342       0.00000000       2.04171342 </v>
    <v>       0.00000000       2.04171342       2.04171342 </v>
    <v>      -2.04171342       2.04171342       0.00000000 </v>
   </varray>
   <i name="volume">     17.02214728 </i>
   <varray name="rec_basis" >
    <v>      -0.24489235      -0.24489235       0.24489235 </v>
    <v>       0.24489235       0.24489235       0.24489235 </v>
    <v>      -0.24489235       0.24489235      -0.24489235 </v>
   </varray>
  </crystal>
  <varray name="positions" >
   <v>       0.00000000       0.00000000       0.00000000 </v>
   <v>       0.49999996       0.50000004       0.49999996 </v>
  </varray>
 </structure>
 <calculation>
  <scstep>
   <time name="dav">    0.74    0.75</time>
   <time name="total">    0.75    0.76</time>
   <energy>
    <i name="alphaZ">     19.24756769 </i>
    <i name="ewald">   -549.57283744 </i>
    <i name="hartreedc">   -217.48179370 </i>
    <i name="XCdc">     49.79845457 </i>
    <i name="pawpsdc">    618.96943640 </i>
    <i name="pawaedc">   -639.47645653 </i>
    <i name="eentropy">     -0.00000000 </i>
    <i name="bandstr">   -109.63356469 </i>
    <i name="atom">    862.38801837 </i>
    <i name="e_fr_energy">     34.23882467 </i>
    <i name="e_wo_entrp">     34.23882467 </i>
    <i name="e_0_energy">     34.23882467 </i>
   </energy>
  </scstep>
  <scstep>
   <time name="dav">    0.95    0.96</time>
   <time name="total">    0.95    0.96</time>
   <energy>
    <i name="e_fr_energy">     -9.13970616 </i>
    <i name="e_wo_entrp">     -9.13970616 </i>
    <i name="e_0_energy">     -9.13970616 </i>
   </energy>
  </scstep>
  <scstep>
   <time name="dav">    0.78    0.79</time>
   <time name="total">    0.78    0.79</time>
   <energy>
    <i name="e_fr_energy">    -10.14846198 </i>
    <i name="e_wo_entrp">    -10.14846198 </i>
    <i name="e_0_energy">    -10.14846198 </i>
   </energy>
  </scstep>
  <scstep>
   <time name="dav">    0.91    0.92</time>
   <time name="total">    0.91    0.92</time>
   <energy>
    <i name="e_fr_energy">    -10.15309740 </i>
    <i name="e_wo_entrp">    -10.15309740 </i>
    <i name="e_0_energy">    -10.15309740 </i>
   </energy>
  </scstep>
  <scstep>
   <time name="dav">    0.79    0.80</time>
   <time name="total">    0.82    0.83</time>
   <energy>
    <i name="e_fr_energy">    -10.15312501 </i>
    <i name="e_wo_entrp">    -10.15312501 </i>
    <i name="e_0_energy">    -10.15312501 </i>
   </energy>
  </scstep>
  <scstep>
   <time name="dav">    0.90    0.91</time>
   <time name="total">    0.94    0.95</time>
   <energy>
    <i name="e_fr_energy">     -9.62896180 </i>
    <i name="e_wo_entrp">     -9.62896180 </i>
    <i name="e_0_energy">     -9.62896180 </i>
   </energy>
  </scstep>
  <scstep>
   <time name="dav">    0.89    0.90</time>
   <time name="total">    0.93    0.95</time>
   <energy>
    <i name="e_fr_energy">     -9.63344999 </i>
    <i name="e_wo_entrp">     -9.63344999 </i>
    <i name="e_0_energy">     -9.63344999 </i>
   </energy>
  </scstep>
  <scstep>
   <time name="dav">    0.89    0.90</time>
   <time name="total">    0.93    0.94</time>
   <energy>
    <i name="e_fr_energy">     -9.64043473 </i>
    <i name="e_wo_entrp">     -9.64043473 </i>
    <i name="e_0_energy">     -9.64043473 </i>
   </energy>
  </scstep>
  <scstep>
   <time name="dav">    0.80    0.81</time>
   <time name="total">    0.84    0.85</time>
   <energy>
    <i name="e_fr_energy">     -9.64042578 </i>
    <i name="e_wo_entrp">     -9.64042578 </i>
    <i name="e_0_energy">     -9.64042578 </i>
   </energy>
  </scstep>
  <scstep>
   <time name="dav">    0.85    0.86</time>
   <time name="total">    0.89    0.90</time>
   <energy>
    <i name="e_fr_energy">     -9.64052040 </i>
    <i name="e_wo_entrp">     -9.64052040 </i>
    <i name="e_0_energy">     -9.64052040 </i>
   </energy>
  </scstep>
  <scstep>
   <time name="dav">    0.79    0.80</time>
   <time name="total">    0.83    0.84</time>
   <energy>
    <i name="e_fr_energy">     -9.64052396 </i>
    <i name="e_wo_entrp">     -9.64052396 </i>
    <i name="e_0_energy">     -9.64052396 </i>
   </energy>
  </scstep>
  <scstep>
   <time name="dav">    0.89    0.90</time>
   <time name="total">    0.93    0.94</time>
   <energy>
    <i name="e_fr_energy">     -9.64052466 </i>
    <i name="e_wo_entrp">     -9.64052466 </i>
    <i name="e_0_energy">     -9.64052466 </i>
   </energy>
  </scstep>
  <scstep>
   <time name="dav">    0.84    0.85</time>
   <time name="total">    0.88    0.89</time>
   <energy>
    <i name="e_fr_energy">     -9.64052462 </i>
    <i name="e_wo_entrp">     -9.64052462 </i>
    <i name="e_0_energy">     -9.64052462 </i>
   </energy>
  </scstep>
  <scstep>
   <time name="dav">    0.73    0.74</time>
   <time name="total">    0.74    0.75</time>
   <energy>
    <i name="alphaZ">     19.24756769 </i>
    <i name="ewald">   -549.57283744 </i>
    <i name="hartreedc">   -231.16826639 </i>
    <i name="XCdc">     50.65319395 </i>
    <i name="pawpsdc">    711.99043282 </i>
    <i name="pawaedc">   -733.13996483 </i>
    <i name="eentropy">     -0.00000000 </i>
    <i name="bandstr">   -140.03866877 </i>
    <i name="atom">    862.38801837 </i>
    <i name="e_fr_energy">     -9.64052461 </i>
    <i name="e_wo_entrp">     -9.64052461 </i>
    <i name="e_0_energy">     -9.64052461 </i>
   </energy>
  </scstep>
  <structure>
   <crystal>
    <varray name="basis" >
     <v>      -2.04171342       0.00000000       2.04171342 </v>
     <v>       0.00000000       2.04171342       2.04171342 </v>
     <v>      -2.04171342       2.04171342       0.00000000 </v>
    </varray>
    <i name="volume">     17.02214728 </i>
    <varray name="rec_basis" >
     <v>      -0.24489235      -0.24489235       0.24489235 </v>
     <v>       0.24489235       0.24489235       0.24489235 </v>
     <v>      -0.24489235       0.24489235      -0.24489235 </v>
    </varray>
   </crystal>
   <varray name="positions" >
    <v>       0.00000000       0.00000000       0.00000000 </v>
    <v>       0.49999996       0.50000004       0.49999996 </v>
   </varray>
  </structure>
  <varray name="forces" >
   <v>       0.00000035       0.00000000       0.00000000 </v>
   <v>      -0.00000035      -0.00000000      -0.00000000 </v>
  </varray>
  <varray name="stress" >
   <v>     -11.80877794       0.00000000       0.00000000 </v>
   <v>       0.00000000     -11.80872267       0.00000000 </v>
   <v>       0.00000000       0.00000000     -11.80872267 </v>
  </varray>
  <energy>
   <i name="e_fr_energy">     -9.64052461 </i>
   <i name="e_wo_entrp">     -9.64052461 </i>
   <i name="e_0_energy">     -0.00000000 </i>
  </energy>
  <scstep>
   <time name="total">    0.59    0.59</time>
   <energy>
    <i name="e_fr_energy">     -0.04755223 </i>
    <i name="e_wo_entrp">     -0.04755223 </i>
    <i name="e_0_energy">     -0.04755223 </i>
   </energy>
  </scstep>
  <scstep>
   <time name="total">    0.56    0.56</time>
   <energy>
    <i name="e_fr_energy">     -0.04950709 </i>
    <i name="e_wo_entrp">     -0.04950709 </i>
    <i name="e_0_energy">     -0.04950709 </i>
   </energy>
  </scstep>
  <scstep>
   <time name="total">    0.60    0.60</time>
   <energy>
    <i name="e_fr_energy">     -0.04997623 </i>
    <i name="e_wo_entrp">     -0.04997623 </i>
    <i name="e_0_energy">     -0.04997623 </i>
   </energy>
  </scstep>
  <scstep>
   <time name="total">    0.54    0.54</time>
   <energy>
    <i name="e_fr_energy">     -0.05007851 </i>
    <i name="e_wo_entrp">     -0.05007851 </i>
    <i name="e_0_energy">     -0.05007851 </i>
   </energy>
  </scstep>
  <scstep>
   <time name="total">    0.53    0.54</time>
   <energy>
    <i name="e_fr_energy">     -0.05009833 </i>
    <i name="e_wo_entrp">     -0.05009833 </i>
    <i name="e_0_energy">     -0.05009833 </i>
   </energy>
  </scstep>
  <scstep>
   <time name="total">    0.58    0.59</time>
   <energy>
    <i name="e_fr_energy">     -0.05010189 </i>
    <i name="e_wo_entrp">     -0.05010189 </i>
    <i name="e_0_energy">     -0.05010189 </i>
   </energy>
  </scstep>
  <scstep>
   <time name="total">    0.49    0.49</time>
   <energy>
    <i name="e_fr_energy">     -0.05010248 </i>
    <i name="e_wo_entrp">     -0.05010248 </i>
    <i name="e_0_energy">     -0.05010248 </i>
   </energy>
  </scstep>
  <scstep>
   <time name="total">    0.47    0.48</time>
   <energy>
    <i name="e_fr_energy">     -0.05010259 </i>
    <i name="e_wo_entrp">     -0.05010259 </i>
    <i name="e_0_energy">     -0.05010259 </i>
   </energy>
  </scstep>
  <scstep>
   <time name="total">    0.51    0.52</time>
   <energy>
    <i name="e_fr_energy">     -0.05010261 </i>
    <i name="e_wo_entrp">     -0.05010261 </i>
    <i name="e_0_energy">     -0.05010261 </i>
   </energy>
  </scstep>
  <scstep>
   <time name="total">    0.50    0.50</time>
   <energy>
    <i name="e_fr_energy">     -0.05010261 </i>
    <i name="e_wo_entrp">     -0.05010261 </i>
    <i name="e_0_energy">     -0.05010261 </i>
   </energy>
  </scstep>
  <scstep>
   <time name="total">    0.64    0.64</time>
   <energy>
    <i name="e_fr_energy">     -0.05399205 </i>
    <i name="e_wo_entrp">     -0.05399205 </i>
    <i name="e_0_energy">     -0.05399205 </i>
   </energy>
  </scstep>
  <scstep>
   <time name="total">    0.56    0.57</time>
   <energy>
    <i name="e_fr_energy">     -0.05607229 </i>
    <i name="e_wo_entrp">     -0.05607229 </i>
    <i name="e_0_energy">     -0.05607229 </i>
   </energy>
  </scstep>
  <scstep>
   <time name="total">    0.55    0.55</time>
   <energy>
    <i name="e_fr_energy">     -0.05653760 </i>
    <i name="e_wo_entrp">     -0.05653760 </i>
    <i name="e_0_energy">     -0.05653760 </i>
   </energy>
  </scstep>
  <scstep>
   <time name="total">    0.54    0.54</time>
   <energy>
    <i name="e_fr_energy">     -0.05663115 </i>
    <i name="e_wo_entrp">     -0.05663115 </i>
    <i name="e_0_energy">     -0.05663115 </i>
   </energy>
  </scstep>
  <scstep>
   <time name="total">    0.51    0.51</time>
   <energy>
    <i name="e_fr_energy">     -0.05664897 </i>
    <i name="e_wo_entrp">     -0.05664897 </i>
    <i name="e_0_energy">     -0.05664897 </i>
   </energy>
  </scstep>
  <scstep>
   <time name="total">    0.55    0.55</time>
   <energy>
    <i name="e_fr_energy">     -0.05665222 </i>
    <i name="e_wo_entrp">     -0.05665222 </i>
    <i name="e_0_energy">     -0.05665222 </i>
   </energy>
  </scstep>
  <scstep>
   <time name="total">    0.51    0.51</time>
   <energy>
    <i name="e_fr_energy">     -0.05665278 </i>
    <i name="e_wo_entrp">     -0.05665278 </i>
    <i name="e_0_energy">     -0.05665278 </i>
   </energy>
  </scstep>
  <scstep>
   <time name="total">    0.55    0.55</time>
   <energy>
    <i name="e_fr_energy">     -0.05665289 </i>
    <i name="e_wo_entrp">     -0.05665289 </i>
    <i name="e_0_energy">     -0.05665289 </i>
   </energy>
  </scstep>
  <scstep>
   <time name="total">    0.56    0.57</time>
   <energy>
    <i name="e_fr_energy">     -0.05665291 </i>
    <i name="e_wo_entrp">     -0.05665291 </i>
    <i name="e_0_energy">     -0.05665291 </i>
   </energy>
  </scstep>
  <scstep>
   <time name="total">    0.54    0.54</time>
   <energy>
    <i name="e_fr_energy">     -0.05665292 </i>
    <i name="e_wo_entrp">     -0.05665292 </i>
    <i name="e_0_energy">     -0.05665292 </i>
   </energy>
  </scstep>
  <scstep>
   <time name="total">    0.59    0.60</time>
   <energy>
    <i name="e_fr_energy">     -0.04111501 </i>
    <i name="e_wo_entrp">     -0.04111501 </i>
    <i name="e_0_energy">     -0.04111501 </i>
   </energy>
  </scstep>
  <scstep>
   <time name="total">    0.50    0.52</time>
   <energy>
    <i name="e_fr_energy">     -0.04294573 </i>
    <i name="e_wo_entrp">     -0.04294573 </i>
    <i name="e_0_energy">     -0.04294573 </i>
   </energy>
  </scstep>
  <scstep>
   <time name="total">    0.54    0.55</time>
   <energy>
    <i name="e_fr_energy">     -0.04341631 </i>
    <i name="e_wo_entrp">     -0.04341631 </i>
    <i name="e_0_energy">     -0.04341631 </i>
   </energy>
  </scstep>
  <scstep>
   <time name="total">    0.52    0.53</time>
   <energy>
    <i name="e_fr_energy">     -0.04352655 </i>
    <i name="e_wo_entrp">     -0.04352655 </i>
    <i name="e_0_energy">     -0.04352655 </i>
   </energy>
  </scstep>
  <scstep>
   <time name="total">    0.55    0.55</time>
   <energy>
    <i name="e_fr_energy">     -0.04354878 </i>
    <i name="e_wo_entrp">     -0.04354878 </i>
    <i name="e_0_energy">     -0.04354878 </i>
   </energy>
  </scstep>
  <scstep>
   <time name="total">    0.56    0.57</time>
   <energy>
    <i name="e_fr_energy">     -0.04355274 </i>
    <i name="e_wo_entrp">     -0.04355274 </i>
    <i name="e_0_energy">     -0.04355274 </i>
   </energy>
  </scstep>
  <scstep>
   <time name="total">    0.58    0.58</time>
   <energy>
    <i name="e_fr_energy">     -0.04355339 </i>
    <i name="e_wo_entrp">     -0.04355339 </i>
    <i name="e_0_energy">     -0.04355339 </i>
   </energy>
  </scstep>
  <scstep>
   <time name="total">    0.54    0.55</time>
   <energy>
    <i name="e_fr_energy">     -0.04355351 </i>
    <i name="e_wo_entrp">     -0.04355351 </i>
    <i name="e_0_energy">     -0.04355351 </i>
   </energy>
  </scstep>
  <scstep>
   <time name="total">    0.54    0.55</time>
   <energy>
    <i name="e_fr_energy">     -0.04355353 </i>
    <i name="e_wo_entrp">     -0.04355353 </i>
    <i name="e_0_energy">     -0.04355353 </i>
   </energy>
  </scstep>
  <scstep>
   <time name="total">    0.51    0.51</time>
   <energy>
    <i name="e_fr_energy">     -0.04355353 </i>
    <i name="e_wo_entrp">     -0.04355353 </i>
    <i name="e_0_energy">     -0.04355353 </i>
   </energy>
  </scstep>
  <varray name="epsilon_rpa" >
   <v>       2.06522718      -0.00000000       0.00000000 </v>
   <v>      -0.00000000       2.06524019      -0.00000000 </v>
   <v>       0.00000000      -0.00000000       2.06524019 </v>
  </varray>
  <kpoints>
   <generation param="Gamma">
    <v type="int" name="divisions">      12       12       12 </v>
    <v name="usershift">      0.00000000       0.00000000       0.00000000 </v>
    <v name="genvec1">      0.08333333      -0.00000000      -0.00000000 </v>
    <v name="genvec2">     -0.00000000       0.08333333       0.00000000 </v>
    <v name="genvec3">      0.00000000       0.00000000       0.08333333 </v>
    <v name="shift">      0.00000000       0.00000000       0.00000000 </v>
   </generation>
   <varray name="kpointlist" >
    <v>       0.00000000       0.00000000       0.00000000 </v>
    <v>       0.08333333       0.00000000       0.00000000 </v>
    <v>       0.16666667      -0.00000000      -0.00000000 </v>
    <v>       0.25000000       0.00000000       0.00000000 </v>
    <v>       0.33333333       0.00000000      -0.00000000 </v>
    <v>       0.41666667       0.00000000       0.00000000 </v>
    <v>       0.50000000       0.00000000       0.00000000 </v>
    <v>       0.08333333       0.08333333      -0.00000000 </v>
    <v>       0.16666667       0.08333333      -0.00000000 </v>
    <v>       0.25000000       0.08333333      -0.00000000 </v>
    <v>       0.33333333       0.08333333       0.00000000 </v>
    <v>       0.41666667       0.08333333      -0.00000000 </v>
    <v>       0.50000000       0.08333333       0.00000000 </v>
    <v>      -0.41666667       0.08333333      -0.00000000 </v>
    <v>      -0.33333333       0.08333333       0.00000000 </v>
    <v>      -0.25000000       0.08333333       0.00000000 </v>
    <v>      -0.16666667       0.08333333      -0.00000000 </v>
    <v>      -0.08333333       0.08333333      -0.00000000 </v>
    <v>       0.16666667       0.16666667      -0.00000000 </v>
    <v>       0.25000000       0.16666667      -0.00000000 </v>
    <v>       0.33333333       0.16666667       0.00000000 </v>
    <v>       0.41666667       0.16666667       0.00000000 </v>
    <v>       0.50000000       0.16666667      -0.00000000 </v>
    <v>      -0.41666667       0.16666667      -0.00000000 </v>
    <v>      -0.33333333       0.16666667      -0.00000000 </v>
    <v>      -0.25000000       0.16666667      -0.00000000 </v>
    <v>      -0.16666667       0.16666667       0.00000000 </v>
    <v>       0.25000000       0.25000000      -0.00000000 </v>
    <v>       0.33333333       0.25000000      -0.00000000 </v>
    <v>       0.41666667       0.25000000      -0.00000000 </v>
    <v>       0.50000000       0.25000000       0.00000000 </v>
    <v>      -0.41666667       0.25000000       0.00000000 </v>
    <v>      -0.33333333       0.25000000       0.00000000 </v>
    <v>      -0.25000000       0.25000000      -0.00000000 </v>
    <v>       0.33333333       0.33333333      -0.00000000 </v>
    <v>       0.41666667       0.33333333      -0.00000000 </v>
    <v>       0.50000000       0.33333333      -0.00000000 </v>
    <v>      -0.41666667       0.33333333      -0.00000000 </v>
    <v>      -0.33333333       0.33333333       0.00000000 </v>
    <v>       0.41666667       0.41666667      -0.00000000 </v>
    <v>       0.50000000       0.41666667      -0.00000000 </v>
    <v>      -0.41666667       0.41666667      -0.00000000 </v>
    <v>       0.50000000       0.50000000      -0.00000000 </v>
    <v>       0.08333333      -0.00000000       0.08333333 </v>
    <v>       0.16666667       0.00000000       0.08333333 </v>
    <v>       0.25000000      -0.00000000       0.08333333 </v>
    <v>       0.33333333       0.00000000       0.08333333 </v>
    <v>       0.41666667      -0.00000000       0.08333333 </v>
    <v>       0.50000000       0.00000000       0.08333333 </v>
    <v>      -0.41666667      -0.00000000       0.08333333 </v>
    <v>      -0.33333333       0.00000000       0.08333333 </v>
    <v>      -0.25000000       0.00000000       0.08333333 </v>
    <v>      -0.16666667      -0.00000000       0.08333333 </v>
    <v>      -0.08333333      -0.00000000       0.08333333 </v>
    <v>       0.25000000       0.16666667       0.08333333 </v>
    <v>       0.33333333       0.16666667       0.08333333 </v>
    <v>       0.41666667       0.16666667       0.08333333 </v>
    <v>       0.50000000       0.16666667       0.08333333 </v>
    <v>      -0.41666667       0.16666667       0.08333333 </v>
    <v>       0.16666667       0.25000000       0.08333333 </v>
    <v>       0.33333333       0.25000000       0.08333333 </v>
    <v>       0.41666667       0.25000000       0.08333333 </v>
    <v>       0.50000000       0.25000000       0.08333333 </v>
    <v>      -0.41666667       0.25000000       0.08333333 </v>
    <v>      -0.33333333       0.25000000       0.08333333 </v>
    <v>      -0.25000000       0.25000000       0.08333333 </v>
    <v>      -0.16666667       0.25000000       0.08333333 </v>
    <v>       0.16666667       0.33333333       0.08333333 </v>
    <v>       0.25000000       0.33333333       0.08333333 </v>
    <v>       0.41666667       0.33333333       0.08333333 </v>
    <v>       0.50000000       0.33333333       0.08333333 </v>
    <v>      -0.41666667       0.33333333       0.08333333 </v>
    <v>      -0.33333333       0.33333333       0.08333333 </v>
    <v>      -0.25000000       0.33333333       0.08333333 </v>
    <v>       0.16666667       0.41666667       0.08333333 </v>
    <v>       0.25000000       0.41666667       0.08333333 </v>
    <v>       0.33333333       0.41666667       0.08333333 </v>
    <v>       0.50000000       0.41666667       0.08333333 </v>
    <v>      -0.41666667       0.41666667       0.08333333 </v>
    <v>      -0.33333333       0.41666667       0.08333333 </v>
    <v>       0.16666667       0.50000000       0.08333333 </v>
    <v>       0.25000000       0.50000000       0.08333333 </v>
    <v>       0.33333333       0.50000000       0.08333333 </v>
    <v>       0.41666667       0.50000000       0.08333333 </v>
    <v>      -0.41666667       0.50000000       0.08333333 </v>
    <v>       0.16666667      -0.41666667       0.08333333 </v>
    <v>       0.25000000      -0.41666667       0.08333333 </v>
    <v>       0.33333333      -0.41666667       0.08333333 </v>
    <v>       0.41666667      -0.41666667       0.08333333 </v>
    <v>       0.50000000      -0.41666667       0.08333333 </v>
    <v>       0.16666667      -0.33333333       0.08333333 </v>
    <v>       0.25000000      -0.33333333       0.08333333 </v>
    <v>       0.33333333      -0.33333333       0.08333333 </v>
    <v>       0.41666667      -0.33333333       0.08333333 </v>
    <v>       0.16666667      -0.25000000       0.08333333 </v>
    <v>       0.25000000      -0.25000000       0.08333333 </v>
    <v>       0.33333333      -0.25000000       0.08333333 </v>
    <v>       0.16666667      -0.16666667       0.08333333 </v>
    <v>       0.25000000      -0.16666667       0.08333333 </v>
    <v>       0.16666667      -0.08333333       0.08333333 </v>
    <v>       0.16666667      -0.00000000       0.16666667 </v>
    <v>       0.25000000       0.00000000       0.16666667 </v>
    <v>       0.33333333       0.00000000       0.16666667 </v>
    <v>       0.41666667       0.00000000       0.16666667 </v>
    <v>       0.50000000      -0.00000000       0.16666667 </v>
    <v>      -0.41666667      -0.00000000       0.16666667 </v>
    <v>      -0.33333333      -0.00000000       0.16666667 </v>
    <v>      -0.25000000      -0.00000000       0.16666667 </v>
    <v>      -0.16666667       0.00000000       0.16666667 </v>
    <v>       0.50000000       0.33333333       0.16666667 </v>
    <v>      -0.41666667       0.33333333       0.16666667 </v>
    <v>      -0.33333333       0.33333333       0.16666667 </v>
    <v>       0.25000000       0.41666667       0.16666667 </v>
    <v>      -0.41666667       0.41666667       0.16666667 </v>
    <v>      -0.33333333       0.41666667       0.16666667 </v>
    <v>      -0.25000000       0.41666667       0.16666667 </v>
    <v>       0.25000000       0.50000000       0.16666667 </v>
    <v>       0.33333333       0.50000000       0.16666667 </v>
    <v>      -0.33333333       0.50000000       0.16666667 </v>
    <v>       0.25000000      -0.41666667       0.16666667 </v>
    <v>       0.33333333      -0.41666667       0.16666667 </v>
    <v>       0.41666667      -0.41666667       0.16666667 </v>
    <v>       0.25000000      -0.33333333       0.16666667 </v>
    <v>       0.33333333      -0.33333333       0.16666667 </v>
    <v>       0.41666667      -0.33333333       0.16666667 </v>
    <v>       0.50000000      -0.33333333       0.16666667 </v>
    <v>       0.25000000      -0.25000000       0.16666667 </v>
    <v>       0.33333333      -0.25000000       0.16666667 </v>
    <v>       0.41666667      -0.25000000       0.16666667 </v>
    <v>       0.25000000      -0.16666667       0.16666667 </v>
    <v>       0.33333333      -0.16666667       0.16666667 </v>
    <v>       0.25000000      -0.08333333       0.16666667 </v>
    <v>       0.25000000      -0.00000000       0.25000000 </v>
    <v>       0.33333333      -0.00000000       0.25000000 </v>
    <v>       0.41666667      -0.00000000       0.25000000 </v>
    <v>       0.50000000       0.00000000       0.25000000 </v>
    <v>      -0.41666667      -0.00000000       0.25000000 </v>
    <v>      -0.33333333       0.00000000       0.25000000 </v>
    <v>      -0.25000000      -0.00000000       0.25000000 </v>
    <v>      -0.25000000       0.50000000       0.25000000 </v>
    <v>       0.33333333      -0.41666667       0.25000000 </v>
    <v>       0.33333333      -0.33333333       0.25000000 </v>
    <v>       0.41666667      -0.33333333       0.25000000 </v>
    <v>       0.33333333      -0.25000000       0.25000000 </v>
    <v>       0.41666667      -0.25000000       0.25000000 </v>
    <v>       0.50000000      -0.25000000       0.25000000 </v>
    <v>       0.33333333      -0.16666667       0.25000000 </v>
    <v>       0.41666667      -0.16666667       0.25000000 </v>
    <v>       0.33333333      -0.08333333       0.25000000 </v>
    <v>       0.33333333      -0.00000000       0.33333333 </v>
    <v>       0.41666667      -0.00000000       0.33333333 </v>
    <v>       0.50000000      -0.00000000       0.33333333 </v>
    <v>      -0.41666667      -0.00000000       0.33333333 </v>
    <v>      -0.33333333       0.00000000       0.33333333 </v>
    <v>       0.41666667      -0.25000000       0.33333333 </v>
    <v>       0.41666667      -0.16666667       0.33333333 </v>
    <v>       0.50000000      -0.16666667       0.33333333 </v>
    <v>       0.41666667      -0.08333333       0.33333333 </v>
    <v>       0.41666667      -0.00000000       0.41666667 </v>
    <v>       0.50000000      -0.00000000       0.41666667 </v>
    <v>      -0.41666667       0.00000000       0.41666667 </v>
    <v>       0.50000000      -0.08333333       0.41666667 </v>
    <v>       0.50000000      -0.00000000       0.50000000 </v>
   </varray>
   <varray name="weights" >
    <v>       0.00057870 </v>
    <v>       0.00462963 </v>
    <v>       0.00462963 </v>
    <v>       0.00462963 </v>
    <v>       0.00462963 </v>
    <v>       0.00462963 </v>
    <v>       0.00231481 </v>
    <v>       0.00231481 </v>
    <v>       0.00925926 </v>
    <v>       0.00925926 </v>
    <v>       0.00925926 </v>
    <v>       0.00925926 </v>
    <v>       0.00925926 </v>
    <v>       0.00925926 </v>
    <v>       0.00925926 </v>
    <v>       0.00925926 </v>
    <v>       0.00925926 </v>
    <v>       0.00462963 </v>
    <v>       0.00231481 </v>
    <v>       0.00925926 </v>
    <v>       0.00925926 </v>
    <v>       0.00925926 </v>
    <v>       0.00925926 </v>
    <v>       0.00925926 </v>
    <v>       0.00925926 </v>
    <v>       0.00925926 </v>
    <v>       0.00462963 </v>
    <v>       0.00231481 </v>
    <v>       0.00925926 </v>
    <v>       0.00925926 </v>
    <v>       0.00925926 </v>
    <v>       0.00925926 </v>
    <v>       0.00925926 </v>
    <v>       0.00462963 </v>
    <v>       0.00231481 </v>
    <v>       0.00925926 </v>
    <v>       0.00925926 </v>
    <v>       0.00925926 </v>
    <v>       0.00462963 </v>
    <v>       0.00231481 </v>
    <v>       0.00925926 </v>
    <v>       0.00462963 </v>
    <v>       0.00115741 </v>
    <v>       0.00115741 </v>
    <v>       0.00462963 </v>
    <v>       0.00462963 </v>
    <v>       0.00462963 </v>
    <v>       0.00462963 </v>
    <v>       0.00462963 </v>
    <v>       0.00462963 </v>
    <v>       0.00462963 </v>
    <v>       0.00462963 </v>
    <v>       0.00462963 </v>
    <v>       0.00231481 </v>
    <v>       0.00462963 </v>
    <v>       0.00925926 </v>
    <v>       0.00925926 </v>
    <v>       0.00925926 </v>
    <v>       0.00462963 </v>
    <v>       0.00462963 </v>
    <v>       0.00462963 </v>
    <v>       0.00925926 </v>
    <v>       0.00925926 </v>
    <v>       0.00925926 </v>
    <v>       0.00925926 </v>
    <v>       0.00925926 </v>
    <v>       0.00462963 </v>
    <v>       0.00925926 </v>
    <v>       0.00462963 </v>
    <v>       0.00462963 </v>
    <v>       0.00925926 </v>
    <v>       0.00925926 </v>
    <v>       0.00925926 </v>
    <v>       0.00462963 </v>
    <v>       0.00925926 </v>
    <v>       0.00925926 </v>
    <v>       0.00462963 </v>
    <v>       0.00462963 </v>
    <v>       0.00925926 </v>
    <v>       0.00462963 </v>
    <v>       0.00925926 </v>
    <v>       0.00925926 </v>
    <v>       0.00925926 </v>
    <v>       0.00462963 </v>
    <v>       0.00231481 </v>
    <v>       0.00925926 </v>
    <v>       0.00925926 </v>
    <v>       0.00925926 </v>
    <v>       0.00925926 </v>
    <v>       0.00231481 </v>
    <v>       0.00925926 </v>
    <v>       0.00925926 </v>
    <v>       0.00925926 </v>
    <v>       0.00462963 </v>
    <v>       0.00925926 </v>
    <v>       0.00925926 </v>
    <v>       0.00462963 </v>
    <v>       0.00925926 </v>
    <v>       0.00462963 </v>
    <v>       0.00462963 </v>
    <v>       0.00115741 </v>
    <v>       0.00462963 </v>
    <v>       0.00462963 </v>
    <v>       0.00462963 </v>
    <v>       0.00462963 </v>
    <v>       0.00462963 </v>
    <v>       0.00462963 </v>
    <v>       0.00462963 </v>
    <v>       0.00231481 </v>
    <v>       0.00462963 </v>
    <v>       0.00925926 </v>
    <v>       0.00462963 </v>
    <v>       0.00462963 </v>
    <v>       0.00462963 </v>
    <v>       0.00925926 </v>
    <v>       0.00462963 </v>
    <v>       0.00925926 </v>
    <v>       0.00462963 </v>
    <v>       0.00231481 </v>
    <v>       0.00925926 </v>
    <v>       0.00925926 </v>
    <v>       0.00462963 </v>
    <v>       0.00925926 </v>
    <v>       0.00925926 </v>
    <v>       0.00925926 </v>
    <v>       0.00231481 </v>
    <v>       0.00925926 </v>
    <v>       0.00925926 </v>
    <v>       0.00462963 </v>
    <v>       0.00925926 </v>
    <v>       0.00462963 </v>
    <v>       0.00462963 </v>
    <v>       0.00115741 </v>
    <v>       0.00462963 </v>
    <v>       0.00462963 </v>
    <v>       0.00462963 </v>
    <v>       0.00462963 </v>
    <v>       0.00462963 </v>
    <v>       0.00231481 </v>
    <v>       0.00115741 </v>
    <v>       0.00462963 </v>
    <v>       0.00925926 </v>
    <v>       0.00462963 </v>
    <v>       0.00925926 </v>
    <v>       0.00925926 </v>
    <v>       0.00231481 </v>
    <v>       0.00925926 </v>
    <v>       0.00462963 </v>
    <v>       0.00462963 </v>
    <v>       0.00115741 </v>
    <v>       0.00462963 </v>
    <v>       0.00462963 </v>
    <v>       0.00462963 </v>
    <v>       0.00231481 </v>
    <v>       0.00462963 </v>
    <v>       0.00925926 </v>
    <v>       0.00231481 </v>
    <v>       0.00462963 </v>
    <v>       0.00115741 </v>
    <v>       0.00462963 </v>
    <v>       0.00231481 </v>
    <v>       0.00231481 </v>
    <v>       0.00057870 </v>
   </varray>
  </kpoints>
  <scstep>
   <time name="total">    0.56    0.56</time>
   <energy>
    <i name="e_fr_energy">     -0.04755223 </i>
    <i name="e_wo_entrp">     -0.04755223 </i>
    <i name="e_0_energy">     -0.04755223 </i>
   </energy>
  </scstep>
  <scstep>
   <time name="total">    0.61    0.61</time>
   <energy>
    <i name="e_fr_energy">     -0.04950709 </i>
    <i name="e_wo_entrp">     -0.04950709 </i>
    <i name="e_0_energy">     -0.04950709 </i>
   </energy>
  </scstep>
  <scstep>
   <time name="total">    0.81    0.81</time>
   <energy>
    <i name="e_fr_energy">     -0.04985116 </i>
    <i name="e_wo_entrp">     -0.04985116 </i>
    <i name="e_0_energy">     -0.04985116 </i>
   </energy>
  </scstep>
  <scstep>
   <time name="total">    0.96    0.97</time>
   <energy>
    <i name="e_fr_energy">     -0.05358613 </i>
    <i name="e_wo_entrp">     -0.05358613 </i>
    <i name="e_0_energy">     -0.05358613 </i>
   </energy>
  </scstep>
  <scstep>
   <time name="total">    0.85    0.86</time>
   <energy>
    <i name="e_fr_energy">     -0.05412181 </i>
    <i name="e_wo_entrp">     -0.05412181 </i>
    <i name="e_0_energy">     -0.05412181 </i>
   </energy>
  </scstep>
  <scstep>
   <time name="total">    0.88    0.89</time>
   <energy>
    <i name="e_fr_energy">     -0.05414264 </i>
    <i name="e_wo_entrp">     -0.05414264 </i>
    <i name="e_0_energy">     -0.05414264 </i>
   </energy>
  </scstep>
  <scstep>
   <time name="total">    0.94    0.94</time>
   <energy>
    <i name="e_fr_energy">     -0.05415840 </i>
    <i name="e_wo_entrp">     -0.05415840 </i>
    <i name="e_0_energy">     -0.05415840 </i>
   </energy>
  </scstep>
  <scstep>
   <time name="total">    0.97    0.98</time>
   <energy>
    <i name="e_fr_energy">     -0.05415985 </i>
    <i name="e_wo_entrp">     -0.05415985 </i>
    <i name="e_0_energy">     -0.05415985 </i>
   </energy>
  </scstep>
  <scstep>
   <time name="total">    0.95    0.95</time>
   <energy>
    <i name="e_fr_energy">     -0.05415778 </i>
    <i name="e_wo_entrp">     -0.05415778 </i>
    <i name="e_0_energy">     -0.05415778 </i>
   </energy>
  </scstep>
  <scstep>
   <time name="total">    0.93    0.93</time>
   <energy>
    <i name="e_fr_energy">     -0.05415817 </i>
    <i name="e_wo_entrp">     -0.05415817 </i>
    <i name="e_0_energy">     -0.05415817 </i>
   </energy>
  </scstep>
  <scstep>
   <time name="total">    0.91    0.91</time>
   <energy>
    <i name="e_fr_energy">     -0.05415790 </i>
    <i name="e_wo_entrp">     -0.05415790 </i>
    <i name="e_0_energy">     -0.05415790 </i>
   </energy>
  </scstep>
  <kpoints>
   <generation param="Gamma">
    <v type="int" name="divisions">      12       12       12 </v>
    <v name="usershift">      0.00000000       0.00000000       0.00000000 </v>
    <v name="genvec1">      0.08333333      -0.00000000      -0.00000000 </v>
    <v name="genvec2">     -0.00000000       0.08333333       0.00000000 </v>
    <v name="genvec3">      0.00000000       0.00000000       0.08333333 </v>
    <v name="shift">      0.00000000       0.00000000       0.00000000 </v>
   </generation>
   <varray name="kpointlist" >
    <v>       0.00000000       0.00000000       0.00000000 </v>
    <v>       0.08333333       0.00000000       0.00000000 </v>
    <v>       0.16666667      -0.00000000      -0.00000000 </v>
    <v>       0.25000000       0.00000000       0.00000000 </v>
    <v>       0.33333333       0.00000000      -0.00000000 </v>
    <v>       0.41666667       0.00000000       0.00000000 </v>
    <v>       0.50000000       0.00000000       0.00000000 </v>
    <v>       0.08333333       0.08333333      -0.00000000 </v>
    <v>       0.16666667       0.08333333      -0.00000000 </v>
    <v>       0.25000000       0.08333333      -0.00000000 </v>
    <v>       0.33333333       0.08333333       0.00000000 </v>
    <v>       0.41666667       0.08333333      -0.00000000 </v>
    <v>       0.50000000       0.08333333       0.00000000 </v>
    <v>      -0.41666667       0.08333333      -0.00000000 </v>
    <v>      -0.33333333       0.08333333       0.00000000 </v>
    <v>      -0.25000000       0.08333333       0.00000000 </v>
    <v>      -0.16666667       0.08333333      -0.00000000 </v>
    <v>      -0.08333333       0.08333333      -0.00000000 </v>
    <v>       0.16666667       0.16666667      -0.00000000 </v>
    <v>       0.25000000       0.16666667      -0.00000000 </v>
    <v>       0.33333333       0.16666667       0.00000000 </v>
    <v>       0.41666667       0.16666667       0.00000000 </v>
    <v>       0.50000000       0.16666667      -0.00000000 </v>
    <v>      -0.41666667       0.16666667      -0.00000000 </v>
    <v>      -0.33333333       0.16666667      -0.00000000 </v>
    <v>      -0.25000000       0.16666667      -0.00000000 </v>
    <v>      -0.16666667       0.16666667       0.00000000 </v>
    <v>       0.25000000       0.25000000      -0.00000000 </v>
    <v>       0.33333333       0.25000000      -0.00000000 </v>
    <v>       0.41666667       0.25000000      -0.00000000 </v>
    <v>       0.50000000       0.25000000       0.00000000 </v>
    <v>      -0.41666667       0.25000000       0.00000000 </v>
    <v>      -0.33333333       0.25000000       0.00000000 </v>
    <v>      -0.25000000       0.25000000      -0.00000000 </v>
    <v>       0.33333333       0.33333333      -0.00000000 </v>
    <v>       0.41666667       0.33333333      -0.00000000 </v>
    <v>       0.50000000       0.33333333      -0.00000000 </v>
    <v>      -0.41666667       0.33333333      -0.00000000 </v>
    <v>      -0.33333333       0.33333333       0.00000000 </v>
    <v>       0.41666667       0.41666667      -0.00000000 </v>
    <v>       0.50000000       0.41666667      -0.00000000 </v>
    <v>      -0.41666667       0.41666667      -0.00000000 </v>
    <v>       0.50000000       0.50000000      -0.00000000 </v>
    <v>      -0.00000000      -0.00000000       0.08333333 </v>
    <v>       0.08333333      -0.00000000       0.08333333 </v>
    <v>       0.16666667       0.00000000       0.08333333 </v>
    <v>       0.25000000      -0.00000000       0.08333333 </v>
    <v>       0.33333333       0.00000000       0.08333333 </v>
    <v>       0.41666667      -0.00000000       0.08333333 </v>
    <v>       0.50000000       0.00000000       0.08333333 </v>
    <v>      -0.41666667      -0.00000000       0.08333333 </v>
    <v>      -0.33333333       0.00000000       0.08333333 </v>
    <v>      -0.25000000       0.00000000       0.08333333 </v>
    <v>      -0.16666667      -0.00000000       0.08333333 </v>
    <v>      -0.08333333      -0.00000000       0.08333333 </v>
    <v>      -0.00000000       0.08333333       0.08333333 </v>
    <v>       0.16666667       0.08333333       0.08333333 </v>
    <v>       0.25000000       0.08333333       0.08333333 </v>
    <v>       0.33333333       0.08333333       0.08333333 </v>
    <v>       0.41666667       0.08333333       0.08333333 </v>
    <v>       0.50000000       0.08333333       0.08333333 </v>
    <v>      -0.41666667       0.08333333       0.08333333 </v>
    <v>      -0.33333333       0.08333333       0.08333333 </v>
    <v>      -0.25000000       0.08333333       0.08333333 </v>
    <v>      -0.16666667       0.08333333       0.08333333 </v>
    <v>      -0.08333333       0.08333333       0.08333333 </v>
    <v>       0.16666667       0.16666667       0.08333333 </v>
    <v>       0.25000000       0.16666667       0.08333333 </v>
    <v>       0.33333333       0.16666667       0.08333333 </v>
    <v>       0.41666667       0.16666667       0.08333333 </v>
    <v>       0.50000000       0.16666667       0.08333333 </v>
    <v>      -0.41666667       0.16666667       0.08333333 </v>
    <v>      -0.33333333       0.16666667       0.08333333 </v>
    <v>      -0.25000000       0.16666667       0.08333333 </v>
    <v>      -0.16666667       0.16666667       0.08333333 </v>
    <v>      -0.08333333       0.16666667       0.08333333 </v>
    <v>       0.16666667       0.25000000       0.08333333 </v>
    <v>       0.25000000       0.25000000       0.08333333 </v>
    <v>       0.33333333       0.25000000       0.08333333 </v>
    <v>       0.41666667       0.25000000       0.08333333 </v>
    <v>       0.50000000       0.25000000       0.08333333 </v>
    <v>      -0.41666667       0.25000000       0.08333333 </v>
    <v>      -0.33333333       0.25000000       0.08333333 </v>
    <v>      -0.25000000       0.25000000       0.08333333 </v>
    <v>      -0.16666667       0.25000000       0.08333333 </v>
    <v>       0.16666667       0.33333333       0.08333333 </v>
    <v>       0.25000000       0.33333333       0.08333333 </v>
    <v>       0.33333333       0.33333333       0.08333333 </v>
    <v>       0.41666667       0.33333333       0.08333333 </v>
    <v>       0.50000000       0.33333333       0.08333333 </v>
    <v>      -0.41666667       0.33333333       0.08333333 </v>
    <v>      -0.33333333       0.33333333       0.08333333 </v>
    <v>      -0.25000000       0.33333333       0.08333333 </v>
    <v>       0.16666667       0.41666667       0.08333333 </v>
    <v>       0.25000000       0.41666667       0.08333333 </v>
    <v>       0.33333333       0.41666667       0.08333333 </v>
    <v>       0.41666667       0.41666667       0.08333333 </v>
    <v>       0.50000000       0.41666667       0.08333333 </v>
    <v>      -0.41666667       0.41666667       0.08333333 </v>
    <v>      -0.33333333       0.41666667       0.08333333 </v>
    <v>       0.16666667       0.50000000       0.08333333 </v>
    <v>       0.25000000       0.50000000       0.08333333 </v>
    <v>       0.33333333       0.50000000       0.08333333 </v>
    <v>       0.41666667       0.50000000       0.08333333 </v>
    <v>       0.50000000       0.50000000       0.08333333 </v>
    <v>      -0.41666667       0.50000000       0.08333333 </v>
    <v>       0.16666667      -0.41666667       0.08333333 </v>
    <v>       0.25000000      -0.41666667       0.08333333 </v>
    <v>       0.33333333      -0.41666667       0.08333333 </v>
    <v>       0.41666667      -0.41666667       0.08333333 </v>
    <v>       0.50000000      -0.41666667       0.08333333 </v>
    <v>       0.16666667      -0.33333333       0.08333333 </v>
    <v>       0.25000000      -0.33333333       0.08333333 </v>
    <v>       0.33333333      -0.33333333       0.08333333 </v>
    <v>       0.41666667      -0.33333333       0.08333333 </v>
    <v>       0.16666667      -0.25000000       0.08333333 </v>
    <v>       0.25000000      -0.25000000       0.08333333 </v>
    <v>       0.33333333      -0.25000000       0.08333333 </v>
    <v>       0.16666667      -0.16666667       0.08333333 </v>
    <v>       0.25000000      -0.16666667       0.08333333 </v>
    <v>       0.16666667      -0.08333333       0.08333333 </v>
    <v>      -0.00000000       0.00000000       0.16666667 </v>
    <v>       0.08333333       0.00000000       0.16666667 </v>
    <v>       0.16666667      -0.00000000       0.16666667 </v>
    <v>       0.25000000       0.00000000       0.16666667 </v>
    <v>       0.33333333       0.00000000       0.16666667 </v>
    <v>       0.41666667       0.00000000       0.16666667 </v>
    <v>       0.50000000      -0.00000000       0.16666667 </v>
    <v>      -0.41666667      -0.00000000       0.16666667 </v>
    <v>      -0.33333333      -0.00000000       0.16666667 </v>
    <v>      -0.25000000      -0.00000000       0.16666667 </v>
    <v>      -0.16666667       0.00000000       0.16666667 </v>
    <v>      -0.08333333      -0.00000000       0.16666667 </v>
    <v>      -0.00000000       0.08333333       0.16666667 </v>
    <v>       0.08333333       0.08333333       0.16666667 </v>
    <v>       0.25000000       0.08333333       0.16666667 </v>
    <v>       0.33333333       0.08333333       0.16666667 </v>
    <v>       0.41666667       0.08333333       0.16666667 </v>
    <v>       0.50000000       0.08333333       0.16666667 </v>
    <v>      -0.41666667       0.08333333       0.16666667 </v>
    <v>      -0.33333333       0.08333333       0.16666667 </v>
    <v>      -0.25000000       0.08333333       0.16666667 </v>
    <v>      -0.16666667       0.08333333       0.16666667 </v>
    <v>      -0.08333333       0.08333333       0.16666667 </v>
    <v>      -0.00000000       0.16666667       0.16666667 </v>
    <v>       0.25000000       0.16666667       0.16666667 </v>
    <v>       0.33333333       0.16666667       0.16666667 </v>
    <v>       0.41666667       0.16666667       0.16666667 </v>
    <v>       0.50000000       0.16666667       0.16666667 </v>
    <v>      -0.41666667       0.16666667       0.16666667 </v>
    <v>      -0.33333333       0.16666667       0.16666667 </v>
    <v>      -0.25000000       0.16666667       0.16666667 </v>
    <v>      -0.16666667       0.16666667       0.16666667 </v>
    <v>      -0.08333333       0.16666667       0.16666667 </v>
    <v>       0.25000000       0.25000000       0.16666667 </v>
    <v>       0.33333333       0.25000000       0.16666667 </v>
    <v>       0.41666667       0.25000000       0.16666667 </v>
    <v>       0.50000000       0.25000000       0.16666667 </v>
    <v>      -0.41666667       0.25000000       0.16666667 </v>
    <v>      -0.33333333       0.25000000       0.16666667 </v>
    <v>      -0.25000000       0.25000000       0.16666667 </v>
    <v>      -0.16666667       0.25000000       0.16666667 </v>
    <v>      -0.08333333       0.25000000       0.16666667 </v>
    <v>       0.25000000       0.33333333       0.16666667 </v>
    <v>       0.33333333       0.33333333       0.16666667 </v>
    <v>       0.41666667       0.33333333       0.16666667 </v>
    <v>       0.50000000       0.33333333       0.16666667 </v>
    <v>      -0.41666667       0.33333333       0.16666667 </v>
    <v>      -0.33333333       0.33333333       0.16666667 </v>
    <v>      -0.25000000       0.33333333       0.16666667 </v>
    <v>      -0.16666667       0.33333333       0.16666667 </v>
    <v>       0.25000000       0.41666667       0.16666667 </v>
    <v>       0.33333333       0.41666667       0.16666667 </v>
    <v>       0.41666667       0.41666667       0.16666667 </v>
    <v>       0.50000000       0.41666667       0.16666667 </v>
    <v>      -0.41666667       0.41666667       0.16666667 </v>
    <v>      -0.33333333       0.41666667       0.16666667 </v>
    <v>      -0.25000000       0.41666667       0.16666667 </v>
    <v>       0.25000000       0.50000000       0.16666667 </v>
    <v>       0.33333333       0.50000000       0.16666667 </v>
    <v>       0.41666667       0.50000000       0.16666667 </v>
    <v>       0.50000000       0.50000000       0.16666667 </v>
    <v>      -0.41666667       0.50000000       0.16666667 </v>
    <v>      -0.33333333       0.50000000       0.16666667 </v>
    <v>       0.25000000      -0.41666667       0.16666667 </v>
    <v>       0.33333333      -0.41666667       0.16666667 </v>
    <v>       0.41666667      -0.41666667       0.16666667 </v>
    <v>       0.50000000      -0.41666667       0.16666667 </v>
    <v>      -0.41666667      -0.41666667       0.16666667 </v>
    <v>       0.25000000      -0.33333333       0.16666667 </v>
    <v>       0.33333333      -0.33333333       0.16666667 </v>
    <v>       0.41666667      -0.33333333       0.16666667 </v>
    <v>       0.50000000      -0.33333333       0.16666667 </v>
    <v>       0.25000000      -0.25000000       0.16666667 </v>
    <v>       0.33333333      -0.25000000       0.16666667 </v>
    <v>       0.41666667      -0.25000000       0.16666667 </v>
    <v>       0.25000000      -0.16666667       0.16666667 </v>
    <v>       0.33333333      -0.16666667       0.16666667 </v>
    <v>       0.25000000      -0.08333333       0.16666667 </v>
    <v>      -0.00000000      -0.00000000       0.25000000 </v>
    <v>       0.08333333       0.00000000       0.25000000 </v>
    <v>       0.16666667      -0.00000000       0.25000000 </v>
    <v>       0.25000000      -0.00000000       0.25000000 </v>
    <v>       0.33333333      -0.00000000       0.25000000 </v>
    <v>       0.41666667      -0.00000000       0.25000000 </v>
    <v>       0.50000000       0.00000000       0.25000000 </v>
    <v>      -0.41666667      -0.00000000       0.25000000 </v>
    <v>      -0.33333333       0.00000000       0.25000000 </v>
    <v>      -0.25000000      -0.00000000       0.25000000 </v>
    <v>      -0.16666667       0.00000000       0.25000000 </v>
    <v>      -0.08333333       0.00000000       0.25000000 </v>
    <v>       0.00000000       0.08333333       0.25000000 </v>
    <v>       0.08333333       0.08333333       0.25000000 </v>
    <v>       0.16666667       0.08333333       0.25000000 </v>
    <v>       0.33333333       0.08333333       0.25000000 </v>
    <v>       0.41666667       0.08333333       0.25000000 </v>
    <v>       0.50000000       0.08333333       0.25000000 </v>
    <v>      -0.41666667       0.08333333       0.25000000 </v>
    <v>      -0.33333333       0.08333333       0.25000000 </v>
    <v>      -0.25000000       0.08333333       0.25000000 </v>
    <v>      -0.16666667       0.08333333       0.25000000 </v>
    <v>      -0.08333333       0.08333333       0.25000000 </v>
    <v>      -0.00000000       0.16666667       0.25000000 </v>
    <v>       0.08333333       0.16666667       0.25000000 </v>
    <v>       0.33333333       0.16666667       0.25000000 </v>
    <v>       0.41666667       0.16666667       0.25000000 </v>
    <v>       0.50000000       0.16666667       0.25000000 </v>
    <v>      -0.41666667       0.16666667       0.25000000 </v>
    <v>      -0.33333333       0.16666667       0.25000000 </v>
    <v>      -0.25000000       0.16666667       0.25000000 </v>
    <v>      -0.16666667       0.16666667       0.25000000 </v>
    <v>      -0.08333333       0.16666667       0.25000000 </v>
    <v>      -0.00000000       0.25000000       0.25000000 </v>
    <v>       0.33333333       0.25000000       0.25000000 </v>
    <v>       0.41666667       0.25000000       0.25000000 </v>
    <v>       0.50000000       0.25000000       0.25000000 </v>
    <v>      -0.41666667       0.25000000       0.25000000 </v>
    <v>      -0.33333333       0.25000000       0.25000000 </v>
    <v>      -0.25000000       0.25000000       0.25000000 </v>
    <v>      -0.16666667       0.25000000       0.25000000 </v>
    <v>      -0.08333333       0.25000000       0.25000000 </v>
    <v>       0.33333333       0.33333333       0.25000000 </v>
    <v>       0.41666667       0.33333333       0.25000000 </v>
    <v>       0.50000000       0.33333333       0.25000000 </v>
    <v>      -0.41666667       0.33333333       0.25000000 </v>
    <v>      -0.33333333       0.33333333       0.25000000 </v>
    <v>      -0.25000000       0.33333333       0.25000000 </v>
[...]
       <r>   31.6863    0.0000 </r>
       <r>   35.8017    0.0000 </r>
       <r>   39.4864    0.0000 </r>
       <r>   40.0185    0.0000 </r>
       <r>   40.7055    0.0000 </r>
      </set>
      <set comment="kpoint 158">
       <r>  -42.2179    1.0000 </r>
       <r>  -20.5391    1.0000 </r>
       <r>   -3.8020    1.0000 </r>
       <r>   -2.2785    1.0000 </r>
       <r>   -2.0856    1.0000 </r>
       <r>   12.5017    0.0000 </r>
       <r>   14.7238    0.0000 </r>
       <r>   16.1826    0.0000 </r>
       <r>   18.2537    0.0000 </r>
       <r>   19.7108    0.0000 </r>
       <r>   31.2801    0.0000 </r>
       <r>   34.0325    0.0000 </r>
       <r>   36.0155    0.0000 </r>
       <r>   38.4310    0.0000 </r>
       <r>   39.4480    0.0000 </r>
       <r>   39.7630    0.0000 </r>
      </set>
      <set comment="kpoint 159">
       <r>  -42.2183    1.0000 </r>
       <r>  -20.5364    1.0000 </r>
       <r>   -3.8903    1.0000 </r>
       <r>   -2.1381    1.0000 </r>
       <r>   -2.1381    1.0000 </r>
       <r>   12.5136    0.0000 </r>
       <r>   15.2644    0.0000 </r>
       <r>   16.1334    0.0000 </r>
       <r>   18.5140    0.0000 </r>
       <r>   18.5140    0.0000 </r>
       <r>   31.2745    0.0000 </r>
       <r>   35.1095    0.0000 </r>
       <r>   38.2571    0.0000 </r>
       <r>   38.9555    0.0000 </r>
       <r>   38.9555    0.0000 </r>
       <r>   39.7888    0.0000 </r>
      </set>
      <set comment="kpoint 160">
       <r>  -42.2153    1.0000 </r>
       <r>  -20.5003    1.0000 </r>
       <r>   -3.9887    1.0000 </r>
       <r>   -2.2598    1.0000 </r>
       <r>   -2.1534    1.0000 </r>
       <r>   12.9840    0.0000 </r>
       <r>   14.7471    0.0000 </r>
       <r>   15.9020    0.0000 </r>
       <r>   18.4251    0.0000 </r>
       <r>   19.0322    0.0000 </r>
       <r>   31.2258    0.0000 </r>
       <r>   35.5610    0.0000 </r>
       <r>   36.2562    0.0000 </r>
       <r>   37.8897    0.0000 </r>
       <r>   40.7034    0.0000 </r>
       <r>   40.9878    0.0000 </r>
      </set>
      <set comment="kpoint 161">
       <r>  -42.2143    1.0000 </r>
       <r>  -20.4984    1.0000 </r>
       <r>   -3.8730    1.0000 </r>
       <r>   -2.4816    1.0000 </r>
       <r>   -2.0814    1.0000 </r>
       <r>   13.2111    0.0000 </r>
       <r>   13.8605    0.0000 </r>
       <r>   16.1613    0.0000 </r>
       <r>   18.2273    0.0000 </r>
       <r>   20.2000    0.0000 </r>
       <r>   31.6343    0.0000 </r>
       <r>   34.0323    0.0000 </r>
       <r>   34.9962    0.0000 </r>
       <r>   35.7629    0.0000 </r>
       <r>   41.3709    0.0000 </r>
       <r>   42.1018    0.0000 </r>
      </set>
      <set comment="kpoint 162">
       <r>  -42.2142    1.0000 </r>
       <r>  -20.4894    1.0000 </r>
       <r>   -3.9823    1.0000 </r>
       <r>   -2.3441    1.0000 </r>
       <r>   -2.1537    1.0000 </r>
       <r>   13.1883    0.0000 </r>
       <r>   14.5409    0.0000 </r>
       <r>   15.7172    0.0000 </r>
       <r>   18.2258    0.0000 </r>
       <r>   19.6358    0.0000 </r>
       <r>   31.2924    0.0000 </r>
       <r>   34.2422    0.0000 </r>
       <r>   35.9661    0.0000 </r>
       <r>   39.2688    0.0000 </r>
       <r>   39.5113    0.0000 </r>
       <r>   41.4615    0.0000 </r>
      </set>
      <set comment="kpoint 163">
       <r>  -42.2144    1.0000 </r>
       <r>  -20.4840    1.0000 </r>
       <r>   -4.0939    1.0000 </r>
       <r>   -2.1988    1.0000 </r>
       <r>   -2.1988    1.0000 </r>
       <r>   13.1703    0.0000 </r>
       <r>   15.0174    0.0000 </r>
       <r>   15.6987    0.0000 </r>
       <r>   18.4973    0.0000 </r>
       <r>   18.4973    0.0000 </r>
       <r>   31.0374    0.0000 </r>
       <r>   36.1850    0.0000 </r>
       <r>   37.7151    0.0000 </r>
       <r>   39.3173    0.0000 </r>
       <r>   39.3173    0.0000 </r>
       <r>   41.6900    0.0000 </r>
      </set>
     </set>
    </set>
   </array>
  </eigenvalues>
  <separator name="orbital magnetization" >
   <v name="MAGDIPOLOUT">      0.00000000      0.00000000      0.00000000</v>
  </separator>
  <dos>
   <i name="efermi">     -1.19732711 </i>
   <total>
    <array>
     <dimension dim="1">gridpoints</dimension>
     <dimension dim="2">spin</dimension>
     <field>energy</field>
     <field>total</field>
     <field>integrated</field>
     <set>
      <set comment="spin 1">
       <r>   -46.5567     0.0000     0.0000 </r>
       <r>   -46.2428     0.0000     0.0000 </r>
       <r>   -45.9289     0.0000     0.0000 </r>
       <r>   -45.6150     0.0000     0.0000 </r>
       <r>   -45.3011     0.0000     0.0000 </r>
       <r>   -44.9872     0.0000     0.0000 </r>
       <r>   -44.6733     0.0000     0.0000 </r>
       <r>   -44.3594     0.0000     0.0000 </r>
       <r>   -44.0455     0.0000     0.0000 </r>
       <r>   -43.7316     0.0000     0.0000 </r>
       <r>   -43.4177     0.0000     0.0000 </r>
       <r>   -43.1037     0.0000     0.0000 </r>
       <r>   -42.7898     0.0000     0.0000 </r>
       <r>   -42.4759     0.0000     0.0000 </r>
       <r>   -42.1620     5.3279     2.0000 </r>
       <r>   -41.8481     0.0000     2.0000 </r>
       <r>   -41.5342     0.0000     2.0000 </r>
       <r>   -41.2203     0.0000     2.0000 </r>
       <r>   -40.9064     0.0000     2.0000 </r>
       <r>   -40.5925     0.0000     2.0000 </r>
       <r>   -40.2786     0.0000     2.0000 </r>
       <r>   -39.9647     0.0000     2.0000 </r>
       <r>   -39.6508     0.0000     2.0000 </r>
       <r>   -39.3369     0.0000     2.0000 </r>
       <r>   -39.0230     0.0000     2.0000 </r>
       <r>   -38.7091     0.0000     2.0000 </r>
       <r>   -38.3952     0.0000     2.0000 </r>
       <r>   -38.0813     0.0000     2.0000 </r>
       <r>   -37.7673     0.0000     2.0000 </r>
       <r>   -37.4534     0.0000     2.0000 </r>
       <r>   -37.1395     0.0000     2.0000 </r>
       <r>   -36.8256     0.0000     2.0000 </r>
       <r>   -36.5117     0.0000     2.0000 </r>
       <r>   -36.1978     0.0000     2.0000 </r>
       <r>   -35.8839     0.0000     2.0000 </r>
       <r>   -35.5700     0.0000     2.0000 </r>
       <r>   -35.2561     0.0000     2.0000 </r>
       <r>   -34.9422     0.0000     2.0000 </r>
       <r>   -34.6283     0.0000     2.0000 </r>
       <r>   -34.3144     0.0000     2.0000 </r>
       <r>   -34.0005     0.0000     2.0000 </r>
       <r>   -33.6866     0.0000     2.0000 </r>
       <r>   -33.3727     0.0000     2.0000 </r>
       <r>   -33.0588     0.0000     2.0000 </r>
       <r>   -32.7449     0.0000     2.0000 </r>
       <r>   -32.4310     0.0000     2.0000 </r>
       <r>   -32.1170     0.0000     2.0000 </r>
       <r>   -31.8031     0.0000     2.0000 </r>
       <r>   -31.4892     0.0000     2.0000 </r>
       <r>   -31.1753     0.0000     2.0000 </r>
       <r>   -30.8614     0.0000     2.0000 </r>
       <r>   -30.5475     0.0000     2.0000 </r>
       <r>   -30.2336     0.0000     2.0000 </r>
       <r>   -29.9197     0.0000     2.0000 </r>
       <r>   -29.6058     0.0000     2.0000 </r>
       <r>   -29.2919     0.0000     2.0000 </r>
       <r>   -28.9780     0.0000     2.0000 </r>
       <r>   -28.6641     0.0000     2.0000 </r>
       <r>   -28.3502     0.0000     2.0000 </r>
       <r>   -28.0363     0.0000     2.0000 </r>
       <r>   -27.7224     0.0000     2.0000 </r>
       <r>   -27.4085     0.0000     2.0000 </r>
       <r>   -27.0946     0.0000     2.0000 </r>
       <r>   -26.7806     0.0000     2.0000 </r>
       <r>   -26.4667     0.0000     2.0000 </r>
       <r>   -26.1528     0.0000     2.0000 </r>
       <r>   -25.8389     0.0000     2.0000 </r>
       <r>   -25.5250     0.0000     2.0000 </r>
       <r>   -25.2111     0.0000     2.0000 </r>
       <r>   -24.8972     0.0000     2.0000 </r>
       <r>   -24.5833     0.0000     2.0000 </r>
       <r>   -24.2694     0.0000     2.0000 </r>
       <r>   -23.9555     0.0000     2.0000 </r>
       <r>   -23.6416     0.0000     2.0000 </r>
       <r>   -23.3277     0.0000     2.0000 </r>
       <r>   -23.0138     0.0000     2.0000 </r>
       <r>   -22.6999     0.0000     2.0000 </r>
       <r>   -22.3860     0.0000     2.0000 </r>
       <r>   -22.0721     0.0000     2.0000 </r>
       <r>   -21.7582     0.0000     2.0000 </r>
       <r>   -21.4442     0.0000     2.0000 </r>
       <r>   -21.1303     0.0007     2.0002 </r>
       <r>   -20.8164     0.5453     2.3668 </r>
       <r>   -20.5025     1.4462     3.9366 </r>
       <r>   -20.1886     0.0000     4.0000 </r>
       <r>   -19.8747     0.0000     4.0000 </r>
       <r>   -19.5608     0.0000     4.0000 </r>
       <r>   -19.2469     0.0000     4.0000 </r>
       <r>   -18.9330     0.0000     4.0000 </r>
       <r>   -18.6191     0.0000     4.0000 </r>
       <r>   -18.3052     0.0000     4.0000 </r>
       <r>   -17.9913     0.0000     4.0000 </r>
       <r>   -17.6774     0.0000     4.0000 </r>
       <r>   -17.3635     0.0000     4.0000 </r>
       <r>   -17.0496     0.0000     4.0000 </r>
       <r>   -16.7357     0.0000     4.0000 </r>
       <r>   -16.4218     0.0000     4.0000 </r>
       <r>   -16.1079     0.0000     4.0000 </r>
       <r>   -15.7939     0.0000     4.0000 </r>
       <r>   -15.4800     0.0000     4.0000 </r>
       <r>   -15.1661     0.0000     4.0000 </r>
       <r>   -14.8522     0.0000     4.0000 </r>
       <r>   -14.5383     0.0000     4.0000 </r>
       <r>   -14.2244     0.0000     4.0000 </r>
       <r>   -13.9105     0.0000     4.0000 </r>
       <r>   -13.5966     0.0000     4.0000 </r>
       <r>   -13.2827     0.0000     4.0000 </r>
       <r>   -12.9688     0.0000     4.0000 </r>
       <r>   -12.6549     0.0000     4.0000 </r>
       <r>   -12.3410     0.0000     4.0000 </r>
       <r>   -12.0271     0.0000     4.0000 </r>
       <r>   -11.7132     0.0000     4.0000 </r>
       <r>   -11.3993     0.0000     4.0000 </r>
       <r>   -11.0854     0.0000     4.0000 </r>
       <r>   -10.7715     0.0000     4.0000 </r>
       <r>   -10.4575     0.0000     4.0000 </r>
       <r>   -10.1436     0.0000     4.0000 </r>
       <r>    -9.8297     0.0000     4.0000 </r>
       <r>    -9.5158     0.0000     4.0000 </r>
       <r>    -9.2019     0.0000     4.0000 </r>
       <r>    -8.8880     0.0000     4.0000 </r>
       <r>    -8.5741     0.0000     4.0000 </r>
       <r>    -8.2602     0.0000     4.0000 </r>
       <r>    -7.9463     0.0000     4.0000 </r>
       <r>    -7.6324     0.0000     4.0000 </r>
       <r>    -7.3185     0.0000     4.0000 </r>
       <r>    -7.0046     0.0000     4.0000 </r>
       <r>    -6.6907     0.0000     4.0000 </r>
       <r>    -6.3768     0.0000     4.0000 </r>
       <r>    -6.0629     0.0000     4.0000 </r>
       <r>    -5.7490     0.0000     4.0000 </r>
       <r>    -5.4351     0.0000     4.0000 </r>
       <r>    -5.1211     0.0000     4.0000 </r>
       <r>    -4.8072     0.0000     4.0000 </r>
       <r>    -4.4933     0.0000     4.0000 </r>
       <r>    -4.1794     0.0000     4.0000 </r>
       <r>    -3.8655     0.0599     4.0640 </r>
       <r>    -3.5516     0.5663     4.3734 </r>
       <r>    -3.2377     0.3989     5.2537 </r>
       <r>    -2.9238     0.3584     5.7086 </r>
       <r>    -2.6099     0.5523     6.2417 </r>
       <r>    -2.2960     0.3988     6.7513 </r>
       <r>    -1.9821     0.5010     7.4709 </r>
       <r>    -1.6682     1.1590     8.7423 </r>
       <r>    -1.3543     0.8022     9.8409 </r>
       <r>    -1.0404     0.0000    10.0000 </r>
       <r>    -0.7265     0.0000    10.0000 </r>
       <r>    -0.4126     0.0000    10.0000 </r>
       <r>    -0.0987     0.0000    10.0000 </r>
       <r>     0.2152     0.0000    10.0000 </r>
       <r>     0.5292     0.0000    10.0000 </r>
       <r>     0.8431     0.0000    10.0000 </r>
       <r>     1.1570     0.0000    10.0000 </r>
       <r>     1.4709     0.0000    10.0000 </r>
       <r>     1.7848     0.0000    10.0000 </r>
       <r>     2.0987     0.0000    10.0000 </r>
       <r>     2.4126     0.0000    10.0000 </r>
       <r>     2.7265     0.0000    10.0000 </r>
       <r>     3.0404     0.0000    10.0000 </r>
       <r>     3.3543     0.0000    10.0000 </r>
       <r>     3.6682     0.0000    10.0000 </r>
       <r>     3.9821     0.0000    10.0000 </r>
       <r>     4.2960     0.0000    10.0000 </r>
       <r>     4.6099     0.0000    10.0000 </r>
       <r>     4.9238     0.0000    10.0000 </r>
       <r>     5.2377     0.0000    10.0000 </r>
       <r>     5.5516     0.0000    10.0000 </r>
       <r>     5.8656     0.0000    10.0000 </r>
       <r>     6.1795     0.0000    10.0000 </r>
       <r>     6.4934     0.0000    10.0000 </r>
       <r>     6.8073     0.0000    10.0000 </r>
       <r>     7.1212     0.0000    10.0000 </r>
       <r>     7.4351     0.0000    10.0000 </r>
       <r>     7.7490     0.0306    10.0108 </r>
       <r>     8.0629     0.0442    10.0313 </r>
       <r>     8.3768     0.0000    10.0683 </r>
       <r>     8.6907     0.0006    10.1032 </r>
       <r>     9.0046     0.0000    10.1678 </r>
       <r>     9.3185     0.1507    10.2938 </r>
       <r>     9.6324     0.1770    10.4549 </r>
       <r>     9.9463     0.0000    10.6007 </r>
       <r>    10.2602     0.0885    10.7674 </r>
       <r>    10.5741     0.0442    10.9201 </r>
       <r>    10.8880     0.0363    10.9871 </r>
       <r>    11.2020     0.1787    11.2540 </r>
       <r>    11.5159     0.0000    11.3438 </r>
       <r>    11.8298     0.3540    11.4549 </r>
       <r>    12.1437     0.1768    11.6354 </r>
       <r>    12.4576     0.0885    11.6632 </r>
       <r>    12.7715     0.0000    11.7813 </r>
       <r>    13.0854     0.0708    11.9424 </r>
       <r>    13.3993     0.0000    12.0208 </r>
       <r>    13.7132     0.0000    12.2153 </r>
       <r>    14.0271     0.0921    12.4942 </r>
       <r>    14.3410     0.2697    12.7860 </r>
       <r>    14.6549     0.1770    13.1042 </r>
       <r>    14.9688     0.1813    13.3000 </r>
       <r>    15.2827     0.1104    13.5728 </r>
       <r>    15.5966     0.0885    13.6100 </r>
       <r>    15.9105     0.0830    13.7298 </r>
       <r>    16.2244     0.3097    14.0231 </r>
       <r>    16.5383     0.2558    14.1405 </r>
       <r>    16.8523     0.0000    14.3380 </r>
       <r>    17.1662     0.3911    14.6621 </r>
       <r>    17.4801     1.2078    15.3652 </r>
       <r>    17.7940     0.7062    16.2888 </r>
       <r>    18.1079     0.4351    16.8796 </r>
       <r>    18.4218     0.3824    17.2774 </r>
       <r>    18.7357     0.3540    17.5949 </r>
       <r>    19.0496     0.2144    17.7293 </r>
       <r>    19.3635     0.0000    17.8565 </r>
       <r>    19.6774     0.1327    17.9745 </r>
       <r>    19.9913     0.1600    18.0525 </r>
       <r>    20.3052     0.0000    18.1412 </r>
       <r>    20.6191     0.0065    18.1988 </r>
       <r>    20.9330     0.1770    18.3356 </r>
       <r>    21.2469     0.0793    18.4231 </r>
       <r>    21.5608     0.0000    18.4236 </r>
       <r>    21.8747     0.0885    18.5903 </r>
       <r>    22.1887     0.0111    18.5938 </r>
       <r>    22.5026     0.0000    18.6910 </r>
       <r>    22.8165     0.2655    18.8333 </r>
       <r>    23.1304     0.0882    18.8888 </r>
       <r>    23.4443     0.0044    18.9597 </r>
       <r>    23.7582     0.0000    19.0417 </r>
       <r>    24.0721     0.0880    19.1526 </r>
       <r>    24.3860     0.0000    19.3843 </r>
       <r>    24.6999     0.3097    19.5000 </r>
       <r>    25.0138     0.0410    19.5823 </r>
       <r>    25.3277     0.0885    19.6204 </r>
       <r>    25.6416     0.2229    19.8153 </r>
       <r>    25.9555     0.4425    20.0567 </r>
       <r>    26.2694     0.0894    20.1403 </r>
       <r>    26.5833     0.0256    20.2407 </r>
       <r>    26.8972     0.1770    20.3715 </r>
       <r>    27.2111     0.2206    20.5241 </r>
       <r>    27.5251     0.0016    20.6544 </r>
       <r>    27.8390     0.2655    20.9988 </r>
       <r>    28.1529     0.0000    21.1516 </r>
       <r>    28.4668     0.2878    21.3022 </r>
       <r>    28.7807     0.0907    21.5921 </r>
       <r>    29.0946     0.1180    21.8229 </r>
       <r>    29.4085     0.0885    21.9618 </r>
       <r>    29.7224     0.1326    22.1030 </r>
       <r>    30.0363     0.0886    22.3878 </r>
       <r>    30.3502     0.0000    22.5313 </r>
       <r>    30.6641     0.1744    22.7041 </r>
       <r>    30.9780     0.0885    22.7674 </r>
       <r>    31.2919     0.3399    23.0581 </r>
       <r>    31.6058     0.3242    23.2754 </r>
       <r>    31.9197     0.1777    23.4563 </r>
       <r>    32.2336     0.2498    23.7081 </r>
       <r>    32.5475     0.1807    23.8137 </r>
       <r>    32.8614     0.1581    24.0358 </r>
       <r>    33.1754     0.2294    24.4470 </r>
       <r>    33.4893     0.1117    24.7689 </r>
       <r>    33.8032     0.2646    25.1085 </r>
       <r>    34.1171     0.2962    25.4935 </r>
       <r>    34.4310     0.0590    25.9977 </r>
       <r>    34.7449     0.0001    26.1922 </r>
       <r>    35.0588     0.8791    26.6996 </r>
       <r>    35.3727     0.2721    27.1132 </r>
       <r>    35.6866     0.2631    27.6173 </r>
       <r>    36.0005     0.1343    27.8616 </r>
       <r>    36.3144     0.1700    28.2096 </r>
       <r>    36.6283     0.1152    28.4702 </r>
       <r>    36.9422     0.1774    28.6564 </r>
       <r>    37.2561     0.0000    28.8229 </r>
       <r>    37.5700     0.2212    28.9757 </r>
       <r>    37.8839     0.1116    29.1947 </r>
       <r>    38.1978     0.0874    29.4464 </r>
       <r>    38.5118     0.0414    29.5778 </r>
       <r>    38.8257     0.0885    29.6759 </r>
       <r>    39.1396     0.0885    29.8287 </r>
       <r>    39.4535     0.1576    30.0101 </r>
       <r>    39.7674     0.1471    30.2452 </r>
       <r>    40.0813     0.2213    30.4283 </r>
       <r>    40.3952     0.1834    30.6316 </r>
       <r>    40.7091     0.1890    30.9251 </r>
       <r>    41.0230     0.2240    31.1027 </r>
       <r>    41.3369     0.2655    31.3542 </r>
       <r>    41.6508     0.1289    31.5428 </r>
       <r>    41.9647     0.0000    31.6377 </r>
       <r>    42.2786     0.0400    31.8309 </r>
       <r>    42.5925     0.0037    31.9583 </r>
       <r>    42.9064     0.0000    31.9861 </r>
       <r>    43.2203     0.0000    31.9907 </r>
       <r>    43.5342     0.0000    32.0000 </r>
       <r>    43.8482     0.0000    32.0000 </r>
       <r>    44.1621     0.0000    32.0000 </r>
       <r>    44.4760     0.0000    32.0000 </r>
       <r>    44.7899     0.0000    32.0000 </r>
       <r>    45.1038     0.0000    32.0000 </r>
       <r>    45.4177     0.0000    32.0000 </r>
       <r>    45.7316     0.0000    32.0000 </r>
       <r>    46.0455     0.0000    32.0000 </r>
       <r>    46.3594     0.0000    32.0000 </r>
       <r>    46.6733     0.0000    32.0000 </r>
       <r>    46.9872     0.0000    32.0000 </r>
       <r>    47.3011     0.0000    32.0000 </r>
       <r>    47.6150     0.0000    32.0000 </r>
      </set>
     </set>
    </array>
   </total>
  </dos>
 </calculation>
 <structure name="finalpos" >
  <crystal>
   <varray name="basis" >
    <v>      -2.04171342       0.00000000       2.04171342 </v>
    <v>       0.00000000       2.04171342       2.04171342 </v>
    <v>      -2.04171342       2.04171342       0.00000000 </v>
   </varray>
   <i name="volume">     17.02214728 </i>
   <varray name="rec_basis" >
    <v>      -0.24489235      -0.24489235       0.24489235 </v>
    <v>       0.24489235       0.24489235       0.24489235 </v>
    <v>      -0.24489235       0.24489235      -0.24489235 </v>
   </varray>
  </crystal>
  <varray name="positions" >
   <v>       0.00000000       0.00000000       0.00000000 </v>
   <v>       0.49999996       0.50000004       0.49999996 </v>
  </varray>
 </structure>
</modeling>
