 vasp.5.4.4.18Apr17-6-g9f103f2a35 (build Aug 24 2017 11:22:49) complex          
  
 executed on             LinuxIFC date 2023.12.25  13:07:34
 running on    8 total cores
 distrk:  each k-point on    8 cores,    1 groups
 distr:  one band on NCORES_PER_BAND=   1 cores,    8 groups


--------------------------------------------------------------------------------------------------------


 INCAR:
 POTCAR:    PAW_PBE Si 05Jan2001                  
 POTCAR:    PAW_PBE C 08Apr2002                   

 ----------------------------------------------------------------------------- 
|                                                                             |
|           W    W    AA    RRRRR   N    N  II  N    N   GGGG   !!!           |
|           W    W   A  A   R    R  NN   N  II  NN   N  G    G  !!!           |
|           W    W  A    A  R    R  N N  N  II  N N  N  G       !!!           |
|           W WW W  AAAAAA  RRRRR   N  N N  II  N  N N  G  GGG   !            |
|           WW  WW  A    A  R   R   N   NN  II  N   NN  G    G                |
|           W    W  A    A  R    R  N    N  II  N    N   GGGG   !!!           |
|                                                                             |
|      For optimal performance we recommend to set                            |
|        NCORE= 4 - approx SQRT( number of cores)                             |
|      NCORE specifies how many cores store one orbital (NPAR=cpu/NCORE).     |
|      This setting can  greatly improve the performance of VASP for DFT.     |
|      The default,   NCORE=1            might be grossly inefficient         |
|      on modern multi-core architectures or massively parallel machines.     |
|      Do your own testing !!!!                                               |
|      Unfortunately you need to use the default for GW and RPA calculations. |
|      (for HF NCORE is supported but not extensively tested yet)             |
|                                                                             |
 ----------------------------------------------------------------------------- 

 POTCAR:    PAW_PBE Si 05Jan2001                  
   VRHFIN =Si: s2p2                                                             
   LEXCH  = PE                                                                  
   EATOM  =   103.0669 eV,    7.5752 Ry                                         
                                                                                
   TITEL  = PAW_PBE Si 05Jan2001                                                
   LULTRA =        F    use ultrasoft PP ?                                      
   IUNSCR =        1    unscreen: 0-lin 1-nonlin 2-no                           
   RPACOR =    1.500    partial core radius                                     
   POMASS =   28.085; ZVAL   =    4.000    mass and valenz                      
   RCORE  =    1.900    outmost cutoff radius                                   
   RWIGS  =    2.480; RWIGS  =    1.312    wigner-seitz radius (au A)           
   ENMAX  =  245.345; ENMIN  =  184.009 eV                                      
   ICORE  =        2    local potential                                         
   LCOR   =        T    correct aug charges                                     
   LPAW   =        T    paw PP                                                  
   EAUG   =  322.069                                                            
   DEXC   =    0.000                                                            
   RMAX   =    1.950    core radius for proj-oper                               
   RAUG   =    1.300    factor for augmentation sphere                          
   RDEP   =    1.993    radius for radial grids                                 
   RDEPT  =    1.837    core radius for aug-charge                              
                                                                                
   Atomic configuration                                                         
    6 entries                                                                   
     n  l   j            E        occ.                                          
     1  0  0.50     -1785.8828   2.0000                                         
     2  0  0.50      -139.4969   2.0000                                         
     2  1  1.50       -95.5546   6.0000                                         
     3  0  0.50       -10.8127   2.0000                                         
     3  1  0.50        -4.0811   2.0000                                         
     3  2  1.50        -4.0817   0.0000                                         
   Description                                                                  
     l       E           TYP  RCUT    TYP  RCUT                                 
     0    -10.8127223     23  1.900                                             
     0     -7.6451159     23  1.900                                             
     1     -4.0811372     23  1.900                                             
     1      2.4879257     23  1.900                                             
     2     -4.0817478      7  1.900                                             
  local pseudopotential read in
  partial core-charges read in
  partial kinetic energy density read in
  atomic valenz-charges read in
  non local Contribution for L=           0  read in
    real space projection operators read in
  non local Contribution for L=           0  read in
    real space projection operators read in
  non local Contribution for L=           1  read in
    real space projection operators read in
  non local Contribution for L=           1  read in
    real space projection operators read in
    PAW grid and wavefunctions read in
 
   number of l-projection  operators is LMAX  =           4
   number of lm-projection operators is LMMAX =           8
 
 POTCAR:    PAW_PBE C 08Apr2002                   
   VRHFIN =C: s2p2                                                              
   LEXCH  = PE                                                                  
   EATOM  =   147.1560 eV,   10.8157 Ry                                         
                                                                                
   TITEL  = PAW_PBE C 08Apr2002                                                 
   LULTRA =        F    use ultrasoft PP ?                                      
   IUNSCR =        1    unscreen: 0-lin 1-nonlin 2-no                           
   RPACOR =    1.200    partial core radius                                     
   POMASS =   12.011; ZVAL   =    4.000    mass and valenz                      
   RCORE  =    1.500    outmost cutoff radius                                   
   RWIGS  =    1.630; RWIGS  =    0.863    wigner-seitz radius (au A)           
   ENMAX  =  400.000; ENMIN  =  300.000 eV                                      
   ICORE  =        2    local potential                                         
   LCOR   =        T    correct aug charges                                     
   LPAW   =        T    paw PP                                                  
   EAUG   =  644.873                                                            
   DEXC   =    0.000                                                            
   RMAX   =    1.529    core radius for proj-oper                               
   RAUG   =    1.300    factor for augmentation sphere                          
   RDEP   =    1.501    radius for radial grids                                 
   RDEPT  =    1.300    core radius for aug-charge                              
                                                                                
   Atomic configuration                                                         
    4 entries                                                                   
     n  l   j            E        occ.                                          
     1  0  0.50      -273.3789   2.0000                                         
     2  0  0.50       -13.7508   2.0000                                         
     2  1  0.50        -5.2854   2.0000                                         
     3  2  1.50        -5.4423   0.0000                                         
   Description                                                                  
     l       E           TYP  RCUT    TYP  RCUT                                 
     0    -13.7508458     23  1.200                                             
     0     -8.2022199     23  1.200                                             
     1     -5.2854383     23  1.500                                             
     1     34.0145650     23  1.500                                             
     2     -5.4423304      7  1.500                                             
  local pseudopotential read in
  partial core-charges read in
  partial kinetic energy density read in
  atomic valenz-charges read in
  non local Contribution for L=           0  read in
    real space projection operators read in
  non local Contribution for L=           0  read in
    real space projection operators read in
  non local Contribution for L=           1  read in
    real space projection operators read in
  non local Contribution for L=           1  read in
    real space projection operators read in
    PAW grid and wavefunctions read in
 
   number of l-projection  operators is LMAX  =           4
   number of lm-projection operators is LMMAX =           8
 
  PAW_PBE Si 05Jan2001                  :
 energy of atom  1       EATOM= -103.0669
 kinetic energy error for atom=    0.0005 (will be added to EATOM!!)
  PAW_PBE C 08Apr2002                   :
 energy of atom  2       EATOM= -147.1560
 kinetic energy error for atom=    0.0071 (will be added to EATOM!!)
 
 
 POSCAR: Si1 C1                                  
  positions in direct lattice
  No initial velocities read in
 exchange correlation table for  LEXCH =        8
   RHO(1)=    0.500       N(1)  =     2000
   RHO(2)=  100.500       N(2)  =     4000
 


--------------------------------------------------------------------------------------------------------


 ion  position               nearest neighbor table
   1  0.250  0.250  0.250-   2 1.89   2 1.89   2 1.89   2 1.89
   2  0.000  0.000  0.000-   1 1.89   1 1.89   1 1.89   1 1.89
 
  LATTYP: Found a face centered cubic cell.
 ALAT       =     4.3539929131
  
  Lattice vectors:
  
 A1 = (  -2.1769964566,   0.0000000000,   2.1769964566)
 A2 = (   0.0000000000,   2.1769964566,   2.1769964566)
 A3 = (  -2.1769964566,   2.1769964566,   0.0000000000)


Analysis of symmetry for initial positions (statically):
=====================================================================
 Subroutine PRICEL returns:
 Original cell was already a primitive cell.
 

 Routine SETGRP: Setting up the symmetry group for a 
 face centered cubic supercell.


 Subroutine GETGRP returns: Found  2 space group operations
 (whereof  2 operations were pure point group operations)
 out of a pool of 48 trial point group operations.


The static configuration has the point symmetry C_1h.


Analysis of symmetry for dynamics (positions and initial velocities):
=====================================================================
 Subroutine PRICEL returns:
 Original cell was already a primitive cell.
 

 Routine SETGRP: Setting up the symmetry group for a 
 face centered cubic supercell.


 Subroutine GETGRP returns: Found  2 space group operations
 (whereof  2 operations were pure point group operations)
 out of a pool of 48 trial point group operations.


The dynamic configuration has the point symmetry C_1h.


 Subroutine INISYM returns: Found  2 space group operations
 (whereof  2 operations are pure point group operations),
 and found     1 'primitive' translations

 
 
 KPOINTS: pymatgen with grid density = 3000 / numb

Automatic generation of k-mesh.
Space group operators:
 irot       det(A)        alpha          n_x          n_y          n_z        tau_x        tau_y        tau_z
    1     1.000000     0.000000     1.000000     0.000000     0.000000     0.000000     0.000000     0.000000
    2    -1.000000   180.000000     0.707107    -0.707107    -0.000000     0.000000     0.000000     0.000000
 
 Subroutine IBZKPT returns following result:
 ===========================================
 
 Found    476 irreducible k-points:
 
 Following reciprocal coordinates:
            Coordinates               Weight
  0.000000  0.000000  0.000000      1.000000
  0.083333 -0.000000 -0.000000      2.000000
  0.166667  0.000000  0.000000      2.000000
  0.250000 -0.000000 -0.000000      2.000000
  0.333333  0.000000  0.000000      2.000000
  0.416667  0.000000 -0.000000      2.000000
  0.500000 -0.000000 -0.000000      1.000000
 -0.000000  0.083333  0.000000      2.000000
  0.083333  0.083333 -0.000000      2.000000
  0.166667  0.083333  0.000000      2.000000
  0.250000  0.083333  0.000000      2.000000
  0.333333  0.083333 -0.000000      2.000000
  0.416667  0.083333  0.000000      2.000000
  0.500000  0.083333 -0.000000      2.000000
 -0.416667  0.083333  0.000000      2.000000
 -0.333333  0.083333 -0.000000      2.000000
 -0.250000  0.083333 -0.000000      2.000000
 -0.166667  0.083333 -0.000000      2.000000
 -0.083333  0.083333  0.000000      2.000000
 -0.000000  0.166667 -0.000000      2.000000
  0.083333  0.166667 -0.000000      2.000000
  0.166667  0.166667 -0.000000      2.000000
  0.250000  0.166667 -0.000000      2.000000
  0.333333  0.166667 -0.000000      2.000000
  0.416667  0.166667 -0.000000      2.000000
  0.500000  0.166667  0.000000      2.000000
 -0.416667  0.166667 -0.000000      2.000000
 -0.333333  0.166667  0.000000      2.000000
 -0.250000  0.166667  0.000000      2.000000
 -0.166667  0.166667 -0.000000      2.000000
 -0.083333  0.166667  0.000000      2.000000
 -0.000000  0.250000 -0.000000      2.000000
  0.083333  0.250000 -0.000000      2.000000
  0.166667  0.250000  0.000000      2.000000
  0.250000  0.250000 -0.000000      2.000000
  0.333333  0.250000 -0.000000      2.000000
  0.416667  0.250000  0.000000      2.000000
  0.500000  0.250000 -0.000000      2.000000
 -0.416667  0.250000  0.000000      2.000000
 -0.333333  0.250000  0.000000      2.000000
 -0.250000  0.250000  0.000000      2.000000
 -0.166667  0.250000  0.000000      2.000000
 -0.083333  0.250000 -0.000000      2.000000
  0.000000  0.333333 -0.000000      2.000000
  0.083333  0.333333 -0.000000      2.000000
  0.166667  0.333333 -0.000000      2.000000
  0.250000  0.333333 -0.000000      2.000000
  0.333333  0.333333 -0.000000      2.000000
  0.416667  0.333333 -0.000000      2.000000
  0.500000  0.333333  0.000000      2.000000
 -0.416667  0.333333  0.000000      2.000000
 -0.333333  0.333333 -0.000000      2.000000
 -0.250000  0.333333  0.000000      2.000000
 -0.166667  0.333333 -0.000000      2.000000
 -0.083333  0.333333 -0.000000      2.000000
 -0.000000  0.416667  0.000000      2.000000
  0.083333  0.416667 -0.000000      2.000000
  0.166667  0.416667  0.000000      2.000000
  0.250000  0.416667 -0.000000      2.000000
  0.333333  0.416667 -0.000000      2.000000
  0.416667  0.416667 -0.000000      2.000000
  0.500000  0.416667 -0.000000      2.000000
 -0.416667  0.416667  0.000000      2.000000
 -0.333333  0.416667 -0.000000      2.000000
 -0.250000  0.416667  0.000000      2.000000
 -0.166667  0.416667 -0.000000      2.000000
 -0.083333  0.416667  0.000000      2.000000
 -0.000000  0.500000 -0.000000      1.000000
  0.083333  0.500000  0.000000      2.000000
  0.166667  0.500000 -0.000000      2.000000
  0.250000  0.500000 -0.000000      2.000000
  0.333333  0.500000 -0.000000      2.000000
  0.416667  0.500000 -0.000000      2.000000
  0.500000  0.500000 -0.000000      1.000000
  0.000000  0.000000  0.083333      4.000000
  0.083333 -0.000000  0.083333      4.000000
  0.166667  0.000000  0.083333      4.000000
  0.250000  0.000000  0.083333      4.000000
  0.333333 -0.000000  0.083333      4.000000
  0.416667  0.000000  0.083333      4.000000
  0.500000  0.000000  0.083333      4.000000
 -0.416667  0.000000  0.083333      4.000000
 -0.333333 -0.000000  0.083333      4.000000
 -0.250000 -0.000000  0.083333      4.000000
 -0.166667  0.000000  0.083333      4.000000
 -0.083333  0.000000  0.083333      4.000000
  0.000000  0.166667  0.083333      4.000000
  0.083333  0.166667  0.083333      4.000000
  0.166667  0.166667  0.083333      4.000000
  0.250000  0.166667  0.083333      4.000000
  0.333333  0.166667  0.083333      4.000000
  0.416667  0.166667  0.083333      4.000000
  0.500000  0.166667  0.083333      4.000000
 -0.416667  0.166667  0.083333      4.000000
 -0.333333  0.166667  0.083333      4.000000
 -0.250000  0.166667  0.083333      4.000000
 -0.166667  0.166667  0.083333      4.000000
 -0.083333  0.166667  0.083333      4.000000
 -0.000000  0.250000  0.083333      4.000000
  0.083333  0.250000  0.083333      4.000000
  0.166667  0.250000  0.083333      4.000000
  0.250000  0.250000  0.083333      4.000000
  0.333333  0.250000  0.083333      4.000000
  0.416667  0.250000  0.083333      4.000000
  0.500000  0.250000  0.083333      4.000000
 -0.416667  0.250000  0.083333      4.000000
 -0.333333  0.250000  0.083333      4.000000
 -0.250000  0.250000  0.083333      4.000000
 -0.166667  0.250000  0.083333      4.000000
 -0.083333  0.250000  0.083333      4.000000
 -0.000000  0.333333  0.083333      4.000000
  0.083333  0.333333  0.083333      4.000000
  0.166667  0.333333  0.083333      4.000000
  0.250000  0.333333  0.083333      4.000000
  0.333333  0.333333  0.083333      4.000000
  0.416667  0.333333  0.083333      4.000000
  0.500000  0.333333  0.083333      4.000000
 -0.416667  0.333333  0.083333      4.000000
 -0.333333  0.333333  0.083333      4.000000
 -0.250000  0.333333  0.083333      4.000000
 -0.166667  0.333333  0.083333      4.000000
 -0.083333  0.333333  0.083333      4.000000
 -0.000000  0.416667  0.083333      4.000000
  0.083333  0.416667  0.083333      4.000000
  0.166667  0.416667  0.083333      4.000000
  0.250000  0.416667  0.083333      4.000000
  0.333333  0.416667  0.083333      4.000000
  0.416667  0.416667  0.083333      4.000000
  0.500000  0.416667  0.083333      4.000000
 -0.416667  0.416667  0.083333      4.000000
 -0.333333  0.416667  0.083333      4.000000
 -0.250000  0.416667  0.083333      4.000000
 -0.166667  0.416667  0.083333      4.000000
 -0.083333  0.416667  0.083333      4.000000
 -0.000000  0.500000  0.083333      4.000000
  0.083333  0.500000  0.083333      4.000000
  0.166667  0.500000  0.083333      4.000000
  0.250000  0.500000  0.083333      4.000000
  0.333333  0.500000  0.083333      4.000000
  0.416667  0.500000  0.083333      4.000000
  0.500000  0.500000  0.083333      4.000000
 -0.416667  0.500000  0.083333      4.000000
 -0.333333  0.500000  0.083333      4.000000
 -0.250000  0.500000  0.083333      4.000000
 -0.166667  0.500000  0.083333      4.000000
 -0.083333  0.500000  0.083333      4.000000
 -0.000000 -0.000000  0.166667      4.000000
  0.083333 -0.000000  0.166667      4.000000
  0.166667 -0.000000  0.166667      4.000000
  0.250000 -0.000000  0.166667      4.000000
  0.333333  0.000000  0.166667      4.000000
  0.416667 -0.000000  0.166667      4.000000
  0.500000 -0.000000  0.166667      4.000000
 -0.416667 -0.000000  0.166667      4.000000
 -0.333333  0.000000  0.166667      4.000000
 -0.250000 -0.000000  0.166667      4.000000
 -0.166667 -0.000000  0.166667      4.000000
 -0.083333  0.000000  0.166667      4.000000
 -0.000000  0.083333  0.166667      4.000000
  0.083333  0.083333  0.166667      2.000000
  0.250000  0.083333  0.166667      4.000000
  0.333333  0.083333  0.166667      4.000000
  0.416667  0.083333  0.166667      4.000000
  0.500000  0.083333  0.166667      4.000000
 -0.416667  0.083333  0.166667      2.000000
 -0.000000  0.250000  0.166667      4.000000
  0.083333  0.250000  0.166667      4.000000
  0.166667  0.250000  0.166667      4.000000
  0.250000  0.250000  0.166667      4.000000
  0.333333  0.250000  0.166667      4.000000
  0.416667  0.250000  0.166667      4.000000
  0.500000  0.250000  0.166667      4.000000
 -0.416667  0.250000  0.166667      4.000000
 -0.333333  0.250000  0.166667      4.000000
 -0.250000  0.250000  0.166667      4.000000
 -0.166667  0.250000  0.166667      4.000000
 -0.083333  0.250000  0.166667      4.000000
 -0.000000  0.333333  0.166667      4.000000
  0.083333  0.333333  0.166667      4.000000
  0.166667  0.333333  0.166667      4.000000
  0.250000  0.333333  0.166667      4.000000
  0.333333  0.333333  0.166667      4.000000
  0.416667  0.333333  0.166667      4.000000
  0.500000  0.333333  0.166667      4.000000
 -0.416667  0.333333  0.166667      4.000000
 -0.333333  0.333333  0.166667      4.000000
 -0.250000  0.333333  0.166667      4.000000
 -0.166667  0.333333  0.166667      4.000000
 -0.083333  0.333333  0.166667      4.000000
 -0.000000  0.416667  0.166667      4.000000
  0.083333  0.416667  0.166667      4.000000
  0.166667  0.416667  0.166667      4.000000
  0.250000  0.416667  0.166667      4.000000
  0.333333  0.416667  0.166667      4.000000
  0.416667  0.416667  0.166667      4.000000
  0.500000  0.416667  0.166667      4.000000
 -0.416667  0.416667  0.166667      4.000000
 -0.333333  0.416667  0.166667      4.000000
 -0.250000  0.416667  0.166667      4.000000
 -0.166667  0.416667  0.166667      4.000000
 -0.083333  0.416667  0.166667      4.000000
  0.000000  0.500000  0.166667      4.000000
  0.083333  0.500000  0.166667      4.000000
  0.166667  0.500000  0.166667      4.000000
  0.250000  0.500000  0.166667      4.000000
  0.333333  0.500000  0.166667      4.000000
  0.416667  0.500000  0.166667      4.000000
  0.500000  0.500000  0.166667      4.000000
 -0.416667  0.500000  0.166667      4.000000
 -0.333333  0.500000  0.166667      4.000000
 -0.250000  0.500000  0.166667      4.000000
 -0.166667  0.500000  0.166667      4.000000
 -0.083333  0.500000  0.166667      4.000000
 -0.000000 -0.416667  0.166667      4.000000
  0.083333 -0.416667  0.166667      2.000000
  0.250000 -0.416667  0.166667      4.000000
  0.333333 -0.416667  0.166667      4.000000
  0.416667 -0.416667  0.166667      4.000000
  0.500000 -0.416667  0.166667      4.000000
 -0.416667 -0.416667  0.166667      2.000000
 -0.000000  0.000000  0.250000      4.000000
  0.083333 -0.000000  0.250000      4.000000
  0.166667 -0.000000  0.250000      4.000000
  0.250000 -0.000000  0.250000      4.000000
  0.333333 -0.000000  0.250000      4.000000
  0.416667 -0.000000  0.250000      4.000000
  0.500000 -0.000000  0.250000      4.000000
 -0.416667  0.000000  0.250000      4.000000
 -0.333333  0.000000  0.250000      4.000000
 -0.250000  0.000000  0.250000      4.000000
 -0.166667 -0.000000  0.250000      4.000000
 -0.083333 -0.000000  0.250000      4.000000
 -0.000000  0.083333  0.250000      4.000000
  0.083333  0.083333  0.250000      4.000000
  0.166667  0.083333  0.250000      4.000000
  0.250000  0.083333  0.250000      4.000000
  0.333333  0.083333  0.250000      4.000000
  0.416667  0.083333  0.250000      4.000000
  0.500000  0.083333  0.250000      4.000000
 -0.416667  0.083333  0.250000      4.000000
 -0.333333  0.083333  0.250000      4.000000
 -0.250000  0.083333  0.250000      4.000000
 -0.166667  0.083333  0.250000      4.000000
 -0.083333  0.083333  0.250000      4.000000
 -0.000000  0.333333  0.250000      4.000000
  0.083333  0.333333  0.250000      4.000000
  0.166667  0.333333  0.250000      4.000000
  0.250000  0.333333  0.250000      4.000000
  0.333333  0.333333  0.250000      4.000000
  0.416667  0.333333  0.250000      4.000000
  0.500000  0.333333  0.250000      4.000000
 -0.416667  0.333333  0.250000      4.000000
 -0.333333  0.333333  0.250000      4.000000
 -0.250000  0.333333  0.250000      4.000000
 -0.166667  0.333333  0.250000      4.000000
 -0.083333  0.333333  0.250000      4.000000
 -0.000000  0.416667  0.250000      4.000000
  0.083333  0.416667  0.250000      4.000000
  0.166667  0.416667  0.250000      4.000000
  0.250000  0.416667  0.250000      4.000000
  0.333333  0.416667  0.250000      4.000000
  0.416667  0.416667  0.250000      4.000000
  0.500000  0.416667  0.250000      4.000000
 -0.416667  0.416667  0.250000      4.000000
 -0.333333  0.416667  0.250000      4.000000
 -0.250000  0.416667  0.250000      4.000000
 -0.166667  0.416667  0.250000      4.000000
 -0.083333  0.416667  0.250000      4.000000
 -0.000000  0.500000  0.250000      4.000000
  0.083333  0.500000  0.250000      4.000000
  0.166667  0.500000  0.250000      4.000000
  0.250000  0.500000  0.250000      4.000000
  0.333333  0.500000  0.250000      4.000000
  0.416667  0.500000  0.250000      4.000000
  0.500000  0.500000  0.250000      4.000000
 -0.416667  0.500000  0.250000      4.000000
 -0.333333  0.500000  0.250000      4.000000
 -0.250000  0.500000  0.250000      4.000000
 -0.166667  0.500000  0.250000      4.000000
 -0.083333  0.500000  0.250000      4.000000
  0.000000 -0.416667  0.250000      4.000000
  0.083333 -0.416667  0.250000      4.000000
  0.166667 -0.416667  0.250000      4.000000
  0.250000 -0.416667  0.250000      4.000000
  0.333333 -0.416667  0.250000      4.000000
  0.416667 -0.416667  0.250000      4.000000
  0.500000 -0.416667  0.250000      4.000000
 -0.416667 -0.416667  0.250000      4.000000
 -0.333333 -0.416667  0.250000      4.000000
 -0.250000 -0.416667  0.250000      4.000000
 -0.166667 -0.416667  0.250000      4.000000
 -0.083333 -0.416667  0.250000      4.000000
 -0.000000 -0.000000  0.333333      4.000000
  0.083333  0.000000  0.333333      4.000000
  0.166667 -0.000000  0.333333      4.000000
  0.250000 -0.000000  0.333333      4.000000
  0.333333 -0.000000  0.333333      4.000000
  0.416667 -0.000000  0.333333      4.000000
  0.500000  0.000000  0.333333      4.000000
 -0.416667 -0.000000  0.333333      4.000000
 -0.333333 -0.000000  0.333333      4.000000
 -0.250000  0.000000  0.333333      4.000000
 -0.166667  0.000000  0.333333      4.000000
 -0.083333 -0.000000  0.333333      4.000000
 -0.000000  0.083333  0.333333      4.000000
  0.083333  0.083333  0.333333      4.000000
  0.166667  0.083333  0.333333      4.000000
  0.250000  0.083333  0.333333      4.000000
  0.333333  0.083333  0.333333      4.000000
  0.416667  0.083333  0.333333      4.000000
  0.500000  0.083333  0.333333      4.000000
 -0.416667  0.083333  0.333333      4.000000
 -0.333333  0.083333  0.333333      4.000000
 -0.250000  0.083333  0.333333      4.000000
 -0.166667  0.083333  0.333333      4.000000
 -0.083333  0.083333  0.333333      4.000000
  0.000000  0.166667  0.333333      4.000000
  0.083333  0.166667  0.333333      4.000000
  0.166667  0.166667  0.333333      2.000000
  0.416667  0.166667  0.333333      4.000000
  0.500000  0.166667  0.333333      4.000000
 -0.416667  0.166667  0.333333      4.000000
 -0.333333  0.166667  0.333333      2.000000
 -0.000000  0.416667  0.333333      4.000000
  0.083333  0.416667  0.333333      4.000000
  0.166667  0.416667  0.333333      4.000000
  0.250000  0.416667  0.333333      4.000000
  0.333333  0.416667  0.333333      4.000000
  0.416667  0.416667  0.333333      4.000000
  0.500000  0.416667  0.333333      4.000000
 -0.416667  0.416667  0.333333      4.000000
 -0.333333  0.416667  0.333333      4.000000
 -0.250000  0.416667  0.333333      4.000000
 -0.166667  0.416667  0.333333      4.000000
 -0.083333  0.416667  0.333333      4.000000
 -0.000000  0.500000  0.333333      4.000000
  0.083333  0.500000  0.333333      4.000000
  0.166667  0.500000  0.333333      4.000000
  0.250000  0.500000  0.333333      4.000000
  0.333333  0.500000  0.333333      4.000000
  0.416667  0.500000  0.333333      4.000000
  0.500000  0.500000  0.333333      4.000000
 -0.416667  0.500000  0.333333      4.000000
 -0.333333  0.500000  0.333333      4.000000
 -0.250000  0.500000  0.333333      4.000000
 -0.166667  0.500000  0.333333      4.000000
 -0.083333  0.500000  0.333333      4.000000
 -0.000000 -0.416667  0.333333      4.000000
  0.083333 -0.416667  0.333333      4.000000
  0.166667 -0.416667  0.333333      4.000000
  0.250000 -0.416667  0.333333      4.000000
  0.333333 -0.416667  0.333333      4.000000
  0.416667 -0.416667  0.333333      4.000000
  0.500000 -0.416667  0.333333      4.000000
 -0.416667 -0.416667  0.333333      4.000000
 -0.333333 -0.416667  0.333333      4.000000
 -0.250000 -0.416667  0.333333      4.000000
 -0.166667 -0.416667  0.333333      4.000000
 -0.083333 -0.416667  0.333333      4.000000
 -0.000000 -0.333333  0.333333      4.000000
  0.083333 -0.333333  0.333333      4.000000
  0.166667 -0.333333  0.333333      2.000000
  0.416667 -0.333333  0.333333      4.000000
  0.500000 -0.333333  0.333333      4.000000
 -0.416667 -0.333333  0.333333      4.000000
 -0.333333 -0.333333  0.333333      2.000000
 -0.000000 -0.000000  0.416667      4.000000
  0.083333 -0.000000  0.416667      4.000000
  0.166667  0.000000  0.416667      4.000000
  0.250000 -0.000000  0.416667      4.000000
  0.333333 -0.000000  0.416667      4.000000
  0.416667 -0.000000  0.416667      4.000000
  0.500000 -0.000000  0.416667      4.000000
 -0.416667 -0.000000  0.416667      4.000000
 -0.333333  0.000000  0.416667      4.000000
 -0.250000  0.000000  0.416667      4.000000
 -0.166667 -0.000000  0.416667      4.000000
 -0.083333  0.000000  0.416667      4.000000
 -0.000000  0.083333  0.416667      4.000000
  0.083333  0.083333  0.416667      4.000000
  0.166667  0.083333  0.416667      4.000000
  0.250000  0.083333  0.416667      4.000000
  0.333333  0.083333  0.416667      4.000000
  0.416667  0.083333  0.416667      4.000000
  0.500000  0.083333  0.416667      4.000000
 -0.416667  0.083333  0.416667      4.000000
 -0.333333  0.083333  0.416667      4.000000
 -0.250000  0.083333  0.416667      4.000000
 -0.166667  0.083333  0.416667      4.000000
 -0.083333  0.083333  0.416667      4.000000
  0.000000  0.166667  0.416667      4.000000
  0.083333  0.166667  0.416667      4.000000
  0.166667  0.166667  0.416667      4.000000
  0.250000  0.166667  0.416667      4.000000
  0.333333  0.166667  0.416667      4.000000
  0.416667  0.166667  0.416667      4.000000
  0.500000  0.166667  0.416667      4.000000
 -0.416667  0.166667  0.416667      4.000000
 -0.333333  0.166667  0.416667      4.000000
 -0.250000  0.166667  0.416667      4.000000
 -0.166667  0.166667  0.416667      4.000000
 -0.083333  0.166667  0.416667      4.000000
 -0.000000  0.500000  0.416667      4.000000
  0.083333  0.500000  0.416667      4.000000
  0.166667  0.500000  0.416667      4.000000
  0.250000  0.500000  0.416667      4.000000
  0.333333  0.500000  0.416667      4.000000
  0.416667  0.500000  0.416667      4.000000
  0.500000  0.500000  0.416667      4.000000
 -0.416667  0.500000  0.416667      4.000000
 -0.333333  0.500000  0.416667      4.000000
 -0.250000  0.500000  0.416667      4.000000
 -0.166667  0.500000  0.416667      4.000000
 -0.083333  0.500000  0.416667      4.000000
 -0.000000 -0.416667  0.416667      4.000000
  0.083333 -0.416667  0.416667      4.000000
  0.166667 -0.416667  0.416667      4.000000
  0.250000 -0.416667  0.416667      4.000000
  0.333333 -0.416667  0.416667      4.000000
  0.416667 -0.416667  0.416667      4.000000
  0.500000 -0.416667  0.416667      4.000000
 -0.416667 -0.416667  0.416667      4.000000
 -0.333333 -0.416667  0.416667      4.000000
 -0.250000 -0.416667  0.416667      4.000000
 -0.166667 -0.416667  0.416667      4.000000
 -0.083333 -0.416667  0.416667      4.000000
  0.000000 -0.333333  0.416667      4.000000
  0.083333 -0.333333  0.416667      4.000000
  0.166667 -0.333333  0.416667      4.000000
  0.250000 -0.333333  0.416667      4.000000
  0.333333 -0.333333  0.416667      4.000000
  0.416667 -0.333333  0.416667      4.000000
  0.500000 -0.333333  0.416667      4.000000
 -0.416667 -0.333333  0.416667      4.000000
 -0.333333 -0.333333  0.416667      4.000000
 -0.250000 -0.333333  0.416667      4.000000
 -0.166667 -0.333333  0.416667      4.000000
 -0.083333 -0.333333  0.416667      4.000000
 -0.000000  0.000000  0.500000      2.000000
  0.083333  0.000000  0.500000      4.000000
  0.166667 -0.000000  0.500000      4.000000
  0.250000  0.000000  0.500000      4.000000
  0.333333 -0.000000  0.500000      4.000000
  0.416667 -0.000000  0.500000      4.000000
  0.500000 -0.000000  0.500000      2.000000
  0.000000  0.083333  0.500000      4.000000
  0.083333  0.083333  0.500000      4.000000
  0.166667  0.083333  0.500000      4.000000
  0.250000  0.083333  0.500000      4.000000
  0.333333  0.083333  0.500000      4.000000
  0.416667  0.083333  0.500000      4.000000
  0.500000  0.083333  0.500000      4.000000
 -0.416667  0.083333  0.500000      4.000000
 -0.333333  0.083333  0.500000      4.000000
 -0.250000  0.083333  0.500000      4.000000
 -0.166667  0.083333  0.500000      4.000000
 -0.083333  0.083333  0.500000      4.000000
 -0.000000  0.166667  0.500000      4.000000
  0.083333  0.166667  0.500000      4.000000
  0.166667  0.166667  0.500000      4.000000
  0.250000  0.166667  0.500000      4.000000
  0.333333  0.166667  0.500000      4.000000
  0.416667  0.166667  0.500000      4.000000
  0.500000  0.166667  0.500000      4.000000
 -0.416667  0.166667  0.500000      4.000000
 -0.333333  0.166667  0.500000      4.000000
 -0.250000  0.166667  0.500000      4.000000
 -0.166667  0.166667  0.500000      4.000000
 -0.083333  0.166667  0.500000      4.000000
 -0.000000  0.250000  0.500000      4.000000
  0.083333  0.250000  0.500000      4.000000
  0.166667  0.250000  0.500000      4.000000
  0.250000  0.250000  0.500000      2.000000
 -0.416667  0.250000  0.500000      4.000000
 -0.333333  0.250000  0.500000      4.000000
 -0.250000  0.250000  0.500000      2.000000
 
 Following cartesian coordinates:
            Coordinates               Weight
  0.000000  0.000000  0.000000      1.000000
 -0.019140 -0.019140  0.019140      2.000000
 -0.038279 -0.038279  0.038279      2.000000
 -0.057419 -0.057419  0.057419      2.000000
 -0.076558 -0.076558  0.076558      2.000000
 -0.095698 -0.095698  0.095698      2.000000
 -0.114837 -0.114837  0.114837      1.000000
  0.019140  0.019140  0.019140      2.000000
  0.000000  0.000000  0.038279      2.000000
 -0.019140 -0.019140  0.057419      2.000000
 -0.038279 -0.038279  0.076558      2.000000
 -0.057419 -0.057419  0.095698      2.000000
 -0.076558 -0.076558  0.114837      2.000000
 -0.095698 -0.095698  0.133977      2.000000
  0.114837  0.114837 -0.076558      2.000000
  0.095698  0.095698 -0.057419      2.000000
  0.076558  0.076558 -0.038279      2.000000
  0.057419  0.057419 -0.019140      2.000000
  0.038279  0.038279  0.000000      2.000000
  0.038279  0.038279  0.038279      2.000000
  0.019140  0.019140  0.057419      2.000000
  0.000000  0.000000  0.076558      2.000000
 -0.019140 -0.019140  0.095698      2.000000
 -0.038279 -0.038279  0.114837      2.000000
 -0.057419 -0.057419  0.133977      2.000000
 -0.076558 -0.076558  0.153116      2.000000
  0.133977  0.133977 -0.057419      2.000000
  0.114837  0.114837 -0.038279      2.000000
  0.095698  0.095698 -0.019140      2.000000
  0.076558  0.076558  0.000000      2.000000
  0.057419  0.057419  0.019140      2.000000
  0.057419  0.057419  0.057419      2.000000
  0.038279  0.038279  0.076558      2.000000
  0.019140  0.019140  0.095698      2.000000
  0.000000  0.000000  0.114837      2.000000
 -0.019140 -0.019140  0.133977      2.000000
 -0.038279 -0.038279  0.153116      2.000000
 -0.057419 -0.057419  0.172256      2.000000
  0.153116  0.153116 -0.038279      2.000000
  0.133977  0.133977 -0.019140      2.000000
  0.114837  0.114837 -0.000000      2.000000
  0.095698  0.095698  0.019140      2.000000
  0.076558  0.076558  0.038279      2.000000
  0.076558  0.076558  0.076558      2.000000
  0.057419  0.057419  0.095698      2.000000
  0.038279  0.038279  0.114837      2.000000
  0.019140  0.019140  0.133977      2.000000
  0.000000  0.000000  0.153116      2.000000
 -0.019140 -0.019140  0.172256      2.000000
 -0.038279 -0.038279  0.191395      2.000000
  0.172256  0.172256 -0.019140      2.000000
  0.153116  0.153116  0.000000      2.000000
  0.133977  0.133977  0.019140      2.000000
  0.114837  0.114837  0.038279      2.000000
  0.095698  0.095698  0.057419      2.000000
  0.095698  0.095698  0.095698      2.000000
  0.076558  0.076558  0.114837      2.000000
  0.057419  0.057419  0.133977      2.000000
  0.038279  0.038279  0.153116      2.000000
  0.019140  0.019140  0.172256      2.000000
 -0.000000 -0.000000  0.191395      2.000000
 -0.019140 -0.019140  0.210535      2.000000
  0.191395  0.191395  0.000000      2.000000
  0.172256  0.172256  0.019140      2.000000
  0.153116  0.153116  0.038279      2.000000
  0.133977  0.133977  0.057419      2.000000
  0.114837  0.114837  0.076558      2.000000
  0.114837  0.114837  0.114837      1.000000
  0.095698  0.095698  0.133977      2.000000
  0.076558  0.076558  0.153116      2.000000
  0.057419  0.057419  0.172256      2.000000
  0.038279  0.038279  0.191395      2.000000
  0.019140  0.019140  0.210535      2.000000
  0.000000  0.000000  0.229674      1.000000
 -0.019140  0.019140 -0.019140      4.000000
 -0.038279  0.000000  0.000000      4.000000
 -0.057419 -0.019140  0.019140      4.000000
 -0.076558 -0.038279  0.038279      4.000000
 -0.095698 -0.057419  0.057419      4.000000
 -0.114837 -0.076558  0.076558      4.000000
 -0.133977 -0.095698  0.095698      4.000000
  0.076558  0.114837 -0.114837      4.000000
  0.057419  0.095698 -0.095698      4.000000
  0.038279  0.076558 -0.076558      4.000000
  0.019140  0.057419 -0.057419      4.000000
  0.000000  0.038279 -0.038279      4.000000
  0.019140  0.057419  0.019140      4.000000
  0.000000  0.038279  0.038279      4.000000
 -0.019140  0.019140  0.057419      4.000000
 -0.038279 -0.000000  0.076558      4.000000
 -0.057419 -0.019140  0.095698      4.000000
 -0.076558 -0.038279  0.114837      4.000000
 -0.095698 -0.057419  0.133977      4.000000
  0.114837  0.153116 -0.076558      4.000000
  0.095698  0.133977 -0.057419      4.000000
  0.076558  0.114837 -0.038279      4.000000
  0.057419  0.095698 -0.019140      4.000000
  0.038279  0.076558  0.000000      4.000000
  0.038279  0.076558  0.038279      4.000000
  0.019140  0.057419  0.057419      4.000000
  0.000000  0.038279  0.076558      4.000000
 -0.019140  0.019140  0.095698      4.000000
 -0.038279  0.000000  0.114837      4.000000
 -0.057419 -0.019140  0.133977      4.000000
 -0.076558 -0.038279  0.153116      4.000000
  0.133977  0.172256 -0.057419      4.000000
  0.114837  0.153116 -0.038279      4.000000
  0.095698  0.133977 -0.019140      4.000000
  0.076558  0.114837  0.000000      4.000000
  0.057419  0.095698  0.019140      4.000000
  0.057419  0.095698  0.057419      4.000000
  0.038279  0.076558  0.076558      4.000000
  0.019140  0.057419  0.095698      4.000000
  0.000000  0.038279  0.114837      4.000000
 -0.019140  0.019140  0.133977      4.000000
 -0.038279 -0.000000  0.153116      4.000000
 -0.057419 -0.019140  0.172256      4.000000
  0.153116  0.191395 -0.038279      4.000000
  0.133977  0.172256 -0.019140      4.000000
  0.114837  0.153116  0.000000      4.000000
  0.095698  0.133977  0.019140      4.000000
  0.076558  0.114837  0.038279      4.000000
  0.076558  0.114837  0.076558      4.000000
  0.057419  0.095698  0.095698      4.000000
  0.038279  0.076558  0.114837      4.000000
  0.019140  0.057419  0.133977      4.000000
  0.000000  0.038279  0.153116      4.000000
 -0.019140  0.019140  0.172256      4.000000
 -0.038279 -0.000000  0.191395      4.000000
  0.172256  0.210535 -0.019140      4.000000
  0.153116  0.191395  0.000000      4.000000
  0.133977  0.172256  0.019140      4.000000
  0.114837  0.153116  0.038279      4.000000
  0.095698  0.133977  0.057419      4.000000
  0.095698  0.133977  0.095698      4.000000
  0.076558  0.114837  0.114837      4.000000
  0.057419  0.095698  0.133977      4.000000
  0.038279  0.076558  0.153116      4.000000
  0.019140  0.057419  0.172256      4.000000
 -0.000000  0.038279  0.191395      4.000000
 -0.019140  0.019140  0.210535      4.000000
  0.191395  0.229674  0.000000      4.000000
  0.172256  0.210535  0.019140      4.000000
  0.153116  0.191395  0.038279      4.000000
  0.133977  0.172256  0.057419      4.000000
  0.114837  0.153116  0.076558      4.000000
 -0.038279  0.038279 -0.038279      4.000000
 -0.057419  0.019140 -0.019140      4.000000
 -0.076558 -0.000000 -0.000000      4.000000
 -0.095698 -0.019140  0.019140      4.000000
 -0.114837 -0.038279  0.038279      4.000000
 -0.133977 -0.057419  0.057419      4.000000
 -0.153116 -0.076558  0.076558      4.000000
  0.057419  0.133977 -0.133977      4.000000
  0.038279  0.114837 -0.114837      4.000000
  0.019140  0.095698 -0.095698      4.000000
  0.000000  0.076558 -0.076558      4.000000
 -0.019140  0.057419 -0.057419      4.000000
 -0.019140  0.057419 -0.019140      4.000000
 -0.038279  0.038279 -0.000000      2.000000
 -0.076558  0.000000  0.038279      4.000000
 -0.095698 -0.019140  0.057419      4.000000
 -0.114837 -0.038279  0.076558      4.000000
 -0.133977 -0.057419  0.095698      4.000000
  0.076558  0.153116 -0.114837      2.000000
  0.019140  0.095698  0.019140      4.000000
  0.000000  0.076558  0.038279      4.000000
 -0.019140  0.057419  0.057419      4.000000
 -0.038279  0.038279  0.076558      4.000000
 -0.057419  0.019140  0.095698      4.000000
 -0.076558  0.000000  0.114837      4.000000
 -0.095698 -0.019140  0.133977      4.000000
  0.114837  0.191395 -0.076558      4.000000
  0.095698  0.172256 -0.057419      4.000000
  0.076558  0.153116 -0.038279      4.000000
  0.057419  0.133977 -0.019140      4.000000
  0.038279  0.114837  0.000000      4.000000
  0.038279  0.114837  0.038279      4.000000
  0.019140  0.095698  0.057419      4.000000
 -0.000000  0.076558  0.076558      4.000000
 -0.019140  0.057419  0.095698      4.000000
 -0.038279  0.038279  0.114837      4.000000
 -0.057419  0.019140  0.133977      4.000000
 -0.076558  0.000000  0.153116      4.000000
  0.133977  0.210535 -0.057419      4.000000
  0.114837  0.191395 -0.038279      4.000000
  0.095698  0.172256 -0.019140      4.000000
  0.076558  0.153116 -0.000000      4.000000
  0.057419  0.133977  0.019140      4.000000
  0.057419  0.133977  0.057419      4.000000
  0.038279  0.114837  0.076558      4.000000
  0.019140  0.095698  0.095698      4.000000
 -0.000000  0.076558  0.114837      4.000000
 -0.019140  0.057419  0.133977      4.000000
 -0.038279  0.038279  0.153116      4.000000
 -0.057419  0.019140  0.172256      4.000000
  0.153116  0.229674 -0.038279      4.000000
  0.133977  0.210535 -0.019140      4.000000
  0.114837  0.191395 -0.000000      4.000000
  0.095698  0.172256  0.019140      4.000000
  0.076558  0.153116  0.038279      4.000000
  0.076558  0.153116  0.076558      4.000000
  0.057419  0.133977  0.095698      4.000000
  0.038279  0.114837  0.114837      4.000000
  0.019140  0.095698  0.133977      4.000000
 -0.000000  0.076558  0.153116      4.000000
 -0.019140  0.057419  0.172256      4.000000
 -0.038279  0.038279  0.191395      4.000000
  0.172256  0.248814 -0.019140      4.000000
  0.153116  0.229674  0.000000      4.000000
  0.133977  0.210535  0.019140      4.000000
  0.114837  0.191395  0.038279      4.000000
  0.095698  0.172256  0.057419      4.000000
 -0.133977 -0.057419 -0.133977      4.000000
 -0.153116 -0.076558 -0.114837      2.000000
 -0.191395 -0.114837 -0.076558      4.000000
 -0.210535 -0.133977 -0.057419      4.000000
 -0.229674 -0.153116 -0.038279      4.000000
 -0.248814 -0.172256 -0.019140      4.000000
 -0.038279  0.038279 -0.229674      2.000000
 -0.057419  0.057419 -0.057419      4.000000
 -0.076558  0.038279 -0.038279      4.000000
 -0.095698  0.019140 -0.019140      4.000000
 -0.114837 -0.000000  0.000000      4.000000
 -0.133977 -0.019140  0.019140      4.000000
 -0.153116 -0.038279  0.038279      4.000000
 -0.172256 -0.057419  0.057419      4.000000
  0.038279  0.153116 -0.153116      4.000000
  0.019140  0.133977 -0.133977      4.000000
  0.000000  0.114837 -0.114837      4.000000
 -0.019140  0.095698 -0.095698      4.000000
 -0.038279  0.076558 -0.076558      4.000000
 -0.038279  0.076558 -0.038279      4.000000
 -0.057419  0.057419 -0.019140      4.000000
 -0.076558  0.038279  0.000000      4.000000
 -0.095698  0.019140  0.019140      4.000000
 -0.114837  0.000000  0.038279      4.000000
 -0.133977 -0.019140  0.057419      4.000000
 -0.153116 -0.038279  0.076558      4.000000
  0.057419  0.172256 -0.133977      4.000000
  0.038279  0.153116 -0.114837      4.000000
  0.019140  0.133977 -0.095698      4.000000
  0.000000  0.114837 -0.076558      4.000000
 -0.019140  0.095698 -0.057419      4.000000
  0.019140  0.133977  0.019140      4.000000
 -0.000000  0.114837  0.038279      4.000000
 -0.019140  0.095698  0.057419      4.000000
 -0.038279  0.076558  0.076558      4.000000
 -0.057419  0.057419  0.095698      4.000000
 -0.076558  0.038279  0.114837      4.000000
 -0.095698  0.019140  0.133977      4.000000
  0.114837  0.229674 -0.076558      4.000000
  0.095698  0.210535 -0.057419      4.000000
  0.076558  0.191395 -0.038279      4.000000
  0.057419  0.172256 -0.019140      4.000000
  0.038279  0.153116  0.000000      4.000000
  0.038279  0.153116  0.038279      4.000000
  0.019140  0.133977  0.057419      4.000000
  0.000000  0.114837  0.076558      4.000000
 -0.019140  0.095698  0.095698      4.000000
 -0.038279  0.076558  0.114837      4.000000
 -0.057419  0.057419  0.133977      4.000000
 -0.076558  0.038279  0.153116      4.000000
  0.133977  0.248814 -0.057419      4.000000
  0.114837  0.229674 -0.038279      4.000000
  0.095698  0.210535 -0.019140      4.000000
  0.076558  0.191395 -0.000000      4.000000
  0.057419  0.172256  0.019140      4.000000
  0.057419  0.172256  0.057419      4.000000
  0.038279  0.153116  0.076558      4.000000
  0.019140  0.133977  0.095698      4.000000
 -0.000000  0.114837  0.114837      4.000000
 -0.019140  0.095698  0.133977      4.000000
 -0.038279  0.076558  0.153116      4.000000
 -0.057419  0.057419  0.172256      4.000000
  0.153116  0.267953 -0.038279      4.000000
  0.133977  0.248814 -0.019140      4.000000
  0.114837  0.229674  0.000000      4.000000
  0.095698  0.210535  0.019140      4.000000
  0.076558  0.191395  0.038279      4.000000
 -0.153116 -0.038279 -0.153116      4.000000
 -0.172256 -0.057419 -0.133977      4.000000
 -0.191395 -0.076558 -0.114837      4.000000
 -0.210535 -0.095698 -0.095698      4.000000
 -0.229674 -0.114837 -0.076558      4.000000
 -0.248814 -0.133977 -0.057419      4.000000
 -0.267953 -0.153116 -0.038279      4.000000
 -0.057419  0.057419 -0.248814      4.000000
 -0.076558  0.038279 -0.229674      4.000000
 -0.095698  0.019140 -0.210535      4.000000
 -0.114837 -0.000000 -0.191395      4.000000
 -0.133977 -0.019140 -0.172256      4.000000
 -0.076558  0.076558 -0.076558      4.000000
 -0.095698  0.057419 -0.057419      4.000000
 -0.114837  0.038279 -0.038279      4.000000
 -0.133977  0.019140 -0.019140      4.000000
 -0.153116  0.000000  0.000000      4.000000
 -0.172256 -0.019140  0.019140      4.000000
 -0.191395 -0.038279  0.038279      4.000000
  0.019140  0.172256 -0.172256      4.000000
  0.000000  0.153116 -0.153116      4.000000
 -0.019140  0.133977 -0.133977      4.000000
 -0.038279  0.114837 -0.114837      4.000000
 -0.057419  0.095698 -0.095698      4.000000
 -0.057419  0.095698 -0.057419      4.000000
 -0.076558  0.076558 -0.038279      4.000000
 -0.095698  0.057419 -0.019140      4.000000
 -0.114837  0.038279  0.000000      4.000000
 -0.133977  0.019140  0.019140      4.000000
 -0.153116 -0.000000  0.038279      4.000000
 -0.172256 -0.019140  0.057419      4.000000
  0.038279  0.191395 -0.153116      4.000000
  0.019140  0.172256 -0.133977      4.000000
  0.000000  0.153116 -0.114837      4.000000
 -0.019140  0.133977 -0.095698      4.000000
 -0.038279  0.114837 -0.076558      4.000000
 -0.038279  0.114837 -0.038279      4.000000
 -0.057419  0.095698 -0.019140      4.000000
 -0.076558  0.076558  0.000000      2.000000
 -0.133977  0.019140  0.057419      4.000000
 -0.153116  0.000000  0.076558      4.000000
  0.057419  0.210535 -0.133977      4.000000
  0.038279  0.191395 -0.114837      2.000000
  0.019140  0.172256  0.019140      4.000000
  0.000000  0.153116  0.038279      4.000000
 -0.019140  0.133977  0.057419      4.000000
 -0.038279  0.114837  0.076558      4.000000
 -0.057419  0.095698  0.095698      4.000000
 -0.076558  0.076558  0.114837      4.000000
 -0.095698  0.057419  0.133977      4.000000
  0.114837  0.267953 -0.076558      4.000000
  0.095698  0.248814 -0.057419      4.000000
  0.076558  0.229674 -0.038279      4.000000
  0.057419  0.210535 -0.019140      4.000000
  0.038279  0.191395  0.000000      4.000000
  0.038279  0.191395  0.038279      4.000000
  0.019140  0.172256  0.057419      4.000000
  0.000000  0.153116  0.076558      4.000000
 -0.019140  0.133977  0.095698      4.000000
 -0.038279  0.114837  0.114837      4.000000
 -0.057419  0.095698  0.133977      4.000000
 -0.076558  0.076558  0.153116      4.000000
  0.133977  0.287093 -0.057419      4.000000
  0.114837  0.267953 -0.038279      4.000000
  0.095698  0.248814 -0.019140      4.000000
  0.076558  0.229674 -0.000000      4.000000
  0.057419  0.210535  0.019140      4.000000
 -0.172256 -0.019140 -0.172256      4.000000
 -0.191395 -0.038279 -0.153116      4.000000
 -0.210535 -0.057419 -0.133977      4.000000
 -0.229674 -0.076558 -0.114837      4.000000
 -0.248814 -0.095698 -0.095698      4.000000
 -0.267953 -0.114837 -0.076558      4.000000
 -0.287093 -0.133977 -0.057419      4.000000
 -0.076558  0.076558 -0.267953      4.000000
 -0.095698  0.057419 -0.248814      4.000000
 -0.114837  0.038279 -0.229674      4.000000
 -0.133977  0.019140 -0.210535      4.000000
 -0.153116 -0.000000 -0.191395      4.000000
 -0.153116  0.000000 -0.153116      4.000000
 -0.172256 -0.019140 -0.133977      4.000000
 -0.191395 -0.038279 -0.114837      2.000000
 -0.248814 -0.095698 -0.057419      4.000000
 -0.267953 -0.114837 -0.038279      4.000000
 -0.057419  0.095698 -0.248814      4.000000
 -0.076558  0.076558 -0.229674      2.000000
 -0.095698  0.095698 -0.095698      4.000000
 -0.114837  0.076558 -0.076558      4.000000
 -0.133977  0.057419 -0.057419      4.000000
 -0.153116  0.038279 -0.038279      4.000000
 -0.172256  0.019140 -0.019140      4.000000
 -0.191395  0.000000 -0.000000      4.000000
 -0.210535 -0.019140  0.019140      4.000000
 -0.000000  0.191395 -0.191395      4.000000
 -0.019140  0.172256 -0.172256      4.000000
 -0.038279  0.153116 -0.153116      4.000000
 -0.057419  0.133977 -0.133977      4.000000
 -0.076558  0.114837 -0.114837      4.000000
 -0.076558  0.114837 -0.076558      4.000000
 -0.095698  0.095698 -0.057419      4.000000
 -0.114837  0.076558 -0.038279      4.000000
 -0.133977  0.057419 -0.019140      4.000000
 -0.153116  0.038279 -0.000000      4.000000
 -0.172256  0.019140  0.019140      4.000000
 -0.191395  0.000000  0.038279      4.000000
  0.019140  0.210535 -0.172256      4.000000
 -0.000000  0.191395 -0.153116      4.000000
 -0.019140  0.172256 -0.133977      4.000000
 -0.038279  0.153116 -0.114837      4.000000
 -0.057419  0.133977 -0.095698      4.000000
 -0.057419  0.133977 -0.057419      4.000000
 -0.076558  0.114837 -0.038279      4.000000
 -0.095698  0.095698 -0.019140      4.000000
 -0.114837  0.076558  0.000000      4.000000
 -0.133977  0.057419  0.019140      4.000000
 -0.153116  0.038279  0.038279      4.000000
 -0.172256  0.019140  0.057419      4.000000
  0.038279  0.229674 -0.153116      4.000000
  0.019140  0.210535 -0.133977      4.000000
  0.000000  0.191395 -0.114837      4.000000
 -0.019140  0.172256 -0.095698      4.000000
 -0.038279  0.153116 -0.076558      4.000000
  0.019140  0.210535  0.019140      4.000000
  0.000000  0.191395  0.038279      4.000000
 -0.019140  0.172256  0.057419      4.000000
 -0.038279  0.153116  0.076558      4.000000
 -0.057419  0.133977  0.095698      4.000000
 -0.076558  0.114837  0.114837      4.000000
 -0.095698  0.095698  0.133977      4.000000
  0.114837  0.306232 -0.076558      4.000000
  0.095698  0.287093 -0.057419      4.000000
  0.076558  0.267953 -0.038279      4.000000
  0.057419  0.248814 -0.019140      4.000000
  0.038279  0.229674 -0.000000      4.000000
 -0.191395  0.000000 -0.191395      4.000000
 -0.210535 -0.019140 -0.172256      4.000000
 -0.229674 -0.038279 -0.153116      4.000000
 -0.248814 -0.057419 -0.133977      4.000000
 -0.267953 -0.076558 -0.114837      4.000000
 -0.287093 -0.095698 -0.095698      4.000000
 -0.306232 -0.114837 -0.076558      4.000000
 -0.095698  0.095698 -0.287093      4.000000
 -0.114837  0.076558 -0.267953      4.000000
 -0.133977  0.057419 -0.248814      4.000000
 -0.153116  0.038279 -0.229674      4.000000
 -0.172256  0.019140 -0.210535      4.000000
 -0.172256  0.019140 -0.172256      4.000000
 -0.191395  0.000000 -0.153116      4.000000
 -0.210535 -0.019140 -0.133977      4.000000
 -0.229674 -0.038279 -0.114837      4.000000
 -0.248814 -0.057419 -0.095698      4.000000
 -0.267953 -0.076558 -0.076558      4.000000
 -0.287093 -0.095698 -0.057419      4.000000
 -0.076558  0.114837 -0.267953      4.000000
 -0.095698  0.095698 -0.248814      4.000000
 -0.114837  0.076558 -0.229674      4.000000
 -0.133977  0.057419 -0.210535      4.000000
 -0.153116  0.038279 -0.191395      4.000000
 -0.114837  0.114837 -0.114837      2.000000
 -0.133977  0.095698 -0.095698      4.000000
 -0.153116  0.076558 -0.076558      4.000000
 -0.172256  0.057419 -0.057419      4.000000
 -0.191395  0.038279 -0.038279      4.000000
 -0.210535  0.019140 -0.019140      4.000000
 -0.229674 -0.000000  0.000000      2.000000
 -0.095698  0.133977 -0.095698      4.000000
 -0.114837  0.114837 -0.076558      4.000000
 -0.133977  0.095698 -0.057419      4.000000
 -0.153116  0.076558 -0.038279      4.000000
 -0.172256  0.057419 -0.019140      4.000000
 -0.191395  0.038279 -0.000000      4.000000
 -0.210535  0.019140  0.019140      4.000000
  0.000000  0.229674 -0.191395      4.000000
 -0.019140  0.210535 -0.172256      4.000000
 -0.038279  0.191395 -0.153116      4.000000
 -0.057419  0.172256 -0.133977      4.000000
 -0.076558  0.153116 -0.114837      4.000000
 -0.076558  0.153116 -0.076558      4.000000
 -0.095698  0.133977 -0.057419      4.000000
 -0.114837  0.114837 -0.038279      4.000000
 -0.133977  0.095698 -0.019140      4.000000
 -0.153116  0.076558  0.000000      4.000000
 -0.172256  0.057419  0.019140      4.000000
 -0.191395  0.038279  0.038279      4.000000
  0.019140  0.248814 -0.172256      4.000000
  0.000000  0.229674 -0.153116      4.000000
 -0.019140  0.210535 -0.133977      4.000000
 -0.038279  0.191395 -0.114837      4.000000
 -0.057419  0.172256 -0.095698      4.000000
 -0.057419  0.172256 -0.057419      4.000000
 -0.076558  0.153116 -0.038279      4.000000
 -0.095698  0.133977 -0.019140      4.000000
 -0.114837  0.114837  0.000000      2.000000
  0.038279  0.267953 -0.153116      4.000000
  0.019140  0.248814 -0.133977      4.000000
 -0.000000  0.229674 -0.114837      2.000000
 
 
 Subroutine IBZKPT_HF returns following result:
 ==============================================
 
 Found   1728 k-points in 1st BZ
 the following   1728 k-points will be used (e.g. in the exchange kernel)
 Following reciprocal coordinates:   # in IRBZ
  0.000000  0.000000  0.000000    0.00057870   1 t-inv F
  0.083333 -0.000000 -0.000000    0.00057870   2 t-inv F
  0.166667  0.000000  0.000000    0.00057870   3 t-inv F
  0.250000 -0.000000 -0.000000    0.00057870   4 t-inv F
  0.333333  0.000000  0.000000    0.00057870   5 t-inv F
  0.416667  0.000000 -0.000000    0.00057870   6 t-inv F
  0.500000 -0.000000 -0.000000    0.00057870   7 t-inv F
 -0.000000  0.083333  0.000000    0.00057870   8 t-inv F
  0.083333  0.083333 -0.000000    0.00057870   9 t-inv F
  0.166667  0.083333  0.000000    0.00057870  10 t-inv F
  0.250000  0.083333  0.000000    0.00057870  11 t-inv F
  0.333333  0.083333 -0.000000    0.00057870  12 t-inv F
  0.416667  0.083333  0.000000    0.00057870  13 t-inv F
  0.500000  0.083333 -0.000000    0.00057870  14 t-inv F
 -0.416667  0.083333  0.000000    0.00057870  15 t-inv F
 -0.333333  0.083333 -0.000000    0.00057870  16 t-inv F
 -0.250000  0.083333 -0.000000    0.00057870  17 t-inv F
 -0.166667  0.083333 -0.000000    0.00057870  18 t-inv F
 -0.083333  0.083333  0.000000    0.00057870  19 t-inv F
 -0.000000  0.166667 -0.000000    0.00057870  20 t-inv F
  0.083333  0.166667 -0.000000    0.00057870  21 t-inv F
  0.166667  0.166667 -0.000000    0.00057870  22 t-inv F
  0.250000  0.166667 -0.000000    0.00057870  23 t-inv F
  0.333333  0.166667 -0.000000    0.00057870  24 t-inv F
  0.416667  0.166667 -0.000000    0.00057870  25 t-inv F
  0.500000  0.166667  0.000000    0.00057870  26 t-inv F
 -0.416667  0.166667 -0.000000    0.00057870  27 t-inv F
 -0.333333  0.166667  0.000000    0.00057870  28 t-inv F
 -0.250000  0.166667  0.000000    0.00057870  29 t-inv F
 -0.166667  0.166667 -0.000000    0.00057870  30 t-inv F
 -0.083333  0.166667  0.000000    0.00057870  31 t-inv F
 -0.000000  0.250000 -0.000000    0.00057870  32 t-inv F
  0.083333  0.250000 -0.000000    0.00057870  33 t-inv F
  0.166667  0.250000  0.000000    0.00057870  34 t-inv F
  0.250000  0.250000 -0.000000    0.00057870  35 t-inv F
  0.333333  0.250000 -0.000000    0.00057870  36 t-inv F
  0.416667  0.250000  0.000000    0.00057870  37 t-inv F
  0.500000  0.250000 -0.000000    0.00057870  38 t-inv F
 -0.416667  0.250000  0.000000    0.00057870  39 t-inv F
 -0.333333  0.250000  0.000000    0.00057870  40 t-inv F
 -0.250000  0.250000  0.000000    0.00057870  41 t-inv F
 -0.166667  0.250000  0.000000    0.00057870  42 t-inv F
 -0.083333  0.250000 -0.000000    0.00057870  43 t-inv F
  0.000000  0.333333 -0.000000    0.00057870  44 t-inv F
  0.083333  0.333333 -0.000000    0.00057870  45 t-inv F
  0.166667  0.333333 -0.000000    0.00057870  46 t-inv F
  0.250000  0.333333 -0.000000    0.00057870  47 t-inv F
  0.333333  0.333333 -0.000000    0.00057870  48 t-inv F
  0.416667  0.333333 -0.000000    0.00057870  49 t-inv F
  0.500000  0.333333  0.000000    0.00057870  50 t-inv F
 -0.416667  0.333333  0.000000    0.00057870  51 t-inv F
 -0.333333  0.333333 -0.000000    0.00057870  52 t-inv F
 -0.250000  0.333333  0.000000    0.00057870  53 t-inv F
 -0.166667  0.333333 -0.000000    0.00057870  54 t-inv F
 -0.083333  0.333333 -0.000000    0.00057870  55 t-inv F
 -0.000000  0.416667  0.000000    0.00057870  56 t-inv F
  0.083333  0.416667 -0.000000    0.00057870  57 t-inv F
  0.166667  0.416667  0.000000    0.00057870  58 t-inv F
  0.250000  0.416667 -0.000000    0.00057870  59 t-inv F
  0.333333  0.416667 -0.000000    0.00057870  60 t-inv F
  0.416667  0.416667 -0.000000    0.00057870  61 t-inv F
  0.500000  0.416667 -0.000000    0.00057870  62 t-inv F
 -0.416667  0.416667  0.000000    0.00057870  63 t-inv F
 -0.333333  0.416667 -0.000000    0.00057870  64 t-inv F
 -0.250000  0.416667  0.000000    0.00057870  65 t-inv F
 -0.166667  0.416667 -0.000000    0.00057870  66 t-inv F
 -0.083333  0.416667  0.000000    0.00057870  67 t-inv F
 -0.000000  0.500000 -0.000000    0.00057870  68 t-inv F
  0.083333  0.500000  0.000000    0.00057870  69 t-inv F
  0.166667  0.500000 -0.000000    0.00057870  70 t-inv F
  0.250000  0.500000 -0.000000    0.00057870  71 t-inv F
  0.333333  0.500000 -0.000000    0.00057870  72 t-inv F
  0.416667  0.500000 -0.000000    0.00057870  73 t-inv F
  0.500000  0.500000 -0.000000    0.00057870  74 t-inv F
  0.000000  0.000000  0.083333    0.00057870  75 t-inv F
  0.083333 -0.000000  0.083333    0.00057870  76 t-inv F
  0.166667  0.000000  0.083333    0.00057870  77 t-inv F
  0.250000  0.000000  0.083333    0.00057870  78 t-inv F
  0.333333 -0.000000  0.083333    0.00057870  79 t-inv F
  0.416667  0.000000  0.083333    0.00057870  80 t-inv F
  0.500000  0.000000  0.083333    0.00057870  81 t-inv F
 -0.416667  0.000000  0.083333    0.00057870  82 t-inv F
 -0.333333 -0.000000  0.083333    0.00057870  83 t-inv F
 -0.250000 -0.000000  0.083333    0.00057870  84 t-inv F
 -0.166667  0.000000  0.083333    0.00057870  85 t-inv F
 -0.083333  0.000000  0.083333    0.00057870  86 t-inv F
  0.000000  0.166667  0.083333    0.00057870  87 t-inv F
  0.083333  0.166667  0.083333    0.00057870  88 t-inv F
  0.166667  0.166667  0.083333    0.00057870  89 t-inv F
  0.250000  0.166667  0.083333    0.00057870  90 t-inv F
  0.333333  0.166667  0.083333    0.00057870  91 t-inv F
  0.416667  0.166667  0.083333    0.00057870  92 t-inv F
  0.500000  0.166667  0.083333    0.00057870  93 t-inv F
 -0.416667  0.166667  0.083333    0.00057870  94 t-inv F
 -0.333333  0.166667  0.083333    0.00057870  95 t-inv F
 -0.250000  0.166667  0.083333    0.00057870  96 t-inv F
 -0.166667  0.166667  0.083333    0.00057870  97 t-inv F
 -0.083333  0.166667  0.083333    0.00057870  98 t-inv F
 -0.000000  0.250000  0.083333    0.00057870  99 t-inv F
  0.083333  0.250000  0.083333    0.00057870 100 t-inv F
  0.166667  0.250000  0.083333    0.00057870 101 t-inv F
  0.250000  0.250000  0.083333    0.00057870 102 t-inv F
  0.333333  0.250000  0.083333    0.00057870 103 t-inv F
  0.416667  0.250000  0.083333    0.00057870 104 t-inv F
  0.500000  0.250000  0.083333    0.00057870 105 t-inv F
 -0.416667  0.250000  0.083333    0.00057870 106 t-inv F
 -0.333333  0.250000  0.083333    0.00057870 107 t-inv F
 -0.250000  0.250000  0.083333    0.00057870 108 t-inv F
 -0.166667  0.250000  0.083333    0.00057870 109 t-inv F
 -0.083333  0.250000  0.083333    0.00057870 110 t-inv F
 -0.000000  0.333333  0.083333    0.00057870 111 t-inv F
  0.083333  0.333333  0.083333    0.00057870 112 t-inv F
  0.166667  0.333333  0.083333    0.00057870 113 t-inv F
  0.250000  0.333333  0.083333    0.00057870 114 t-inv F
  0.333333  0.333333  0.083333    0.00057870 115 t-inv F
  0.416667  0.333333  0.083333    0.00057870 116 t-inv F
  0.500000  0.333333  0.083333    0.00057870 117 t-inv F
 -0.416667  0.333333  0.083333    0.00057870 118 t-inv F
 -0.333333  0.333333  0.083333    0.00057870 119 t-inv F
 -0.250000  0.333333  0.083333    0.00057870 120 t-inv F
 -0.166667  0.333333  0.083333    0.00057870 121 t-inv F
 -0.083333  0.333333  0.083333    0.00057870 122 t-inv F
 -0.000000  0.416667  0.083333    0.00057870 123 t-inv F
  0.083333  0.416667  0.083333    0.00057870 124 t-inv F
  0.166667  0.416667  0.083333    0.00057870 125 t-inv F
  0.250000  0.416667  0.083333    0.00057870 126 t-inv F
  0.333333  0.416667  0.083333    0.00057870 127 t-inv F
  0.416667  0.416667  0.083333    0.00057870 128 t-inv F
  0.500000  0.416667  0.083333    0.00057870 129 t-inv F
 -0.416667  0.416667  0.083333    0.00057870 130 t-inv F
 -0.333333  0.416667  0.083333    0.00057870 131 t-inv F
 -0.250000  0.416667  0.083333    0.00057870 132 t-inv F
 -0.166667  0.416667  0.083333    0.00057870 133 t-inv F
 -0.083333  0.416667  0.083333    0.00057870 134 t-inv F
 -0.000000  0.500000  0.083333    0.00057870 135 t-inv F
  0.083333  0.500000  0.083333    0.00057870 136 t-inv F
  0.166667  0.500000  0.083333    0.00057870 137 t-inv F
  0.250000  0.500000  0.083333    0.00057870 138 t-inv F
  0.333333  0.500000  0.083333    0.00057870 139 t-inv F
  0.416667  0.500000  0.083333    0.00057870 140 t-inv F
  0.500000  0.500000  0.083333    0.00057870 141 t-inv F
 -0.416667  0.500000  0.083333    0.00057870 142 t-inv F
 -0.333333  0.500000  0.083333    0.00057870 143 t-inv F
 -0.250000  0.500000  0.083333    0.00057870 144 t-inv F
 -0.166667  0.500000  0.083333    0.00057870 145 t-inv F
 -0.083333  0.500000  0.083333    0.00057870 146 t-inv F
 -0.000000 -0.000000  0.166667    0.00057870 147 t-inv F
  0.083333 -0.000000  0.166667    0.00057870 148 t-inv F
  0.166667 -0.000000  0.166667    0.00057870 149 t-inv F
  0.250000 -0.000000  0.166667    0.00057870 150 t-inv F
  0.333333  0.000000  0.166667    0.00057870 151 t-inv F
  0.416667 -0.000000  0.166667    0.00057870 152 t-inv F
  0.500000 -0.000000  0.166667    0.00057870 153 t-inv F
 -0.416667 -0.000000  0.166667    0.00057870 154 t-inv F
 -0.333333  0.000000  0.166667    0.00057870 155 t-inv F
 -0.250000 -0.000000  0.166667    0.00057870 156 t-inv F
 -0.166667 -0.000000  0.166667    0.00057870 157 t-inv F
 -0.083333  0.000000  0.166667    0.00057870 158 t-inv F
 -0.000000  0.083333  0.166667    0.00057870 159 t-inv F
  0.083333  0.083333  0.166667    0.00057870 160 t-inv F
  0.250000  0.083333  0.166667    0.00057870 161 t-inv F
  0.333333  0.083333  0.166667    0.00057870 162 t-inv F
  0.416667  0.083333  0.166667    0.00057870 163 t-inv F
  0.500000  0.083333  0.166667    0.00057870 164 t-inv F
 -0.416667  0.083333  0.166667    0.00057870 165 t-inv F
 -0.000000  0.250000  0.166667    0.00057870 166 t-inv F
  0.083333  0.250000  0.166667    0.00057870 167 t-inv F
  0.166667  0.250000  0.166667    0.00057870 168 t-inv F
  0.250000  0.250000  0.166667    0.00057870 169 t-inv F
  0.333333  0.250000  0.166667    0.00057870 170 t-inv F
  0.416667  0.250000  0.166667    0.00057870 171 t-inv F
  0.500000  0.250000  0.166667    0.00057870 172 t-inv F
 -0.416667  0.250000  0.166667    0.00057870 173 t-inv F
 -0.333333  0.250000  0.166667    0.00057870 174 t-inv F
 -0.250000  0.250000  0.166667    0.00057870 175 t-inv F
 -0.166667  0.250000  0.166667    0.00057870 176 t-inv F
 -0.083333  0.250000  0.166667    0.00057870 177 t-inv F
 -0.000000  0.333333  0.166667    0.00057870 178 t-inv F
  0.083333  0.333333  0.166667    0.00057870 179 t-inv F
  0.166667  0.333333  0.166667    0.00057870 180 t-inv F
  0.250000  0.333333  0.166667    0.00057870 181 t-inv F
  0.333333  0.333333  0.166667    0.00057870 182 t-inv F
  0.416667  0.333333  0.166667    0.00057870 183 t-inv F
  0.500000  0.333333  0.166667    0.00057870 184 t-inv F
 -0.416667  0.333333  0.166667    0.00057870 185 t-inv F
 -0.333333  0.333333  0.166667    0.00057870 186 t-inv F
 -0.250000  0.333333  0.166667    0.00057870 187 t-inv F
 -0.166667  0.333333  0.166667    0.00057870 188 t-inv F
 -0.083333  0.333333  0.166667    0.00057870 189 t-inv F
 -0.000000  0.416667  0.166667    0.00057870 190 t-inv F
  0.083333  0.416667  0.166667    0.00057870 191 t-inv F
  0.166667  0.416667  0.166667    0.00057870 192 t-inv F
  0.250000  0.416667  0.166667    0.00057870 193 t-inv F
  0.333333  0.416667  0.166667    0.00057870 194 t-inv F
  0.416667  0.416667  0.166667    0.00057870 195 t-inv F
  0.500000  0.416667  0.166667    0.00057870 196 t-inv F
 -0.416667  0.416667  0.166667    0.00057870 197 t-inv F
 -0.333333  0.416667  0.166667    0.00057870 198 t-inv F
 -0.250000  0.416667  0.166667    0.00057870 199 t-inv F
 -0.166667  0.416667  0.166667    0.00057870 200 t-inv F
 -0.083333  0.416667  0.166667    0.00057870 201 t-inv F
  0.000000  0.500000  0.166667    0.00057870 202 t-inv F
  0.083333  0.500000  0.166667    0.00057870 203 t-inv F
  0.166667  0.500000  0.166667    0.00057870 204 t-inv F
  0.250000  0.500000  0.166667    0.00057870 205 t-inv F
  0.333333  0.500000  0.166667    0.00057870 206 t-inv F
  0.416667  0.500000  0.166667    0.00057870 207 t-inv F
  0.500000  0.500000  0.166667    0.00057870 208 t-inv F
 -0.416667  0.500000  0.166667    0.00057870 209 t-inv F
 -0.333333  0.500000  0.166667    0.00057870 210 t-inv F
 -0.250000  0.500000  0.166667    0.00057870 211 t-inv F
 -0.166667  0.500000  0.166667    0.00057870 212 t-inv F
 -0.083333  0.500000  0.166667    0.00057870 213 t-inv F
 -0.000000 -0.416667  0.166667    0.00057870 214 t-inv F
  0.083333 -0.416667  0.166667    0.00057870 215 t-inv F
  0.250000 -0.416667  0.166667    0.00057870 216 t-inv F
  0.333333 -0.416667  0.166667    0.00057870 217 t-inv F
  0.416667 -0.416667  0.166667    0.00057870 218 t-inv F
  0.500000 -0.416667  0.166667    0.00057870 219 t-inv F
 -0.416667 -0.416667  0.166667    0.00057870 220 t-inv F
 -0.000000  0.000000  0.250000    0.00057870 221 t-inv F
  0.083333 -0.000000  0.250000    0.00057870 222 t-inv F
  0.166667 -0.000000  0.250000    0.00057870 223 t-inv F
  0.250000 -0.000000  0.250000    0.00057870 224 t-inv F
  0.333333 -0.000000  0.250000    0.00057870 225 t-inv F
  0.416667 -0.000000  0.250000    0.00057870 226 t-inv F
  0.500000 -0.000000  0.250000    0.00057870 227 t-inv F
 -0.416667  0.000000  0.250000    0.00057870 228 t-inv F
 -0.333333  0.000000  0.250000    0.00057870 229 t-inv F
 -0.250000  0.000000  0.250000    0.00057870 230 t-inv F
 -0.166667 -0.000000  0.250000    0.00057870 231 t-inv F
 -0.083333 -0.000000  0.250000    0.00057870 232 t-inv F
 -0.000000  0.083333  0.250000    0.00057870 233 t-inv F
  0.083333  0.083333  0.250000    0.00057870 234 t-inv F
  0.166667  0.083333  0.250000    0.00057870 235 t-inv F
  0.250000  0.083333  0.250000    0.00057870 236 t-inv F
  0.333333  0.083333  0.250000    0.00057870 237 t-inv F
  0.416667  0.083333  0.250000    0.00057870 238 t-inv F
  0.500000  0.083333  0.250000    0.00057870 239 t-inv F
 -0.416667  0.083333  0.250000    0.00057870 240 t-inv F
 -0.333333  0.083333  0.250000    0.00057870 241 t-inv F
 -0.250000  0.083333  0.250000    0.00057870 242 t-inv F
 -0.166667  0.083333  0.250000    0.00057870 243 t-inv F
 -0.083333  0.083333  0.250000    0.00057870 244 t-inv F
 -0.000000  0.333333  0.250000    0.00057870 245 t-inv F
  0.083333  0.333333  0.250000    0.00057870 246 t-inv F
  0.166667  0.333333  0.250000    0.00057870 247 t-inv F
  0.250000  0.333333  0.250000    0.00057870 248 t-inv F
  0.333333  0.333333  0.250000    0.00057870 249 t-inv F
  0.416667  0.333333  0.250000    0.00057870 250 t-inv F
  0.500000  0.333333  0.250000    0.00057870 251 t-inv F
 -0.416667  0.333333  0.250000    0.00057870 252 t-inv F
 -0.333333  0.333333  0.250000    0.00057870 253 t-inv F
 -0.250000  0.333333  0.250000    0.00057870 254 t-inv F
 -0.166667  0.333333  0.250000    0.00057870 255 t-inv F
 -0.083333  0.333333  0.250000    0.00057870 256 t-inv F
 -0.000000  0.416667  0.250000    0.00057870 257 t-inv F
  0.083333  0.416667  0.250000    0.00057870 258 t-inv F
  0.166667  0.416667  0.250000    0.00057870 259 t-inv F
  0.250000  0.416667  0.250000    0.00057870 260 t-inv F
  0.333333  0.416667  0.250000    0.00057870 261 t-inv F
  0.416667  0.416667  0.250000    0.00057870 262 t-inv F
  0.500000  0.416667  0.250000    0.00057870 263 t-inv F
 -0.416667  0.416667  0.250000    0.00057870 264 t-inv F
 -0.333333  0.416667  0.250000    0.00057870 265 t-inv F
 -0.250000  0.416667  0.250000    0.00057870 266 t-inv F
 -0.166667  0.416667  0.250000    0.00057870 267 t-inv F
 -0.083333  0.416667  0.250000    0.00057870 268 t-inv F
 -0.000000  0.500000  0.250000    0.00057870 269 t-inv F
  0.083333  0.500000  0.250000    0.00057870 270 t-inv F
  0.166667  0.500000  0.250000    0.00057870 271 t-inv F
  0.250000  0.500000  0.250000    0.00057870 272 t-inv F
  0.333333  0.500000  0.250000    0.00057870 273 t-inv F
  0.416667  0.500000  0.250000    0.00057870 274 t-inv F
  0.500000  0.500000  0.250000    0.00057870 275 t-inv F
 -0.416667  0.500000  0.250000    0.00057870 276 t-inv F
 -0.333333  0.500000  0.250000    0.00057870 277 t-inv F
 -0.250000  0.500000  0.250000    0.00057870 278 t-inv F
 -0.166667  0.500000  0.250000    0.00057870 279 t-inv F
 -0.083333  0.500000  0.250000    0.00057870 280 t-inv F
  0.000000 -0.416667  0.250000    0.00057870 281 t-inv F
  0.083333 -0.416667  0.250000    0.00057870 282 t-inv F
  0.166667 -0.416667  0.250000    0.00057870 283 t-inv F
  0.250000 -0.416667  0.250000    0.00057870 284 t-inv F
  0.333333 -0.416667  0.250000    0.00057870 285 t-inv F
  0.416667 -0.416667  0.250000    0.00057870 286 t-inv F
  0.500000 -0.416667  0.250000    0.00057870 287 t-inv F
 -0.416667 -0.416667  0.250000    0.00057870 288 t-inv F
 -0.333333 -0.416667  0.250000    0.00057870 289 t-inv F
 -0.250000 -0.416667  0.250000    0.00057870 290 t-inv F
 -0.166667 -0.416667  0.250000    0.00057870 291 t-inv F
 -0.083333 -0.416667  0.250000    0.00057870 292 t-inv F
 -0.000000 -0.000000  0.333333    0.00057870 293 t-inv F
  0.083333  0.000000  0.333333    0.00057870 294 t-inv F
  0.166667 -0.000000  0.333333    0.00057870 295 t-inv F
  0.250000 -0.000000  0.333333    0.00057870 296 t-inv F
  0.333333 -0.000000  0.333333    0.00057870 297 t-inv F
  0.416667 -0.000000  0.333333    0.00057870 298 t-inv F
  0.500000  0.000000  0.333333    0.00057870 299 t-inv F
 -0.416667 -0.000000  0.333333    0.00057870 300 t-inv F
 -0.333333 -0.000000  0.333333    0.00057870 301 t-inv F
 -0.250000  0.000000  0.333333    0.00057870 302 t-inv F
 -0.166667  0.000000  0.333333    0.00057870 303 t-inv F
 -0.083333 -0.000000  0.333333    0.00057870 304 t-inv F
 -0.000000  0.083333  0.333333    0.00057870 305 t-inv F
  0.083333  0.083333  0.333333    0.00057870 306 t-inv F
  0.166667  0.083333  0.333333    0.00057870 307 t-inv F
  0.250000  0.083333  0.333333    0.00057870 308 t-inv F
  0.333333  0.083333  0.333333    0.00057870 309 t-inv F
  0.416667  0.083333  0.333333    0.00057870 310 t-inv F
  0.500000  0.083333  0.333333    0.00057870 311 t-inv F
 -0.416667  0.083333  0.333333    0.00057870 312 t-inv F
 -0.333333  0.083333  0.333333    0.00057870 313 t-inv F
 -0.250000  0.083333  0.333333    0.00057870 314 t-inv F
 -0.166667  0.083333  0.333333    0.00057870 315 t-inv F
 -0.083333  0.083333  0.333333    0.00057870 316 t-inv F
  0.000000  0.166667  0.333333    0.00057870 317 t-inv F
  0.083333  0.166667  0.333333    0.00057870 318 t-inv F
  0.166667  0.166667  0.333333    0.00057870 319 t-inv F
  0.416667  0.166667  0.333333    0.00057870 320 t-inv F
  0.500000  0.166667  0.333333    0.00057870 321 t-inv F
 -0.416667  0.166667  0.333333    0.00057870 322 t-inv F
 -0.333333  0.166667  0.333333    0.00057870 323 t-inv F
 -0.000000  0.416667  0.333333    0.00057870 324 t-inv F
  0.083333  0.416667  0.333333    0.00057870 325 t-inv F
  0.166667  0.416667  0.333333    0.00057870 326 t-inv F
  0.250000  0.416667  0.333333    0.00057870 327 t-inv F
  0.333333  0.416667  0.333333    0.00057870 328 t-inv F
  0.416667  0.416667  0.333333    0.00057870 329 t-inv F
  0.500000  0.416667  0.333333    0.00057870 330 t-inv F
 -0.416667  0.416667  0.333333    0.00057870 331 t-inv F
 -0.333333  0.416667  0.333333    0.00057870 332 t-inv F
 -0.250000  0.416667  0.333333    0.00057870 333 t-inv F
 -0.166667  0.416667  0.333333    0.00057870 334 t-inv F
 -0.083333  0.416667  0.333333    0.00057870 335 t-inv F
 -0.000000  0.500000  0.333333    0.00057870 336 t-inv F
  0.083333  0.500000  0.333333    0.00057870 337 t-inv F
  0.166667  0.500000  0.333333    0.00057870 338 t-inv F
  0.250000  0.500000  0.333333    0.00057870 339 t-inv F
  0.333333  0.500000  0.333333    0.00057870 340 t-inv F
  0.416667  0.500000  0.333333    0.00057870 341 t-inv F
  0.500000  0.500000  0.333333    0.00057870 342 t-inv F
 -0.416667  0.500000  0.333333    0.00057870 343 t-inv F
 -0.333333  0.500000  0.333333    0.00057870 344 t-inv F
 -0.250000  0.500000  0.333333    0.00057870 345 t-inv F
 -0.166667  0.500000  0.333333    0.00057870 346 t-inv F
 -0.083333  0.500000  0.333333    0.00057870 347 t-inv F
 -0.000000 -0.416667  0.333333    0.00057870 348 t-inv F
  0.083333 -0.416667  0.333333    0.00057870 349 t-inv F
  0.166667 -0.416667  0.333333    0.00057870 350 t-inv F
  0.250000 -0.416667  0.333333    0.00057870 351 t-inv F
  0.333333 -0.416667  0.333333    0.00057870 352 t-inv F
  0.416667 -0.416667  0.333333    0.00057870 353 t-inv F
  0.500000 -0.416667  0.333333    0.00057870 354 t-inv F
 -0.416667 -0.416667  0.333333    0.00057870 355 t-inv F
 -0.333333 -0.416667  0.333333    0.00057870 356 t-inv F
 -0.250000 -0.416667  0.333333    0.00057870 357 t-inv F
 -0.166667 -0.416667  0.333333    0.00057870 358 t-inv F
 -0.083333 -0.416667  0.333333    0.00057870 359 t-inv F
 -0.000000 -0.333333  0.333333    0.00057870 360 t-inv F
  0.083333 -0.333333  0.333333    0.00057870 361 t-inv F
  0.166667 -0.333333  0.333333    0.00057870 362 t-inv F
  0.416667 -0.333333  0.333333    0.00057870 363 t-inv F
  0.500000 -0.333333  0.333333    0.00057870 364 t-inv F
 -0.416667 -0.333333  0.333333    0.00057870 365 t-inv F
 -0.333333 -0.333333  0.333333    0.00057870 366 t-inv F
 -0.000000 -0.000000  0.416667    0.00057870 367 t-inv F
  0.083333 -0.000000  0.416667    0.00057870 368 t-inv F
  0.166667  0.000000  0.416667    0.00057870 369 t-inv F
  0.250000 -0.000000  0.416667    0.00057870 370 t-inv F
  0.333333 -0.000000  0.416667    0.00057870 371 t-inv F
  0.416667 -0.000000  0.416667    0.00057870 372 t-inv F
  0.500000 -0.000000  0.416667    0.00057870 373 t-inv F
 -0.416667 -0.000000  0.416667    0.00057870 374 t-inv F
 -0.333333  0.000000  0.416667    0.00057870 375 t-inv F
 -0.250000  0.000000  0.416667    0.00057870 376 t-inv F
 -0.166667 -0.000000  0.416667    0.00057870 377 t-inv F
 -0.083333  0.000000  0.416667    0.00057870 378 t-inv F
 -0.000000  0.083333  0.416667    0.00057870 379 t-inv F
  0.083333  0.083333  0.416667    0.00057870 380 t-inv F
  0.166667  0.083333  0.416667    0.00057870 381 t-inv F
  0.250000  0.083333  0.416667    0.00057870 382 t-inv F
  0.333333  0.083333  0.416667    0.00057870 383 t-inv F
  0.416667  0.083333  0.416667    0.00057870 384 t-inv F
  0.500000  0.083333  0.416667    0.00057870 385 t-inv F
 -0.416667  0.083333  0.416667    0.00057870 386 t-inv F
 -0.333333  0.083333  0.416667    0.00057870 387 t-inv F
 -0.250000  0.083333  0.416667    0.00057870 388 t-inv F
 -0.166667  0.083333  0.416667    0.00057870 389 t-inv F
 -0.083333  0.083333  0.416667    0.00057870 390 t-inv F
  0.000000  0.166667  0.416667    0.00057870 391 t-inv F
  0.083333  0.166667  0.416667    0.00057870 392 t-inv F
  0.166667  0.166667  0.416667    0.00057870 393 t-inv F
  0.250000  0.166667  0.416667    0.00057870 394 t-inv F
  0.333333  0.166667  0.416667    0.00057870 395 t-inv F
  0.416667  0.166667  0.416667    0.00057870 396 t-inv F
  0.500000  0.166667  0.416667    0.00057870 397 t-inv F
 -0.416667  0.166667  0.416667    0.00057870 398 t-inv F
 -0.333333  0.166667  0.416667    0.00057870 399 t-inv F
 -0.250000  0.166667  0.416667    0.00057870 400 t-inv F
 -0.166667  0.166667  0.416667    0.00057870 401 t-inv F
 -0.083333  0.166667  0.416667    0.00057870 402 t-inv F
 -0.000000  0.500000  0.416667    0.00057870 403 t-inv F
  0.083333  0.500000  0.416667    0.00057870 404 t-inv F
  0.166667  0.500000  0.416667    0.00057870 405 t-inv F
  0.250000  0.500000  0.416667    0.00057870 406 t-inv F
  0.333333  0.500000  0.416667    0.00057870 407 t-inv F
  0.416667  0.500000  0.416667    0.00057870 408 t-inv F
  0.500000  0.500000  0.416667    0.00057870 409 t-inv F
 -0.416667  0.500000  0.416667    0.00057870 410 t-inv F
 -0.333333  0.500000  0.416667    0.00057870 411 t-inv F
 -0.250000  0.500000  0.416667    0.00057870 412 t-inv F
 -0.166667  0.500000  0.416667    0.00057870 413 t-inv F
 -0.083333  0.500000  0.416667    0.00057870 414 t-inv F
 -0.000000 -0.416667  0.416667    0.00057870 415 t-inv F
  0.083333 -0.416667  0.416667    0.00057870 416 t-inv F
  0.166667 -0.416667  0.416667    0.00057870 417 t-inv F
  0.250000 -0.416667  0.416667    0.00057870 418 t-inv F
  0.333333 -0.416667  0.416667    0.00057870 419 t-inv F
  0.416667 -0.416667  0.416667    0.00057870 420 t-inv F
  0.500000 -0.416667  0.416667    0.00057870 421 t-inv F
 -0.416667 -0.416667  0.416667    0.00057870 422 t-inv F
 -0.333333 -0.416667  0.416667    0.00057870 423 t-inv F
 -0.250000 -0.416667  0.416667    0.00057870 424 t-inv F
 -0.166667 -0.416667  0.416667    0.00057870 425 t-inv F
[...]
      8       0.7446      0.00000

 k-point 455 :      -0.2500    0.0833    0.5000
  band No.  band energies     occupation 
      1       0.3858      0.00000
      2      -1.9852      0.00000
      3       2.5611      0.00000
      4      -0.9076      0.00000
      5      -0.0995      0.00000
      6       1.0326      0.00000
      7      -1.3004      0.00000
      8       2.1334      0.00000

 k-point 456 :      -0.1667    0.0833    0.5000
  band No.  band energies     occupation 
      1       0.6194      0.00000
      2      -2.1367      0.00000
      3       3.1415      0.00000
      4      -1.5289      0.00000
      5      -0.2824      0.00000
      6       1.3187      0.00000
      7       1.6564      0.00000
      8      -0.6072      0.00000

 k-point 457 :      -0.0833    0.0833    0.5000
  band No.  band energies     occupation 
      1       0.7691      0.00000
      2      -2.0814      0.00000
      3       3.5661      0.00000
      4      -2.0105      0.00000
      5      -0.3812      0.00000
      6       0.1529      0.00000
      7       3.9588      0.00000
      8      -1.6168      0.00000

 k-point 458 :      -0.0000    0.1667    0.5000
  band No.  band energies     occupation 
      1       0.6272      0.00000
      2      -2.0361      0.00000
      3       2.1834      0.00000
      4      -0.3103      0.00000
      5      -0.3079      0.00000
      6       1.0096      0.00000
      7       2.5031      0.00000
      8      -1.4558      0.00000

 k-point 459 :       0.0833    0.1667    0.5000
  band No.  band energies     occupation 
      1       0.5655      0.00000
      2      -1.9769      0.00000
      3      -1.0680      0.00000
      4       3.4814      0.00000
      5       0.2216      0.00000
      6       1.3106      0.00000
      7      -0.8123      0.00000
      8       0.2187      0.00000

 k-point 460 :       0.1667    0.1667    0.5000
  band No.  band energies     occupation 
      1       0.4970      0.00000
      2      -2.0836      0.00000
      3      -1.0353      0.00000
      4       3.9223      0.00000
      5       2.0405      0.00000
      6       0.0108      0.00000
      7      -2.9373      0.00000
      8       1.1212      0.00000

 k-point 461 :       0.2500    0.1667    0.5000
  band No.  band energies     occupation 
      1       0.4419      0.00000
      2      -2.5404      0.00000
      3      -0.4338      0.00000
      4       3.7434      0.00000
      5       1.2631      0.00000
      6      -0.2915      0.00000
      7       0.1556      0.00000
      8      -1.7208      0.00000

 k-point 462 :       0.3333    0.1667    0.5000
  band No.  band energies     occupation 
      1       0.3998      0.00000
      2      -2.9901      0.00000
      3       0.0990      0.00000
      4       3.4312      0.00000
      5      -0.2863      0.00000
      6       0.6339      0.00000
      7       1.1737      0.00000
      8      -2.2320      0.00000

 k-point 463 :       0.4167    0.1667    0.5000
  band No.  band energies     occupation 
      1       0.3587      0.00000
      2      -2.3834      0.00000
      3       0.9283      0.00000
      4       1.7074      0.00000
      5      -0.4554      0.00000
      6       0.3188      0.00000
      7       1.9498      0.00000
      8      -1.1489      0.00000

 k-point 464 :       0.5000    0.1667    0.5000
  band No.  band energies     occupation 
      1       0.2887      0.00000
      2      -1.5427      0.00000
      3       1.5523      0.00000
      4      -0.0664      0.00000
      5      -0.1899      0.00000
      6       0.1803      0.00000
      7       0.0084      0.00000
      8       1.5494      0.00000

 k-point 465 :      -0.4167    0.1667    0.5000
  band No.  band energies     occupation 
      1       0.1372      0.00000
      2      -0.5834      0.00000
      3       0.8759      0.00000
      4      -0.4040      0.00000
      5      -0.0265      0.00000
      6       0.0856      0.00000
      7      -0.1850      0.00000
      8       0.7451      0.00000

 k-point 466 :      -0.3333    0.1667    0.5000
  band No.  band energies     occupation 
      1       0.0003      0.00000
      2       0.0001      0.00000
      3       0.0002      0.00000
      4       0.0001      0.00000
      5       0.0001      0.00000
      6       0.0001      0.00000
      7       0.0001      0.00000
      8       0.0002      0.00000

 k-point 467 :      -0.2500    0.1667    0.5000
  band No.  band energies     occupation 
      1       0.1706      0.00000
      2      -1.0336      0.00000
      3       1.7029      0.00000
      4      -0.8386      0.00000
      5      -0.0716      0.00000
      6       1.0671      0.00000
      7      -1.4589      0.00000
      8       0.5267      0.00000

 k-point 468 :      -0.1667    0.1667    0.5000
  band No.  band energies     occupation 
      1       0.4579      0.00000
      2      -2.0872      0.00000
      3       3.1021      0.00000
      4      -1.4664      0.00000
      5      -0.3147      0.00000
      6       1.8273      0.00000
      7      -3.4650      0.00000
      8       2.8385      0.00000

 k-point 469 :      -0.0833    0.1667    0.5000
  band No.  band energies     occupation 
      1       0.6194      0.00000
      2      -2.1367      0.00000
      3       3.1415      0.00000
      4      -1.5289      0.00000
      5      -0.2824      0.00000
      6       1.3187      0.00000
      7       1.6564      0.00000
      8      -0.6073      0.00000

 k-point 470 :      -0.0000    0.2500    0.5000
  band No.  band energies     occupation 
      1       0.4575      0.00000
      2      -2.1911      0.00000
      3       2.2393      0.00000
      4      -0.1617      0.00000
      5      -0.2567      0.00000
      6       1.0464      0.00000
      7       2.1668      0.00000
      8      -1.2642      0.00000

 k-point 471 :       0.0833    0.2500    0.5000
  band No.  band energies     occupation 
      1       0.4563      0.00000
      2      -2.2591      0.00000
      3       0.0470      0.00000
      4       2.5753      0.00000
      5      -0.3808      0.00000
      6       1.6980      0.00000
      7       0.9200      0.00000
      8      -1.7219      0.00000

 k-point 472 :       0.1667    0.2500    0.5000
  band No.  band energies     occupation 
      1       0.4419      0.00000
      2      -2.5404      0.00000
      3      -0.4338      0.00000
      4       3.7434      0.00000
      5       1.2631      0.00000
      6      -0.2915      0.00000
      7       0.1556      0.00000
      8      -1.7208      0.00000

 k-point 473 :       0.2500    0.2500    0.5000
  band No.  band energies     occupation 
      1       0.4356      0.00000
      2      -3.0146      0.00000
      3       0.0996      0.00000
      4       3.8708      0.00000
      5       2.1191      0.00000
      6      -1.2885      0.00000
      7      -3.3824      0.00000
      8       1.7115      0.00000

 k-point 474 :      -0.4167    0.2500    0.5000
  band No.  band energies     occupation 
      1       0.3858      0.00000
      2      -1.9852      0.00000
      3       2.5611      0.00000
      4      -0.9076      0.00000
      5      -0.0995      0.00000
      6       1.0326      0.00000
      7      -1.3004      0.00000
      8       2.1334      0.00000

 k-point 475 :      -0.3333    0.2500    0.5000
  band No.  band energies     occupation 
      1       0.1706      0.00000
      2      -1.0336      0.00000
      3       1.7029      0.00000
      4      -0.8386      0.00000
      5      -0.0716      0.00000
      6       1.0671      0.00000
      7      -1.4589      0.00000
      8       0.5267      0.00000

 k-point 476 :      -0.2500    0.2500    0.5000
  band No.  band energies     occupation 
      1       0.0003      0.00000
      2       0.0001      0.00000
      3       0.0002      0.00000
      4       0.0001      0.00000
      5       0.0001      0.00000
      6       0.0000      0.00000
      7       0.0002      0.00000
      8       0.0000      0.00000


------------------------ aborting loop because EDIFF is reached ----------------------------------------


    FORLOC:  cpu time    0.0007: real time    0.0007
    FORNL :  cpu time    0.0488: real time    0.0488
    STRESS:  cpu time    0.8206: real time    0.8207
    FORCOR:  cpu time    0.0062: real time    0.0062
    OFIELD:  cpu time    0.0000: real time    0.0000
    FORLOC:  cpu time    0.0006: real time    0.0006
    FORNL :  cpu time    0.0488: real time    0.0488
    STRESS:  cpu time    0.8201: real time    0.8202
    FORCOR:  cpu time    0.0062: real time    0.0062
    OFIELD:  cpu time    0.0000: real time    0.0000
    FORLOC:  cpu time    0.0009: real time    0.0009
    FORNL :  cpu time    0.0488: real time    0.0488
    STRESS:  cpu time    0.8196: real time    0.8197
    FORCOR:  cpu time    0.0062: real time    0.0062
    OFIELD:  cpu time    0.0000: real time    0.0000
    FORLOC:  cpu time    0.0006: real time    0.0006
    FORNL :  cpu time    0.0488: real time    0.0488
    STRESS:  cpu time    0.8194: real time    0.8195
    FORCOR:  cpu time    0.0062: real time    0.0062
    OFIELD:  cpu time    0.0000: real time    0.0000

 INTERNAL STRAIN TENSOR  FOR ION    2  DIRECTION 3   (eV/Angst):
 -----------------------------------------------------------------------------
     0.00059 -8.45286  0.02053
    -8.45286  0.00059  0.02053
    -0.02424 -0.02424 -0.00161


 POSITION                   FORCE-CONSTANT FOR ION    2 DIRECTION 3 (eV/Angst/Angst)
 -----------------------------------------------------------------------------------
     -1.08850      1.08850      1.08850         0.000122      0.000122     19.318727
      0.00000      0.00000      0.00000        -0.000122     -0.000122    -19.318727
 -----------------------------------------------------------------------------------
    total drift:                                0.000000      0.000000      0.000000


 BORN EFFECTIVE CHARGE FOR ION    2 DIRECTION 3 :  -0.000  -0.000  -2.702
                   rigid augmentation           :  -0.000   0.000  -0.092
                   ionic contribution           :  -0.000   0.000   4.000
                   Berry contribution           :  -0.000  -0.000  -6.611


--------------------------------------------------------------------------------------------------------


  LATTYP: Found a face centered cubic cell.
 ALAT       =     4.3539929131
  
  Lattice vectors:
  
 A1 = (  -2.1769964566,   0.0000000000,   2.1769964566)
 A2 = (   0.0000000000,   2.1769964566,   2.1769964566)
 A3 = (  -2.1769964566,   2.1769964566,   0.0000000000)


Analysis of symmetry for initial positions (statically):
=====================================================================
 Subroutine PRICEL returns:
 Original cell was already a primitive cell.
 

 Routine SETGRP: Setting up the symmetry group for a 
 face centered cubic supercell.


 Subroutine GETGRP returns: Found  2 space group operations
 (whereof  2 operations were pure point group operations)
 out of a pool of 48 trial point group operations.


The static configuration has the point symmetry C_1h.


Analysis of symmetry for dynamics (positions and initial velocities):
=====================================================================
 Subroutine PRICEL returns:
 Original cell was already a primitive cell.
 

 Routine SETGRP: Setting up the symmetry group for a 
 face centered cubic supercell.


 Subroutine GETGRP returns: Found  2 space group operations
 (whereof  2 operations were pure point group operations)
 out of a pool of 48 trial point group operations.


The dynamic configuration has the point symmetry C_1h.


 Subroutine INISYM returns: Found  2 space group operations
 (whereof  2 operations are pure point group operations),
 and found     1 'primitive' translations



--------------------------------------------------------------------------------------------------------




 MACROSCOPIC STATIC DIELECTRIC TENSOR (including local field effects in DFT)
 ------------------------------------------------------
           6.943937    -0.001890     0.000032
          -0.001890     6.943937     0.000032
          -0.000002    -0.000002     6.942129
 ------------------------------------------------------


 PIEZOELECTRIC TENSOR  for field in x, y, z        (e  Angst)
          XX          YY          ZZ          XY          YZ          ZX
  --------------------------------------------------------------------------------
  x    -0.00021    -0.00023     0.00041     0.00021    -1.28300     0.00013
  y    -0.00013     0.00058    -0.00041    -0.00020     0.00012    -1.28299
  z    -0.00007    -0.00007     0.00004    -1.28655    -0.00006    -0.00005

 PIEZOELECTRIC TENSOR  for field in x, y, z        (C/m^2)
          XX          YY          ZZ          XY          YZ          ZX
  --------------------------------------------------------------------------------
  x     0.00014    -0.00014    -0.00000     0.00000    -0.99617     0.00010
  y    -0.00014     0.00014    -0.00000     0.00000     0.00010    -0.99617
  z    -0.00006    -0.00006     0.00003    -0.99893    -0.00004    -0.00004
 
 BORN EFFECTIVE CHARGES (in e, cummulative output)
 -------------------------------------------------
 ion    1
    1     2.70247    -0.00005    -0.00000
    2    -0.00006     2.70247     0.00000
    3    -0.00000    -0.00000     2.70247
 ion    2
    1    -2.70247     0.00005     0.00000
    2     0.00006    -2.70247    -0.00000
    3     0.00000     0.00000    -2.70247

 INTERNAL STRAIN TENSOR FOR ION    1 for displacements in x,y,z  (eV/Angst):
          X           Y           Z          XY          YZ          ZX
  --------------------------------------------------------------------------------
  x    -0.00854     0.01185    -0.00378    -0.04684     7.95316    -0.32588
  y     0.01185    -0.00854    -0.00378     0.05035     0.35787     7.75266
  z     0.01032     0.01032    -0.02001     7.94939    -0.03000     0.09401

 INTERNAL STRAIN TENSOR FOR ION    2 for displacements in x,y,z  (eV/Angst):
          X           Y           Z          XY          YZ          ZX
  --------------------------------------------------------------------------------
  x     0.00309    -0.00124    -0.00112    -0.01781    -8.41157    -0.11981
  y    -0.00124     0.00309    -0.00112     0.01497     0.11607    -8.48285
  z     0.00059     0.00059    -0.00161    -8.45286    -0.02424     0.02053


--------------------------------------------------------------------------------------------------------


 
 SECOND DERIVATIVES (NOT SYMMETRIZED)
 ------------------------------------
               1X          1Y          1Z          2X          2Y          2Z 
  1X   -19.318149    0.000002   -0.000015   19.318149   -0.000002    0.000015
  1Y     0.000002  -19.318149   -0.000015   -0.000002   19.318149    0.000015
  1Z    -0.000057   -0.000057  -19.318245    0.000057    0.000057   19.318245
  2X    19.318887    0.000091    0.000512  -19.318887   -0.000091   -0.000512
  2Y     0.000091   19.318887    0.000512   -0.000091  -19.318887   -0.000512
  2Z     0.000122    0.000122   19.318727   -0.000122   -0.000122  -19.318727
 
 
 Eigenvectors and eigenvalues of the dynamical matrix
 ----------------------------------------------------
 
 
   1 f  =   23.690089 THz   148.849218 2PiTHz  790.216281 cm-1    97.974367 meV
             X         Y         Z           dx          dy          dz
     -1.088498  1.088498  1.088498    -0.301946   -0.301946   -0.342347  
      0.000000  0.000000  0.000000     0.461735    0.461735    0.523505  
 
   2 f  =   23.689850 THz   148.847714 2PiTHz  790.208297 cm-1    97.973377 meV
             X         Y         Z           dx          dy          dz
     -1.088498  1.088498  1.088498     0.387007   -0.387007   -0.000000  
      0.000000  0.000000  0.000000    -0.591799    0.591799    0.000000  
 
   3 f  =   23.689675 THz   148.846620 2PiTHz  790.202489 cm-1    97.972657 meV
             X         Y         Z           dx          dy          dz
     -1.088498  1.088498  1.088498    -0.242079   -0.242079    0.427024  
      0.000000  0.000000  0.000000     0.370172    0.370172   -0.652987  
 
   4 f/i=    0.000081 THz     0.000511 2PiTHz    0.002713 cm-1     0.000336 meV
             X         Y         Z           dx          dy          dz
     -1.088498  1.088498  1.088498    -0.208810   -0.208811    0.783098  
      0.000000  0.000000  0.000000    -0.136552   -0.136553    0.512113  
 
   5 f/i=    0.000181 THz     0.001137 2PiTHz    0.006034 cm-1     0.000748 meV
             X         Y         Z           dx          dy          dz
     -1.088498  1.088498  1.088498     0.591799   -0.591798   -0.000001  
      0.000000  0.000000  0.000000     0.387007   -0.387007   -0.000001  
 
   6 f/i=    0.000325 THz     0.002045 2PiTHz    0.010854 cm-1     0.001346 meV
             X         Y         Z           dx          dy          dz
     -1.088498  1.088498  1.088498     0.553737    0.553737    0.295307  
      0.000000  0.000000  0.000000     0.362115    0.362115    0.193108  
 


--------------------------------------------------------------------------------------------------------




 MACROSCOPIC STATIC DIELECTRIC TENSOR IONIC CONTRIBUTION
 ------------------------------------------------------
           3.315205    -0.000141    -0.000034
          -0.000141     3.315202    -0.000027
          -0.000034    -0.000027     3.315214
 ------------------------------------------------------


 ELASTIC MODULI IONIC CONTR (kBar)
 Direction    XX          YY          ZZ          XY          YZ          ZX
 --------------------------------------------------------------------------------
 XX          -0.0004      0.0002      0.0002     -0.1612      0.1881     -0.2168
 YY           0.0002     -0.0004      0.0002     -0.1596     -0.2125      0.1917
 ZZ           0.0002      0.0002     -0.0004      0.3031      0.0442      0.0441
 XY          -0.1612     -0.1596      0.3031   -270.3240      0.5661     -1.7919
 YZ           0.1881     -0.2125      0.0442      0.5661   -269.1452     -0.5549
 ZX          -0.2168      0.1917      0.0441     -1.7919     -0.5549   -264.9017
 --------------------------------------------------------------------------------


 PIEZOELECTRIC TENSOR IONIC CONTR  for field in x, y, z        (C/m^2)
          XX          YY          ZZ          XY          YZ          ZX
  --------------------------------------------------------------------------------
  x    -0.00063     0.00071    -0.00014    -0.00159     0.88874    -0.01121
  y     0.00071    -0.00063    -0.00014     0.00191     0.01311     0.88172
  z     0.00053     0.00053    -0.00100     0.89078    -0.00032     0.00398


--------------------------------------------------------------------------------------------------------


     LOOP+:  cpu time  213.1583: real time  213.2746
    4ORBIT:  cpu time    0.0000: real time    0.0000

 total amount of memory used by VASP MPI-rank0    70974. kBytes
=======================================================================

   base      :      30000. kBytes
   nonl-proj :      34625. kBytes
   fftplans  :        537. kBytes
   grid      :       1359. kBytes
   one-center:          6. kBytes
   wavefun   :       4447. kBytes
 
  
  
 General timing and accounting informations for this job:
 ========================================================
  
                  Total CPU time used (sec):      214.866
                            User time (sec):      212.188
                          System time (sec):        2.678
                         Elapsed time (sec):      214.958
  
                   Maximum memory used (kb):      320716.
                   Average memory used (kb):           0.
  
                          Minor page faults:       102601
                          Major page faults:           13
                 Voluntary context switches:         3273
