<?xml version="1.0" encoding="ISO-8859-1"?>
<modeling>
 <generator>
  <i name="program" type="string">vasp </i>
  <i name="version" type="string">5.4.4.18Apr17-6-g9f103f2a35  </i>
  <i name="subversion" type="string">(build Aug 24 2017 11:22:49) complex            parallel </i>
  <i name="platform" type="string">LinuxIFC </i>
  <i name="date" type="string">2023 12 25 </i>
  <i name="time" type="string">13:07:34 </i>
 </generator>
 <incar>
  <i type="string" name="PREC">accurate</i>
  <i type="string" name="ALGO"> Normal</i>
  <i type="int" name="NELM">   100</i>
  <i type="int" name="IBRION">     8</i>
  <i name="EDIFF">      0.00000001</i>
  <i name="SYMPREC">      0.00000001</i>
  <i name="ENCUT">    520.00000000</i>
  <i type="logical" name="LREAL"> F  </i>
  <i type="int" name="ISMEAR">     0</i>
  <i name="SIGMA">      0.01000000</i>
  <i type="logical" name="LWAVE"> F  </i>
  <v type="int" name="KPOINT_BSE">    -1     0     0     0</v>
  <i type="int" name="NELM">   100</i>
  <i type="logical" name="LPEAD"> T  </i>
  <i type="logical" name="LEPSILON"> T  </i>
 </incar>
 <structure name="primitive_cell" >
  <crystal>
   <varray name="basis" >
    <v>      -2.17699646       0.00000000       2.17699646 </v>
    <v>       0.00000000       2.17699646       2.17699646 </v>
    <v>      -2.17699646       2.17699646       0.00000000 </v>
   </varray>
   <i name="volume">     20.63493771 </i>
   <varray name="rec_basis" >
    <v>      -0.22967424      -0.22967424       0.22967424 </v>
    <v>       0.22967424       0.22967424       0.22967424 </v>
    <v>      -0.22967424       0.22967424      -0.22967424 </v>
   </varray>
  </crystal>
  <varray name="positions" >
   <v>       0.25000002       0.25000010       0.24999994 </v>
   <v>       0.00000000       0.00000000       0.00000000 </v>
  </varray>
 </structure>
 <varray name="primitive_index" >
  <v type="int" >        1 </v>
  <v type="int" >        2 </v>
 </varray>
 <kpoints>
  <generation param="Gamma">
   <v type="int" name="divisions">      12       12       12 </v>
   <v name="usershift">      0.00000000       0.00000000       0.00000000 </v>
   <v name="genvec1">      0.08333333      -0.00000000      -0.00000000 </v>
   <v name="genvec2">     -0.00000000       0.08333333       0.00000000 </v>
   <v name="genvec3">      0.00000000       0.00000000       0.08333333 </v>
   <v name="shift">      0.00000000       0.00000000       0.00000000 </v>
  </generation>
  <varray name="kpointlist" >
   <v>       0.00000000       0.00000000       0.00000000 </v>
   <v>       0.08333333      -0.00000000      -0.00000000 </v>
   <v>       0.16666667       0.00000000       0.00000000 </v>
   <v>       0.25000000      -0.00000000      -0.00000000 </v>
   <v>       0.33333333       0.00000000       0.00000000 </v>
   <v>       0.41666667       0.00000000      -0.00000000 </v>
   <v>       0.50000000      -0.00000000      -0.00000000 </v>
   <v>      -0.00000000       0.08333333       0.00000000 </v>
   <v>       0.08333333       0.08333333      -0.00000000 </v>
   <v>       0.16666667       0.08333333       0.00000000 </v>
   <v>       0.25000000       0.08333333       0.00000000 </v>
   <v>       0.33333333       0.08333333      -0.00000000 </v>
   <v>       0.41666667       0.08333333       0.00000000 </v>
   <v>       0.50000000       0.08333333      -0.00000000 </v>
   <v>      -0.41666667       0.08333333       0.00000000 </v>
   <v>      -0.33333333       0.08333333      -0.00000000 </v>
   <v>      -0.25000000       0.08333333      -0.00000000 </v>
   <v>      -0.16666667       0.08333333      -0.00000000 </v>
   <v>      -0.08333333       0.08333333       0.00000000 </v>
   <v>      -0.00000000       0.16666667      -0.00000000 </v>
   <v>       0.08333333       0.16666667      -0.00000000 </v>
   <v>       0.16666667       0.16666667      -0.00000000 </v>
   <v>       0.25000000       0.16666667      -0.00000000 </v>
   <v>       0.33333333       0.16666667      -0.00000000 </v>
   <v>       0.41666667       0.16666667      -0.00000000 </v>
   <v>       0.50000000       0.16666667       0.00000000 </v>
   <v>      -0.41666667       0.16666667      -0.00000000 </v>
   <v>      -0.33333333       0.16666667       0.00000000 </v>
   <v>      -0.25000000       0.16666667       0.00000000 </v>
   <v>      -0.16666667       0.16666667      -0.00000000 </v>
   <v>      -0.08333333       0.16666667       0.00000000 </v>
   <v>      -0.00000000       0.25000000      -0.00000000 </v>
   <v>       0.08333333       0.25000000      -0.00000000 </v>
   <v>       0.16666667       0.25000000       0.00000000 </v>
   <v>       0.25000000       0.25000000      -0.00000000 </v>
   <v>       0.33333333       0.25000000      -0.00000000 </v>
   <v>       0.41666667       0.25000000       0.00000000 </v>
   <v>       0.50000000       0.25000000      -0.00000000 </v>
   <v>      -0.41666667       0.25000000       0.00000000 </v>
   <v>      -0.33333333       0.25000000       0.00000000 </v>
   <v>      -0.25000000       0.25000000       0.00000000 </v>
   <v>      -0.16666667       0.25000000       0.00000000 </v>
   <v>      -0.08333333       0.25000000      -0.00000000 </v>
   <v>       0.00000000       0.33333333      -0.00000000 </v>
   <v>       0.08333333       0.33333333      -0.00000000 </v>
   <v>       0.16666667       0.33333333      -0.00000000 </v>
   <v>       0.25000000       0.33333333      -0.00000000 </v>
   <v>       0.33333333       0.33333333      -0.00000000 </v>
   <v>       0.41666667       0.33333333      -0.00000000 </v>
   <v>       0.50000000       0.33333333       0.00000000 </v>
   <v>      -0.41666667       0.33333333       0.00000000 </v>
   <v>      -0.33333333       0.33333333      -0.00000000 </v>
   <v>      -0.25000000       0.33333333       0.00000000 </v>
   <v>      -0.16666667       0.33333333      -0.00000000 </v>
   <v>      -0.08333333       0.33333333      -0.00000000 </v>
   <v>      -0.00000000       0.41666667       0.00000000 </v>
   <v>       0.08333333       0.41666667      -0.00000000 </v>
   <v>       0.16666667       0.41666667       0.00000000 </v>
   <v>       0.25000000       0.41666667      -0.00000000 </v>
   <v>       0.33333333       0.41666667      -0.00000000 </v>
   <v>       0.41666667       0.41666667      -0.00000000 </v>
   <v>       0.50000000       0.41666667      -0.00000000 </v>
   <v>      -0.41666667       0.41666667       0.00000000 </v>
   <v>      -0.33333333       0.41666667      -0.00000000 </v>
   <v>      -0.25000000       0.41666667       0.00000000 </v>
   <v>      -0.16666667       0.41666667      -0.00000000 </v>
   <v>      -0.08333333       0.41666667       0.00000000 </v>
   <v>      -0.00000000       0.50000000      -0.00000000 </v>
   <v>       0.08333333       0.50000000       0.00000000 </v>
   <v>       0.16666667       0.50000000      -0.00000000 </v>
   <v>       0.25000000       0.50000000      -0.00000000 </v>
   <v>       0.33333333       0.50000000      -0.00000000 </v>
   <v>       0.41666667       0.50000000      -0.00000000 </v>
   <v>       0.50000000       0.50000000      -0.00000000 </v>
   <v>       0.00000000       0.00000000       0.08333333 </v>
   <v>       0.08333333      -0.00000000       0.08333333 </v>
   <v>       0.16666667       0.00000000       0.08333333 </v>
   <v>       0.25000000       0.00000000       0.08333333 </v>
   <v>       0.33333333      -0.00000000       0.08333333 </v>
   <v>       0.41666667       0.00000000       0.08333333 </v>
   <v>       0.50000000       0.00000000       0.08333333 </v>
   <v>      -0.41666667       0.00000000       0.08333333 </v>
   <v>      -0.33333333      -0.00000000       0.08333333 </v>
   <v>      -0.25000000      -0.00000000       0.08333333 </v>
   <v>      -0.16666667       0.00000000       0.08333333 </v>
   <v>      -0.08333333       0.00000000       0.08333333 </v>
   <v>       0.00000000       0.16666667       0.08333333 </v>
   <v>       0.08333333       0.16666667       0.08333333 </v>
   <v>       0.16666667       0.16666667       0.08333333 </v>
   <v>       0.25000000       0.16666667       0.08333333 </v>
   <v>       0.33333333       0.16666667       0.08333333 </v>
   <v>       0.41666667       0.16666667       0.08333333 </v>
   <v>       0.50000000       0.16666667       0.08333333 </v>
   <v>      -0.41666667       0.16666667       0.08333333 </v>
   <v>      -0.33333333       0.16666667       0.08333333 </v>
   <v>      -0.25000000       0.16666667       0.08333333 </v>
   <v>      -0.16666667       0.16666667       0.08333333 </v>
   <v>      -0.08333333       0.16666667       0.08333333 </v>
   <v>      -0.00000000       0.25000000       0.08333333 </v>
   <v>       0.08333333       0.25000000       0.08333333 </v>
   <v>       0.16666667       0.25000000       0.08333333 </v>
   <v>       0.25000000       0.25000000       0.08333333 </v>
   <v>       0.33333333       0.25000000       0.08333333 </v>
   <v>       0.41666667       0.25000000       0.08333333 </v>
   <v>       0.50000000       0.25000000       0.08333333 </v>
   <v>      -0.41666667       0.25000000       0.08333333 </v>
   <v>      -0.33333333       0.25000000       0.08333333 </v>
   <v>      -0.25000000       0.25000000       0.08333333 </v>
   <v>      -0.16666667       0.25000000       0.08333333 </v>
   <v>      -0.08333333       0.25000000       0.08333333 </v>
   <v>      -0.00000000       0.33333333       0.08333333 </v>
   <v>       0.08333333       0.33333333       0.08333333 </v>
   <v>       0.16666667       0.33333333       0.08333333 </v>
   <v>       0.25000000       0.33333333       0.08333333 </v>
   <v>       0.33333333       0.33333333       0.08333333 </v>
   <v>       0.41666667       0.33333333       0.08333333 </v>
   <v>       0.50000000       0.33333333       0.08333333 </v>
   <v>      -0.41666667       0.33333333       0.08333333 </v>
   <v>      -0.33333333       0.33333333       0.08333333 </v>
   <v>      -0.25000000       0.33333333       0.08333333 </v>
   <v>      -0.16666667       0.33333333       0.08333333 </v>
   <v>      -0.08333333       0.33333333       0.08333333 </v>
   <v>      -0.00000000       0.41666667       0.08333333 </v>
   <v>       0.08333333       0.41666667       0.08333333 </v>
   <v>       0.16666667       0.41666667       0.08333333 </v>
   <v>       0.25000000       0.41666667       0.08333333 </v>
   <v>       0.33333333       0.41666667       0.08333333 </v>
   <v>       0.41666667       0.41666667       0.08333333 </v>
   <v>       0.50000000       0.41666667       0.08333333 </v>
   <v>      -0.41666667       0.41666667       0.08333333 </v>
   <v>      -0.33333333       0.41666667       0.08333333 </v>
   <v>      -0.25000000       0.41666667       0.08333333 </v>
   <v>      -0.16666667       0.41666667       0.08333333 </v>
   <v>      -0.08333333       0.41666667       0.08333333 </v>
   <v>      -0.00000000       0.50000000       0.08333333 </v>
   <v>       0.08333333       0.50000000       0.08333333 </v>
   <v>       0.16666667       0.50000000       0.08333333 </v>
   <v>       0.25000000       0.50000000       0.08333333 </v>
   <v>       0.33333333       0.50000000       0.08333333 </v>
   <v>       0.41666667       0.50000000       0.08333333 </v>
   <v>       0.50000000       0.50000000       0.08333333 </v>
   <v>      -0.41666667       0.50000000       0.08333333 </v>
   <v>      -0.33333333       0.50000000       0.08333333 </v>
   <v>      -0.25000000       0.50000000       0.08333333 </v>
   <v>      -0.16666667       0.50000000       0.08333333 </v>
   <v>      -0.08333333       0.50000000       0.08333333 </v>
   <v>      -0.00000000      -0.00000000       0.16666667 </v>
   <v>       0.08333333      -0.00000000       0.16666667 </v>
   <v>       0.16666667      -0.00000000       0.16666667 </v>
   <v>       0.25000000      -0.00000000       0.16666667 </v>
   <v>       0.33333333       0.00000000       0.16666667 </v>
   <v>       0.41666667      -0.00000000       0.16666667 </v>
   <v>       0.50000000      -0.00000000       0.16666667 </v>
   <v>      -0.41666667      -0.00000000       0.16666667 </v>
   <v>      -0.33333333       0.00000000       0.16666667 </v>
   <v>      -0.25000000      -0.00000000       0.16666667 </v>
   <v>      -0.16666667      -0.00000000       0.16666667 </v>
   <v>      -0.08333333       0.00000000       0.16666667 </v>
   <v>      -0.00000000       0.08333333       0.16666667 </v>
   <v>       0.08333333       0.08333333       0.16666667 </v>
   <v>       0.25000000       0.08333333       0.16666667 </v>
   <v>       0.33333333       0.08333333       0.16666667 </v>
   <v>       0.41666667       0.08333333       0.16666667 </v>
   <v>       0.50000000       0.08333333       0.16666667 </v>
   <v>      -0.41666667       0.08333333       0.16666667 </v>
   <v>      -0.00000000       0.25000000       0.16666667 </v>
   <v>       0.08333333       0.25000000       0.16666667 </v>
   <v>       0.16666667       0.25000000       0.16666667 </v>
   <v>       0.25000000       0.25000000       0.16666667 </v>
   <v>       0.33333333       0.25000000       0.16666667 </v>
   <v>       0.41666667       0.25000000       0.16666667 </v>
   <v>       0.50000000       0.25000000       0.16666667 </v>
   <v>      -0.41666667       0.25000000       0.16666667 </v>
   <v>      -0.33333333       0.25000000       0.16666667 </v>
   <v>      -0.25000000       0.25000000       0.16666667 </v>
   <v>      -0.16666667       0.25000000       0.16666667 </v>
   <v>      -0.08333333       0.25000000       0.16666667 </v>
   <v>      -0.00000000       0.33333333       0.16666667 </v>
   <v>       0.08333333       0.33333333       0.16666667 </v>
   <v>       0.16666667       0.33333333       0.16666667 </v>
   <v>       0.25000000       0.33333333       0.16666667 </v>
   <v>       0.33333333       0.33333333       0.16666667 </v>
   <v>       0.41666667       0.33333333       0.16666667 </v>
   <v>       0.50000000       0.33333333       0.16666667 </v>
   <v>      -0.41666667       0.33333333       0.16666667 </v>
   <v>      -0.33333333       0.33333333       0.16666667 </v>
   <v>      -0.25000000       0.33333333       0.16666667 </v>
   <v>      -0.16666667       0.33333333       0.16666667 </v>
   <v>      -0.08333333       0.33333333       0.16666667 </v>
   <v>      -0.00000000       0.41666667       0.16666667 </v>
   <v>       0.08333333       0.41666667       0.16666667 </v>
   <v>       0.16666667       0.41666667       0.16666667 </v>
   <v>       0.25000000       0.41666667       0.16666667 </v>
   <v>       0.33333333       0.41666667       0.16666667 </v>
   <v>       0.41666667       0.41666667       0.16666667 </v>
   <v>       0.50000000       0.41666667       0.16666667 </v>
   <v>      -0.41666667       0.41666667       0.16666667 </v>
   <v>      -0.33333333       0.41666667       0.16666667 </v>
   <v>      -0.25000000       0.41666667       0.16666667 </v>
   <v>      -0.16666667       0.41666667       0.16666667 </v>
   <v>      -0.08333333       0.41666667       0.16666667 </v>
   <v>       0.00000000       0.50000000       0.16666667 </v>
   <v>       0.08333333       0.50000000       0.16666667 </v>
   <v>       0.16666667       0.50000000       0.16666667 </v>
   <v>       0.25000000       0.50000000       0.16666667 </v>
   <v>       0.33333333       0.50000000       0.16666667 </v>
   <v>       0.41666667       0.50000000       0.16666667 </v>
   <v>       0.50000000       0.50000000       0.16666667 </v>
   <v>      -0.41666667       0.50000000       0.16666667 </v>
   <v>      -0.33333333       0.50000000       0.16666667 </v>
   <v>      -0.25000000       0.50000000       0.16666667 </v>
   <v>      -0.16666667       0.50000000       0.16666667 </v>
   <v>      -0.08333333       0.50000000       0.16666667 </v>
   <v>      -0.00000000      -0.41666667       0.16666667 </v>
   <v>       0.08333333      -0.41666667       0.16666667 </v>
   <v>       0.25000000      -0.41666667       0.16666667 </v>
   <v>       0.33333333      -0.41666667       0.16666667 </v>
   <v>       0.41666667      -0.41666667       0.16666667 </v>
   <v>       0.50000000      -0.41666667       0.16666667 </v>
   <v>      -0.41666667      -0.41666667       0.16666667 </v>
   <v>      -0.00000000       0.00000000       0.25000000 </v>
   <v>       0.08333333      -0.00000000       0.25000000 </v>
   <v>       0.16666667      -0.00000000       0.25000000 </v>
   <v>       0.25000000      -0.00000000       0.25000000 </v>
   <v>       0.33333333      -0.00000000       0.25000000 </v>
   <v>       0.41666667      -0.00000000       0.25000000 </v>
   <v>       0.50000000      -0.00000000       0.25000000 </v>
   <v>      -0.41666667       0.00000000       0.25000000 </v>
   <v>      -0.33333333       0.00000000       0.25000000 </v>
   <v>      -0.25000000       0.00000000       0.25000000 </v>
   <v>      -0.16666667      -0.00000000       0.25000000 </v>
   <v>      -0.08333333      -0.00000000       0.25000000 </v>
   <v>      -0.00000000       0.08333333       0.25000000 </v>
   <v>       0.08333333       0.08333333       0.25000000 </v>
   <v>       0.16666667       0.08333333       0.25000000 </v>
   <v>       0.25000000       0.08333333       0.25000000 </v>
   <v>       0.33333333       0.08333333       0.25000000 </v>
   <v>       0.41666667       0.08333333       0.25000000 </v>
   <v>       0.50000000       0.08333333       0.25000000 </v>
   <v>      -0.41666667       0.08333333       0.25000000 </v>
   <v>      -0.33333333       0.08333333       0.25000000 </v>
   <v>      -0.25000000       0.08333333       0.25000000 </v>
   <v>      -0.16666667       0.08333333       0.25000000 </v>
   <v>      -0.08333333       0.08333333       0.25000000 </v>
   <v>      -0.00000000       0.33333333       0.25000000 </v>
   <v>       0.08333333       0.33333333       0.25000000 </v>
   <v>       0.16666667       0.33333333       0.25000000 </v>
   <v>       0.25000000       0.33333333       0.25000000 </v>
   <v>       0.33333333       0.33333333       0.25000000 </v>
   <v>       0.41666667       0.33333333       0.25000000 </v>
   <v>       0.50000000       0.33333333       0.25000000 </v>
   <v>      -0.41666667       0.33333333       0.25000000 </v>
   <v>      -0.33333333       0.33333333       0.25000000 </v>
   <v>      -0.25000000       0.33333333       0.25000000 </v>
   <v>      -0.16666667       0.33333333       0.25000000 </v>
   <v>      -0.08333333       0.33333333       0.25000000 </v>
   <v>      -0.00000000       0.41666667       0.25000000 </v>
   <v>       0.08333333       0.41666667       0.25000000 </v>
   <v>       0.16666667       0.41666667       0.25000000 </v>
   <v>       0.25000000       0.41666667       0.25000000 </v>
   <v>       0.33333333       0.41666667       0.25000000 </v>
   <v>       0.41666667       0.41666667       0.25000000 </v>
   <v>       0.50000000       0.41666667       0.25000000 </v>
   <v>      -0.41666667       0.41666667       0.25000000 </v>
   <v>      -0.33333333       0.41666667       0.25000000 </v>
   <v>      -0.25000000       0.41666667       0.25000000 </v>
   <v>      -0.16666667       0.41666667       0.25000000 </v>
   <v>      -0.08333333       0.41666667       0.25000000 </v>
   <v>      -0.00000000       0.50000000       0.25000000 </v>
   <v>       0.08333333       0.50000000       0.25000000 </v>
   <v>       0.16666667       0.50000000       0.25000000 </v>
   <v>       0.25000000       0.50000000       0.25000000 </v>
   <v>       0.33333333       0.50000000       0.25000000 </v>
   <v>       0.41666667       0.50000000       0.25000000 </v>
   <v>       0.50000000       0.50000000       0.25000000 </v>
   <v>      -0.41666667       0.50000000       0.25000000 </v>
   <v>      -0.33333333       0.50000000       0.25000000 </v>
   <v>      -0.25000000       0.50000000       0.25000000 </v>
   <v>      -0.16666667       0.50000000       0.25000000 </v>
   <v>      -0.08333333       0.50000000       0.25000000 </v>
   <v>       0.00000000      -0.41666667       0.25000000 </v>
   <v>       0.08333333      -0.41666667       0.25000000 </v>
   <v>       0.16666667      -0.41666667       0.25000000 </v>
   <v>       0.25000000      -0.41666667       0.25000000 </v>
   <v>       0.33333333      -0.41666667       0.25000000 </v>
   <v>       0.41666667      -0.41666667       0.25000000 </v>
   <v>       0.50000000      -0.41666667       0.25000000 </v>
   <v>      -0.41666667      -0.41666667       0.25000000 </v>
   <v>      -0.33333333      -0.41666667       0.25000000 </v>
   <v>      -0.25000000      -0.41666667       0.25000000 </v>
   <v>      -0.16666667      -0.41666667       0.25000000 </v>
   <v>      -0.08333333      -0.41666667       0.25000000 </v>
   <v>      -0.00000000      -0.00000000       0.33333333 </v>
   <v>       0.08333333       0.00000000       0.33333333 </v>
   <v>       0.16666667      -0.00000000       0.33333333 </v>
   <v>       0.25000000      -0.00000000       0.33333333 </v>
   <v>       0.33333333      -0.00000000       0.33333333 </v>
   <v>       0.41666667      -0.00000000       0.33333333 </v>
   <v>       0.50000000       0.00000000       0.33333333 </v>
   <v>      -0.41666667      -0.00000000       0.33333333 </v>
   <v>      -0.33333333      -0.00000000       0.33333333 </v>
   <v>      -0.25000000       0.00000000       0.33333333 </v>
   <v>      -0.16666667       0.00000000       0.33333333 </v>
   <v>      -0.08333333      -0.00000000       0.33333333 </v>
   <v>      -0.00000000       0.08333333       0.33333333 </v>
   <v>       0.08333333       0.08333333       0.33333333 </v>
   <v>       0.16666667       0.08333333       0.33333333 </v>
   <v>       0.25000000       0.08333333       0.33333333 </v>
   <v>       0.33333333       0.08333333       0.33333333 </v>
   <v>       0.41666667       0.08333333       0.33333333 </v>
   <v>       0.50000000       0.08333333       0.33333333 </v>
   <v>      -0.41666667       0.08333333       0.33333333 </v>
   <v>      -0.33333333       0.08333333       0.33333333 </v>
   <v>      -0.25000000       0.08333333       0.33333333 </v>
   <v>      -0.16666667       0.08333333       0.33333333 </v>
   <v>      -0.08333333       0.08333333       0.33333333 </v>
   <v>       0.00000000       0.16666667       0.33333333 </v>
   <v>       0.08333333       0.16666667       0.33333333 </v>
   <v>       0.16666667       0.16666667       0.33333333 </v>
   <v>       0.41666667       0.16666667       0.33333333 </v>
   <v>       0.50000000       0.16666667       0.33333333 </v>
   <v>      -0.41666667       0.16666667       0.33333333 </v>
   <v>      -0.33333333       0.16666667       0.33333333 </v>
   <v>      -0.00000000       0.41666667       0.33333333 </v>
   <v>       0.08333333       0.41666667       0.33333333 </v>
   <v>       0.16666667       0.41666667       0.33333333 </v>
   <v>       0.25000000       0.41666667       0.33333333 </v>
   <v>       0.33333333       0.41666667       0.33333333 </v>
   <v>       0.41666667       0.41666667       0.33333333 </v>
   <v>       0.50000000       0.41666667       0.33333333 </v>
   <v>      -0.41666667       0.41666667       0.33333333 </v>
   <v>      -0.33333333       0.41666667       0.33333333 </v>
   <v>      -0.25000000       0.41666667       0.33333333 </v>
   <v>      -0.16666667       0.41666667       0.33333333 </v>
   <v>      -0.08333333       0.41666667       0.33333333 </v>
   <v>      -0.00000000       0.50000000       0.33333333 </v>
   <v>       0.08333333       0.50000000       0.33333333 </v>
   <v>       0.16666667       0.50000000       0.33333333 </v>
   <v>       0.25000000       0.50000000       0.33333333 </v>
   <v>       0.33333333       0.50000000       0.33333333 </v>
   <v>       0.41666667       0.50000000       0.33333333 </v>
   <v>       0.50000000       0.50000000       0.33333333 </v>
   <v>      -0.41666667       0.50000000       0.33333333 </v>
   <v>      -0.33333333       0.50000000       0.33333333 </v>
   <v>      -0.25000000       0.50000000       0.33333333 </v>
   <v>      -0.16666667       0.50000000       0.33333333 </v>
   <v>      -0.08333333       0.50000000       0.33333333 </v>
   <v>      -0.00000000      -0.41666667       0.33333333 </v>
   <v>       0.08333333      -0.41666667       0.33333333 </v>
   <v>       0.16666667      -0.41666667       0.33333333 </v>
   <v>       0.25000000      -0.41666667       0.33333333 </v>
   <v>       0.33333333      -0.41666667       0.33333333 </v>
   <v>       0.41666667      -0.41666667       0.33333333 </v>
   <v>       0.50000000      -0.41666667       0.33333333 </v>
   <v>      -0.41666667      -0.41666667       0.33333333 </v>
   <v>      -0.33333333      -0.41666667       0.33333333 </v>
   <v>      -0.25000000      -0.41666667       0.33333333 </v>
   <v>      -0.16666667      -0.41666667       0.33333333 </v>
   <v>      -0.08333333      -0.41666667       0.33333333 </v>
   <v>      -0.00000000      -0.33333333       0.33333333 </v>
   <v>       0.08333333      -0.33333333       0.33333333 </v>
   <v>       0.16666667      -0.33333333       0.33333333 </v>
   <v>       0.41666667      -0.33333333       0.33333333 </v>
   <v>       0.50000000      -0.33333333       0.33333333 </v>
   <v>      -0.41666667      -0.33333333       0.33333333 </v>
   <v>      -0.33333333      -0.33333333       0.33333333 </v>
   <v>      -0.00000000      -0.00000000       0.41666667 </v>
   <v>       0.08333333      -0.00000000       0.41666667 </v>
   <v>       0.16666667       0.00000000       0.41666667 </v>
   <v>       0.25000000      -0.00000000       0.41666667 </v>
   <v>       0.33333333      -0.00000000       0.41666667 </v>
   <v>       0.41666667      -0.00000000       0.41666667 </v>
   <v>       0.50000000      -0.00000000       0.41666667 </v>
   <v>      -0.41666667      -0.00000000       0.41666667 </v>
   <v>      -0.33333333       0.00000000       0.41666667 </v>
   <v>      -0.25000000       0.00000000       0.41666667 </v>
   <v>      -0.16666667      -0.00000000       0.41666667 </v>
   <v>      -0.08333333       0.00000000       0.41666667 </v>
   <v>      -0.00000000       0.08333333       0.41666667 </v>
   <v>       0.08333333       0.08333333       0.41666667 </v>
   <v>       0.16666667       0.08333333       0.41666667 </v>
   <v>       0.25000000       0.08333333       0.41666667 </v>
   <v>       0.33333333       0.08333333       0.41666667 </v>
   <v>       0.41666667       0.08333333       0.41666667 </v>
   <v>       0.50000000       0.08333333       0.41666667 </v>
   <v>      -0.41666667       0.08333333       0.41666667 </v>
   <v>      -0.33333333       0.08333333       0.41666667 </v>
   <v>      -0.25000000       0.08333333       0.41666667 </v>
   <v>      -0.16666667       0.08333333       0.41666667 </v>
   <v>      -0.08333333       0.08333333       0.41666667 </v>
   <v>       0.00000000       0.16666667       0.41666667 </v>
   <v>       0.08333333       0.16666667       0.41666667 </v>
   <v>       0.16666667       0.16666667       0.41666667 </v>
   <v>       0.25000000       0.16666667       0.41666667 </v>
   <v>       0.33333333       0.16666667       0.41666667 </v>
   <v>       0.41666667       0.16666667       0.41666667 </v>
   <v>       0.50000000       0.16666667       0.41666667 </v>
   <v>      -0.41666667       0.16666667       0.41666667 </v>
   <v>      -0.33333333       0.16666667       0.41666667 </v>
   <v>      -0.25000000       0.16666667       0.41666667 </v>
   <v>      -0.16666667       0.16666667       0.41666667 </v>
   <v>      -0.08333333       0.16666667       0.41666667 </v>
   <v>      -0.00000000       0.50000000       0.41666667 </v>
   <v>       0.08333333       0.50000000       0.41666667 </v>
   <v>       0.16666667       0.50000000       0.41666667 </v>
   <v>       0.25000000       0.50000000       0.41666667 </v>
   <v>       0.33333333       0.50000000       0.41666667 </v>
   <v>       0.41666667       0.50000000       0.41666667 </v>
   <v>       0.50000000       0.50000000       0.41666667 </v>
   <v>      -0.41666667       0.50000000       0.41666667 </v>
   <v>      -0.33333333       0.50000000       0.41666667 </v>
   <v>      -0.25000000       0.50000000       0.41666667 </v>
   <v>      -0.16666667       0.50000000       0.41666667 </v>
   <v>      -0.08333333       0.50000000       0.41666667 </v>
   <v>      -0.00000000      -0.41666667       0.41666667 </v>
   <v>       0.08333333      -0.41666667       0.41666667 </v>
   <v>       0.16666667      -0.41666667       0.41666667 </v>
   <v>       0.25000000      -0.41666667       0.41666667 </v>
   <v>       0.33333333      -0.41666667       0.41666667 </v>
   <v>       0.41666667      -0.41666667       0.41666667 </v>
   <v>       0.50000000      -0.41666667       0.41666667 </v>
   <v>      -0.41666667      -0.41666667       0.41666667 </v>
   <v>      -0.33333333      -0.41666667       0.41666667 </v>
   <v>      -0.25000000      -0.41666667       0.41666667 </v>
   <v>      -0.16666667      -0.41666667       0.41666667 </v>
   <v>      -0.08333333      -0.41666667       0.41666667 </v>
   <v>       0.00000000      -0.33333333       0.41666667 </v>
   <v>       0.08333333      -0.33333333       0.41666667 </v>
   <v>       0.16666667      -0.33333333       0.41666667 </v>
   <v>       0.25000000      -0.33333333       0.41666667 </v>
   <v>       0.33333333      -0.33333333       0.41666667 </v>
   <v>       0.41666667      -0.33333333       0.41666667 </v>
   <v>       0.50000000      -0.33333333       0.41666667 </v>
   <v>      -0.41666667      -0.33333333       0.41666667 </v>
   <v>      -0.33333333      -0.33333333       0.41666667 </v>
   <v>      -0.25000000      -0.33333333       0.41666667 </v>
   <v>      -0.16666667      -0.33333333       0.41666667 </v>
   <v>      -0.08333333      -0.33333333       0.41666667 </v>
   <v>      -0.00000000       0.00000000       0.50000000 </v>
   <v>       0.08333333       0.00000000       0.50000000 </v>
   <v>       0.16666667      -0.00000000       0.50000000 </v>
   <v>       0.25000000       0.00000000       0.50000000 </v>
   <v>       0.33333333      -0.00000000       0.50000000 </v>
   <v>       0.41666667      -0.00000000       0.50000000 </v>
   <v>       0.50000000      -0.00000000       0.50000000 </v>
   <v>       0.00000000       0.08333333       0.50000000 </v>
   <v>       0.08333333       0.08333333       0.50000000 </v>
   <v>       0.16666667       0.08333333       0.50000000 </v>
   <v>       0.25000000       0.08333333       0.50000000 </v>
   <v>       0.33333333       0.08333333       0.50000000 </v>
   <v>       0.41666667       0.08333333       0.50000000 </v>
   <v>       0.50000000       0.08333333       0.50000000 </v>
   <v>      -0.41666667       0.08333333       0.50000000 </v>
   <v>      -0.33333333       0.08333333       0.50000000 </v>
   <v>      -0.25000000       0.08333333       0.50000000 </v>
   <v>      -0.16666667       0.08333333       0.50000000 </v>
   <v>      -0.08333333       0.08333333       0.50000000 </v>
   <v>      -0.00000000       0.16666667       0.50000000 </v>
   <v>       0.08333333       0.16666667       0.50000000 </v>
   <v>       0.16666667       0.16666667       0.50000000 </v>
   <v>       0.25000000       0.16666667       0.50000000 </v>
   <v>       0.33333333       0.16666667       0.50000000 </v>
   <v>       0.41666667       0.16666667       0.50000000 </v>
   <v>       0.50000000       0.16666667       0.50000000 </v>
   <v>      -0.41666667       0.16666667       0.50000000 </v>
   <v>      -0.33333333       0.16666667       0.50000000 </v>
   <v>      -0.25000000       0.16666667       0.50000000 </v>
   <v>      -0.16666667       0.16666667       0.50000000 </v>
   <v>      -0.08333333       0.16666667       0.50000000 </v>
   <v>      -0.00000000       0.25000000       0.50000000 </v>
   <v>       0.08333333       0.25000000       0.50000000 </v>
   <v>       0.16666667       0.25000000       0.50000000 </v>
   <v>       0.25000000       0.25000000       0.50000000 </v>
   <v>      -0.41666667       0.25000000       0.50000000 </v>
   <v>      -0.33333333       0.25000000       0.50000000 </v>
   <v>      -0.25000000       0.25000000       0.50000000 </v>
  </varray>
  <varray name="weights" >
   <v>       0.00057870 </v>
   <v>       0.00115741 </v>
   <v>       0.00115741 </v>
   <v>       0.00115741 </v>
   <v>       0.00115741 </v>
   <v>       0.00115741 </v>
   <v>       0.00057870 </v>
   <v>       0.00115741 </v>
   <v>       0.00115741 </v>
   <v>       0.00115741 </v>
   <v>       0.00115741 </v>
   <v>       0.00115741 </v>
   <v>       0.00115741 </v>
   <v>       0.00115741 </v>
   <v>       0.00115741 </v>
   <v>       0.00115741 </v>
   <v>       0.00115741 </v>
   <v>       0.00115741 </v>
   <v>       0.00115741 </v>
   <v>       0.00115741 </v>
   <v>       0.00115741 </v>
   <v>       0.00115741 </v>
   <v>       0.00115741 </v>
   <v>       0.00115741 </v>
   <v>       0.00115741 </v>
   <v>       0.00115741 </v>
   <v>       0.00115741 </v>
   <v>       0.00115741 </v>
   <v>       0.00115741 </v>
   <v>       0.00115741 </v>
   <v>       0.00115741 </v>
   <v>       0.00115741 </v>
   <v>       0.00115741 </v>
   <v>       0.00115741 </v>
   <v>       0.00115741 </v>
   <v>       0.00115741 </v>
   <v>       0.00115741 </v>
   <v>       0.00115741 </v>
   <v>       0.00115741 </v>
   <v>       0.00115741 </v>
   <v>       0.00115741 </v>
   <v>       0.00115741 </v>
   <v>       0.00115741 </v>
   <v>       0.00115741 </v>
   <v>       0.00115741 </v>
   <v>       0.00115741 </v>
   <v>       0.00115741 </v>
   <v>       0.00115741 </v>
   <v>       0.00115741 </v>
   <v>       0.00115741 </v>
   <v>       0.00115741 </v>
   <v>       0.00115741 </v>
   <v>       0.00115741 </v>
   <v>       0.00115741 </v>
   <v>       0.00115741 </v>
   <v>       0.00115741 </v>
   <v>       0.00115741 </v>
   <v>       0.00115741 </v>
   <v>       0.00115741 </v>
   <v>       0.00115741 </v>
   <v>       0.00115741 </v>
   <v>       0.00115741 </v>
   <v>       0.00115741 </v>
   <v>       0.00115741 </v>
   <v>       0.00115741 </v>
   <v>       0.00115741 </v>
   <v>       0.00115741 </v>
   <v>       0.00057870 </v>
   <v>       0.00115741 </v>
   <v>       0.00115741 </v>
   <v>       0.00115741 </v>
   <v>       0.00115741 </v>
   <v>       0.00115741 </v>
   <v>       0.00057870 </v>
   <v>       0.00231481 </v>
   <v>       0.00231481 </v>
   <v>       0.00231481 </v>
   <v>       0.00231481 </v>
   <v>       0.00231481 </v>
   <v>       0.00231481 </v>
   <v>       0.00231481 </v>
   <v>       0.00231481 </v>
   <v>       0.00231481 </v>
   <v>       0.00231481 </v>
   <v>       0.00231481 </v>
   <v>       0.00231481 </v>
   <v>       0.00231481 </v>
   <v>       0.00231481 </v>
   <v>       0.00231481 </v>
   <v>       0.00231481 </v>
   <v>       0.00231481 </v>
   <v>       0.00231481 </v>
   <v>       0.00231481 </v>
   <v>       0.00231481 </v>
   <v>       0.00231481 </v>
   <v>       0.00231481 </v>
   <v>       0.00231481 </v>
   <v>       0.00231481 </v>
   <v>       0.00231481 </v>
   <v>       0.00231481 </v>
   <v>       0.00231481 </v>
   <v>       0.00231481 </v>
   <v>       0.00231481 </v>
   <v>       0.00231481 </v>
   <v>       0.00231481 </v>
   <v>       0.00231481 </v>
   <v>       0.00231481 </v>
   <v>       0.00231481 </v>
   <v>       0.00231481 </v>
   <v>       0.00231481 </v>
   <v>       0.00231481 </v>
   <v>       0.00231481 </v>
   <v>       0.00231481 </v>
   <v>       0.00231481 </v>
   <v>       0.00231481 </v>
   <v>       0.00231481 </v>
   <v>       0.00231481 </v>
   <v>       0.00231481 </v>
   <v>       0.00231481 </v>
   <v>       0.00231481 </v>
   <v>       0.00231481 </v>
   <v>       0.00231481 </v>
   <v>       0.00231481 </v>
   <v>       0.00231481 </v>
   <v>       0.00231481 </v>
   <v>       0.00231481 </v>
   <v>       0.00231481 </v>
   <v>       0.00231481 </v>
   <v>       0.00231481 </v>
   <v>       0.00231481 </v>
   <v>       0.00231481 </v>
   <v>       0.00231481 </v>
   <v>       0.00231481 </v>
   <v>       0.00231481 </v>
   <v>       0.00231481 </v>
   <v>       0.00231481 </v>
   <v>       0.00231481 </v>
   <v>       0.00231481 </v>
   <v>       0.00231481 </v>
   <v>       0.00231481 </v>
   <v>       0.00231481 </v>
   <v>       0.00231481 </v>
   <v>       0.00231481 </v>
   <v>       0.00231481 </v>
   <v>       0.00231481 </v>
   <v>       0.00231481 </v>
   <v>       0.00231481 </v>
   <v>       0.00231481 </v>
   <v>       0.00231481 </v>
   <v>       0.00231481 </v>
   <v>       0.00231481 </v>
   <v>       0.00231481 </v>
   <v>       0.00231481 </v>
   <v>       0.00231481 </v>
   <v>       0.00231481 </v>
   <v>       0.00231481 </v>
   <v>       0.00231481 </v>
   <v>       0.00231481 </v>
   <v>       0.00231481 </v>
   <v>       0.00115741 </v>
   <v>       0.00231481 </v>
   <v>       0.00231481 </v>
   <v>       0.00231481 </v>
   <v>       0.00231481 </v>
   <v>       0.00115741 </v>
   <v>       0.00231481 </v>
   <v>       0.00231481 </v>
   <v>       0.00231481 </v>
   <v>       0.00231481 </v>
   <v>       0.00231481 </v>
   <v>       0.00231481 </v>
   <v>       0.00231481 </v>
   <v>       0.00231481 </v>
   <v>       0.00231481 </v>
   <v>       0.00231481 </v>
   <v>       0.00231481 </v>
   <v>       0.00231481 </v>
   <v>       0.00231481 </v>
   <v>       0.00231481 </v>
   <v>       0.00231481 </v>
   <v>       0.00231481 </v>
   <v>       0.00231481 </v>
   <v>       0.00231481 </v>
   <v>       0.00231481 </v>
   <v>       0.00231481 </v>
   <v>       0.00231481 </v>
   <v>       0.00231481 </v>
   <v>       0.00231481 </v>
   <v>       0.00231481 </v>
   <v>       0.00231481 </v>
   <v>       0.00231481 </v>
   <v>       0.00231481 </v>
   <v>       0.00231481 </v>
   <v>       0.00231481 </v>
   <v>       0.00231481 </v>
   <v>       0.00231481 </v>
   <v>       0.00231481 </v>
   <v>       0.00231481 </v>
   <v>       0.00231481 </v>
   <v>       0.00231481 </v>
   <v>       0.00231481 </v>
   <v>       0.00231481 </v>
   <v>       0.00231481 </v>
   <v>       0.00231481 </v>
   <v>       0.00231481 </v>
   <v>       0.00231481 </v>
   <v>       0.00231481 </v>
   <v>       0.00231481 </v>
   <v>       0.00231481 </v>
   <v>       0.00231481 </v>
   <v>       0.00231481 </v>
   <v>       0.00231481 </v>
   <v>       0.00231481 </v>
   <v>       0.00231481 </v>
   <v>       0.00115741 </v>
   <v>       0.00231481 </v>
   <v>       0.00231481 </v>
   <v>       0.00231481 </v>
   <v>       0.00231481 </v>
   <v>       0.00115741 </v>
   <v>       0.00231481 </v>
   <v>       0.00231481 </v>
   <v>       0.00231481 </v>
   <v>       0.00231481 </v>
   <v>       0.00231481 </v>
   <v>       0.00231481 </v>
   <v>       0.00231481 </v>
   <v>       0.00231481 </v>
   <v>       0.00231481 </v>
   <v>       0.00231481 </v>
   <v>       0.00231481 </v>
   <v>       0.00231481 </v>
   <v>       0.00231481 </v>
   <v>       0.00231481 </v>
   <v>       0.00231481 </v>
   <v>       0.00231481 </v>
   <v>       0.00231481 </v>
   <v>       0.00231481 </v>
   <v>       0.00231481 </v>
   <v>       0.00231481 </v>
   <v>       0.00231481 </v>
   <v>       0.00231481 </v>
   <v>       0.00231481 </v>
   <v>       0.00231481 </v>
   <v>       0.00231481 </v>
   <v>       0.00231481 </v>
   <v>       0.00231481 </v>
   <v>       0.00231481 </v>
   <v>       0.00231481 </v>
   <v>       0.00231481 </v>
   <v>       0.00231481 </v>
   <v>       0.00231481 </v>
   <v>       0.00231481 </v>
   <v>       0.00231481 </v>
   <v>       0.00231481 </v>
   <v>       0.00231481 </v>
   <v>       0.00231481 </v>
   <v>       0.00231481 </v>
   <v>       0.00231481 </v>
   <v>       0.00231481 </v>
   <v>       0.00231481 </v>
   <v>       0.00231481 </v>
   <v>       0.00231481 </v>
   <v>       0.00231481 </v>
   <v>       0.00231481 </v>
   <v>       0.00231481 </v>
   <v>       0.00231481 </v>
   <v>       0.00231481 </v>
   <v>       0.00231481 </v>
   <v>       0.00231481 </v>
   <v>       0.00231481 </v>
   <v>       0.00231481 </v>
   <v>       0.00231481 </v>
   <v>       0.00231481 </v>
   <v>       0.00231481 </v>
   <v>       0.00231481 </v>
   <v>       0.00231481 </v>
   <v>       0.00231481 </v>
   <v>       0.00231481 </v>
   <v>       0.00231481 </v>
   <v>       0.00231481 </v>
   <v>       0.00231481 </v>
   <v>       0.00231481 </v>
   <v>       0.00231481 </v>
   <v>       0.00231481 </v>
   <v>       0.00231481 </v>
   <v>       0.00231481 </v>
   <v>       0.00231481 </v>
   <v>       0.00231481 </v>
   <v>       0.00231481 </v>
   <v>       0.00231481 </v>
   <v>       0.00231481 </v>
   <v>       0.00231481 </v>
   <v>       0.00231481 </v>
   <v>       0.00231481 </v>
   <v>       0.00231481 </v>
   <v>       0.00231481 </v>
   <v>       0.00231481 </v>
   <v>       0.00231481 </v>
   <v>       0.00231481 </v>
   <v>       0.00231481 </v>
   <v>       0.00231481 </v>
   <v>       0.00231481 </v>
   <v>       0.00231481 </v>
   <v>       0.00231481 </v>
   <v>       0.00231481 </v>
   <v>       0.00231481 </v>
   <v>       0.00231481 </v>
   <v>       0.00231481 </v>
   <v>       0.00231481 </v>
   <v>       0.00231481 </v>
   <v>       0.00231481 </v>
   <v>       0.00231481 </v>
   <v>       0.00231481 </v>
   <v>       0.00231481 </v>
   <v>       0.00231481 </v>
   <v>       0.00231481 </v>
   <v>       0.00231481 </v>
   <v>       0.00115741 </v>
   <v>       0.00231481 </v>
   <v>       0.00231481 </v>
   <v>       0.00231481 </v>
   <v>       0.00115741 </v>
   <v>       0.00231481 </v>
   <v>       0.00231481 </v>
   <v>       0.00231481 </v>
   <v>       0.00231481 </v>
   <v>       0.00231481 </v>
   <v>       0.00231481 </v>
   <v>       0.00231481 </v>
   <v>       0.00231481 </v>
   <v>       0.00231481 </v>
   <v>       0.00231481 </v>
   <v>       0.00231481 </v>
   <v>       0.00231481 </v>
   <v>       0.00231481 </v>
   <v>       0.00231481 </v>
   <v>       0.00231481 </v>
   <v>       0.00231481 </v>
   <v>       0.00231481 </v>
   <v>       0.00231481 </v>
   <v>       0.00231481 </v>
   <v>       0.00231481 </v>
   <v>       0.00231481 </v>
   <v>       0.00231481 </v>
   <v>       0.00231481 </v>
   <v>       0.00231481 </v>
   <v>       0.00231481 </v>
   <v>       0.00231481 </v>
   <v>       0.00231481 </v>
   <v>       0.00231481 </v>
   <v>       0.00231481 </v>
   <v>       0.00231481 </v>
   <v>       0.00231481 </v>
   <v>       0.00231481 </v>
   <v>       0.00231481 </v>
   <v>       0.00231481 </v>
   <v>       0.00231481 </v>
   <v>       0.00231481 </v>
   <v>       0.00231481 </v>
   <v>       0.00231481 </v>
   <v>       0.00115741 </v>
   <v>       0.00231481 </v>
   <v>       0.00231481 </v>
   <v>       0.00231481 </v>
   <v>       0.00115741 </v>
   <v>       0.00231481 </v>
   <v>       0.00231481 </v>
   <v>       0.00231481 </v>
   <v>       0.00231481 </v>
   <v>       0.00231481 </v>
   <v>       0.00231481 </v>
   <v>       0.00231481 </v>
   <v>       0.00231481 </v>
   <v>       0.00231481 </v>
   <v>       0.00231481 </v>
   <v>       0.00231481 </v>
   <v>       0.00231481 </v>
   <v>       0.00231481 </v>
   <v>       0.00231481 </v>
   <v>       0.00231481 </v>
   <v>       0.00231481 </v>
   <v>       0.00231481 </v>
   <v>       0.00231481 </v>
   <v>       0.00231481 </v>
   <v>       0.00231481 </v>
   <v>       0.00231481 </v>
   <v>       0.00231481 </v>
   <v>       0.00231481 </v>
   <v>       0.00231481 </v>
   <v>       0.00231481 </v>
   <v>       0.00231481 </v>
   <v>       0.00231481 </v>
   <v>       0.00231481 </v>
   <v>       0.00231481 </v>
   <v>       0.00231481 </v>
   <v>       0.00231481 </v>
   <v>       0.00231481 </v>
   <v>       0.00231481 </v>
   <v>       0.00231481 </v>
   <v>       0.00231481 </v>
   <v>       0.00231481 </v>
   <v>       0.00231481 </v>
   <v>       0.00231481 </v>
   <v>       0.00231481 </v>
   <v>       0.00231481 </v>
   <v>       0.00231481 </v>
   <v>       0.00231481 </v>
   <v>       0.00231481 </v>
   <v>       0.00231481 </v>
   <v>       0.00231481 </v>
   <v>       0.00231481 </v>
   <v>       0.00231481 </v>
   <v>       0.00231481 </v>
   <v>       0.00231481 </v>
   <v>       0.00231481 </v>
   <v>       0.00231481 </v>
   <v>       0.00231481 </v>
   <v>       0.00231481 </v>
   <v>       0.00231481 </v>
   <v>       0.00231481 </v>
   <v>       0.00231481 </v>
   <v>       0.00231481 </v>
   <v>       0.00231481 </v>
   <v>       0.00231481 </v>
   <v>       0.00231481 </v>
   <v>       0.00231481 </v>
   <v>       0.00231481 </v>
   <v>       0.00231481 </v>
   <v>       0.00231481 </v>
   <v>       0.00231481 </v>
   <v>       0.00231481 </v>
   <v>       0.00231481 </v>
   <v>       0.00231481 </v>
   <v>       0.00231481 </v>
   <v>       0.00231481 </v>
   <v>       0.00231481 </v>
   <v>       0.00231481 </v>
   <v>       0.00115741 </v>
   <v>       0.00231481 </v>
   <v>       0.00231481 </v>
   <v>       0.00231481 </v>
   <v>       0.00231481 </v>
   <v>       0.00231481 </v>
   <v>       0.00115741 </v>
   <v>       0.00231481 </v>
   <v>       0.00231481 </v>
   <v>       0.00231481 </v>
   <v>       0.00231481 </v>
   <v>       0.00231481 </v>
   <v>       0.00231481 </v>
   <v>       0.00231481 </v>
   <v>       0.00231481 </v>
   <v>       0.00231481 </v>
   <v>       0.00231481 </v>
   <v>       0.00231481 </v>
   <v>       0.00231481 </v>
   <v>       0.00231481 </v>
   <v>       0.00231481 </v>
   <v>       0.00231481 </v>
   <v>       0.00231481 </v>
   <v>       0.00231481 </v>
   <v>       0.00231481 </v>
   <v>       0.00231481 </v>
   <v>       0.00231481 </v>
   <v>       0.00231481 </v>
   <v>       0.00231481 </v>
   <v>       0.00231481 </v>
   <v>       0.00231481 </v>
   <v>       0.00231481 </v>
   <v>       0.00231481 </v>
   <v>       0.00231481 </v>
   <v>       0.00115741 </v>
   <v>       0.00231481 </v>
   <v>       0.00231481 </v>
   <v>       0.00115741 </v>
  </varray>
 </kpoints>
 <parameters>
  <separator name="general" >
   <i type="string" name="SYSTEM">unknown system</i>
   <i type="logical" name="LCOMPAT"> F  </i>
  </separator>
  <separator name="electronic" >
   <i type="string" name="PREC">accura</i>
   <i name="ENMAX">    520.00000000</i>
   <i name="ENAUG">    644.87300000</i>
   <i name="EDIFF">      0.00000001</i>
   <i type="int" name="IALGO">    38</i>
   <i type="int" name="IWAVPR">    11</i>
   <i type="int" name="NBANDS">     8</i>
   <i name="NELECT">      8.00000000</i>
   <i type="int" name="TURBO">     0</i>
   <i type="int" name="IRESTART">     0</i>
   <i type="int" name="NREBOOT">     0</i>
   <i type="int" name="NMIN">     0</i>
   <i name="EREF">      0.00000000</i>
   <separator name="electronic smearing" >
    <i type="int" name="ISMEAR">     0</i>
    <i name="SIGMA">      0.01000000</i>
    <i name="KSPACING">      0.50000000</i>
    <i type="logical" name="KGAMMA"> T  </i>
   </separator>
   <separator name="electronic projectors" >
    <i type="logical" name="LREAL"> F  </i>
    <v name="ROPT">      0.00000000      0.00000000</v>
    <i type="int" name="LMAXPAW">  -100</i>
    <i type="int" name="LMAXMIX">     2</i>
    <i type="logical" name="NLSPLINE"> F  </i>
   </separator>
   <separator name="electronic startup" >
    <i type="int" name="ISTART">     0</i>
    <i type="int" name="ICHARG">     2</i>
    <i type="int" name="INIWAV">     1</i>
   </separator>
   <separator name="electronic spin" >
    <i type="int" name="ISPIN">     1</i>
    <i type="logical" name="LNONCOLLINEAR"> F  </i>
    <v name="MAGMOM">      1.00000000      1.00000000</v>
    <i name="NUPDOWN">     -1.00000000</i>
    <i type="logical" name="LSORBIT"> F  </i>
    <v name="SAXIS">      0.00000000      0.00000000      1.00000000</v>
    <i type="logical" name="LSPIRAL"> F  </i>
    <v name="QSPIRAL">      0.00000000      0.00000000      0.00000000</v>
    <i type="logical" name="LZEROZ"> F  </i>
   </separator>
   <separator name="electronic exchange-correlation" >
    <i type="logical" name="LASPH"> F  </i>
    <i type="logical" name="LMETAGGA"> F  </i>
   </separator>
   <separator name="electronic convergence" >
    <i type="int" name="NELM">   100</i>
    <i type="int" name="NELMDL">    -5</i>
    <i type="int" name="NELMIN">     2</i>
    <i name="ENINI">    520.00000000</i>
    <separator name="electronic convergence detail" >
     <i type="logical" name="LDIAG"> T  </i>
     <i type="logical" name="LSUBROT"> F  </i>
     <i name="WEIMIN">      0.00100000</i>
     <i name="EBREAK">      0.00000000</i>
     <i name="DEPER">      0.30000000</i>
     <i type="int" name="NRMM">     4</i>
     <i name="TIME">      0.40000000</i>
    </separator>
   </separator>
   <separator name="electronic mixer" >
    <i name="AMIX">      0.40000000</i>
    <i name="BMIX">      1.00000000</i>
    <i name="AMIN">      0.10000000</i>
    <i name="AMIX_MAG">      1.60000000</i>
    <i name="BMIX_MAG">      1.00000000</i>
    <separator name="electronic mixer details" >
     <i type="int" name="IMIX">     4</i>
     <i type="logical" name="MIXFIRST"> F  </i>
     <i type="int" name="MAXMIX">   -45</i>
     <i name="WC">    100.00000000</i>
     <i type="int" name="INIMIX">     1</i>
     <i type="int" name="MIXPRE">     1</i>
     <i type="int" name="MREMOVE">     5</i>
    </separator>
   </separator>
   <separator name="electronic dipolcorrection" >
    <i type="logical" name="LDIPOL"> F  </i>
    <i type="logical" name="LMONO"> F  </i>
    <i type="int" name="IDIPOL">     0</i>
    <i name="EPSILON">      1.00000000</i>
    <v name="DIPOL">   -100.00000000   -100.00000000   -100.00000000</v>
    <i name="EFIELD">      0.00000000</i>
   </separator>
  </separator>
  <separator name="grids" >
   <i type="int" name="NGX">    24</i>
   <i type="int" name="NGY">    24</i>
   <i type="int" name="NGZ">    24</i>
   <i type="int" name="NGXF">    48</i>
   <i type="int" name="NGYF">    48</i>
   <i type="int" name="NGZF">    48</i>
   <i type="logical" name="ADDGRID"> F  </i>
  </separator>
  <separator name="ionic" >
   <i type="int" name="NSW">     1</i>
   <i type="int" name="IBRION">     8</i>
   <i type="int" name="MDALGO">     0</i>
   <i type="int" name="ISIF">     2</i>
   <i name="PSTRESS">      0.00000000</i>
   <i name="EDIFFG">      0.00000010</i>
   <i type="int" name="NFREE">     0</i>
   <i name="POTIM">      0.50000000</i>
   <i name="SMASS">     -3.00000000</i>
   <i name="SCALEE">      1.00000000</i>
  </separator>
  <separator name="ionic md" >
   <i name="TEBEG">      0.00010000</i>
   <i name="TEEND">      0.00010000</i>
   <i type="int" name="NBLOCK">     1</i>
   <i type="int" name="KBLOCK">     1</i>
   <i type="int" name="NPACO">   256</i>
   <i name="APACO">     16.00000000</i>
  </separator>
  <separator name="symmetry" >
   <i type="int" name="ISYM">     2</i>
   <i name="SYMPREC">      0.00000001</i>
  </separator>
  <separator name="dos" >
   <i type="int" name="LORBIT">     0</i>
   <v name="RWIGS">     -1.00000000     -1.00000000</v>
   <i type="int" name="NEDOS">   301</i>
   <i name="EMIN">     10.00000000</i>
   <i name="EMAX">    -10.00000000</i>
   <i name="EFERMI">      0.00000000</i>
  </separator>
  <separator name="writing" >
   <i type="int" name="NWRITE">     2</i>
   <i type="logical" name="LWAVE"> F  </i>
   <i type="logical" name="LDOWNSAMPLE"> F  </i>
   <i type="logical" name="LCHARG"> T  </i>
   <i type="logical" name="LPARD"> F  </i>
   <i type="logical" name="LVTOT"> F  </i>
   <i type="logical" name="LVHAR"> F  </i>
   <i type="logical" name="LELF"> F  </i>
   <i type="logical" name="LOPTICS"> F  </i>
   <v name="STM">      0.00000000      0.00000000      0.00000000      0.00000000      0.00000000      0.00000000      0.00000000</v>
  </separator>
  <separator name="performance" >
   <i type="int" name="NPAR">     8</i>
   <i type="int" name="NSIM">     4</i>
   <i type="int" name="NBLK">    -1</i>
   <i type="logical" name="LPLANE"> T  </i>
   <i type="logical" name="LSCALAPACK"> T  </i>
   <i type="logical" name="LSCAAWARE"> F  </i>
   <i type="logical" name="LSCALU"> F  </i>
   <i type="logical" name="LASYNC"> F  </i>
   <i type="logical" name="LORBITALREAL"> F  </i>
  </separator>
  <separator name="miscellaneous" >
   <i type="int" name="IDIOT">     3</i>
   <i type="int" name="ISPECIAL">     0</i>
   <i type="logical" name="LMUSIC"> F  </i>
   <v name="POMASS">     28.08500000     12.01100000</v>
   <v name="DARWINR">      0.00000000      0.00000000</v>
   <v name="DARWINV">      1.00000000      1.00000000</v>
   <i type="logical" name="LCORR"> T  </i>
  </separator>
  <i type="logical" name="GGA_COMPAT"> T  </i>
  <i type="logical" name="LBERRY"> F  </i>
  <i type="int" name="ICORELEVEL">     0</i>
  <i type="logical" name="LDAU"> F  </i>
  <i type="int" name="I_CONSTRAINED_M">     0</i>
  <separator name="electronic exchange-correlation" >
   <i type="string" name="GGA">--</i>
   <i type="int" name="VOSKOWN">     0</i>
   <i type="logical" name="LHFCALC"> F  </i>
   <i type="string" name="PRECFOCK"></i>
   <i type="logical" name="LSYMGRAD"> F  </i>
   <i type="logical" name="LHFONE"> F  </i>
   <i type="logical" name="LRHFCALC"> F  </i>
   <i type="logical" name="LTHOMAS"> F  </i>
   <i type="logical" name="LMODELHF"> F  </i>
   <i name="ENCUT4O">     -1.00000000</i>
   <i type="int" name="EXXOEP">     0</i>
   <i type="int" name="FOURORBIT">     0</i>
   <i name="AEXX">      0.00000000</i>
   <i name="HFALPHA">      0.00000000</i>
   <i name="MCALPHA">      0.00000000</i>
   <i name="ALDAX">      1.00000000</i>
   <i name="AGGAX">      1.00000000</i>
   <i name="ALDAC">      1.00000000</i>
   <i name="AGGAC">      1.00000000</i>
   <i type="int" name="NKREDX">     1</i>
   <i type="int" name="NKREDY">     1</i>
   <i type="int" name="NKREDZ">     1</i>
   <i type="logical" name="SHIFTRED"> F  </i>
   <i type="logical" name="ODDONLY"> F  </i>
   <i type="logical" name="EVENONLY"> F  </i>
   <i type="int" name="LMAXFOCK">     0</i>
   <i type="int" name="NMAXFOCKAE">     0</i>
   <i type="logical" name="LFOCKAEDFT"> F  </i>
   <i name="HFSCREEN">      0.00000000</i>
   <i name="HFSCREENC">      0.00000000</i>
   <i type="int" name="NBANDSGWLOW">     0</i>
  </separator>
  <separator name="vdW DFT" >
   <i type="logical" name="LUSE_VDW"> F  </i>
   <i name="Zab_VDW">     -0.84910000</i>
   <i name="PARAM1">      0.12340000</i>
   <i name="PARAM2">      1.00000000</i>
   <i name="PARAM3">      0.00000000</i>
  </separator>
  <separator name="model GW" >
   <i type="int" name="MODEL_GW">     0</i>
   <i name="MODEL_EPS0">      6.19048131</i>
   <i name="MODEL_ALPHA">      1.00000000</i>
  </separator>
  <separator name="linear response parameters" >
   <i type="logical" name="LEPSILON"> T  </i>
   <i type="logical" name="LRPA"> F  </i>
   <i type="logical" name="LNABLA"> F  </i>
   <i type="logical" name="LVEL"> F  </i>
   <i type="int" name="KINTER">     0</i>
   <i name="CSHIFT">      0.10000000</i>
   <i name="OMEGAMAX">     -1.00000000</i>
   <i name="DEG_THRESHOLD">      0.00200000</i>
   <i name="RTIME">     -0.10000000</i>
   <i name="WPLASMAI">      0.00000000</i>
   <v name="DFIELD">      0.00000000      0.00000000      0.00000000</v>
   <v name="WPLASMA">      0.00000000      0.00000000      0.00000000      0.00000000      0.00000000      0.00000000      0.00000000      0.00000000      0.00000000</v>
  </separator>
  <separator name="orbital magnetization" >
   <i type="logical" name="NUCIND"> F  </i>
   <v name="MAGPOS">      0.00000000      0.00000000      0.00000000</v>
   <i type="logical" name="LNICSALL"> T  </i>
   <i type="logical" name="ORBITALMAG"> F  </i>
   <i type="logical" name="LMAGBLOCH"> F  </i>
   <i type="logical" name="LCHIMAG"> F  </i>
   <i type="logical" name="LGAUGE"> T  </i>
   <i type="int" name="MAGATOM">     0</i>
   <v name="MAGDIPOL">      0.00000000      0.00000000      0.00000000</v>
   <v name="AVECCONST">      0.00000000      0.00000000      0.00000000</v>
  </separator>
  <separator name="response functions" >
   <i type="logical" name="LADDER"> F  </i>
   <i type="logical" name="LRPAFORCE"> F  </i>
   <i type="logical" name="LFXC"> F  </i>
   <i type="logical" name="LHARTREE"> T  </i>
   <i type="int" name="IBSE">     0</i>
   <v type="int" name="KPOINT">    -1     0     0     0</v>
   <i type="logical" name="LTCTE"> F  </i>
   <i type="logical" name="LTETE"> F  </i>
   <i type="logical" name="LTRIPLET"> F  </i>
   <i type="logical" name="LFXCEPS"> F  </i>
   <i type="logical" name="LFXHEG"> F  </i>
   <i type="int" name="NATURALO">     2</i>
   <i type="logical" name="L2ORDER"> F  </i>
   <i type="logical" name="LMP2LT"> F  </i>
   <i type="logical" name="LUSEW"> F  </i>
   <i name="ENCUTGW">     -2.00000000</i>
   <i name="ENCUTGWSOFT">     -2.00000000</i>
   <i name="ENCUTLF">     -1.00000000</i>
   <i type="int" name="LMAXMP2">    -1</i>
   <i name="SCISSOR">      0.00000000</i>
   <i type="int" name="NOMEGA">     0</i>
   <i type="int" name="NOMEGAR">     0</i>
   <i type="int" name="NBANDSGW">    -1</i>
   <i type="int" name="NBANDSO">    -1</i>
   <i type="int" name="NBANDSV">    -1</i>
   <i type="int" name="NELM">   100</i>
   <i type="int" name="NELMHF">     1</i>
   <i type="int" name="DIM">     3</i>
   <i type="int" name="ANTIRES">     0</i>
   <i name="OMEGAMAX">    -30.00000000</i>
   <i name="OMEGAMIN">    -30.00000000</i>
   <i name="OMEGATL">   -200.00000000</i>
   <i type="int" name="OMEGAGRID">   140</i>
   <i name="CSHIFT">     -0.10000000</i>
   <i type="logical" name="SELFENERGY"> F  </i>
   <i type="logical" name="LSPECTRAL"> F  </i>
   <i type="logical" name="LSPECTRALGW"> F  </i>
   <i type="logical" name="LSINGLES"> F  </i>
   <i type="logical" name="LFERMIGW"> F  </i>
   <i type="logical" name="ODDONLYGW"> F  </i>
   <i type="logical" name="EVENONLYGW"> F  </i>
   <i type="int" name="NKREDLFX">     1</i>
   <i type="int" name="NKREDLFY">     1</i>
   <i type="int" name="NKREDLFZ">     1</i>
   <i type="int" name="MAXMEM">  2800</i>
   <i type="int" name="TELESCOPE">     0</i>
   <i type="int" name="TAUPAR">     1</i>
   <i type="int" name="OMEGAPAR">    -1</i>
   <i name="LAMBDA">      1.00000000</i>
  </separator>
  <separator name="External order field" >
   <i name="OFIELD_KAPPA">      0.00000000</i>
   <v name="OFIELD_K">      0.00000000      0.00000000      0.00000000</v>
   <i name="OFIELD_Q6_NEAR">      0.00000000</i>
   <i name="OFIELD_Q6_FAR">      0.00000000</i>
   <i name="OFIELD_A">      0.00000000</i>
  </separator>
 </parameters>
 <atominfo>
  <atoms>       2 </atoms>
  <types>       2 </types>
  <array name="atoms" >
   <dimension dim="1">ion</dimension>
   <field type="string">element</field>
   <field type="int">atomtype</field>
   <set>
    <rc><c>Si</c><c>   1</c></rc>
    <rc><c>C </c><c>   2</c></rc>
   </set>
  </array>
  <array name="atomtypes" >
   <dimension dim="1">type</dimension>
   <field type="int">atomspertype</field>
   <field type="string">element</field>
   <field>mass</field>
   <field>valence</field>
   <field type="string">pseudopotential</field>
   <set>
    <rc><c>   1</c><c>Si</c><c>     28.08500000</c><c>      4.00000000</c><c>  PAW_PBE Si 05Jan2001                  </c></rc>
    <rc><c>   1</c><c>C </c><c>     12.01100000</c><c>      4.00000000</c><c>  PAW_PBE C 08Apr2002                   </c></rc>
   </set>
  </array>
 </atominfo>
 <structure name="initialpos" >
  <crystal>
   <varray name="basis" >
    <v>      -2.17699646       0.00000000       2.17699646 </v>
    <v>       0.00000000       2.17699646       2.17699646 </v>
    <v>      -2.17699646       2.17699646       0.00000000 </v>
   </varray>
   <i name="volume">     20.63493771 </i>
   <varray name="rec_basis" >
    <v>      -0.22967424      -0.22967424       0.22967424 </v>
    <v>       0.22967424       0.22967424       0.22967424 </v>
    <v>      -0.22967424       0.22967424      -0.22967424 </v>
   </varray>
  </crystal>
  <varray name="positions" >
   <v>       0.25000002       0.25000010       0.24999994 </v>
   <v>       0.00000000       0.00000000       0.00000000 </v>
  </varray>
 </structure>
 <calculation>
  <scstep>
   <time name="dav">    0.85    0.85</time>
   <time name="total">    0.86    0.87</time>
   <energy>
    <i name="alphaZ">     11.22463740 </i>
    <i name="ewald">   -285.04868178 </i>
    <i name="hartreedc">    -20.72385278 </i>
    <i name="XCdc">      4.61875737 </i>
    <i name="pawpsdc">    196.64584599 </i>
    <i name="pawaedc">   -179.62196998 </i>
    <i name="eentropy">     -0.00003090 </i>
    <i name="bandstr">     27.77829403 </i>
    <i name="atom">    250.21524468 </i>
    <i name="e_fr_energy">      5.08824405 </i>
    <i name="e_wo_entrp">      5.08827495 </i>
    <i name="e_0_energy">      5.08825950 </i>
   </energy>
  </scstep>
  <scstep>
   <time name="dav">    1.15    1.15</time>
   <time name="total">    1.15    1.15</time>
   <energy>
    <i name="e_fr_energy">    -16.54542738 </i>
    <i name="e_wo_entrp">    -16.54542738 </i>
    <i name="e_0_energy">    -16.54542738 </i>
   </energy>
  </scstep>
  <scstep>
   <time name="dav">    0.91    0.91</time>
   <time name="total">    0.91    0.91</time>
   <energy>
    <i name="e_fr_energy">    -16.91795632 </i>
    <i name="e_wo_entrp">    -16.91795632 </i>
    <i name="e_0_energy">    -16.91795632 </i>
   </energy>
  </scstep>
  <scstep>
   <time name="dav">    1.26    1.26</time>
   <time name="total">    1.26    1.26</time>
   <energy>
    <i name="e_fr_energy">    -16.91915568 </i>
    <i name="e_wo_entrp">    -16.91915568 </i>
    <i name="e_0_energy">    -16.91915568 </i>
   </energy>
  </scstep>
  <scstep>
   <time name="dav">    0.90    0.90</time>
   <time name="total">    0.98    0.99</time>
   <energy>
    <i name="e_fr_energy">    -16.91915630 </i>
    <i name="e_wo_entrp">    -16.91915630 </i>
    <i name="e_0_energy">    -16.91915630 </i>
   </energy>
  </scstep>
  <scstep>
   <time name="dav">    0.84    0.84</time>
   <time name="total">    0.93    0.93</time>
   <energy>
    <i name="e_fr_energy">    -15.11854532 </i>
    <i name="e_wo_entrp">    -15.11854532 </i>
    <i name="e_0_energy">    -15.11854532 </i>
   </energy>
  </scstep>
  <scstep>
   <time name="dav">    1.23    1.23</time>
   <time name="total">    1.33    1.33</time>
   <energy>
    <i name="e_fr_energy">    -15.06392712 </i>
    <i name="e_wo_entrp">    -15.06392712 </i>
    <i name="e_0_energy">    -15.06392712 </i>
   </energy>
  </scstep>
  <scstep>
   <time name="dav">    0.81    0.81</time>
   <time name="total">    0.91    0.91</time>
   <energy>
    <i name="e_fr_energy">    -15.05617507 </i>
    <i name="e_wo_entrp">    -15.05617507 </i>
    <i name="e_0_energy">    -15.05617507 </i>
   </energy>
  </scstep>
  <scstep>
   <time name="dav">    1.18    1.18</time>
   <time name="total">    1.28    1.28</time>
   <energy>
    <i name="e_fr_energy">    -15.05646532 </i>
    <i name="e_wo_entrp">    -15.05646532 </i>
    <i name="e_0_energy">    -15.05646532 </i>
   </energy>
  </scstep>
  <scstep>
   <time name="dav">    1.04    1.04</time>
   <time name="total">    1.14    1.14</time>
   <energy>
    <i name="e_fr_energy">    -15.05657423 </i>
    <i name="e_wo_entrp">    -15.05657423 </i>
    <i name="e_0_energy">    -15.05657423 </i>
   </energy>
  </scstep>
  <scstep>
   <time name="dav">    0.97    0.97</time>
   <time name="total">    1.06    1.06</time>
   <energy>
    <i name="e_fr_energy">    -15.05657510 </i>
    <i name="e_wo_entrp">    -15.05657510 </i>
    <i name="e_0_energy">    -15.05657510 </i>
   </energy>
  </scstep>
  <scstep>
   <time name="dav">    0.93    0.93</time>
   <time name="total">    1.02    1.03</time>
   <energy>
    <i name="e_fr_energy">    -15.05657525 </i>
    <i name="e_wo_entrp">    -15.05657525 </i>
    <i name="e_0_energy">    -15.05657525 </i>
   </energy>
  </scstep>
  <scstep>
   <time name="dav">    1.16    1.16</time>
   <time name="total">    1.26    1.26</time>
   <energy>
    <i name="e_fr_energy">    -15.05657534 </i>
    <i name="e_wo_entrp">    -15.05657534 </i>
    <i name="e_0_energy">    -15.05657534 </i>
   </energy>
  </scstep>
  <scstep>
   <time name="dav">    0.65    0.65</time>
   <time name="total">    0.66    0.66</time>
   <energy>
    <i name="alphaZ">     11.22463740 </i>
    <i name="ewald">   -285.04868178 </i>
    <i name="hartreedc">    -31.85903982 </i>
    <i name="XCdc">      5.67490358 </i>
    <i name="pawpsdc">   1055.04643541 </i>
    <i name="pawaedc">  -1038.21839720 </i>
    <i name="eentropy">     -0.00000000 </i>
    <i name="bandstr">     17.90832238 </i>
    <i name="atom">    250.21524468 </i>
    <i name="e_fr_energy">    -15.05657533 </i>
    <i name="e_wo_entrp">    -15.05657533 </i>
    <i name="e_0_energy">    -15.05657533 </i>
   </energy>
  </scstep>
  <structure>
   <crystal>
    <varray name="basis" >
     <v>      -2.17699646       0.00000000       2.17699646 </v>
     <v>       0.00000000       2.17699646       2.17699646 </v>
     <v>      -2.17699646       2.17699646       0.00000000 </v>
    </varray>
    <i name="volume">     20.63493771 </i>
    <varray name="rec_basis" >
     <v>      -0.22967424      -0.22967424       0.22967424 </v>
     <v>       0.22967424       0.22967424       0.22967424 </v>
     <v>      -0.22967424       0.22967424      -0.22967424 </v>
    </varray>
   </crystal>
   <varray name="positions" >
    <v>       0.25000002       0.25000010       0.24999994 </v>
    <v>       0.00000000       0.00000000       0.00000000 </v>
   </varray>
  </structure>
  <varray name="forces" >
   <v>      -0.00000164      -0.00000164      -0.00000491 </v>
   <v>       0.00000164       0.00000164       0.00000491 </v>
  </varray>
  <varray name="stress" >
   <v>      38.33251586       0.00018603       0.00005697 </v>
   <v>       0.00018603      38.33251586       0.00005697 </v>
   <v>       0.00005739       0.00005739      38.33251532 </v>
  </varray>
  <energy>
   <i name="e_fr_energy">    -15.05657533 </i>
   <i name="e_wo_entrp">    -15.05657533 </i>
   <i name="e_0_energy">     -0.00000000 </i>
  </energy>
  <scstep>
   <time name="total">    0.90    0.90</time>
   <energy>
    <i name="e_fr_energy">     -0.31855000 </i>
    <i name="e_wo_entrp">     -0.31855000 </i>
    <i name="e_0_energy">     -0.31855000 </i>
   </energy>
  </scstep>
  <scstep>
   <time name="total">    0.89    0.89</time>
   <energy>
    <i name="e_fr_energy">     -0.32579180 </i>
    <i name="e_wo_entrp">     -0.32579180 </i>
    <i name="e_0_energy">     -0.32579180 </i>
   </energy>
  </scstep>
  <scstep>
   <time name="total">    0.89    0.89</time>
   <energy>
    <i name="e_fr_energy">     -0.32581164 </i>
    <i name="e_wo_entrp">     -0.32581164 </i>
    <i name="e_0_energy">     -0.32581164 </i>
   </energy>
  </scstep>
  <scstep>
   <time name="total">    0.89    0.89</time>
   <energy>
    <i name="e_fr_energy">     -0.32581182 </i>
    <i name="e_wo_entrp">     -0.32581182 </i>
    <i name="e_0_energy">     -0.32581182 </i>
   </energy>
  </scstep>
  <scstep>
   <time name="total">    0.83    0.83</time>
   <energy>
    <i name="e_fr_energy">     -0.32581183 </i>
    <i name="e_wo_entrp">     -0.32581183 </i>
    <i name="e_0_energy">     -0.32581183 </i>
   </energy>
  </scstep>
  <scstep>
   <time name="total">    0.89    0.89</time>
   <energy>
    <i name="e_fr_energy">     -0.37058097 </i>
    <i name="e_wo_entrp">     -0.37058097 </i>
    <i name="e_0_energy">     -0.37058097 </i>
   </energy>
  </scstep>
  <scstep>
   <time name="total">    0.89    0.89</time>
   <energy>
    <i name="e_fr_energy">     -0.37949112 </i>
    <i name="e_wo_entrp">     -0.37949112 </i>
    <i name="e_0_energy">     -0.37949112 </i>
   </energy>
  </scstep>
  <scstep>
   <time name="total">    0.88    0.88</time>
   <energy>
    <i name="e_fr_energy">     -0.37951424 </i>
    <i name="e_wo_entrp">     -0.37951424 </i>
    <i name="e_0_energy">     -0.37951424 </i>
   </energy>
  </scstep>
  <scstep>
   <time name="total">    0.88    0.88</time>
   <energy>
    <i name="e_fr_energy">     -0.37951446 </i>
    <i name="e_wo_entrp">     -0.37951446 </i>
    <i name="e_0_energy">     -0.37951446 </i>
   </energy>
  </scstep>
  <scstep>
   <time name="total">    0.85    0.85</time>
   <energy>
    <i name="e_fr_energy">     -0.37951446 </i>
    <i name="e_wo_entrp">     -0.37951446 </i>
    <i name="e_0_energy">     -0.37951446 </i>
   </energy>
  </scstep>
  <scstep>
   <time name="total">    0.89    0.89</time>
   <energy>
    <i name="e_fr_energy">     -0.34448588 </i>
    <i name="e_wo_entrp">     -0.34448588 </i>
    <i name="e_0_energy">     -0.34448588 </i>
   </energy>
  </scstep>
  <scstep>
   <time name="total">    0.89    0.89</time>
   <energy>
    <i name="e_fr_energy">     -0.35253772 </i>
    <i name="e_wo_entrp">     -0.35253772 </i>
    <i name="e_0_energy">     -0.35253772 </i>
   </energy>
  </scstep>
  <scstep>
   <time name="total">    0.88    0.88</time>
   <energy>
    <i name="e_fr_energy">     -0.35255917 </i>
    <i name="e_wo_entrp">     -0.35255917 </i>
    <i name="e_0_energy">     -0.35255917 </i>
   </energy>
  </scstep>
  <scstep>
   <time name="total">    0.89    0.89</time>
   <energy>
    <i name="e_fr_energy">     -0.35255937 </i>
    <i name="e_wo_entrp">     -0.35255937 </i>
    <i name="e_0_energy">     -0.35255937 </i>
   </energy>
  </scstep>
  <scstep>
   <time name="total">    0.83    0.83</time>
   <energy>
    <i name="e_fr_energy">     -0.35255937 </i>
    <i name="e_wo_entrp">     -0.35255937 </i>
    <i name="e_0_energy">     -0.35255937 </i>
   </energy>
  </scstep>
  <varray name="epsilon_rpa" >
   <v>       7.18518882      -0.00190238       0.00003600 </v>
   <v>      -0.00190238       7.18518882       0.00003600 </v>
   <v>      -0.00003618      -0.00003618       7.18336877 </v>
  </varray>
  <kpoints>
   <generation param="Gamma">
    <v type="int" name="divisions">      12       12       12 </v>
    <v name="usershift">      0.00000000       0.00000000       0.00000000 </v>
    <v name="genvec1">      0.08333333      -0.00000000      -0.00000000 </v>
    <v name="genvec2">     -0.00000000       0.08333333       0.00000000 </v>
    <v name="genvec3">      0.00000000       0.00000000       0.08333333 </v>
    <v name="shift">      0.00000000       0.00000000       0.00000000 </v>
   </generation>
   <varray name="kpointlist" >
    <v>       0.00000000       0.00000000       0.00000000 </v>
    <v>       0.08333333      -0.00000000      -0.00000000 </v>
    <v>       0.16666667       0.00000000       0.00000000 </v>
    <v>       0.25000000      -0.00000000      -0.00000000 </v>
    <v>       0.33333333       0.00000000       0.00000000 </v>
    <v>       0.41666667       0.00000000      -0.00000000 </v>
    <v>       0.50000000      -0.00000000      -0.00000000 </v>
    <v>      -0.00000000       0.08333333       0.00000000 </v>
    <v>       0.08333333       0.08333333      -0.00000000 </v>
    <v>       0.16666667       0.08333333       0.00000000 </v>
    <v>       0.25000000       0.08333333       0.00000000 </v>
    <v>       0.33333333       0.08333333      -0.00000000 </v>
    <v>       0.41666667       0.08333333       0.00000000 </v>
    <v>       0.50000000       0.08333333      -0.00000000 </v>
    <v>      -0.41666667       0.08333333       0.00000000 </v>
    <v>      -0.33333333       0.08333333      -0.00000000 </v>
    <v>      -0.25000000       0.08333333      -0.00000000 </v>
    <v>      -0.16666667       0.08333333      -0.00000000 </v>
    <v>      -0.08333333       0.08333333       0.00000000 </v>
    <v>      -0.00000000       0.16666667      -0.00000000 </v>
    <v>       0.08333333       0.16666667      -0.00000000 </v>
    <v>       0.16666667       0.16666667      -0.00000000 </v>
    <v>       0.25000000       0.16666667      -0.00000000 </v>
    <v>       0.33333333       0.16666667      -0.00000000 </v>
    <v>       0.41666667       0.16666667      -0.00000000 </v>
    <v>       0.50000000       0.16666667       0.00000000 </v>
    <v>      -0.41666667       0.16666667      -0.00000000 </v>
    <v>      -0.33333333       0.16666667       0.00000000 </v>
    <v>      -0.25000000       0.16666667       0.00000000 </v>
    <v>      -0.16666667       0.16666667      -0.00000000 </v>
    <v>      -0.08333333       0.16666667       0.00000000 </v>
    <v>      -0.00000000       0.25000000      -0.00000000 </v>
    <v>       0.08333333       0.25000000      -0.00000000 </v>
    <v>       0.16666667       0.25000000       0.00000000 </v>
    <v>       0.25000000       0.25000000      -0.00000000 </v>
    <v>       0.33333333       0.25000000      -0.00000000 </v>
    <v>       0.41666667       0.25000000       0.00000000 </v>
    <v>       0.50000000       0.25000000      -0.00000000 </v>
    <v>      -0.41666667       0.25000000       0.00000000 </v>
    <v>      -0.33333333       0.25000000       0.00000000 </v>
    <v>      -0.25000000       0.25000000       0.00000000 </v>
    <v>      -0.16666667       0.25000000       0.00000000 </v>
    <v>      -0.08333333       0.25000000      -0.00000000 </v>
    <v>       0.00000000       0.33333333      -0.00000000 </v>
    <v>       0.08333333       0.33333333      -0.00000000 </v>
    <v>       0.16666667       0.33333333      -0.00000000 </v>
    <v>       0.25000000       0.33333333      -0.00000000 </v>
    <v>       0.33333333       0.33333333      -0.00000000 </v>
    <v>       0.41666667       0.33333333      -0.00000000 </v>
    <v>       0.50000000       0.33333333       0.00000000 </v>
    <v>      -0.41666667       0.33333333       0.00000000 </v>
    <v>      -0.33333333       0.33333333      -0.00000000 </v>
    <v>      -0.25000000       0.33333333       0.00000000 </v>
    <v>      -0.16666667       0.33333333      -0.00000000 </v>
    <v>      -0.08333333       0.33333333      -0.00000000 </v>
    <v>      -0.00000000       0.41666667       0.00000000 </v>
    <v>       0.08333333       0.41666667      -0.00000000 </v>
    <v>       0.16666667       0.41666667       0.00000000 </v>
    <v>       0.25000000       0.41666667      -0.00000000 </v>
    <v>       0.33333333       0.41666667      -0.00000000 </v>
    <v>       0.41666667       0.41666667      -0.00000000 </v>
    <v>       0.50000000       0.41666667      -0.00000000 </v>
    <v>      -0.41666667       0.41666667       0.00000000 </v>
    <v>      -0.33333333       0.41666667      -0.00000000 </v>
    <v>      -0.25000000       0.41666667       0.00000000 </v>
    <v>      -0.16666667       0.41666667      -0.00000000 </v>
    <v>      -0.08333333       0.41666667       0.00000000 </v>
    <v>      -0.00000000       0.50000000      -0.00000000 </v>
    <v>       0.08333333       0.50000000       0.00000000 </v>
    <v>       0.16666667       0.50000000      -0.00000000 </v>
    <v>       0.25000000       0.50000000      -0.00000000 </v>
    <v>       0.33333333       0.50000000      -0.00000000 </v>
    <v>       0.41666667       0.50000000      -0.00000000 </v>
    <v>       0.50000000       0.50000000      -0.00000000 </v>
    <v>       0.00000000       0.00000000       0.08333333 </v>
    <v>       0.08333333      -0.00000000       0.08333333 </v>
    <v>       0.16666667       0.00000000       0.08333333 </v>
    <v>       0.25000000       0.00000000       0.08333333 </v>
    <v>       0.33333333      -0.00000000       0.08333333 </v>
    <v>       0.41666667       0.00000000       0.08333333 </v>
    <v>       0.50000000       0.00000000       0.08333333 </v>
    <v>      -0.41666667       0.00000000       0.08333333 </v>
    <v>      -0.33333333      -0.00000000       0.08333333 </v>
    <v>      -0.25000000      -0.00000000       0.08333333 </v>
    <v>      -0.16666667       0.00000000       0.08333333 </v>
    <v>      -0.08333333       0.00000000       0.08333333 </v>
    <v>      -0.00000000       0.08333333       0.08333333 </v>
    <v>       0.08333333       0.08333333       0.08333333 </v>
    <v>       0.16666667       0.08333333       0.08333333 </v>
    <v>       0.25000000       0.08333333       0.08333333 </v>
    <v>       0.33333333       0.08333333       0.08333333 </v>
    <v>       0.41666667       0.08333333       0.08333333 </v>
    <v>       0.50000000       0.08333333       0.08333333 </v>
    <v>      -0.41666667       0.08333333       0.08333333 </v>
    <v>      -0.33333333       0.08333333       0.08333333 </v>
    <v>      -0.25000000       0.08333333       0.08333333 </v>
    <v>      -0.16666667       0.08333333       0.08333333 </v>
    <v>      -0.08333333       0.08333333       0.08333333 </v>
    <v>       0.00000000       0.16666667       0.08333333 </v>
    <v>       0.08333333       0.16666667       0.08333333 </v>
    <v>       0.16666667       0.16666667       0.08333333 </v>
    <v>       0.25000000       0.16666667       0.08333333 </v>
    <v>       0.33333333       0.16666667       0.08333333 </v>
    <v>       0.41666667       0.16666667       0.08333333 </v>
    <v>       0.50000000       0.16666667       0.08333333 </v>
    <v>      -0.41666667       0.16666667       0.08333333 </v>
    <v>      -0.33333333       0.16666667       0.08333333 </v>
    <v>      -0.25000000       0.16666667       0.08333333 </v>
    <v>      -0.16666667       0.16666667       0.08333333 </v>
    <v>      -0.08333333       0.16666667       0.08333333 </v>
    <v>      -0.00000000       0.25000000       0.08333333 </v>
    <v>       0.08333333       0.25000000       0.08333333 </v>
    <v>       0.16666667       0.25000000       0.08333333 </v>
    <v>       0.25000000       0.25000000       0.08333333 </v>
    <v>       0.33333333       0.25000000       0.08333333 </v>
    <v>       0.41666667       0.25000000       0.08333333 </v>
    <v>       0.50000000       0.25000000       0.08333333 </v>
    <v>      -0.41666667       0.25000000       0.08333333 </v>
    <v>      -0.33333333       0.25000000       0.08333333 </v>
    <v>      -0.25000000       0.25000000       0.08333333 </v>
    <v>      -0.16666667       0.25000000       0.08333333 </v>
    <v>      -0.08333333       0.25000000       0.08333333 </v>
    <v>      -0.00000000       0.33333333       0.08333333 </v>
    <v>       0.08333333       0.33333333       0.08333333 </v>
    <v>       0.16666667       0.33333333       0.08333333 </v>
    <v>       0.25000000       0.33333333       0.08333333 </v>
    <v>       0.33333333       0.33333333       0.08333333 </v>
    <v>       0.41666667       0.33333333       0.08333333 </v>
    <v>       0.50000000       0.33333333       0.08333333 </v>
    <v>      -0.41666667       0.33333333       0.08333333 </v>
    <v>      -0.33333333       0.33333333       0.08333333 </v>
    <v>      -0.25000000       0.33333333       0.08333333 </v>
    <v>      -0.16666667       0.33333333       0.08333333 </v>
    <v>      -0.08333333       0.33333333       0.08333333 </v>
    <v>      -0.00000000       0.41666667       0.08333333 </v>
    <v>       0.08333333       0.41666667       0.08333333 </v>
    <v>       0.16666667       0.41666667       0.08333333 </v>
    <v>       0.25000000       0.41666667       0.08333333 </v>
    <v>       0.33333333       0.41666667       0.08333333 </v>
    <v>       0.41666667       0.41666667       0.08333333 </v>
    <v>       0.50000000       0.41666667       0.08333333 </v>
    <v>      -0.41666667       0.41666667       0.08333333 </v>
[...]
       <r>    0.8700    1.0000 </r>
       <r>    3.5495    1.0000 </r>
       <r>    4.7537    1.0000 </r>
       <r>   11.1942    0.0000 </r>
       <r>   14.4654    0.0000 </r>
       <r>   19.8129    0.0000 </r>
       <r>   21.5537    0.0000 </r>
      </set>
      <set comment="kpoint 466">
       <r>   -2.0869    1.0000 </r>
       <r>    0.8464    1.0000 </r>
       <r>    3.6230    1.0000 </r>
       <r>    3.7482    1.0000 </r>
       <r>   12.1333    0.0000 </r>
       <r>   15.2459    0.0000 </r>
       <r>   18.9962    0.0000 </r>
       <r>   20.3753    0.0000 </r>
      </set>
      <set comment="kpoint 467">
       <r>   -2.2351    1.0000 </r>
       <r>    1.0523    1.0000 </r>
       <r>    2.9961    1.0000 </r>
       <r>    4.2008    1.0000 </r>
       <r>   12.9126    0.0000 </r>
       <r>   16.5351    0.0000 </r>
       <r>   17.8094    0.0000 </r>
       <r>   19.5690    0.0000 </r>
      </set>
      <set comment="kpoint 468">
       <r>   -2.6257    1.0000 </r>
       <r>    0.7569    1.0000 </r>
       <r>    3.4193    1.0000 </r>
       <r>    5.0134    1.0000 </r>
       <r>   13.2640    0.0000 </r>
       <r>   16.0500    0.0000 </r>
       <r>   18.4788    0.0000 </r>
       <r>   19.4453    0.0000 </r>
      </set>
      <set comment="kpoint 469">
       <r>   -3.1011    1.0000 </r>
       <r>    0.4007    1.0000 </r>
       <r>    4.3804    1.0000 </r>
       <r>    5.9002    1.0000 </r>
       <r>   12.9882    0.0000 </r>
       <r>   15.8918    0.0000 </r>
       <r>   18.1621    0.0000 </r>
       <r>   19.0276    0.0000 </r>
      </set>
      <set comment="kpoint 470">
       <r>   -3.3276    1.0000 </r>
       <r>    1.0696    1.0000 </r>
       <r>    4.1784    1.0000 </r>
       <r>    5.8279    1.0000 </r>
       <r>   11.8696    0.0000 </r>
       <r>   16.1243    0.0000 </r>
       <r>   18.6500    0.0000 </r>
       <r>   18.6660    0.0000 </r>
      </set>
      <set comment="kpoint 471">
       <r>   -3.8227    1.0000 </r>
       <r>    1.3887    1.0000 </r>
       <r>    4.7064    1.0000 </r>
       <r>    5.9290    1.0000 </r>
       <r>   12.8170    0.0000 </r>
       <r>   16.0361    0.0000 </r>
       <r>   17.3965    0.0000 </r>
       <r>   18.7803    0.0000 </r>
      </set>
      <set comment="kpoint 472">
       <r>   -4.1447    1.0000 </r>
       <r>    1.8697    1.0000 </r>
       <r>    4.2171    1.0000 </r>
       <r>    6.5720    1.0000 </r>
       <r>   13.7922    0.0000 </r>
       <r>   15.7814    0.0000 </r>
       <r>   17.5555    0.0000 </r>
       <r>   18.2834    0.0000 </r>
      </set>
      <set comment="kpoint 473">
       <r>   -4.2556    1.0000 </r>
       <r>    2.1925    1.0000 </r>
       <r>    3.7940    1.0000 </r>
       <r>    6.9550    1.0000 </r>
       <r>   13.6745    0.0000 </r>
       <r>   16.9234    0.0000 </r>
       <r>   17.1940    0.0000 </r>
       <r>   18.0278    0.0000 </r>
      </set>
      <set comment="kpoint 474">
       <r>   -2.7444    1.0000 </r>
       <r>    0.9743    1.0000 </r>
       <r>    3.4089    1.0000 </r>
       <r>    5.2456    1.0000 </r>
       <r>   12.0668    0.0000 </r>
       <r>   16.1157    0.0000 </r>
       <r>   18.2165    0.0000 </r>
       <r>   20.2825    0.0000 </r>
      </set>
      <set comment="kpoint 475">
       <r>   -2.2351    1.0000 </r>
       <r>    1.0523    1.0000 </r>
       <r>    2.9961    1.0000 </r>
       <r>    4.2008    1.0000 </r>
       <r>   12.9126    0.0000 </r>
       <r>   16.5351    0.0000 </r>
       <r>   17.8094    0.0000 </r>
       <r>   19.5690    0.0000 </r>
      </set>
      <set comment="kpoint 476">
       <r>   -2.0245    1.0000 </r>
       <r>    1.1149    1.0000 </r>
       <r>    3.1384    1.0000 </r>
       <r>    3.4420    1.0000 </r>
       <r>   13.3495    0.0000 </r>
       <r>   17.6064    0.0000 </r>
       <r>   17.6297    0.0000 </r>
       <r>   17.9191    0.0000 </r>
      </set>
     </set>
    </set>
   </array>
  </eigenvalues>
  <separator name="orbital magnetization" >
   <v name="MAGDIPOLOUT">      0.00000000      0.00000000      0.00000000</v>
  </separator>
  <dos>
   <i name="efermi">      8.26397441 </i>
   <total>
    <array>
     <dimension dim="1">gridpoints</dimension>
     <dimension dim="2">spin</dimension>
     <field>energy</field>
     <field>total</field>
     <field>integrated</field>
     <set>
      <set comment="spin 1">
       <r>    -8.7650     0.0000     0.0000 </r>
       <r>    -8.6566     0.0000     0.0000 </r>
       <r>    -8.5482     0.0000     0.0000 </r>
       <r>    -8.4398     0.0000     0.0000 </r>
       <r>    -8.3314     0.0000     0.0000 </r>
       <r>    -8.2231     0.0000     0.0000 </r>
       <r>    -8.1147     0.0000     0.0000 </r>
       <r>    -8.0063     0.0000     0.0000 </r>
       <r>    -7.8979     0.0000     0.0000 </r>
       <r>    -7.7895     0.0000     0.0000 </r>
       <r>    -7.6812     0.0000     0.0000 </r>
       <r>    -7.5728     0.0000     0.0000 </r>
       <r>    -7.4644     0.0000     0.0000 </r>
       <r>    -7.3560     0.0000     0.0000 </r>
       <r>    -7.2477     0.0107     0.0012 </r>
       <r>    -7.1393     0.0812     0.0100 </r>
       <r>    -7.0309     0.0641     0.0174 </r>
       <r>    -6.9225     0.0845     0.0265 </r>
       <r>    -6.8141     0.0001     0.0313 </r>
       <r>    -6.7058     0.0854     0.0683 </r>
       <r>    -6.5974     0.0000     0.0683 </r>
       <r>    -6.4890     0.0641     0.0752 </r>
       <r>    -6.3806     0.4903     0.1284 </r>
       <r>    -6.2723     0.0000     0.1308 </r>
       <r>    -6.1639     0.2563     0.1586 </r>
       <r>    -6.0555     0.3417     0.1956 </r>
       <r>    -5.9471     0.0000     0.1956 </r>
       <r>    -5.8387     0.1282     0.2095 </r>
       <r>    -5.7304     0.4662     0.2600 </r>
       <r>    -5.6220     0.0641     0.2998 </r>
       <r>    -5.5136     0.1996     0.3214 </r>
       <r>    -5.4052     0.2088     0.3502 </r>
       <r>    -5.2969     0.2563     0.3831 </r>
       <r>    -5.1885     0.0854     0.3924 </r>
       <r>    -5.0801     0.0869     0.4018 </r>
       <r>    -4.9717     0.5126     0.4757 </r>
       <r>    -4.8633     0.5077     0.5307 </r>
       <r>    -4.7550     0.2587     0.5593 </r>
       <r>    -4.6466     0.0000     0.6146 </r>
       <r>    -4.5382     0.0000     0.6146 </r>
       <r>    -4.4298     0.5762     0.6770 </r>
       <r>    -4.3214     0.2563     0.7049 </r>
       <r>    -4.2131     0.3887     0.7470 </r>
       <r>    -4.1047     0.7689     0.8391 </r>
       <r>    -3.9963     0.0000     0.8391 </r>
       <r>    -3.8879     0.7852     0.9242 </r>
       <r>    -3.7796     0.5212     1.0067 </r>
       <r>    -3.6712     0.2812     1.0640 </r>
       <r>    -3.5628     0.2036     1.0880 </r>
       <r>    -3.4544     0.5126     1.1493 </r>
       <r>    -3.3460     0.7700     1.2328 </r>
       <r>    -3.2377     0.7689     1.3437 </r>
       <r>    -3.1293     0.0636     1.3506 </r>
       <r>    -3.0209     0.7653     1.4892 </r>
       <r>    -2.9125     0.2563     1.5174 </r>
       <r>    -2.8042     0.2563     1.5451 </r>
       <r>    -2.6958     0.7689     1.6285 </r>
       <r>    -2.5874     0.8971     1.7257 </r>
       <r>    -2.4790     0.2559     1.7534 </r>
       <r>    -2.3706     0.8890     1.8498 </r>
       <r>    -2.2623     0.0069     1.8653 </r>
       <r>    -2.1539     0.5126     1.9792 </r>
       <r>    -2.0455     0.1282     1.9931 </r>
       <r>    -1.9371     0.0000     2.0000 </r>
       <r>    -1.8287     0.0000     2.0000 </r>
       <r>    -1.7204     0.0000     2.0000 </r>
       <r>    -1.6120     0.0000     2.0000 </r>
       <r>    -1.5036     0.0000     2.0000 </r>
       <r>    -1.3952     0.0000     2.0000 </r>
       <r>    -1.2869     0.0000     2.0000 </r>
       <r>    -1.1785     0.0000     2.0000 </r>
       <r>    -1.0701     0.0000     2.0000 </r>
       <r>    -0.9617     0.0000     2.0000 </r>
       <r>    -0.8533     0.0000     2.0000 </r>
       <r>    -0.7450     0.0000     2.0000 </r>
       <r>    -0.6366     0.0000     2.0000 </r>
       <r>    -0.5282     0.0000     2.0000 </r>
       <r>    -0.4198     0.0050     2.0005 </r>
       <r>    -0.3115     0.0000     2.0046 </r>
       <r>    -0.2031     0.1561     2.0215 </r>
       <r>    -0.0947     0.0181     2.0344 </r>
       <r>     0.0137     0.0000     2.0602 </r>
       <r>     0.1221     0.4527     2.1092 </r>
       <r>     0.2304     0.0000     2.1157 </r>
       <r>     0.3388     0.0267     2.1186 </r>
       <r>     0.4472     0.5126     2.2118 </r>
       <r>     0.5556     0.3845     2.2535 </r>
       <r>     0.6640     1.0880     2.3714 </r>
       <r>     0.7723     0.5088     2.4336 </r>
       <r>     0.8807     0.8636     2.5276 </r>
       <r>     0.9891     1.0158     2.6969 </r>
       <r>     1.0975     0.8511     2.7902 </r>
       <r>     1.2058     0.7021     2.8782 </r>
       <r>     1.3142     0.7690     2.9688 </r>
       <r>     1.4226     0.8330     3.0868 </r>
       <r>     1.5310     0.5094     3.1420 </r>
       <r>     1.6394     0.0000     3.1424 </r>
       <r>     1.7477     0.2563     3.1701 </r>
       <r>     1.8561     0.5266     3.2272 </r>
       <r>     1.9645     0.0761     3.2895 </r>
       <r>     2.0729     0.0000     3.2905 </r>
       <r>     2.1812     0.8454     3.3821 </r>
       <r>     2.2896     0.0000     3.4155 </r>
       <r>     2.3980     0.2563     3.4433 </r>
       <r>     2.5064     0.1222     3.4565 </r>
       <r>     2.6148     0.0010     3.4573 </r>
       <r>     2.7231     0.2563     3.5127 </r>
       <r>     2.8315     1.3712     3.6613 </r>
       <r>     2.9399     0.5103     3.7347 </r>
       <r>     3.0483     0.5126     3.7905 </r>
       <r>     3.1567     0.3841     3.8599 </r>
       <r>     3.2650     0.2476     3.8868 </r>
       <r>     3.3734     0.2679     3.9168 </r>
       <r>     3.4818     1.0893     4.0475 </r>
       <r>     3.5902     1.0252     4.1586 </r>
       <r>     3.6985     0.8968     4.2558 </r>
       <r>     3.8069     0.5072     4.3108 </r>
       <r>     3.9153     0.5548     4.3715 </r>
       <r>     4.0237     0.0289     4.3793 </r>
       <r>     4.1321     0.0000     4.4039 </r>
       <r>     4.2404     2.6836     4.6948 </r>
       <r>     4.3488     0.0000     4.6956 </r>
       <r>     4.4572     0.8013     4.7824 </r>
       <r>     4.5656     0.6249     4.8883 </r>
       <r>     4.6739     0.2563     4.9178 </r>
       <r>     4.7823     1.4075     5.0704 </r>
       <r>     4.8907     0.2292     5.1163 </r>
       <r>     4.9991     0.5823     5.1823 </r>
       <r>     5.1075     1.9013     5.4155 </r>
       <r>     5.2158     0.4575     5.5230 </r>
       <r>     5.3242     0.5143     5.6541 </r>
       <r>     5.4326     0.6164     5.7485 </r>
       <r>     5.5410     0.6637     5.8370 </r>
       <r>     5.6493     1.0252     5.9734 </r>
       <r>     5.7577     1.4544     6.1310 </r>
       <r>     5.8661     0.5126     6.2188 </r>
       <r>     5.9745     1.4019     6.3707 </r>
       <r>     6.0829     0.9971     6.4796 </r>
       <r>     6.1912     0.5187     6.5389 </r>
       <r>     6.2996     0.5851     6.6155 </r>
       <r>     6.4080     0.9168     6.7626 </r>
       <r>     6.5164     0.2563     6.8368 </r>
       <r>     6.6248     1.9088     7.0437 </r>
       <r>     6.7331     0.6408     7.1563 </r>
       <r>     6.8415     0.7533     7.2379 </r>
       <r>     6.9499     0.7989     7.3262 </r>
       <r>     7.0583     1.3619     7.4844 </r>
       <r>     7.1666     0.6834     7.5729 </r>
       <r>     7.2750     0.0006     7.5730 </r>
       <r>     7.3834     0.7697     7.6749 </r>
       <r>     7.4918     0.6407     7.7812 </r>
       <r>     7.6002     0.2266     7.8058 </r>
       <r>     7.7085     0.3719     7.8748 </r>
       <r>     7.8169     0.4092     7.9344 </r>
       <r>     7.9253     0.1083     7.9481 </r>
       <r>     8.0337     0.0164     7.9659 </r>
       <r>     8.1420     0.1514     7.9990 </r>
       <r>     8.2504     0.0000     8.0000 </r>
       <r>     8.3588     0.0000     8.0000 </r>
       <r>     8.4672     0.0000     8.0000 </r>
       <r>     8.5756     0.0000     8.0000 </r>
       <r>     8.6839     0.0000     8.0000 </r>
       <r>     8.7923     0.0000     8.0000 </r>
       <r>     8.9007     0.0000     8.0000 </r>
       <r>     9.0091     0.0000     8.0000 </r>
       <r>     9.1175     0.0000     8.0000 </r>
       <r>     9.2258     0.0000     8.0000 </r>
       <r>     9.3342     0.0000     8.0000 </r>
       <r>     9.4426     0.0000     8.0000 </r>
       <r>     9.5510     0.0320     8.0035 </r>
       <r>     9.6593     0.0000     8.0035 </r>
       <r>     9.7677     0.0000     8.0035 </r>
       <r>     9.8761     0.0641     8.0104 </r>
       <r>     9.9845     0.2533     8.0379 </r>
       <r>    10.0929     0.0000     8.0382 </r>
       <r>    10.2012     0.0000     8.0382 </r>
       <r>    10.3096     0.0000     8.0382 </r>
       <r>    10.4180     0.1282     8.0521 </r>
       <r>    10.5264     0.0000     8.0521 </r>
       <r>    10.6347     0.4941     8.1056 </r>
       <r>    10.7431     0.0000     8.1215 </r>
       <r>    10.8515     0.0664     8.1287 </r>
       <r>    10.9599     0.0000     8.1562 </r>
       <r>    11.0683     0.0000     8.1562 </r>
       <r>    11.1766     0.0034     8.1566 </r>
       <r>    11.2850     0.0000     8.2118 </r>
       <r>    11.3934     0.2563     8.2396 </r>
       <r>    11.5018     0.0977     8.2502 </r>
       <r>    11.6102     0.0000     8.2674 </r>
       <r>    11.7185     0.0314     8.2708 </r>
       <r>    11.8269     0.4874     8.4035 </r>
       <r>    11.9353     0.2563     8.4340 </r>
       <r>    12.0437     0.1284     8.4479 </r>
       <r>    12.1520     0.1276     8.5173 </r>
       <r>    12.2604     0.3204     8.5521 </r>
       <r>    12.3688     0.2425     8.5784 </r>
       <r>    12.4772     0.0274     8.5828 </r>
       <r>    12.5856     0.5126     8.6389 </r>
       <r>    12.6939     0.0476     8.6440 </r>
       <r>    12.8023     0.4923     8.6992 </r>
       <r>    12.9107     0.7160     8.8345 </r>
       <r>    13.0191     1.0256     9.0070 </r>
       <r>    13.1274     0.2563     9.0625 </r>
       <r>    13.2358     0.7671     9.1456 </r>
       <r>    13.3442     0.8529     9.3216 </r>
       <r>    13.4526     0.2563     9.3681 </r>
       <r>    13.5610     0.0000     9.3958 </r>
       <r>    13.6693     0.1498     9.4121 </r>
       <r>    13.7777     0.2674     9.4595 </r>
       <r>    13.8861     0.5980     9.6620 </r>
       <r>    13.9945     0.7904     9.7477 </r>
       <r>    14.1029     0.2239     9.7974 </r>
       <r>    14.2112     1.2388     9.9352 </r>
       <r>    14.3196     0.7689    10.0185 </r>
       <r>    14.4280     0.2687    10.0476 </r>
       <r>    14.5364     0.7772    10.1595 </r>
       <r>    14.6447     0.0592    10.2090 </r>
       <r>    14.7531     0.0640    10.2187 </r>
       <r>    14.8615     0.7689    10.3021 </r>
       <r>    14.9699     0.3967    10.3451 </r>
       <r>    15.0783     0.2541    10.3991 </r>
       <r>    15.1866     0.8893    10.5235 </r>
       <r>    15.2950     0.3845    10.5729 </r>
       <r>    15.4034     0.5704    10.6347 </r>
       <r>    15.5118     0.8475    10.7712 </r>
       <r>    15.6201     0.2992    10.8797 </r>
       <r>    15.7285     0.8340    10.9932 </r>
       <r>    15.8369     1.1903    11.2262 </r>
       <r>    15.9453     2.6837    11.5177 </r>
       <r>    16.0537     1.5812    11.7732 </r>
       <r>    16.1620     1.0208    11.9440 </r>
       <r>    16.2704     0.1282    12.0139 </r>
       <r>    16.3788     0.0000    12.0139 </r>
       <r>    16.4872     0.6167    12.0807 </r>
       <r>    16.5955     1.6233    12.2593 </r>
       <r>    16.7039     0.5657    12.3206 </r>
       <r>    16.8123     1.3252    12.4862 </r>
       <r>    16.9207     0.8123    12.6529 </r>
       <r>    17.0291     1.3207    12.8052 </r>
       <r>    17.1374     0.1384    12.8437 </r>
       <r>    17.2458     1.5378    13.0370 </r>
       <r>    17.3542     0.6562    13.1082 </r>
       <r>    17.4626     0.8086    13.2219 </r>
       <r>    17.5710     0.5906    13.3094 </r>
       <r>    17.6793     0.3922    13.3527 </r>
       <r>    17.7877     1.2804    13.5462 </r>
       <r>    17.8961     0.5126    13.6852 </r>
       <r>    18.0045     0.2563    13.7199 </r>
       <r>    18.1128     0.3417    13.7708 </r>
       <r>    18.2212     1.7890    13.9647 </r>
       <r>    18.3296     0.5126    14.0347 </r>
       <r>    18.4380     0.4245    14.0807 </r>
       <r>    18.5464     0.5126    14.2014 </r>
       <r>    18.6547     0.7502    14.2827 </r>
       <r>    18.7631     0.7071    14.4169 </r>
       <r>    18.8715     1.5375    14.6875 </r>
       <r>    18.9799     0.3113    14.7212 </r>
       <r>    19.0882     0.9542    14.8742 </r>
       <r>    19.1966     0.7692    14.9653 </r>
       <r>    19.3050     0.5126    15.0486 </r>
       <r>    19.4134     0.2563    15.0764 </r>
       <r>    19.5218     0.2563    15.1042 </r>
       <r>    19.6301     1.0252    15.2153 </r>
       <r>    19.7385     0.1280    15.2292 </r>
       <r>    19.8469     0.9807    15.3355 </r>
       <r>    19.9553     0.0000    15.3403 </r>
       <r>    20.0637     0.5126    15.3958 </r>
       <r>    20.1720     0.2563    15.4236 </r>
       <r>    20.2804     0.7815    15.5083 </r>
       <r>    20.3888     0.4827    15.6148 </r>
       <r>    20.4972     0.4635    15.6961 </r>
       <r>    20.6055     0.0000    15.7292 </r>
       <r>    20.7139     0.2563    15.7569 </r>
       <r>    20.8223     0.0000    15.7569 </r>
       <r>    20.9307     0.0000    15.7569 </r>
       <r>    21.0391     0.0000    15.7569 </r>
       <r>    21.1474     0.2597    15.7990 </r>
       <r>    21.2558     0.0000    15.8125 </r>
       <r>    21.3642     0.0000    15.8125 </r>
       <r>    21.4726     0.1282    15.8264 </r>
       <r>    21.5809     0.5126    15.8819 </r>
       <r>    21.6893     0.3845    15.9236 </r>
       <r>    21.7977     0.2563    15.9792 </r>
       <r>    21.9061     0.0000    15.9792 </r>
       <r>    22.0145     0.0000    15.9792 </r>
       <r>    22.1228     0.0000    15.9792 </r>
       <r>    22.2312     0.0641    15.9861 </r>
       <r>    22.3396     0.1282    16.0000 </r>
       <r>    22.4480     0.0000    16.0000 </r>
       <r>    22.5564     0.0000    16.0000 </r>
       <r>    22.6647     0.0000    16.0000 </r>
       <r>    22.7731     0.0000    16.0000 </r>
       <r>    22.8815     0.0000    16.0000 </r>
       <r>    22.9899     0.0000    16.0000 </r>
       <r>    23.0982     0.0000    16.0000 </r>
       <r>    23.2066     0.0000    16.0000 </r>
       <r>    23.3150     0.0000    16.0000 </r>
       <r>    23.4234     0.0000    16.0000 </r>
       <r>    23.5318     0.0000    16.0000 </r>
       <r>    23.6401     0.0000    16.0000 </r>
       <r>    23.7485     0.0000    16.0000 </r>
      </set>
     </set>
    </array>
   </total>
  </dos>
 </calculation>
 <structure name="finalpos" >
  <crystal>
   <varray name="basis" >
    <v>      -2.17699646       0.00000000       2.17699646 </v>
    <v>       0.00000000       2.17699646       2.17699646 </v>
    <v>      -2.17699646       2.17699646       0.00000000 </v>
   </varray>
   <i name="volume">     20.63493771 </i>
   <varray name="rec_basis" >
    <v>      -0.22967424      -0.22967424       0.22967424 </v>
    <v>       0.22967424       0.22967424       0.22967424 </v>
    <v>      -0.22967424       0.22967424      -0.22967424 </v>
   </varray>
  </crystal>
  <varray name="positions" >
   <v>       0.25000002       0.25000010       0.24999994 </v>
   <v>       0.00000000       0.00000000       0.00000000 </v>
  </varray>
 </structure>
</modeling>
