 vasp.5.4.4.18Apr17-6-g9f103f2a35 (build Aug 24 2017 11:22:49) complex          
  
 executed on             LinuxIFC date 2023.12.25  13:07:27
 running on    8 total cores
 distrk:  each k-point on    8 cores,    1 groups
 distr:  one band on NCORES_PER_BAND=   1 cores,    8 groups


--------------------------------------------------------------------------------------------------------


 INCAR:
 POTCAR:    PAW_PBE Rb_sv 06Sep2000               
 POTCAR:    PAW_PBE F 08Apr2002                   

 ----------------------------------------------------------------------------- 
|                                                                             |
|           W    W    AA    RRRRR   N    N  II  N    N   GGGG   !!!           |
|           W    W   A  A   R    R  NN   N  II  NN   N  G    G  !!!           |
|           W    W  A    A  R    R  N N  N  II  N N  N  G       !!!           |
|           W WW W  AAAAAA  RRRRR   N  N N  II  N  N N  G  GGG   !            |
|           WW  WW  A    A  R   R   N   NN  II  N   NN  G    G                |
|           W    W  A    A  R    R  N    N  II  N    N   GGGG   !!!           |
|                                                                             |
|      For optimal performance we recommend to set                            |
|        NCORE= 4 - approx SQRT( number of cores)                             |
|      NCORE specifies how many cores store one orbital (NPAR=cpu/NCORE).     |
|      This setting can  greatly improve the performance of VASP for DFT.     |
|      The default,   NCORE=1            might be grossly inefficient         |
|      on modern multi-core architectures or massively parallel machines.     |
|      Do your own testing !!!!                                               |
|      Unfortunately you need to use the default for GW and RPA calculations. |
|      (for HF NCORE is supported but not extensively tested yet)             |
|                                                                             |
 ----------------------------------------------------------------------------- 

 POTCAR:    PAW_PBE Rb_sv 06Sep2000               
   VRHFIN =Rb: 4s4p5s                                                           
   LEXCH  = PE                                                                  
   EATOM  =   662.5034 eV,   48.6926 Ry                                         
                                                                                
   TITEL  = PAW_PBE Rb_sv 06Sep2000                                             
   LULTRA =        F    use ultrasoft PP ?                                      
   IUNSCR =        1    unscreen: 0-lin 1-nonlin 2-no                           
   RPACOR =    2.200    partial core radius                                     
   POMASS =   85.468; ZVAL   =    9.000    mass and valenz                      
   RCORE  =    2.500    outmost cutoff radius                                   
   RWIGS  =    4.570; RWIGS  =    2.418    wigner-seitz radius (au A)           
   ENMAX  =  220.112; ENMIN  =  165.084 eV                                      
   RCLOC  =    2.200    cutoff for local pot                                    
   LCOR   =        T    correct aug charges                                     
   LPAW   =        T    paw PP                                                  
   EAUG   =  423.861                                                            
   DEXC   =    0.000                                                            
   RMAX   =    2.546    core radius for proj-oper                               
   RAUG   =    1.300    factor for augmentation sphere                          
   RDEP   =    2.541    radius for radial grids                                 
   RDEPT  =    2.044    core radius for aug-charge                              
                                                                                
   Atomic configuration                                                         
   10 entries                                                                   
     n  l   j            E        occ.                                          
     1  0  0.50    -15031.5419   2.0000                                         
     2  0  0.50     -2007.8842   2.0000                                         
     2  1  1.50     -1779.8144   6.0000                                         
     3  0  0.50      -297.9619   2.0000                                         
     3  1  1.50      -224.8335   6.0000                                         
     3  2  2.50      -103.9539  10.0000                                         
     4  0  0.50       -31.8932   2.0000                                         
     5  0  0.50        -2.2327   0.9990                                         
     4  1  1.50       -15.9645   6.0000                                         
     4  2  1.50        -0.0020   0.0010                                         
   Description                                                                  
     l       E           TYP  RCUT    TYP  RCUT                                 
     0    -31.8932387     23  2.500                                             
     0     -2.2326525     23  2.500                                             
     1    -15.9644597     23  2.500                                             
     1    -17.3250423     23  2.500                                             
     2     -0.0020100     23  2.500                                             
  local pseudopotential read in
  partial core-charges read in
  partial kinetic energy density read in
  atomic valenz-charges read in
  non local Contribution for L=           0  read in
    real space projection operators read in
  non local Contribution for L=           0  read in
    real space projection operators read in
  non local Contribution for L=           1  read in
    real space projection operators read in
  non local Contribution for L=           1  read in
    real space projection operators read in
  non local Contribution for L=           2  read in
    real space projection operators read in
    PAW grid and wavefunctions read in
 
   number of l-projection  operators is LMAX  =           5
   number of lm-projection operators is LMMAX =          13
 
 POTCAR:    PAW_PBE F 08Apr2002                   
   VRHFIN =F: s2p5                                                              
   LEXCH  = PE                                                                  
   EATOM  =   659.6475 eV,   48.4827 Ry                                         
                                                                                
   TITEL  = PAW_PBE F 08Apr2002                                                 
   LULTRA =        F    use ultrasoft PP ?                                      
   IUNSCR =        1    unscreen: 0-lin 1-nonlin 2-no                           
   RPACOR =    1.200    partial core radius                                     
   POMASS =   18.998; ZVAL   =    7.000    mass and valenz                      
   RCORE  =    1.520    outmost cutoff radius                                   
   RWIGS  =    1.500; RWIGS  =    0.794    wigner-seitz radius (au A)           
   ENMAX  =  400.000; ENMIN  =  300.000 eV                                      
   ICORE  =        2    local potential                                         
   LCOR   =        T    correct aug charges                                     
   LPAW   =        T    paw PP                                                  
   EAUG   =  613.614                                                            
   RMAX   =    1.555    core radius for proj-oper                               
   RAUG   =    1.300    factor for augmentation sphere                          
   RDEP   =    1.539    radius for radial grids                                 
   RDEPT  =    1.299    core radius for aug-charge                              
                                                                                
   Atomic configuration                                                         
    4 entries                                                                   
     n  l   j            E        occ.                                          
     1  0  0.50      -663.3661   2.0000                                         
     2  0  0.50       -29.8995   2.0000                                         
     2  1  0.50       -11.1114   5.0000                                         
     3  2  1.50       -10.8847   0.0000                                         
   Description                                                                  
     l       E           TYP  RCUT    TYP  RCUT                                 
     0    -29.8995018     23  1.200                                             
     0     -9.5240782     23  1.200                                             
     1    -11.1113914     23  1.520                                             
     1      1.3605826     23  1.520                                             
     2    -10.8846608      7  1.500                                             
  local pseudopotential read in
  partial core-charges read in
  partial kinetic energy density read in
  atomic valenz-charges read in
  non local Contribution for L=           0  read in
    real space projection operators read in
  non local Contribution for L=           0  read in
    real space projection operators read in
  non local Contribution for L=           1  read in
    real space projection operators read in
  non local Contribution for L=           1  read in
    real space projection operators read in
    PAW grid and wavefunctions read in
 
   number of l-projection  operators is LMAX  =           4
   number of lm-projection operators is LMMAX =           8
 
  PAW_PBE Rb_sv 06Sep2000               :
 energy of atom  1       EATOM= -662.5034
 kinetic energy error for atom=    0.0006 (will be added to EATOM!!)
  PAW_PBE F 08Apr2002                   :
 energy of atom  2       EATOM= -659.6475
 kinetic energy error for atom=    0.0323 (will be added to EATOM!!)
 
 
 POSCAR: Rb1 F1                                  
  positions in direct lattice
  No initial velocities read in
 exchange correlation table for  LEXCH =        8
   RHO(1)=    0.500       N(1)  =     2000
   RHO(2)=  100.500       N(2)  =     4000
 


--------------------------------------------------------------------------------------------------------


 ion  position               nearest neighbor table
   1  0.000  0.000  0.000-   2 2.92   2 2.92   2 2.92   2 2.92   2 2.92   2 2.92   2 2.92   2 2.92

   2  0.500  0.500  0.500-   1 2.92   1 2.92   1 2.92   1 2.92   1 2.92   1 2.92   1 2.92   1 2.92

 
  LATTYP: Found a simple cubic cell.
 ALAT       =     3.3704469211
  
  Lattice vectors:
  
 A1 = (   3.3704469211,   0.0000000000,   0.0000000000)
 A2 = (   0.0000000000,   3.3704469211,   0.0000000000)
 A3 = (   0.0000000000,   0.0000000000,   3.3704469211)


Analysis of symmetry for initial positions (statically):
=====================================================================
 Subroutine PRICEL returns:
 Original cell was already a primitive cell.
 

 Routine SETGRP: Setting up the symmetry group for a 
 simple cubic supercell.


 Subroutine GETGRP returns: Found  6 space group operations
 (whereof  6 operations were pure point group operations)
 out of a pool of 48 trial point group operations.


The static configuration has the point symmetry C_3v.


Analysis of symmetry for dynamics (positions and initial velocities):
=====================================================================
 Subroutine PRICEL returns:
 Original cell was already a primitive cell.
 

 Routine SETGRP: Setting up the symmetry group for a 
 simple cubic supercell.


 Subroutine GETGRP returns: Found  6 space group operations
 (whereof  6 operations were pure point group operations)
 out of a pool of 48 trial point group operations.


The dynamic configuration has the point symmetry C_3v.


 Subroutine INISYM returns: Found  6 space group operations
 (whereof  6 operations are pure point group operations),
 and found     1 'primitive' translations

 
 
 KPOINTS: pymatgen with grid density = 3000 / numb

Automatic generation of k-mesh.
Space group operators:
 irot       det(A)        alpha          n_x          n_y          n_z        tau_x        tau_y        tau_z
    1     1.000000     0.000001     1.000000     0.000000     0.000000     0.000000     0.000000     0.000000
    2     1.000000   120.000000    -0.577350    -0.577350    -0.577350     0.000000     0.000000     0.000000
    3     1.000000   120.000000     0.577350     0.577350     0.577350     0.000000     0.000000     0.000000
    4    -1.000000   180.000000     0.000000    -0.707107     0.707107     0.000000     0.000000     0.000000
    5    -1.000000   180.000000     0.707107    -0.707107     0.000000     0.000000     0.000000     0.000000
    6    -1.000000   180.000000     0.707107     0.000000    -0.707107     0.000000     0.000000     0.000000
 
 Subroutine IBZKPT returns following result:
 ===========================================
 
 Found    189 irreducible k-points:
 
 Following reciprocal coordinates:
            Coordinates               Weight
  0.000000  0.000000  0.000000      1.000000
  0.083333  0.000000  0.000000      6.000000
  0.166667  0.000000  0.000000      6.000000
  0.250000  0.000000  0.000000      6.000000
  0.333333  0.000000  0.000000      6.000000
  0.416667  0.000000  0.000000      6.000000
  0.500000  0.000000  0.000000      3.000000
  0.083333  0.083333  0.000000      6.000000
  0.166667  0.083333  0.000000     12.000000
  0.250000  0.083333  0.000000     12.000000
  0.333333  0.083333  0.000000     12.000000
  0.416667  0.083333  0.000000     12.000000
  0.500000  0.083333  0.000000     12.000000
 -0.416667  0.083333  0.000000     12.000000
 -0.333333  0.083333  0.000000     12.000000
 -0.250000  0.083333  0.000000     12.000000
 -0.166667  0.083333  0.000000     12.000000
 -0.083333  0.083333  0.000000      6.000000
  0.166667  0.166667  0.000000      6.000000
  0.250000  0.166667  0.000000     12.000000
  0.333333  0.166667  0.000000     12.000000
  0.416667  0.166667  0.000000     12.000000
  0.500000  0.166667  0.000000     12.000000
 -0.416667  0.166667  0.000000     12.000000
 -0.333333  0.166667  0.000000     12.000000
 -0.250000  0.166667  0.000000     12.000000
 -0.166667  0.166667  0.000000      6.000000
  0.250000  0.250000  0.000000      6.000000
  0.333333  0.250000  0.000000     12.000000
  0.416667  0.250000  0.000000     12.000000
  0.500000  0.250000  0.000000     12.000000
 -0.416667  0.250000  0.000000     12.000000
 -0.333333  0.250000  0.000000     12.000000
 -0.250000  0.250000  0.000000      6.000000
  0.333333  0.333333  0.000000      6.000000
  0.416667  0.333333  0.000000     12.000000
  0.500000  0.333333  0.000000     12.000000
 -0.416667  0.333333  0.000000     12.000000
 -0.333333  0.333333  0.000000      6.000000
  0.416667  0.416667  0.000000      6.000000
  0.500000  0.416667  0.000000     12.000000
 -0.416667  0.416667  0.000000      6.000000
  0.500000  0.500000  0.000000      3.000000
  0.083333  0.083333  0.083333      2.000000
  0.166667  0.083333  0.083333      6.000000
  0.250000  0.083333  0.083333      6.000000
  0.333333  0.083333  0.083333      6.000000
  0.416667  0.083333  0.083333      6.000000
  0.500000  0.083333  0.083333      6.000000
 -0.416667  0.083333  0.083333      6.000000
 -0.333333  0.083333  0.083333      6.000000
 -0.250000  0.083333  0.083333      6.000000
 -0.166667  0.083333  0.083333      6.000000
 -0.083333  0.083333  0.083333      6.000000
  0.166667  0.166667  0.083333      6.000000
  0.250000  0.166667  0.083333     12.000000
  0.333333  0.166667  0.083333     12.000000
  0.416667  0.166667  0.083333     12.000000
  0.500000  0.166667  0.083333     12.000000
 -0.416667  0.166667  0.083333     12.000000
 -0.333333  0.166667  0.083333     12.000000
 -0.250000  0.166667  0.083333     12.000000
 -0.166667  0.166667  0.083333     12.000000
 -0.083333  0.166667  0.083333     12.000000
  0.250000  0.250000  0.083333      6.000000
  0.333333  0.250000  0.083333     12.000000
  0.416667  0.250000  0.083333     12.000000
  0.500000  0.250000  0.083333     12.000000
 -0.416667  0.250000  0.083333     12.000000
 -0.333333  0.250000  0.083333     12.000000
 -0.250000  0.250000  0.083333     12.000000
 -0.166667  0.250000  0.083333     12.000000
 -0.083333  0.250000  0.083333     12.000000
  0.333333  0.333333  0.083333      6.000000
  0.416667  0.333333  0.083333     12.000000
  0.500000  0.333333  0.083333     12.000000
 -0.416667  0.333333  0.083333     12.000000
 -0.333333  0.333333  0.083333     12.000000
 -0.250000  0.333333  0.083333     12.000000
 -0.166667  0.333333  0.083333     12.000000
 -0.083333  0.333333  0.083333     12.000000
  0.416667  0.416667  0.083333      6.000000
  0.500000  0.416667  0.083333     12.000000
 -0.416667  0.416667  0.083333     12.000000
 -0.333333  0.416667  0.083333     12.000000
 -0.250000  0.416667  0.083333     12.000000
 -0.166667  0.416667  0.083333     12.000000
 -0.083333  0.416667  0.083333     12.000000
  0.500000  0.500000  0.083333      6.000000
 -0.416667  0.500000  0.083333     12.000000
 -0.333333  0.500000  0.083333     12.000000
 -0.250000  0.500000  0.083333     12.000000
 -0.166667  0.500000  0.083333     12.000000
 -0.083333  0.500000  0.083333      6.000000
 -0.416667 -0.416667  0.083333      6.000000
 -0.333333 -0.416667  0.083333     12.000000
 -0.250000 -0.416667  0.083333     12.000000
 -0.166667 -0.416667  0.083333     12.000000
 -0.333333 -0.333333  0.083333      6.000000
 -0.250000 -0.333333  0.083333     12.000000
 -0.166667 -0.333333  0.083333     12.000000
 -0.250000 -0.250000  0.083333      6.000000
 -0.166667 -0.250000  0.083333     12.000000
 -0.166667 -0.166667  0.083333      6.000000
  0.166667  0.166667  0.166667      2.000000
  0.250000  0.166667  0.166667      6.000000
  0.333333  0.166667  0.166667      6.000000
  0.416667  0.166667  0.166667      6.000000
  0.500000  0.166667  0.166667      6.000000
 -0.416667  0.166667  0.166667      6.000000
 -0.333333  0.166667  0.166667      6.000000
 -0.250000  0.166667  0.166667      6.000000
 -0.166667  0.166667  0.166667      6.000000
  0.250000  0.250000  0.166667      6.000000
  0.333333  0.250000  0.166667     12.000000
  0.416667  0.250000  0.166667     12.000000
  0.500000  0.250000  0.166667     12.000000
 -0.416667  0.250000  0.166667     12.000000
 -0.333333  0.250000  0.166667     12.000000
 -0.250000  0.250000  0.166667     12.000000
 -0.166667  0.250000  0.166667     12.000000
  0.333333  0.333333  0.166667      6.000000
  0.416667  0.333333  0.166667     12.000000
  0.500000  0.333333  0.166667     12.000000
 -0.416667  0.333333  0.166667     12.000000
 -0.333333  0.333333  0.166667     12.000000
 -0.250000  0.333333  0.166667     12.000000
 -0.166667  0.333333  0.166667     12.000000
  0.416667  0.416667  0.166667      6.000000
  0.500000  0.416667  0.166667     12.000000
 -0.416667  0.416667  0.166667     12.000000
 -0.333333  0.416667  0.166667     12.000000
 -0.250000  0.416667  0.166667     12.000000
 -0.166667  0.416667  0.166667     12.000000
  0.500000  0.500000  0.166667      6.000000
 -0.416667  0.500000  0.166667     12.000000
 -0.333333  0.500000  0.166667     12.000000
 -0.250000  0.500000  0.166667     12.000000
 -0.166667  0.500000  0.166667      6.000000
 -0.416667 -0.416667  0.166667      6.000000
 -0.333333 -0.416667  0.166667     12.000000
 -0.250000 -0.416667  0.166667     12.000000
 -0.333333 -0.333333  0.166667      6.000000
 -0.250000 -0.333333  0.166667     12.000000
 -0.250000 -0.250000  0.166667      6.000000
  0.250000  0.250000  0.250000      2.000000
  0.333333  0.250000  0.250000      6.000000
  0.416667  0.250000  0.250000      6.000000
  0.500000  0.250000  0.250000      6.000000
 -0.416667  0.250000  0.250000      6.000000
 -0.333333  0.250000  0.250000      6.000000
 -0.250000  0.250000  0.250000      6.000000
  0.333333  0.333333  0.250000      6.000000
  0.416667  0.333333  0.250000     12.000000
  0.500000  0.333333  0.250000     12.000000
 -0.416667  0.333333  0.250000     12.000000
 -0.333333  0.333333  0.250000     12.000000
 -0.250000  0.333333  0.250000     12.000000
  0.416667  0.416667  0.250000      6.000000
  0.500000  0.416667  0.250000     12.000000
 -0.416667  0.416667  0.250000     12.000000
 -0.333333  0.416667  0.250000     12.000000
 -0.250000  0.416667  0.250000     12.000000
  0.500000  0.500000  0.250000      6.000000
 -0.416667  0.500000  0.250000     12.000000
 -0.333333  0.500000  0.250000     12.000000
 -0.250000  0.500000  0.250000      6.000000
 -0.416667 -0.416667  0.250000      6.000000
 -0.333333 -0.416667  0.250000     12.000000
 -0.333333 -0.333333  0.250000      6.000000
  0.333333  0.333333  0.333333      2.000000
  0.416667  0.333333  0.333333      6.000000
  0.500000  0.333333  0.333333      6.000000
 -0.416667  0.333333  0.333333      6.000000
 -0.333333  0.333333  0.333333      6.000000
  0.416667  0.416667  0.333333      6.000000
  0.500000  0.416667  0.333333     12.000000
 -0.416667  0.416667  0.333333     12.000000
 -0.333333  0.416667  0.333333     12.000000
  0.500000  0.500000  0.333333      6.000000
 -0.416667  0.500000  0.333333     12.000000
 -0.333333  0.500000  0.333333      6.000000
 -0.416667 -0.416667  0.333333      6.000000
  0.416667  0.416667  0.416667      2.000000
  0.500000  0.416667  0.416667      6.000000
 -0.416667  0.416667  0.416667      6.000000
  0.500000  0.500000  0.416667      6.000000
 -0.416667  0.500000  0.416667      6.000000
  0.500000  0.500000  0.500000      1.000000
 
 Following cartesian coordinates:
            Coordinates               Weight
  0.000000  0.000000  0.000000      1.000000
  0.024725  0.000000  0.000000      6.000000
  0.049449  0.000000  0.000000      6.000000
  0.074174  0.000000  0.000000      6.000000
  0.098899  0.000000  0.000000      6.000000
  0.123624  0.000000  0.000000      6.000000
  0.148348  0.000000  0.000000      3.000000
  0.024725  0.024725  0.000000      6.000000
  0.049449  0.024725  0.000000     12.000000
  0.074174  0.024725  0.000000     12.000000
  0.098899  0.024725  0.000000     12.000000
  0.123624  0.024725  0.000000     12.000000
  0.148348  0.024725  0.000000     12.000000
 -0.123624  0.024725  0.000000     12.000000
 -0.098899  0.024725  0.000000     12.000000
 -0.074174  0.024725  0.000000     12.000000
 -0.049449  0.024725  0.000000     12.000000
 -0.024725  0.024725  0.000000      6.000000
  0.049449  0.049449  0.000000      6.000000
  0.074174  0.049449  0.000000     12.000000
  0.098899  0.049449  0.000000     12.000000
  0.123624  0.049449  0.000000     12.000000
  0.148348  0.049449  0.000000     12.000000
 -0.123624  0.049449  0.000000     12.000000
 -0.098899  0.049449  0.000000     12.000000
 -0.074174  0.049449  0.000000     12.000000
 -0.049449  0.049449  0.000000      6.000000
  0.074174  0.074174  0.000000      6.000000
  0.098899  0.074174  0.000000     12.000000
  0.123624  0.074174  0.000000     12.000000
  0.148348  0.074174  0.000000     12.000000
 -0.123624  0.074174  0.000000     12.000000
 -0.098899  0.074174  0.000000     12.000000
 -0.074174  0.074174  0.000000      6.000000
  0.098899  0.098899  0.000000      6.000000
  0.123624  0.098899  0.000000     12.000000
  0.148348  0.098899  0.000000     12.000000
 -0.123624  0.098899  0.000000     12.000000
 -0.098899  0.098899  0.000000      6.000000
  0.123624  0.123624  0.000000      6.000000
  0.148348  0.123624  0.000000     12.000000
 -0.123624  0.123624  0.000000      6.000000
  0.148348  0.148348  0.000000      3.000000
  0.024725  0.024725  0.024725      2.000000
  0.049449  0.024725  0.024725      6.000000
  0.074174  0.024725  0.024725      6.000000
  0.098899  0.024725  0.024725      6.000000
  0.123624  0.024725  0.024725      6.000000
  0.148348  0.024725  0.024725      6.000000
 -0.123624  0.024725  0.024725      6.000000
 -0.098899  0.024725  0.024725      6.000000
 -0.074174  0.024725  0.024725      6.000000
 -0.049449  0.024725  0.024725      6.000000
 -0.024725  0.024725  0.024725      6.000000
  0.049449  0.049449  0.024725      6.000000
  0.074174  0.049449  0.024725     12.000000
  0.098899  0.049449  0.024725     12.000000
  0.123624  0.049449  0.024725     12.000000
  0.148348  0.049449  0.024725     12.000000
 -0.123624  0.049449  0.024725     12.000000
 -0.098899  0.049449  0.024725     12.000000
 -0.074174  0.049449  0.024725     12.000000
 -0.049449  0.049449  0.024725     12.000000
 -0.024725  0.049449  0.024725     12.000000
  0.074174  0.074174  0.024725      6.000000
  0.098899  0.074174  0.024725     12.000000
  0.123624  0.074174  0.024725     12.000000
  0.148348  0.074174  0.024725     12.000000
 -0.123624  0.074174  0.024725     12.000000
 -0.098899  0.074174  0.024725     12.000000
 -0.074174  0.074174  0.024725     12.000000
 -0.049449  0.074174  0.024725     12.000000
 -0.024725  0.074174  0.024725     12.000000
  0.098899  0.098899  0.024725      6.000000
  0.123624  0.098899  0.024725     12.000000
  0.148348  0.098899  0.024725     12.000000
 -0.123624  0.098899  0.024725     12.000000
 -0.098899  0.098899  0.024725     12.000000
 -0.074174  0.098899  0.024725     12.000000
 -0.049449  0.098899  0.024725     12.000000
 -0.024725  0.098899  0.024725     12.000000
  0.123624  0.123624  0.024725      6.000000
  0.148348  0.123624  0.024725     12.000000
 -0.123624  0.123624  0.024725     12.000000
 -0.098899  0.123624  0.024725     12.000000
 -0.074174  0.123624  0.024725     12.000000
 -0.049449  0.123624  0.024725     12.000000
 -0.024725  0.123624  0.024725     12.000000
  0.148348  0.148348  0.024725      6.000000
 -0.123624  0.148348  0.024725     12.000000
 -0.098899  0.148348  0.024725     12.000000
 -0.074174  0.148348  0.024725     12.000000
 -0.049449  0.148348  0.024725     12.000000
 -0.024725  0.148348  0.024725      6.000000
 -0.123624 -0.123624  0.024725      6.000000
 -0.098899 -0.123624  0.024725     12.000000
 -0.074174 -0.123624  0.024725     12.000000
 -0.049449 -0.123624  0.024725     12.000000
 -0.098899 -0.098899  0.024725      6.000000
 -0.074174 -0.098899  0.024725     12.000000
 -0.049449 -0.098899  0.024725     12.000000
 -0.074174 -0.074174  0.024725      6.000000
 -0.049449 -0.074174  0.024725     12.000000
 -0.049449 -0.049449  0.024725      6.000000
  0.049449  0.049449  0.049449      2.000000
  0.074174  0.049449  0.049449      6.000000
  0.098899  0.049449  0.049449      6.000000
  0.123624  0.049449  0.049449      6.000000
  0.148348  0.049449  0.049449      6.000000
 -0.123624  0.049449  0.049449      6.000000
 -0.098899  0.049449  0.049449      6.000000
 -0.074174  0.049449  0.049449      6.000000
 -0.049449  0.049449  0.049449      6.000000
  0.074174  0.074174  0.049449      6.000000
  0.098899  0.074174  0.049449     12.000000
  0.123624  0.074174  0.049449     12.000000
  0.148348  0.074174  0.049449     12.000000
 -0.123624  0.074174  0.049449     12.000000
 -0.098899  0.074174  0.049449     12.000000
 -0.074174  0.074174  0.049449     12.000000
 -0.049449  0.074174  0.049449     12.000000
  0.098899  0.098899  0.049449      6.000000
  0.123624  0.098899  0.049449     12.000000
  0.148348  0.098899  0.049449     12.000000
 -0.123624  0.098899  0.049449     12.000000
 -0.098899  0.098899  0.049449     12.000000
 -0.074174  0.098899  0.049449     12.000000
 -0.049449  0.098899  0.049449     12.000000
  0.123624  0.123624  0.049449      6.000000
  0.148348  0.123624  0.049449     12.000000
 -0.123624  0.123624  0.049449     12.000000
 -0.098899  0.123624  0.049449     12.000000
 -0.074174  0.123624  0.049449     12.000000
 -0.049449  0.123624  0.049449     12.000000
  0.148348  0.148348  0.049449      6.000000
 -0.123624  0.148348  0.049449     12.000000
 -0.098899  0.148348  0.049449     12.000000
 -0.074174  0.148348  0.049449     12.000000
 -0.049449  0.148348  0.049449      6.000000
 -0.123624 -0.123624  0.049449      6.000000
 -0.098899 -0.123624  0.049449     12.000000
 -0.074174 -0.123624  0.049449     12.000000
 -0.098899 -0.098899  0.049449      6.000000
 -0.074174 -0.098899  0.049449     12.000000
 -0.074174 -0.074174  0.049449      6.000000
  0.074174  0.074174  0.074174      2.000000
  0.098899  0.074174  0.074174      6.000000
  0.123624  0.074174  0.074174      6.000000
  0.148348  0.074174  0.074174      6.000000
 -0.123624  0.074174  0.074174      6.000000
 -0.098899  0.074174  0.074174      6.000000
 -0.074174  0.074174  0.074174      6.000000
  0.098899  0.098899  0.074174      6.000000
  0.123624  0.098899  0.074174     12.000000
  0.148348  0.098899  0.074174     12.000000
 -0.123624  0.098899  0.074174     12.000000
 -0.098899  0.098899  0.074174     12.000000
 -0.074174  0.098899  0.074174     12.000000
  0.123624  0.123624  0.074174      6.000000
  0.148348  0.123624  0.074174     12.000000
 -0.123624  0.123624  0.074174     12.000000
 -0.098899  0.123624  0.074174     12.000000
 -0.074174  0.123624  0.074174     12.000000
  0.148348  0.148348  0.074174      6.000000
 -0.123624  0.148348  0.074174     12.000000
 -0.098899  0.148348  0.074174     12.000000
 -0.074174  0.148348  0.074174      6.000000
 -0.123624 -0.123624  0.074174      6.000000
 -0.098899 -0.123624  0.074174     12.000000
 -0.098899 -0.098899  0.074174      6.000000
  0.098899  0.098899  0.098899      2.000000
  0.123624  0.098899  0.098899      6.000000
  0.148348  0.098899  0.098899      6.000000
 -0.123624  0.098899  0.098899      6.000000
 -0.098899  0.098899  0.098899      6.000000
  0.123624  0.123624  0.098899      6.000000
  0.148348  0.123624  0.098899     12.000000
 -0.123624  0.123624  0.098899     12.000000
 -0.098899  0.123624  0.098899     12.000000
  0.148348  0.148348  0.098899      6.000000
 -0.123624  0.148348  0.098899     12.000000
 -0.098899  0.148348  0.098899      6.000000
 -0.123624 -0.123624  0.098899      6.000000
  0.123624  0.123624  0.123624      2.000000
  0.148348  0.123624  0.123624      6.000000
 -0.123624  0.123624  0.123624      6.000000
  0.148348  0.148348  0.123624      6.000000
 -0.123624  0.148348  0.123624      6.000000
  0.148348  0.148348  0.148348      1.000000
 
 
 Subroutine IBZKPT_HF returns following result:
 ==============================================
 
 Found   1728 k-points in 1st BZ
 the following   1728 k-points will be used (e.g. in the exchange kernel)
 Following reciprocal coordinates:   # in IRBZ
  0.000000  0.000000  0.000000    0.00057870   1 t-inv F
  0.083333  0.000000  0.000000    0.00057870   2 t-inv F
  0.166667  0.000000  0.000000    0.00057870   3 t-inv F
  0.250000  0.000000  0.000000    0.00057870   4 t-inv F
  0.333333  0.000000  0.000000    0.00057870   5 t-inv F
  0.416667  0.000000  0.000000    0.00057870   6 t-inv F
  0.500000  0.000000  0.000000    0.00057870   7 t-inv F
  0.083333  0.083333  0.000000    0.00057870   8 t-inv F
  0.166667  0.083333  0.000000    0.00057870   9 t-inv F
  0.250000  0.083333  0.000000    0.00057870  10 t-inv F
  0.333333  0.083333  0.000000    0.00057870  11 t-inv F
  0.416667  0.083333  0.000000    0.00057870  12 t-inv F
  0.500000  0.083333  0.000000    0.00057870  13 t-inv F
 -0.416667  0.083333  0.000000    0.00057870  14 t-inv F
 -0.333333  0.083333  0.000000    0.00057870  15 t-inv F
 -0.250000  0.083333  0.000000    0.00057870  16 t-inv F
 -0.166667  0.083333  0.000000    0.00057870  17 t-inv F
 -0.083333  0.083333  0.000000    0.00057870  18 t-inv F
  0.166667  0.166667  0.000000    0.00057870  19 t-inv F
  0.250000  0.166667  0.000000    0.00057870  20 t-inv F
  0.333333  0.166667  0.000000    0.00057870  21 t-inv F
  0.416667  0.166667  0.000000    0.00057870  22 t-inv F
  0.500000  0.166667  0.000000    0.00057870  23 t-inv F
 -0.416667  0.166667  0.000000    0.00057870  24 t-inv F
 -0.333333  0.166667  0.000000    0.00057870  25 t-inv F
 -0.250000  0.166667  0.000000    0.00057870  26 t-inv F
 -0.166667  0.166667  0.000000    0.00057870  27 t-inv F
  0.250000  0.250000  0.000000    0.00057870  28 t-inv F
  0.333333  0.250000  0.000000    0.00057870  29 t-inv F
  0.416667  0.250000  0.000000    0.00057870  30 t-inv F
  0.500000  0.250000  0.000000    0.00057870  31 t-inv F
 -0.416667  0.250000  0.000000    0.00057870  32 t-inv F
 -0.333333  0.250000  0.000000    0.00057870  33 t-inv F
 -0.250000  0.250000  0.000000    0.00057870  34 t-inv F
  0.333333  0.333333  0.000000    0.00057870  35 t-inv F
  0.416667  0.333333  0.000000    0.00057870  36 t-inv F
  0.500000  0.333333  0.000000    0.00057870  37 t-inv F
 -0.416667  0.333333  0.000000    0.00057870  38 t-inv F
 -0.333333  0.333333  0.000000    0.00057870  39 t-inv F
  0.416667  0.416667  0.000000    0.00057870  40 t-inv F
  0.500000  0.416667  0.000000    0.00057870  41 t-inv F
 -0.416667  0.416667  0.000000    0.00057870  42 t-inv F
  0.500000  0.500000  0.000000    0.00057870  43 t-inv F
  0.083333  0.083333  0.083333    0.00057870  44 t-inv F
  0.166667  0.083333  0.083333    0.00057870  45 t-inv F
  0.250000  0.083333  0.083333    0.00057870  46 t-inv F
  0.333333  0.083333  0.083333    0.00057870  47 t-inv F
  0.416667  0.083333  0.083333    0.00057870  48 t-inv F
  0.500000  0.083333  0.083333    0.00057870  49 t-inv F
 -0.416667  0.083333  0.083333    0.00057870  50 t-inv F
 -0.333333  0.083333  0.083333    0.00057870  51 t-inv F
 -0.250000  0.083333  0.083333    0.00057870  52 t-inv F
 -0.166667  0.083333  0.083333    0.00057870  53 t-inv F
 -0.083333  0.083333  0.083333    0.00057870  54 t-inv F
  0.166667  0.166667  0.083333    0.00057870  55 t-inv F
  0.250000  0.166667  0.083333    0.00057870  56 t-inv F
  0.333333  0.166667  0.083333    0.00057870  57 t-inv F
  0.416667  0.166667  0.083333    0.00057870  58 t-inv F
  0.500000  0.166667  0.083333    0.00057870  59 t-inv F
 -0.416667  0.166667  0.083333    0.00057870  60 t-inv F
 -0.333333  0.166667  0.083333    0.00057870  61 t-inv F
 -0.250000  0.166667  0.083333    0.00057870  62 t-inv F
 -0.166667  0.166667  0.083333    0.00057870  63 t-inv F
 -0.083333  0.166667  0.083333    0.00057870  64 t-inv F
  0.250000  0.250000  0.083333    0.00057870  65 t-inv F
  0.333333  0.250000  0.083333    0.00057870  66 t-inv F
  0.416667  0.250000  0.083333    0.00057870  67 t-inv F
  0.500000  0.250000  0.083333    0.00057870  68 t-inv F
 -0.416667  0.250000  0.083333    0.00057870  69 t-inv F
 -0.333333  0.250000  0.083333    0.00057870  70 t-inv F
 -0.250000  0.250000  0.083333    0.00057870  71 t-inv F
 -0.166667  0.250000  0.083333    0.00057870  72 t-inv F
 -0.083333  0.250000  0.083333    0.00057870  73 t-inv F
  0.333333  0.333333  0.083333    0.00057870  74 t-inv F
  0.416667  0.333333  0.083333    0.00057870  75 t-inv F
  0.500000  0.333333  0.083333    0.00057870  76 t-inv F
 -0.416667  0.333333  0.083333    0.00057870  77 t-inv F
 -0.333333  0.333333  0.083333    0.00057870  78 t-inv F
 -0.250000  0.333333  0.083333    0.00057870  79 t-inv F
 -0.166667  0.333333  0.083333    0.00057870  80 t-inv F
 -0.083333  0.333333  0.083333    0.00057870  81 t-inv F
  0.416667  0.416667  0.083333    0.00057870  82 t-inv F
  0.500000  0.416667  0.083333    0.00057870  83 t-inv F
 -0.416667  0.416667  0.083333    0.00057870  84 t-inv F
 -0.333333  0.416667  0.083333    0.00057870  85 t-inv F
 -0.250000  0.416667  0.083333    0.00057870  86 t-inv F
 -0.166667  0.416667  0.083333    0.00057870  87 t-inv F
 -0.083333  0.416667  0.083333    0.00057870  88 t-inv F
  0.500000  0.500000  0.083333    0.00057870  89 t-inv F
 -0.416667  0.500000  0.083333    0.00057870  90 t-inv F
 -0.333333  0.500000  0.083333    0.00057870  91 t-inv F
 -0.250000  0.500000  0.083333    0.00057870  92 t-inv F
 -0.166667  0.500000  0.083333    0.00057870  93 t-inv F
 -0.083333  0.500000  0.083333    0.00057870  94 t-inv F
 -0.416667 -0.416667  0.083333    0.00057870  95 t-inv F
 -0.333333 -0.416667  0.083333    0.00057870  96 t-inv F
 -0.250000 -0.416667  0.083333    0.00057870  97 t-inv F
 -0.166667 -0.416667  0.083333    0.00057870  98 t-inv F
 -0.333333 -0.333333  0.083333    0.00057870  99 t-inv F
 -0.250000 -0.333333  0.083333    0.00057870 100 t-inv F
 -0.166667 -0.333333  0.083333    0.00057870 101 t-inv F
 -0.250000 -0.250000  0.083333    0.00057870 102 t-inv F
 -0.166667 -0.250000  0.083333    0.00057870 103 t-inv F
 -0.166667 -0.166667  0.083333    0.00057870 104 t-inv F
  0.166667  0.166667  0.166667    0.00057870 105 t-inv F
  0.250000  0.166667  0.166667    0.00057870 106 t-inv F
  0.333333  0.166667  0.166667    0.00057870 107 t-inv F
  0.416667  0.166667  0.166667    0.00057870 108 t-inv F
  0.500000  0.166667  0.166667    0.00057870 109 t-inv F
 -0.416667  0.166667  0.166667    0.00057870 110 t-inv F
 -0.333333  0.166667  0.166667    0.00057870 111 t-inv F
 -0.250000  0.166667  0.166667    0.00057870 112 t-inv F
 -0.166667  0.166667  0.166667    0.00057870 113 t-inv F
  0.250000  0.250000  0.166667    0.00057870 114 t-inv F
  0.333333  0.250000  0.166667    0.00057870 115 t-inv F
  0.416667  0.250000  0.166667    0.00057870 116 t-inv F
  0.500000  0.250000  0.166667    0.00057870 117 t-inv F
 -0.416667  0.250000  0.166667    0.00057870 118 t-inv F
 -0.333333  0.250000  0.166667    0.00057870 119 t-inv F
 -0.250000  0.250000  0.166667    0.00057870 120 t-inv F
 -0.166667  0.250000  0.166667    0.00057870 121 t-inv F
  0.333333  0.333333  0.166667    0.00057870 122 t-inv F
  0.416667  0.333333  0.166667    0.00057870 123 t-inv F
  0.500000  0.333333  0.166667    0.00057870 124 t-inv F
 -0.416667  0.333333  0.166667    0.00057870 125 t-inv F
 -0.333333  0.333333  0.166667    0.00057870 126 t-inv F
 -0.250000  0.333333  0.166667    0.00057870 127 t-inv F
 -0.166667  0.333333  0.166667    0.00057870 128 t-inv F
  0.416667  0.416667  0.166667    0.00057870 129 t-inv F
  0.500000  0.416667  0.166667    0.00057870 130 t-inv F
 -0.416667  0.416667  0.166667    0.00057870 131 t-inv F
 -0.333333  0.416667  0.166667    0.00057870 132 t-inv F
 -0.250000  0.416667  0.166667    0.00057870 133 t-inv F
 -0.166667  0.416667  0.166667    0.00057870 134 t-inv F
  0.500000  0.500000  0.166667    0.00057870 135 t-inv F
 -0.416667  0.500000  0.166667    0.00057870 136 t-inv F
 -0.333333  0.500000  0.166667    0.00057870 137 t-inv F
 -0.250000  0.500000  0.166667    0.00057870 138 t-inv F
 -0.166667  0.500000  0.166667    0.00057870 139 t-inv F
 -0.416667 -0.416667  0.166667    0.00057870 140 t-inv F
 -0.333333 -0.416667  0.166667    0.00057870 141 t-inv F
 -0.250000 -0.416667  0.166667    0.00057870 142 t-inv F
 -0.333333 -0.333333  0.166667    0.00057870 143 t-inv F
 -0.250000 -0.333333  0.166667    0.00057870 144 t-inv F
 -0.250000 -0.250000  0.166667    0.00057870 145 t-inv F
  0.250000  0.250000  0.250000    0.00057870 146 t-inv F
  0.333333  0.250000  0.250000    0.00057870 147 t-inv F
  0.416667  0.250000  0.250000    0.00057870 148 t-inv F
  0.500000  0.250000  0.250000    0.00057870 149 t-inv F
 -0.416667  0.250000  0.250000    0.00057870 150 t-inv F
 -0.333333  0.250000  0.250000    0.00057870 151 t-inv F
 -0.250000  0.250000  0.250000    0.00057870 152 t-inv F
  0.333333  0.333333  0.250000    0.00057870 153 t-inv F
  0.416667  0.333333  0.250000    0.00057870 154 t-inv F
  0.500000  0.333333  0.250000    0.00057870 155 t-inv F
 -0.416667  0.333333  0.250000    0.00057870 156 t-inv F
 -0.333333  0.333333  0.250000    0.00057870 157 t-inv F
 -0.250000  0.333333  0.250000    0.00057870 158 t-inv F
  0.416667  0.416667  0.250000    0.00057870 159 t-inv F
  0.500000  0.416667  0.250000    0.00057870 160 t-inv F
 -0.416667  0.416667  0.250000    0.00057870 161 t-inv F
 -0.333333  0.416667  0.250000    0.00057870 162 t-inv F
 -0.250000  0.416667  0.250000    0.00057870 163 t-inv F
  0.500000  0.500000  0.250000    0.00057870 164 t-inv F
 -0.416667  0.500000  0.250000    0.00057870 165 t-inv F
 -0.333333  0.500000  0.250000    0.00057870 166 t-inv F
 -0.250000  0.500000  0.250000    0.00057870 167 t-inv F
 -0.416667 -0.416667  0.250000    0.00057870 168 t-inv F
 -0.333333 -0.416667  0.250000    0.00057870 169 t-inv F
 -0.333333 -0.333333  0.250000    0.00057870 170 t-inv F
  0.333333  0.333333  0.333333    0.00057870 171 t-inv F
  0.416667  0.333333  0.333333    0.00057870 172 t-inv F
  0.500000  0.333333  0.333333    0.00057870 173 t-inv F
 -0.416667  0.333333  0.333333    0.00057870 174 t-inv F
 -0.333333  0.333333  0.333333    0.00057870 175 t-inv F
  0.416667  0.416667  0.333333    0.00057870 176 t-inv F
  0.500000  0.416667  0.333333    0.00057870 177 t-inv F
 -0.416667  0.416667  0.333333    0.00057870 178 t-inv F
 -0.333333  0.416667  0.333333    0.00057870 179 t-inv F
  0.500000  0.500000  0.333333    0.00057870 180 t-inv F
 -0.416667  0.500000  0.333333    0.00057870 181 t-inv F
 -0.333333  0.500000  0.333333    0.00057870 182 t-inv F
 -0.416667 -0.416667  0.333333    0.00057870 183 t-inv F
  0.416667  0.416667  0.416667    0.00057870 184 t-inv F
  0.500000  0.416667  0.416667    0.00057870 185 t-inv F
 -0.416667  0.416667  0.416667    0.00057870 186 t-inv F
  0.500000  0.500000  0.416667    0.00057870 187 t-inv F
 -0.416667  0.500000  0.416667    0.00057870 188 t-inv F
  0.500000  0.500000  0.500000    0.00057870 189 t-inv F
  0.000000  0.083333  0.000000    0.00057870   2 t-inv F
  0.000000  0.000000  0.083333    0.00057870   2 t-inv F
  0.000000  0.166667  0.000000    0.00057870   3 t-inv F
  0.000000  0.000000  0.166667    0.00057870   3 t-inv F
  0.000000  0.250000  0.000000    0.00057870   4 t-inv F
  0.000000  0.000000  0.250000    0.00057870   4 t-inv F
  0.000000  0.333333  0.000000    0.00057870   5 t-inv F
  0.000000  0.000000  0.333333    0.00057870   5 t-inv F
  0.000000  0.416667  0.000000    0.00057870   6 t-inv F
  0.000000  0.000000  0.416667    0.00057870   6 t-inv F
  0.000000  0.500000  0.000000    0.00057870   7 t-inv F
  0.000000  0.000000  0.500000    0.00057870   7 t-inv F
  0.000000  0.083333  0.083333    0.00057870   8 t-inv F
  0.083333  0.000000  0.083333    0.00057870   8 t-inv F
  0.000000  0.166667  0.083333    0.00057870   9 t-inv F
  0.083333  0.000000  0.166667    0.00057870   9 t-inv F
  0.166667  0.000000  0.083333    0.00057870   9 t-inv F
  0.083333  0.166667  0.000000    0.00057870   9 t-inv F
  0.000000  0.083333  0.166667    0.00057870   9 t-inv F
  0.000000  0.250000  0.083333    0.00057870  10 t-inv F
  0.083333  0.000000  0.250000    0.00057870  10 t-inv F
  0.250000  0.000000  0.083333    0.00057870  10 t-inv F
  0.083333  0.250000  0.000000    0.00057870  10 t-inv F
  0.000000  0.083333  0.250000    0.00057870  10 t-inv F
  0.000000  0.333333  0.083333    0.00057870  11 t-inv F
  0.083333  0.000000  0.333333    0.00057870  11 t-inv F
  0.333333  0.000000  0.083333    0.00057870  11 t-inv F
  0.083333  0.333333  0.000000    0.00057870  11 t-inv F
  0.000000  0.083333  0.333333    0.00057870  11 t-inv F
  0.000000  0.416667  0.083333    0.00057870  12 t-inv F
  0.083333  0.000000  0.416667    0.00057870  12 t-inv F
  0.416667  0.000000  0.083333    0.00057870  12 t-inv F
  0.083333  0.416667  0.000000    0.00057870  12 t-inv F
  0.000000  0.083333  0.416667    0.00057870  12 t-inv F
  0.000000  0.500000  0.083333    0.00057870  13 t-inv F
  0.083333  0.000000  0.500000    0.00057870  13 t-inv F
  0.500000  0.000000  0.083333    0.00057870  13 t-inv F
  0.083333  0.500000  0.000000    0.00057870  13 t-inv F
  0.000000  0.083333  0.500000    0.00057870  13 t-inv F
  0.000000 -0.416667  0.083333    0.00057870  14 t-inv F
  0.083333  0.000000 -0.416667    0.00057870  14 t-inv F
 -0.416667  0.000000  0.083333    0.00057870  14 t-inv F
  0.083333 -0.416667  0.000000    0.00057870  14 t-inv F
  0.000000  0.083333 -0.416667    0.00057870  14 t-inv F
  0.000000 -0.333333  0.083333    0.00057870  15 t-inv F
  0.083333  0.000000 -0.333333    0.00057870  15 t-inv F
 -0.333333  0.000000  0.083333    0.00057870  15 t-inv F
  0.083333 -0.333333  0.000000    0.00057870  15 t-inv F
  0.000000  0.083333 -0.333333    0.00057870  15 t-inv F
  0.000000 -0.250000  0.083333    0.00057870  16 t-inv F
  0.083333  0.000000 -0.250000    0.00057870  16 t-inv F
 -0.250000  0.000000  0.083333    0.00057870  16 t-inv F
  0.083333 -0.250000  0.000000    0.00057870  16 t-inv F
  0.000000  0.083333 -0.250000    0.00057870  16 t-inv F
  0.000000 -0.166667  0.083333    0.00057870  17 t-inv F
  0.083333  0.000000 -0.166667    0.00057870  17 t-inv F
 -0.166667  0.000000  0.083333    0.00057870  17 t-inv F
  0.083333 -0.166667  0.000000    0.00057870  17 t-inv F
  0.000000  0.083333 -0.166667    0.00057870  17 t-inv F
  0.000000 -0.083333  0.083333    0.00057870  18 t-inv F
  0.083333  0.000000 -0.083333    0.00057870  18 t-inv F
 -0.083333  0.000000  0.083333    0.00057870  18 t-inv F
  0.083333 -0.083333  0.000000    0.00057870  18 t-inv F
  0.000000  0.083333 -0.083333    0.00057870  18 t-inv F
  0.000000  0.166667  0.166667    0.00057870  19 t-inv F
  0.166667  0.000000  0.166667    0.00057870  19 t-inv F
  0.000000  0.250000  0.166667    0.00057870  20 t-inv F
  0.166667  0.000000  0.250000    0.00057870  20 t-inv F
  0.250000  0.000000  0.166667    0.00057870  20 t-inv F
  0.166667  0.250000  0.000000    0.00057870  20 t-inv F
  0.000000  0.166667  0.250000    0.00057870  20 t-inv F
  0.000000  0.333333  0.166667    0.00057870  21 t-inv F
  0.166667  0.000000  0.333333    0.00057870  21 t-inv F
  0.333333  0.000000  0.166667    0.00057870  21 t-inv F
  0.166667  0.333333  0.000000    0.00057870  21 t-inv F
  0.000000  0.166667  0.333333    0.00057870  21 t-inv F
  0.000000  0.416667  0.166667    0.00057870  22 t-inv F
  0.166667  0.000000  0.416667    0.00057870  22 t-inv F
  0.416667  0.000000  0.166667    0.00057870  22 t-inv F
  0.166667  0.416667  0.000000    0.00057870  22 t-inv F
  0.000000  0.166667  0.416667    0.00057870  22 t-inv F
  0.000000  0.500000  0.166667    0.00057870  23 t-inv F
  0.166667  0.000000  0.500000    0.00057870  23 t-inv F
  0.500000  0.000000  0.166667    0.00057870  23 t-inv F
  0.166667  0.500000  0.000000    0.00057870  23 t-inv F
  0.000000  0.166667  0.500000    0.00057870  23 t-inv F
  0.000000 -0.416667  0.166667    0.00057870  24 t-inv F
  0.166667  0.000000 -0.416667    0.00057870  24 t-inv F
 -0.416667  0.000000  0.166667    0.00057870  24 t-inv F
  0.166667 -0.416667  0.000000    0.00057870  24 t-inv F
  0.000000  0.166667 -0.416667    0.00057870  24 t-inv F
  0.000000 -0.333333  0.166667    0.00057870  25 t-inv F
  0.166667  0.000000 -0.333333    0.00057870  25 t-inv F
 -0.333333  0.000000  0.166667    0.00057870  25 t-inv F
  0.166667 -0.333333  0.000000    0.00057870  25 t-inv F
  0.000000  0.166667 -0.333333    0.00057870  25 t-inv F
  0.000000 -0.250000  0.166667    0.00057870  26 t-inv F
  0.166667  0.000000 -0.250000    0.00057870  26 t-inv F
 -0.250000  0.000000  0.166667    0.00057870  26 t-inv F
  0.166667 -0.250000  0.000000    0.00057870  26 t-inv F
  0.000000  0.166667 -0.250000    0.00057870  26 t-inv F
  0.000000 -0.166667  0.166667    0.00057870  27 t-inv F
  0.166667  0.000000 -0.166667    0.00057870  27 t-inv F
 -0.166667  0.000000  0.166667    0.00057870  27 t-inv F
  0.166667 -0.166667  0.000000    0.00057870  27 t-inv F
  0.000000  0.166667 -0.166667    0.00057870  27 t-inv F
  0.000000  0.250000  0.250000    0.00057870  28 t-inv F
  0.250000  0.000000  0.250000    0.00057870  28 t-inv F
  0.000000  0.333333  0.250000    0.00057870  29 t-inv F
  0.250000  0.000000  0.333333    0.00057870  29 t-inv F
  0.333333  0.000000  0.250000    0.00057870  29 t-inv F
  0.250000  0.333333  0.000000    0.00057870  29 t-inv F
  0.000000  0.250000  0.333333    0.00057870  29 t-inv F
  0.000000  0.416667  0.250000    0.00057870  30 t-inv F
  0.250000  0.000000  0.416667    0.00057870  30 t-inv F
  0.416667  0.000000  0.250000    0.00057870  30 t-inv F
  0.250000  0.416667  0.000000    0.00057870  30 t-inv F
  0.000000  0.250000  0.416667    0.00057870  30 t-inv F
  0.000000  0.500000  0.250000    0.00057870  31 t-inv F
  0.250000  0.000000  0.500000    0.00057870  31 t-inv F
  0.500000  0.000000  0.250000    0.00057870  31 t-inv F
  0.250000  0.500000  0.000000    0.00057870  31 t-inv F
  0.000000  0.250000  0.500000    0.00057870  31 t-inv F
  0.000000 -0.416667  0.250000    0.00057870  32 t-inv F
  0.250000  0.000000 -0.416667    0.00057870  32 t-inv F
 -0.416667  0.000000  0.250000    0.00057870  32 t-inv F
  0.250000 -0.416667  0.000000    0.00057870  32 t-inv F
  0.000000  0.250000 -0.416667    0.00057870  32 t-inv F
  0.000000 -0.333333  0.250000    0.00057870  33 t-inv F
  0.250000  0.000000 -0.333333    0.00057870  33 t-inv F
 -0.333333  0.000000  0.250000    0.00057870  33 t-inv F
  0.250000 -0.333333  0.000000    0.00057870  33 t-inv F
  0.000000  0.250000 -0.333333    0.00057870  33 t-inv F
  0.000000 -0.250000  0.250000    0.00057870  34 t-inv F
  0.250000  0.000000 -0.250000    0.00057870  34 t-inv F
 -0.250000  0.000000  0.250000    0.00057870  34 t-inv F
  0.250000 -0.250000  0.000000    0.00057870  34 t-inv F
  0.000000  0.250000 -0.250000    0.00057870  34 t-inv F
  0.000000  0.333333  0.333333    0.00057870  35 t-inv F
  0.333333  0.000000  0.333333    0.00057870  35 t-inv F
  0.000000  0.416667  0.333333    0.00057870  36 t-inv F
  0.333333  0.000000  0.416667    0.00057870  36 t-inv F
  0.416667  0.000000  0.333333    0.00057870  36 t-inv F
  0.333333  0.416667  0.000000    0.00057870  36 t-inv F
  0.000000  0.333333  0.416667    0.00057870  36 t-inv F
  0.000000  0.500000  0.333333    0.00057870  37 t-inv F
  0.333333  0.000000  0.500000    0.00057870  37 t-inv F
  0.500000  0.000000  0.333333    0.00057870  37 t-inv F
  0.333333  0.500000  0.000000    0.00057870  37 t-inv F
  0.000000  0.333333  0.500000    0.00057870  37 t-inv F
  0.000000 -0.416667  0.333333    0.00057870  38 t-inv F
  0.333333  0.000000 -0.416667    0.00057870  38 t-inv F
 -0.416667  0.000000  0.333333    0.00057870  38 t-inv F
  0.333333 -0.416667  0.000000    0.00057870  38 t-inv F
  0.000000  0.333333 -0.416667    0.00057870  38 t-inv F
  0.000000 -0.333333  0.333333    0.00057870  39 t-inv F
  0.333333  0.000000 -0.333333    0.00057870  39 t-inv F
 -0.333333  0.000000  0.333333    0.00057870  39 t-inv F
  0.333333 -0.333333  0.000000    0.00057870  39 t-inv F
  0.000000  0.333333 -0.333333    0.00057870  39 t-inv F
  0.000000  0.416667  0.416667    0.00057870  40 t-inv F
  0.416667  0.000000  0.416667    0.00057870  40 t-inv F
  0.000000  0.500000  0.416667    0.00057870  41 t-inv F
  0.416667  0.000000  0.500000    0.00057870  41 t-inv F
  0.500000  0.000000  0.416667    0.00057870  41 t-inv F
  0.416667  0.500000  0.000000    0.00057870  41 t-inv F
  0.000000  0.416667  0.500000    0.00057870  41 t-inv F
  0.000000 -0.416667  0.416667    0.00057870  42 t-inv F
  0.416667  0.000000 -0.416667    0.00057870  42 t-inv F
 -0.416667  0.000000  0.416667    0.00057870  42 t-inv F
  0.416667 -0.416667  0.000000    0.00057870  42 t-inv F
  0.000000  0.416667 -0.416667    0.00057870  42 t-inv F
  0.000000  0.500000  0.500000    0.00057870  43 t-inv F
  0.500000  0.000000  0.500000    0.00057870  43 t-inv F
  0.083333  0.166667  0.083333    0.00057870  45 t-inv F
  0.083333  0.083333  0.166667    0.00057870  45 t-inv F
  0.083333  0.250000  0.083333    0.00057870  46 t-inv F
  0.083333  0.083333  0.250000    0.00057870  46 t-inv F
  0.083333  0.333333  0.083333    0.00057870  47 t-inv F
  0.083333  0.083333  0.333333    0.00057870  47 t-inv F
  0.083333  0.416667  0.083333    0.00057870  48 t-inv F
  0.083333  0.083333  0.416667    0.00057870  48 t-inv F
  0.083333  0.500000  0.083333    0.00057870  49 t-inv F
  0.083333  0.083333  0.500000    0.00057870  49 t-inv F
  0.083333 -0.416667  0.083333    0.00057870  50 t-inv F
  0.083333  0.083333 -0.416667    0.00057870  50 t-inv F
  0.083333 -0.333333  0.083333    0.00057870  51 t-inv F
  0.083333  0.083333 -0.333333    0.00057870  51 t-inv F
  0.083333 -0.250000  0.083333    0.00057870  52 t-inv F
  0.083333  0.083333 -0.250000    0.00057870  52 t-inv F
  0.083333 -0.166667  0.083333    0.00057870  53 t-inv F
  0.083333  0.083333 -0.166667    0.00057870  53 t-inv F
  0.083333 -0.083333  0.083333    0.00057870  54 t-inv F
  0.083333  0.083333 -0.083333    0.00057870  54 t-inv F
  0.083333  0.166667  0.166667    0.00057870  55 t-inv F
  0.166667  0.083333  0.166667    0.00057870  55 t-inv F
  0.083333  0.250000  0.166667    0.00057870  56 t-inv F
  0.166667  0.083333  0.250000    0.00057870  56 t-inv F
  0.250000  0.083333  0.166667    0.00057870  56 t-inv F
  0.166667  0.250000  0.083333    0.00057870  56 t-inv F
  0.083333  0.166667  0.250000    0.00057870  56 t-inv F
  0.083333  0.333333  0.166667    0.00057870  57 t-inv F
  0.166667  0.083333  0.333333    0.00057870  57 t-inv F
  0.333333  0.083333  0.166667    0.00057870  57 t-inv F
  0.166667  0.333333  0.083333    0.00057870  57 t-inv F
  0.083333  0.166667  0.333333    0.00057870  57 t-inv F
  0.083333  0.416667  0.166667    0.00057870  58 t-inv F
  0.166667  0.083333  0.416667    0.00057870  58 t-inv F
  0.416667  0.083333  0.166667    0.00057870  58 t-inv F
  0.166667  0.416667  0.083333    0.00057870  58 t-inv F
  0.083333  0.166667  0.416667    0.00057870  58 t-inv F
  0.083333  0.500000  0.166667    0.00057870  59 t-inv F
  0.166667  0.083333  0.500000    0.00057870  59 t-inv F
  0.500000  0.083333  0.166667    0.00057870  59 t-inv F
  0.166667  0.500000  0.083333    0.00057870  59 t-inv F
  0.083333  0.166667  0.500000    0.00057870  59 t-inv F
  0.083333 -0.416667  0.166667    0.00057870  60 t-inv F
  0.166667  0.083333 -0.416667    0.00057870  60 t-inv F
 -0.416667  0.083333  0.166667    0.00057870  60 t-inv F
  0.166667 -0.416667  0.083333    0.00057870  60 t-inv F
  0.083333  0.166667 -0.416667    0.00057870  60 t-inv F
  0.083333 -0.333333  0.166667    0.00057870  61 t-inv F
  0.166667  0.083333 -0.333333    0.00057870  61 t-inv F
 -0.333333  0.083333  0.166667    0.00057870  61 t-inv F
  0.166667 -0.333333  0.083333    0.00057870  61 t-inv F
  0.083333  0.166667 -0.333333    0.00057870  61 t-inv F
  0.083333 -0.250000  0.166667    0.00057870  62 t-inv F
  0.166667  0.083333 -0.250000    0.00057870  62 t-inv F
 -0.250000  0.083333  0.166667    0.00057870  62 t-inv F
  0.166667 -0.250000  0.083333    0.00057870  62 t-inv F
  0.083333  0.166667 -0.250000    0.00057870  62 t-inv F
  0.083333 -0.166667  0.166667    0.00057870  63 t-inv F
  0.166667  0.083333 -0.166667    0.00057870  63 t-inv F
 -0.166667  0.083333  0.166667    0.00057870  63 t-inv F
  0.166667 -0.166667  0.083333    0.00057870  63 t-inv F
  0.083333  0.166667 -0.166667    0.00057870  63 t-inv F
  0.083333 -0.083333  0.166667    0.00057870  64 t-inv F
  0.166667  0.083333 -0.083333    0.00057870  64 t-inv F
 -0.083333  0.083333  0.166667    0.00057870  64 t-inv F
  0.166667 -0.083333  0.083333    0.00057870  64 t-inv F
  0.083333  0.166667 -0.083333    0.00057870  64 t-inv F
  0.083333  0.250000  0.250000    0.00057870  65 t-inv F
  0.250000  0.083333  0.250000    0.00057870  65 t-inv F
  0.083333  0.333333  0.250000    0.00057870  66 t-inv F
  0.250000  0.083333  0.333333    0.00057870  66 t-inv F
  0.333333  0.083333  0.250000    0.00057870  66 t-inv F
  0.250000  0.333333  0.083333    0.00057870  66 t-inv F
  0.083333  0.250000  0.333333    0.00057870  66 t-inv F
  0.083333  0.416667  0.250000    0.00057870  67 t-inv F
  0.250000  0.083333  0.416667    0.00057870  67 t-inv F
  0.416667  0.083333  0.250000    0.00057870  67 t-inv F
  0.250000  0.416667  0.083333    0.00057870  67 t-inv F
  0.083333  0.250000  0.416667    0.00057870  67 t-inv F
  0.083333  0.500000  0.250000    0.00057870  68 t-inv F
  0.250000  0.083333  0.500000    0.00057870  68 t-inv F
  0.500000  0.083333  0.250000    0.00057870  68 t-inv F
  0.250000  0.500000  0.083333    0.00057870  68 t-inv F
  0.083333  0.250000  0.500000    0.00057870  68 t-inv F
  0.083333 -0.416667  0.250000    0.00057870  69 t-inv F
  0.250000  0.083333 -0.416667    0.00057870  69 t-inv F
 -0.416667  0.083333  0.250000    0.00057870  69 t-inv F
  0.250000 -0.416667  0.083333    0.00057870  69 t-inv F
  0.083333  0.250000 -0.416667    0.00057870  69 t-inv F
  0.083333 -0.333333  0.250000    0.00057870  70 t-inv F
  0.250000  0.083333 -0.333333    0.00057870  70 t-inv F
 -0.333333  0.083333  0.250000    0.00057870  70 t-inv F
  0.250000 -0.333333  0.083333    0.00057870  70 t-inv F
  0.083333  0.250000 -0.333333    0.00057870  70 t-inv F
  0.083333 -0.250000  0.250000    0.00057870  71 t-inv F
  0.250000  0.083333 -0.250000    0.00057870  71 t-inv F
 -0.250000  0.083333  0.250000    0.00057870  71 t-inv F
  0.250000 -0.250000  0.083333    0.00057870  71 t-inv F
  0.083333  0.250000 -0.250000    0.00057870  71 t-inv F
  0.083333 -0.166667  0.250000    0.00057870  72 t-inv F
  0.250000  0.083333 -0.166667    0.00057870  72 t-inv F
 -0.166667  0.083333  0.250000    0.00057870  72 t-inv F
  0.250000 -0.166667  0.083333    0.00057870  72 t-inv F
  0.083333  0.250000 -0.166667    0.00057870  72 t-inv F
  0.083333 -0.083333  0.250000    0.00057870  73 t-inv F
  0.250000  0.083333 -0.083333    0.00057870  73 t-inv F
 -0.083333  0.083333  0.250000    0.00057870  73 t-inv F
  0.250000 -0.083333  0.083333    0.00057870  73 t-inv F
  0.083333  0.250000 -0.083333    0.00057870  73 t-inv F
  0.083333  0.333333  0.333333    0.00057870  74 t-inv F
  0.333333  0.083333  0.333333    0.00057870  74 t-inv F
  0.083333  0.416667  0.333333    0.00057870  75 t-inv F
  0.333333  0.083333  0.416667    0.00057870  75 t-inv F
  0.416667  0.083333  0.333333    0.00057870  75 t-inv F
  0.333333  0.416667  0.083333    0.00057870  75 t-inv F
  0.083333  0.333333  0.416667    0.00057870  75 t-inv F
  0.083333  0.500000  0.333333    0.00057870  76 t-inv F
  0.333333  0.083333  0.500000    0.00057870  76 t-inv F
  0.500000  0.083333  0.333333    0.00057870  76 t-inv F
  0.333333  0.500000  0.083333    0.00057870  76 t-inv F
  0.083333  0.333333  0.500000    0.00057870  76 t-inv F
  0.083333 -0.416667  0.333333    0.00057870  77 t-inv F
  0.333333  0.083333 -0.416667    0.00057870  77 t-inv F
 -0.416667  0.083333  0.333333    0.00057870  77 t-inv F
  0.333333 -0.416667  0.083333    0.00057870  77 t-inv F
  0.083333  0.333333 -0.416667    0.00057870  77 t-inv F
  0.083333 -0.333333  0.333333    0.00057870  78 t-inv F
  0.333333  0.083333 -0.333333    0.00057870  78 t-inv F
 -0.333333  0.083333  0.333333    0.00057870  78 t-inv F
  0.333333 -0.333333  0.083333    0.00057870  78 t-inv F
  0.083333  0.333333 -0.333333    0.00057870  78 t-inv F
  0.083333 -0.250000  0.333333    0.00057870  79 t-inv F
  0.333333  0.083333 -0.250000    0.00057870  79 t-inv F
 -0.250000  0.083333  0.333333    0.00057870  79 t-inv F
  0.333333 -0.250000  0.083333    0.00057870  79 t-inv F
  0.083333  0.333333 -0.250000    0.00057870  79 t-inv F
  0.083333 -0.166667  0.333333    0.00057870  80 t-inv F
  0.333333  0.083333 -0.166667    0.00057870  80 t-inv F
 -0.166667  0.083333  0.333333    0.00057870  80 t-inv F
  0.333333 -0.166667  0.083333    0.00057870  80 t-inv F
  0.083333  0.333333 -0.166667    0.00057870  80 t-inv F
  0.083333 -0.083333  0.333333    0.00057870  81 t-inv F
  0.333333  0.083333 -0.083333    0.00057870  81 t-inv F
 -0.083333  0.083333  0.333333    0.00057870  81 t-inv F
  0.333333 -0.083333  0.083333    0.00057870  81 t-inv F
  0.083333  0.333333 -0.083333    0.00057870  81 t-inv F
  0.083333  0.416667  0.416667    0.00057870  82 t-inv F
  0.416667  0.083333  0.416667    0.00057870  82 t-inv F
  0.083333  0.500000  0.416667    0.00057870  83 t-inv F
  0.416667  0.083333  0.500000    0.00057870  83 t-inv F
  0.500000  0.083333  0.416667    0.00057870  83 t-inv F
  0.416667  0.500000  0.083333    0.00057870  83 t-inv F
  0.083333  0.416667  0.500000    0.00057870  83 t-inv F
  0.083333 -0.416667  0.416667    0.00057870  84 t-inv F
  0.416667  0.083333 -0.416667    0.00057870  84 t-inv F
 -0.416667  0.083333  0.416667    0.00057870  84 t-inv F
  0.416667 -0.416667  0.083333    0.00057870  84 t-inv F
  0.083333  0.416667 -0.416667    0.00057870  84 t-inv F
  0.083333 -0.333333  0.416667    0.00057870  85 t-inv F
  0.416667  0.083333 -0.333333    0.00057870  85 t-inv F
 -0.333333  0.083333  0.416667    0.00057870  85 t-inv F
  0.416667 -0.333333  0.083333    0.00057870  85 t-inv F
  0.083333  0.416667 -0.333333    0.00057870  85 t-inv F
  0.083333 -0.250000  0.416667    0.00057870  86 t-inv F
  0.416667  0.083333 -0.250000    0.00057870  86 t-inv F
 -0.250000  0.083333  0.416667    0.00057870  86 t-inv F
  0.416667 -0.250000  0.083333    0.00057870  86 t-inv F
  0.083333  0.416667 -0.250000    0.00057870  86 t-inv F
  0.083333 -0.166667  0.416667    0.00057870  87 t-inv F
  0.416667  0.083333 -0.166667    0.00057870  87 t-inv F
 -0.166667  0.083333  0.416667    0.00057870  87 t-inv F
  0.416667 -0.166667  0.083333    0.00057870  87 t-inv F
  0.083333  0.416667 -0.166667    0.00057870  87 t-inv F
  0.083333 -0.083333  0.416667    0.00057870  88 t-inv F
  0.416667  0.083333 -0.083333    0.00057870  88 t-inv F
 -0.083333  0.083333  0.416667    0.00057870  88 t-inv F
  0.416667 -0.083333  0.083333    0.00057870  88 t-inv F
  0.083333  0.416667 -0.083333    0.00057870  88 t-inv F
  0.083333  0.500000  0.500000    0.00057870  89 t-inv F
  0.500000  0.083333  0.500000    0.00057870  89 t-inv F
  0.083333 -0.416667  0.500000    0.00057870  90 t-inv F
  0.500000  0.083333 -0.416667    0.00057870  90 t-inv F
 -0.416667  0.083333  0.500000    0.00057870  90 t-inv F
  0.500000 -0.416667  0.083333    0.00057870  90 t-inv F
  0.083333  0.500000 -0.416667    0.00057870  90 t-inv F
  0.083333 -0.333333  0.500000    0.00057870  91 t-inv F
  0.500000  0.083333 -0.333333    0.00057870  91 t-inv F
 -0.333333  0.083333  0.500000    0.00057870  91 t-inv F
  0.500000 -0.333333  0.083333    0.00057870  91 t-inv F
  0.083333  0.500000 -0.333333    0.00057870  91 t-inv F
  0.083333 -0.250000  0.500000    0.00057870  92 t-inv F
  0.500000  0.083333 -0.250000    0.00057870  92 t-inv F
 -0.250000  0.083333  0.500000    0.00057870  92 t-inv F
  0.500000 -0.250000  0.083333    0.00057870  92 t-inv F
  0.083333  0.500000 -0.250000    0.00057870  92 t-inv F
  0.083333 -0.166667  0.500000    0.00057870  93 t-inv F
  0.500000  0.083333 -0.166667    0.00057870  93 t-inv F
 -0.166667  0.083333  0.500000    0.00057870  93 t-inv F
  0.500000 -0.166667  0.083333    0.00057870  93 t-inv F
  0.083333  0.500000 -0.166667    0.00057870  93 t-inv F
  0.083333 -0.083333  0.500000    0.00057870  94 t-inv F
  0.500000  0.083333 -0.083333    0.00057870  94 t-inv F
 -0.083333  0.083333  0.500000    0.00057870  94 t-inv F
  0.500000 -0.083333  0.083333    0.00057870  94 t-inv F
  0.083333  0.500000 -0.083333    0.00057870  94 t-inv F
  0.083333 -0.416667 -0.416667    0.00057870  95 t-inv F
 -0.416667  0.083333 -0.416667    0.00057870  95 t-inv F
  0.083333 -0.333333 -0.416667    0.00057870  96 t-inv F
 -0.416667  0.083333 -0.333333    0.00057870  96 t-inv F
 -0.333333  0.083333 -0.416667    0.00057870  96 t-inv F
 -0.416667 -0.333333  0.083333    0.00057870  96 t-inv F
  0.083333 -0.416667 -0.333333    0.00057870  96 t-inv F
  0.083333 -0.250000 -0.416667    0.00057870  97 t-inv F
 -0.416667  0.083333 -0.250000    0.00057870  97 t-inv F
 -0.250000  0.083333 -0.416667    0.00057870  97 t-inv F
 -0.416667 -0.250000  0.083333    0.00057870  97 t-inv F
  0.083333 -0.416667 -0.250000    0.00057870  97 t-inv F
  0.083333 -0.166667 -0.416667    0.00057870  98 t-inv F
 -0.416667  0.083333 -0.166667    0.00057870  98 t-inv F
 -0.166667  0.083333 -0.416667    0.00057870  98 t-inv F
 -0.416667 -0.166667  0.083333    0.00057870  98 t-inv F
  0.083333 -0.416667 -0.166667    0.00057870  98 t-inv F
  0.083333 -0.333333 -0.333333    0.00057870  99 t-inv F
 -0.333333  0.083333 -0.333333    0.00057870  99 t-inv F
  0.083333 -0.250000 -0.333333    0.00057870 100 t-inv F
 -0.333333  0.083333 -0.250000    0.00057870 100 t-inv F
 -0.250000  0.083333 -0.333333    0.00057870 100 t-inv F
 -0.333333 -0.250000  0.083333    0.00057870 100 t-inv F
  0.083333 -0.333333 -0.250000    0.00057870 100 t-inv F
  0.083333 -0.166667 -0.333333    0.00057870 101 t-inv F
 -0.333333  0.083333 -0.166667    0.00057870 101 t-inv F
 -0.166667  0.083333 -0.333333    0.00057870 101 t-inv F
 -0.333333 -0.166667  0.083333    0.00057870 101 t-inv F
  0.083333 -0.333333 -0.166667    0.00057870 101 t-inv F
  0.083333 -0.250000 -0.250000    0.00057870 102 t-inv F
 -0.250000  0.083333 -0.250000    0.00057870 102 t-inv F
  0.083333 -0.166667 -0.250000    0.00057870 103 t-inv F
 -0.250000  0.083333 -0.166667    0.00057870 103 t-inv F
 -0.166667  0.083333 -0.250000    0.00057870 103 t-inv F
 -0.250000 -0.166667  0.083333    0.00057870 103 t-inv F
  0.083333 -0.250000 -0.166667    0.00057870 103 t-inv F
  0.083333 -0.166667 -0.166667    0.00057870 104 t-inv F
 -0.166667  0.083333 -0.166667    0.00057870 104 t-inv F
  0.166667  0.250000  0.166667    0.00057870 106 t-inv F
  0.166667  0.166667  0.250000    0.00057870 106 t-inv F
  0.166667  0.333333  0.166667    0.00057870 107 t-inv F
  0.166667  0.166667  0.333333    0.00057870 107 t-inv F
  0.166667  0.416667  0.166667    0.00057870 108 t-inv F
  0.166667  0.166667  0.416667    0.00057870 108 t-inv F
  0.166667  0.500000  0.166667    0.00057870 109 t-inv F
  0.166667  0.166667  0.500000    0.00057870 109 t-inv F
  0.166667 -0.416667  0.166667    0.00057870 110 t-inv F
  0.166667  0.166667 -0.416667    0.00057870 110 t-inv F
  0.166667 -0.333333  0.166667    0.00057870 111 t-inv F
  0.166667  0.166667 -0.333333    0.00057870 111 t-inv F
  0.166667 -0.250000  0.166667    0.00057870 112 t-inv F
  0.166667  0.166667 -0.250000    0.00057870 112 t-inv F
  0.166667 -0.166667  0.166667    0.00057870 113 t-inv F
  0.166667  0.166667 -0.166667    0.00057870 113 t-inv F
  0.166667  0.250000  0.250000    0.00057870 114 t-inv F
  0.250000  0.166667  0.250000    0.00057870 114 t-inv F
  0.166667  0.333333  0.250000    0.00057870 115 t-inv F
  0.250000  0.166667  0.333333    0.00057870 115 t-inv F
  0.333333  0.166667  0.250000    0.00057870 115 t-inv F
  0.250000  0.333333  0.166667    0.00057870 115 t-inv F
  0.166667  0.250000  0.333333    0.00057870 115 t-inv F
  0.166667  0.416667  0.250000    0.00057870 116 t-inv F
  0.250000  0.166667  0.416667    0.00057870 116 t-inv F
  0.416667  0.166667  0.250000    0.00057870 116 t-inv F
  0.250000  0.416667  0.166667    0.00057870 116 t-inv F
  0.166667  0.250000  0.416667    0.00057870 116 t-inv F
  0.166667  0.500000  0.250000    0.00057870 117 t-inv F
  0.250000  0.166667  0.500000    0.00057870 117 t-inv F
  0.500000  0.166667  0.250000    0.00057870 117 t-inv F
  0.250000  0.500000  0.166667    0.00057870 117 t-inv F
  0.166667  0.250000  0.500000    0.00057870 117 t-inv F
  0.166667 -0.416667  0.250000    0.00057870 118 t-inv F
  0.250000  0.166667 -0.416667    0.00057870 118 t-inv F
 -0.416667  0.166667  0.250000    0.00057870 118 t-inv F
  0.250000 -0.416667  0.166667    0.00057870 118 t-inv F
  0.166667  0.250000 -0.416667    0.00057870 118 t-inv F
  0.166667 -0.333333  0.250000    0.00057870 119 t-inv F
  0.250000  0.166667 -0.333333    0.00057870 119 t-inv F
 -0.333333  0.166667  0.250000    0.00057870 119 t-inv F
  0.250000 -0.333333  0.166667    0.00057870 119 t-inv F
  0.166667  0.250000 -0.333333    0.00057870 119 t-inv F
  0.166667 -0.250000  0.250000    0.00057870 120 t-inv F
  0.250000  0.166667 -0.250000    0.00057870 120 t-inv F
 -0.250000  0.166667  0.250000    0.00057870 120 t-inv F
  0.250000 -0.250000  0.166667    0.00057870 120 t-inv F
  0.166667  0.250000 -0.250000    0.00057870 120 t-inv F
  0.166667 -0.166667  0.250000    0.00057870 121 t-inv F
  0.250000  0.166667 -0.166667    0.00057870 121 t-inv F
 -0.166667  0.166667  0.250000    0.00057870 121 t-inv F
  0.250000 -0.166667  0.166667    0.00057870 121 t-inv F
  0.166667  0.250000 -0.166667    0.00057870 121 t-inv F
  0.166667  0.333333  0.333333    0.00057870 122 t-inv F
  0.333333  0.166667  0.333333    0.00057870 122 t-inv F
  0.166667  0.416667  0.333333    0.00057870 123 t-inv F
  0.333333  0.166667  0.416667    0.00057870 123 t-inv F
  0.416667  0.166667  0.333333    0.00057870 123 t-inv F
  0.333333  0.416667  0.166667    0.00057870 123 t-inv F
  0.166667  0.333333  0.416667    0.00057870 123 t-inv F
  0.166667  0.500000  0.333333    0.00057870 124 t-inv F
  0.333333  0.166667  0.500000    0.00057870 124 t-inv F
  0.500000  0.166667  0.333333    0.00057870 124 t-inv F
  0.333333  0.500000  0.166667    0.00057870 124 t-inv F
  0.166667  0.333333  0.500000    0.00057870 124 t-inv F
  0.166667 -0.416667  0.333333    0.00057870 125 t-inv F
  0.333333  0.166667 -0.416667    0.00057870 125 t-inv F
 -0.416667  0.166667  0.333333    0.00057870 125 t-inv F
  0.333333 -0.416667  0.166667    0.00057870 125 t-inv F
  0.166667  0.333333 -0.416667    0.00057870 125 t-inv F
  0.166667 -0.333333  0.333333    0.00057870 126 t-inv F
  0.333333  0.166667 -0.333333    0.00057870 126 t-inv F
 -0.333333  0.166667  0.333333    0.00057870 126 t-inv F
  0.333333 -0.333333  0.166667    0.00057870 126 t-inv F
  0.166667  0.333333 -0.333333    0.00057870 126 t-inv F
  0.166667 -0.250000  0.333333    0.00057870 127 t-inv F
  0.333333  0.166667 -0.250000    0.00057870 127 t-inv F
 -0.250000  0.166667  0.333333    0.00057870 127 t-inv F
  0.333333 -0.250000  0.166667    0.00057870 127 t-inv F
  0.166667  0.333333 -0.250000    0.00057870 127 t-inv F
  0.166667 -0.166667  0.333333    0.00057870 128 t-inv F
  0.333333  0.166667 -0.166667    0.00057870 128 t-inv F
 -0.166667  0.166667  0.333333    0.00057870 128 t-inv F
  0.333333 -0.166667  0.166667    0.00057870 128 t-inv F
  0.166667  0.333333 -0.166667    0.00057870 128 t-inv F
  0.166667  0.416667  0.416667    0.00057870 129 t-inv F
  0.416667  0.166667  0.416667    0.00057870 129 t-inv F
  0.166667  0.500000  0.416667    0.00057870 130 t-inv F
  0.416667  0.166667  0.500000    0.00057870 130 t-inv F
  0.500000  0.166667  0.416667    0.00057870 130 t-inv F
  0.416667  0.500000  0.166667    0.00057870 130 t-inv F
  0.166667  0.416667  0.500000    0.00057870 130 t-inv F
  0.166667 -0.416667  0.416667    0.00057870 131 t-inv F
  0.416667  0.166667 -0.416667    0.00057870 131 t-inv F
 -0.416667  0.166667  0.416667    0.00057870 131 t-inv F
  0.416667 -0.416667  0.166667    0.00057870 131 t-inv F
  0.166667  0.416667 -0.416667    0.00057870 131 t-inv F
  0.166667 -0.333333  0.416667    0.00057870 132 t-inv F
  0.416667  0.166667 -0.333333    0.00057870 132 t-inv F
 -0.333333  0.166667  0.416667    0.00057870 132 t-inv F
  0.416667 -0.333333  0.166667    0.00057870 132 t-inv F
  0.166667  0.416667 -0.333333    0.00057870 132 t-inv F
  0.166667 -0.250000  0.416667    0.00057870 133 t-inv F
  0.416667  0.166667 -0.250000    0.00057870 133 t-inv F
 -0.250000  0.166667  0.416667    0.00057870 133 t-inv F
  0.416667 -0.250000  0.166667    0.00057870 133 t-inv F
  0.166667  0.416667 -0.250000    0.00057870 133 t-inv F
  0.166667 -0.166667  0.416667    0.00057870 134 t-inv F
  0.416667  0.166667 -0.166667    0.00057870 134 t-inv F
 -0.166667  0.166667  0.416667    0.00057870 134 t-inv F
  0.416667 -0.166667  0.166667    0.00057870 134 t-inv F
  0.166667  0.416667 -0.166667    0.00057870 134 t-inv F
  0.166667  0.500000  0.500000    0.00057870 135 t-inv F
  0.500000  0.166667  0.500000    0.00057870 135 t-inv F
  0.166667 -0.416667  0.500000    0.00057870 136 t-inv F
  0.500000  0.166667 -0.416667    0.00057870 136 t-inv F
 -0.416667  0.166667  0.500000    0.00057870 136 t-inv F
  0.500000 -0.416667  0.166667    0.00057870 136 t-inv F
  0.166667  0.500000 -0.416667    0.00057870 136 t-inv F
  0.166667 -0.333333  0.500000    0.00057870 137 t-inv F
  0.500000  0.166667 -0.333333    0.00057870 137 t-inv F
 -0.333333  0.166667  0.500000    0.00057870 137 t-inv F
  0.500000 -0.333333  0.166667    0.00057870 137 t-inv F
  0.166667  0.500000 -0.333333    0.00057870 137 t-inv F
  0.166667 -0.250000  0.500000    0.00057870 138 t-inv F
  0.500000  0.166667 -0.250000    0.00057870 138 t-inv F
 -0.250000  0.166667  0.500000    0.00057870 138 t-inv F
  0.500000 -0.250000  0.166667    0.00057870 138 t-inv F
  0.166667  0.500000 -0.250000    0.00057870 138 t-inv F
  0.166667 -0.166667  0.500000    0.00057870 139 t-inv F
  0.500000  0.166667 -0.166667    0.00057870 139 t-inv F
 -0.166667  0.166667  0.500000    0.00057870 139 t-inv F
  0.500000 -0.166667  0.166667    0.00057870 139 t-inv F
  0.166667  0.500000 -0.166667    0.00057870 139 t-inv F
  0.166667 -0.416667 -0.416667    0.00057870 140 t-inv F
 -0.416667  0.166667 -0.416667    0.00057870 140 t-inv F
  0.166667 -0.333333 -0.416667    0.00057870 141 t-inv F
 -0.416667  0.166667 -0.333333    0.00057870 141 t-inv F
 -0.333333  0.166667 -0.416667    0.00057870 141 t-inv F
 -0.416667 -0.333333  0.166667    0.00057870 141 t-inv F
  0.166667 -0.416667 -0.333333    0.00057870 141 t-inv F
  0.166667 -0.250000 -0.416667    0.00057870 142 t-inv F
 -0.416667  0.166667 -0.250000    0.00057870 142 t-inv F
 -0.250000  0.166667 -0.416667    0.00057870 142 t-inv F
 -0.416667 -0.250000  0.166667    0.00057870 142 t-inv F
  0.166667 -0.416667 -0.250000    0.00057870 142 t-inv F
  0.166667 -0.333333 -0.333333    0.00057870 143 t-inv F
 -0.333333  0.166667 -0.333333    0.00057870 143 t-inv F
  0.166667 -0.250000 -0.333333    0.00057870 144 t-inv F
 -0.333333  0.166667 -0.250000    0.00057870 144 t-inv F
 -0.250000  0.166667 -0.333333    0.00057870 144 t-inv F
 -0.333333 -0.250000  0.166667    0.00057870 144 t-inv F
  0.166667 -0.333333 -0.250000    0.00057870 144 t-inv F
  0.166667 -0.250000 -0.250000    0.00057870 145 t-inv F
 -0.250000  0.166667 -0.250000    0.00057870 145 t-inv F
  0.250000  0.333333  0.250000    0.00057870 147 t-inv F
  0.250000  0.250000  0.333333    0.00057870 147 t-inv F
  0.250000  0.416667  0.250000    0.00057870 148 t-inv F
  0.250000  0.250000  0.416667    0.00057870 148 t-inv F
  0.250000  0.500000  0.250000    0.00057870 149 t-inv F
  0.250000  0.250000  0.500000    0.00057870 149 t-inv F
  0.250000 -0.416667  0.250000    0.00057870 150 t-inv F
  0.250000  0.250000 -0.416667    0.00057870 150 t-inv F
  0.250000 -0.333333  0.250000    0.00057870 151 t-inv F
  0.250000  0.250000 -0.333333    0.00057870 151 t-inv F
  0.250000 -0.250000  0.250000    0.00057870 152 t-inv F
  0.250000  0.250000 -0.250000    0.00057870 152 t-inv F
  0.250000  0.333333  0.333333    0.00057870 153 t-inv F
  0.333333  0.250000  0.333333    0.00057870 153 t-inv F
  0.250000  0.416667  0.333333    0.00057870 154 t-inv F
  0.333333  0.250000  0.416667    0.00057870 154 t-inv F
  0.416667  0.250000  0.333333    0.00057870 154 t-inv F
  0.333333  0.416667  0.250000    0.00057870 154 t-inv F
  0.250000  0.333333  0.416667    0.00057870 154 t-inv F
  0.250000  0.500000  0.333333    0.00057870 155 t-inv F
  0.333333  0.250000  0.500000    0.00057870 155 t-inv F
  0.500000  0.250000  0.333333    0.00057870 155 t-inv F
  0.333333  0.500000  0.250000    0.00057870 155 t-inv F
  0.250000  0.333333  0.500000    0.00057870 155 t-inv F
  0.250000 -0.416667  0.333333    0.00057870 156 t-inv F
  0.333333  0.250000 -0.416667    0.00057870 156 t-inv F
 -0.416667  0.250000  0.333333    0.00057870 156 t-inv F
  0.333333 -0.416667  0.250000    0.00057870 156 t-inv F
  0.250000  0.333333 -0.416667    0.00057870 156 t-inv F
  0.250000 -0.333333  0.333333    0.00057870 157 t-inv F
  0.333333  0.250000 -0.333333    0.00057870 157 t-inv F
 -0.333333  0.250000  0.333333    0.00057870 157 t-inv F
  0.333333 -0.333333  0.250000    0.00057870 157 t-inv F
  0.250000  0.333333 -0.333333    0.00057870 157 t-inv F
  0.250000 -0.250000  0.333333    0.00057870 158 t-inv F
  0.333333  0.250000 -0.250000    0.00057870 158 t-inv F
 -0.250000  0.250000  0.333333    0.00057870 158 t-inv F
  0.333333 -0.250000  0.250000    0.00057870 158 t-inv F
  0.250000  0.333333 -0.250000    0.00057870 158 t-inv F
  0.250000  0.416667  0.416667    0.00057870 159 t-inv F
  0.416667  0.250000  0.416667    0.00057870 159 t-inv F
  0.250000  0.500000  0.416667    0.00057870 160 t-inv F
  0.416667  0.250000  0.500000    0.00057870 160 t-inv F
  0.500000  0.250000  0.416667    0.00057870 160 t-inv F
  0.416667  0.500000  0.250000    0.00057870 160 t-inv F
  0.250000  0.416667  0.500000    0.00057870 160 t-inv F
  0.250000 -0.416667  0.416667    0.00057870 161 t-inv F
  0.416667  0.250000 -0.416667    0.00057870 161 t-inv F
 -0.416667  0.250000  0.416667    0.00057870 161 t-inv F
  0.416667 -0.416667  0.250000    0.00057870 161 t-inv F
  0.250000  0.416667 -0.416667    0.00057870 161 t-inv F
  0.250000 -0.333333  0.416667    0.00057870 162 t-inv F
  0.416667  0.250000 -0.333333    0.00057870 162 t-inv F
 -0.333333  0.250000  0.416667    0.00057870 162 t-inv F
  0.416667 -0.333333  0.250000    0.00057870 162 t-inv F
  0.250000  0.416667 -0.333333    0.00057870 162 t-inv F
  0.250000 -0.250000  0.416667    0.00057870 163 t-inv F
  0.416667  0.250000 -0.250000    0.00057870 163 t-inv F
 -0.250000  0.250000  0.416667    0.00057870 163 t-inv F
  0.416667 -0.250000  0.250000    0.00057870 163 t-inv F
  0.250000  0.416667 -0.250000    0.00057870 163 t-inv F
  0.250000  0.500000  0.500000    0.00057870 164 t-inv F
  0.500000  0.250000  0.500000    0.00057870 164 t-inv F
  0.250000 -0.416667  0.500000    0.00057870 165 t-inv F
  0.500000  0.250000 -0.416667    0.00057870 165 t-inv F
 -0.416667  0.250000  0.500000    0.00057870 165 t-inv F
  0.500000 -0.416667  0.250000    0.00057870 165 t-inv F
  0.250000  0.500000 -0.416667    0.00057870 165 t-inv F
  0.250000 -0.333333  0.500000    0.00057870 166 t-inv F
  0.500000  0.250000 -0.333333    0.00057870 166 t-inv F
 -0.333333  0.250000  0.500000    0.00057870 166 t-inv F
  0.500000 -0.333333  0.250000    0.00057870 166 t-inv F
  0.250000  0.500000 -0.333333    0.00057870 166 t-inv F
  0.250000 -0.250000  0.500000    0.00057870 167 t-inv F
  0.500000  0.250000 -0.250000    0.00057870 167 t-inv F
 -0.250000  0.250000  0.500000    0.00057870 167 t-inv F
  0.500000 -0.250000  0.250000    0.00057870 167 t-inv F
  0.250000  0.500000 -0.250000    0.00057870 167 t-inv F
  0.250000 -0.416667 -0.416667    0.00057870 168 t-inv F
 -0.416667  0.250000 -0.416667    0.00057870 168 t-inv F
  0.250000 -0.333333 -0.416667    0.00057870 169 t-inv F
 -0.416667  0.250000 -0.333333    0.00057870 169 t-inv F
 -0.333333  0.250000 -0.416667    0.00057870 169 t-inv F
 -0.416667 -0.333333  0.250000    0.00057870 169 t-inv F
  0.250000 -0.416667 -0.333333    0.00057870 169 t-inv F
  0.250000 -0.333333 -0.333333    0.00057870 170 t-inv F
 -0.333333  0.250000 -0.333333    0.00057870 170 t-inv F
  0.333333  0.416667  0.333333    0.00057870 172 t-inv F
  0.333333  0.333333  0.416667    0.00057870 172 t-inv F
  0.333333  0.500000  0.333333    0.00057870 173 t-inv F
  0.333333  0.333333  0.500000    0.00057870 173 t-inv F
  0.333333 -0.416667  0.333333    0.00057870 174 t-inv F
  0.333333  0.333333 -0.416667    0.00057870 174 t-inv F
  0.333333 -0.333333  0.333333    0.00057870 175 t-inv F
  0.333333  0.333333 -0.333333    0.00057870 175 t-inv F
  0.333333  0.416667  0.416667    0.00057870 176 t-inv F
  0.416667  0.333333  0.416667    0.00057870 176 t-inv F
  0.333333  0.500000  0.416667    0.00057870 177 t-inv F
  0.416667  0.333333  0.500000    0.00057870 177 t-inv F
  0.500000  0.333333  0.416667    0.00057870 177 t-inv F
  0.416667  0.500000  0.333333    0.00057870 177 t-inv F
  0.333333  0.416667  0.500000    0.00057870 177 t-inv F
  0.333333 -0.416667  0.416667    0.00057870 178 t-inv F
[...]
      4      -0.0000      0.00000
      5      -0.0000      0.00000
      6       0.0001      0.00000
      7       0.0001      0.00000
      8       0.0001      0.00000
      9       0.0000      0.00000
     10       0.0000      0.00000
     11      -0.0000      0.00000
     12      -0.0000      0.00000
     13       0.0000      0.00000
     14       0.0000      0.00000
     15      -0.0000      0.00000
     16       0.0000      0.00000

 k-point 465 :       0.0833   -0.4167    0.4167
  band No.  band energies     occupation 
      1      -0.0000      0.00000
      2       0.0001      0.00000
      3      -0.0000      0.00000
      4      -0.0000      0.00000
      5      -0.0000      0.00000
      6       0.0001      0.00000
      7       0.0001      0.00000
      8       0.0001      0.00000
      9       0.0000      0.00000
     10       0.0000      0.00000
     11       0.0000      0.00000
     12       0.0000      0.00000
     13       0.0000      0.00000
     14       0.0000      0.00000
     15      -0.0000      0.00000
     16       0.0000      0.00000

 k-point 466 :       0.1667   -0.4167    0.4167
  band No.  band energies     occupation 
      1      -0.0000      0.00000
      2       0.0001      0.00000
      3      -0.0000      0.00000
      4      -0.0000      0.00000
      5      -0.0000      0.00000
      6       0.0001      0.00000
      7       0.0001      0.00000
      8       0.0001      0.00000
      9       0.0000      0.00000
     10       0.0000      0.00000
     11       0.0000      0.00000
     12       0.0000      0.00000
     13       0.0000      0.00000
     14       0.0000      0.00000
     15      -0.0000      0.00000
     16      -0.0000      0.00000

 k-point 467 :       0.2500   -0.4167    0.4167
  band No.  band energies     occupation 
      1      -0.0000      0.00000
      2       0.0001      0.00000
      3      -0.0000      0.00000
      4      -0.0000      0.00000
      5      -0.0000      0.00000
      6       0.0001      0.00000
      7       0.0001      0.00000
      8       0.0001      0.00000
      9       0.0000      0.00000
     10       0.0000      0.00000
     11       0.0000      0.00000
     12       0.0000      0.00000
     13      -0.0000      0.00000
     14       0.0000      0.00000
     15      -0.0000      0.00000
     16      -0.0000      0.00000

 k-point 468 :       0.3333   -0.4167    0.4167
  band No.  band energies     occupation 
      1      -0.0000      0.00000
      2       0.0001      0.00000
      3      -0.0000      0.00000
      4      -0.0000      0.00000
      5      -0.0000      0.00000
      6       0.0001      0.00000
      7       0.0001      0.00000
      8       0.0001      0.00000
      9       0.0000      0.00000
     10       0.0000      0.00000
     11       0.0000      0.00000
     12      -0.0000      0.00000
     13      -0.0000      0.00000
     14       0.0000      0.00000
     15      -0.0000      0.00000
     16      -0.0000      0.00000

 k-point 469 :       0.4167   -0.4167    0.4167
  band No.  band energies     occupation 
      1      -0.0000      0.00000
      2       0.0001      0.00000
      3      -0.0000      0.00000
      4      -0.0000      0.00000
      5      -0.0000      0.00000
      6       0.0001      0.00000
      7       0.0001      0.00000
      8       0.0001      0.00000
      9       0.0000      0.00000
     10       0.0000      0.00000
     11       0.0000      0.00000
     12      -0.0000      0.00000
     13      -0.0000      0.00000
     14       0.0000      0.00000
     15      -0.0000      0.00000
     16       0.0000      0.00000

 k-point 470 :       0.5000   -0.4167    0.4167
  band No.  band energies     occupation 
      1      -0.0000      0.00000
      2       0.0001      0.00000
      3      -0.0000      0.00000
      4      -0.0000      0.00000
      5      -0.0000      0.00000
      6       0.0001      0.00000
      7       0.0001      0.00000
      8       0.0001      0.00000
      9       0.0000      0.00000
     10       0.0000      0.00000
     11       0.0000      0.00000
     12      -0.0000      0.00000
     13       0.0000      0.00000
     14       0.0000      0.00000
     15      -0.0000      0.00000
     16      -0.0000      0.00000

 k-point 471 :       0.0000    0.5000    0.5000
  band No.  band energies     occupation 
      1      -0.0000      0.00000
      2       0.0001      0.00000
      3      -0.0000      0.00000
      4      -0.0000      0.00000
      5      -0.0000      0.00000
      6       0.0001      0.00000
      7       0.0001      0.00000
      8       0.0001      0.00000
      9       0.0000      0.00000
     10       0.0000      0.00000
     11      -0.0000      0.00000
     12      -0.0000      0.00000
     13       0.0000      0.00000
     14       0.0000      0.00000
     15      -0.0000      0.00000
     16      -0.0000      0.00000

 k-point 472 :       0.0833    0.5000    0.5000
  band No.  band energies     occupation 
      1      -0.0000      0.00000
      2       0.0001      0.00000
      3      -0.0000      0.00000
      4      -0.0000      0.00000
      5      -0.0000      0.00000
      6       0.0001      0.00000
      7       0.0001      0.00000
      8       0.0001      0.00000
      9       0.0000      0.00000
     10       0.0000      0.00000
     11       0.0000      0.00000
     12      -0.0000      0.00000
     13       0.0000      0.00000
     14       0.0000      0.00000
     15      -0.0000      0.00000
     16      -0.0000      0.00000

 k-point 473 :       0.1667    0.5000    0.5000
  band No.  band energies     occupation 
      1      -0.0000      0.00000
      2       0.0001      0.00000
      3      -0.0000      0.00000
      4      -0.0000      0.00000
      5      -0.0000      0.00000
      6       0.0001      0.00000
      7       0.0001      0.00000
      8       0.0001      0.00000
      9       0.0000      0.00000
     10       0.0000      0.00000
     11       0.0000      0.00000
     12       0.0000      0.00000
     13       0.0000      0.00000
     14       0.0000      0.00000
     15      -0.0000      0.00000
     16      -0.0000      0.00000

 k-point 474 :       0.2500    0.5000    0.5000
  band No.  band energies     occupation 
      1      -0.0000      0.00000
      2       0.0001      0.00000
      3      -0.0000      0.00000
      4      -0.0000      0.00000
      5      -0.0000      0.00000
      6       0.0001      0.00000
      7       0.0001      0.00000
      8       0.0001      0.00000
      9       0.0000      0.00000
     10       0.0000      0.00000
     11       0.0000      0.00000
     12       0.0000      0.00000
     13       0.0000      0.00000
     14       0.0000      0.00000
     15      -0.0000      0.00000
     16      -0.0000      0.00000

 k-point 475 :       0.3333    0.5000    0.5000
  band No.  band energies     occupation 
      1      -0.0000      0.00000
      2       0.0001      0.00000
      3      -0.0000      0.00000
      4      -0.0000      0.00000
      5      -0.0000      0.00000
      6       0.0001      0.00000
      7       0.0001      0.00000
      8       0.0001      0.00000
      9       0.0000      0.00000
     10       0.0000      0.00000
     11       0.0000      0.00000
     12      -0.0000      0.00000
     13       0.0000      0.00000
     14       0.0000      0.00000
     15      -0.0000      0.00000
     16      -0.0000      0.00000

 k-point 476 :       0.4167    0.5000    0.5000
  band No.  band energies     occupation 
      1      -0.0000      0.00000
      2       0.0001      0.00000
      3      -0.0000      0.00000
      4      -0.0000      0.00000
      5      -0.0000      0.00000
      6       0.0001      0.00000
      7       0.0001      0.00000
      8       0.0001      0.00000
      9       0.0000      0.00000
     10       0.0000      0.00000
     11       0.0000      0.00000
     12       0.0000      0.00000
     13       0.0000      0.00000
     14       0.0000      0.00000
     15      -0.0000      0.00000
     16      -0.0000      0.00000


------------------------ aborting loop because EDIFF is reached ----------------------------------------


    FORLOC:  cpu time    0.0011: real time    0.0011
    FORNL :  cpu time    0.1932: real time    0.1932
    STRESS:  cpu time    1.8533: real time    1.8589
    FORCOR:  cpu time    0.0112: real time    0.0112
    OFIELD:  cpu time    0.0001: real time    0.0001
    FORLOC:  cpu time    0.0034: real time    0.0034
    FORNL :  cpu time    0.2185: real time    0.2186
    STRESS:  cpu time    1.9135: real time    1.9317
    FORCOR:  cpu time    0.0165: real time    0.0165
    OFIELD:  cpu time    0.0001: real time    0.0001
    FORLOC:  cpu time    0.0030: real time    0.0030
    FORNL :  cpu time    0.2023: real time    0.2023
    STRESS:  cpu time    1.8857: real time    1.8859
    FORCOR:  cpu time    0.0110: real time    0.0110
    OFIELD:  cpu time    0.0001: real time    0.0001
    FORLOC:  cpu time    0.0035: real time    0.0035
    FORNL :  cpu time    0.2056: real time    0.2056
    STRESS:  cpu time    1.8943: real time    1.9066
    FORCOR:  cpu time    0.0111: real time    0.0111
    OFIELD:  cpu time    0.0001: real time    0.0001

 INTERNAL STRAIN TENSOR  FOR ION    2  DIRECTION 1   (eV/Angst):
 -----------------------------------------------------------------------------
     0.00035 -0.00042 -0.00042
    -0.00043 -0.00000  0.00015
    -0.00043  0.00015 -0.00000


 POSITION                   FORCE-CONSTANT FOR ION    2 DIRECTION 1 (eV/Angst/Angst)
 -----------------------------------------------------------------------------------
      0.00000      0.00000      0.00000         0.943468      0.000020      0.000020
      1.68522      1.68522      1.68522        -0.943468     -0.000020     -0.000020
 -----------------------------------------------------------------------------------
    total drift:                                0.000000     -0.000000     -0.000000


 BORN EFFECTIVE CHARGE FOR ION    2 DIRECTION 1 :  -1.246   0.000   0.000
                   rigid augmentation           :  -1.276   0.000   0.000
                   ionic contribution           :   7.000   0.000   0.000
                   Berry contribution           :  -6.971   0.000   0.000


--------------------------------------------------------------------------------------------------------


  LATTYP: Found a simple cubic cell.
 ALAT       =     3.3704469211
  
  Lattice vectors:
  
 A1 = (   3.3704469211,   0.0000000000,   0.0000000000)
 A2 = (   0.0000000000,   3.3704469211,   0.0000000000)
 A3 = (   0.0000000000,   0.0000000000,   3.3704469211)


Analysis of symmetry for initial positions (statically):
=====================================================================
 Subroutine PRICEL returns:
 Original cell was already a primitive cell.
 

 Routine SETGRP: Setting up the symmetry group for a 
 simple cubic supercell.


 Subroutine GETGRP returns: Found  6 space group operations
 (whereof  6 operations were pure point group operations)
 out of a pool of 48 trial point group operations.


The static configuration has the point symmetry C_3v.


Analysis of symmetry for dynamics (positions and initial velocities):
=====================================================================
 Subroutine PRICEL returns:
 Original cell was already a primitive cell.
 

 Routine SETGRP: Setting up the symmetry group for a 
 simple cubic supercell.


 Subroutine GETGRP returns: Found  6 space group operations
 (whereof  6 operations were pure point group operations)
 out of a pool of 48 trial point group operations.


The dynamic configuration has the point symmetry C_3v.


 Subroutine INISYM returns: Found  6 space group operations
 (whereof  6 operations are pure point group operations),
 and found     1 'primitive' translations



--------------------------------------------------------------------------------------------------------




 MACROSCOPIC STATIC DIELECTRIC TENSOR (including local field effects in DFT)
 ------------------------------------------------------
           2.339356    -0.000000    -0.000000
          -0.000000     2.339356    -0.000000
          -0.000000    -0.000000     2.339356
 ------------------------------------------------------


 PIEZOELECTRIC TENSOR  for field in x, y, z        (e  Angst)
          XX          YY          ZZ          XY          YZ          ZX
  --------------------------------------------------------------------------------
  x    -0.00003    -0.00001    -0.00001     0.00005    -0.00001     0.00005
  y     0.00000    -0.00007     0.00000     0.00005     0.00005    -0.00001
  z     0.00000     0.00000    -0.00027    -0.00000     0.00001     0.00001

 PIEZOELECTRIC TENSOR  for field in x, y, z        (C/m^2)
          XX          YY          ZZ          XY          YZ          ZX
  --------------------------------------------------------------------------------
  x    -0.00005    -0.00000    -0.00000     0.00001    -0.00000     0.00001
  y    -0.00000    -0.00005    -0.00000     0.00001     0.00001    -0.00000
  z    -0.00000    -0.00000    -0.00005    -0.00000     0.00001     0.00001
 
 BORN EFFECTIVE CHARGES (in e, cummulative output)
 -------------------------------------------------
 ion    1
    1     1.24637    -0.00000    -0.00000
    2    -0.00000     1.24636    -0.00000
    3    -0.00000    -0.00000     1.24637
 ion    2
    1    -1.24637     0.00000     0.00000
    2     0.00000    -1.24636     0.00000
    3     0.00000     0.00000    -1.24637

 INTERNAL STRAIN TENSOR FOR ION    1 for displacements in x,y,z  (eV/Angst):
          X           Y           Z          XY          YZ          ZX
  --------------------------------------------------------------------------------
  x     0.00038     0.00011     0.00011    -0.00072     0.00002    -0.00071
  y     0.00011     0.00038     0.00011    -0.00071    -0.00072     0.00002
  z     0.00011     0.00011     0.00038     0.00002    -0.00071    -0.00072

 INTERNAL STRAIN TENSOR FOR ION    2 for displacements in x,y,z  (eV/Angst):
          X           Y           Z          XY          YZ          ZX
  --------------------------------------------------------------------------------
  x     0.00035    -0.00000    -0.00000    -0.00043     0.00015    -0.00042
  y    -0.00000     0.00035    -0.00000    -0.00042    -0.00043     0.00015
  z    -0.00000    -0.00000     0.00035     0.00015    -0.00042    -0.00043


--------------------------------------------------------------------------------------------------------


 
 SECOND DERIVATIVES (NOT SYMMETRIZED)
 ------------------------------------
               1X          1Y          1Z          2X          2Y          2Z 
  1X    -1.001649    0.000001    0.000001    1.001649   -0.000001   -0.000001
  1Y     0.000001   -1.001649    0.000001   -0.000001    1.001649   -0.000001
  1Z     0.000001    0.000001   -1.001649   -0.000001   -0.000001    1.001649
  2X     0.943468    0.000020    0.000020   -0.943468   -0.000020   -0.000020
  2Y     0.000020    0.943468    0.000020   -0.000020   -0.943468   -0.000020
  2Z     0.000020    0.000020    0.943468   -0.000020   -0.000020   -0.943468
 
 
 Eigenvectors and eigenvalues of the dynamical matrix
 ----------------------------------------------------
 
 
   1 f  =    3.873514 THz    24.338003 2PiTHz  129.206499 cm-1    16.019570 meV
             X         Y         Z           dx          dy          dz
      0.000000  0.000000  0.000000     0.252329    0.252329    0.252329  
      1.685224  1.685224  1.685224    -0.519291   -0.519291   -0.519291  
 
   2 f  =    3.873416 THz    24.337392 2PiTHz  129.203253 cm-1    16.019167 meV
             X         Y         Z           dx          dy          dz
      0.000000  0.000000  0.000000     0.083287   -0.342156    0.258869  
      1.685224  1.685224  1.685224    -0.171397    0.704130   -0.532733  
 
   3 f  =    3.873416 THz    24.337392 2PiTHz  129.203253 cm-1    16.019167 meV
             X         Y         Z           dx          dy          dz
      0.000000  0.000000  0.000000    -0.347002    0.101373    0.245629  
      1.685224  1.685224  1.685224     0.714103   -0.208617   -0.505486  
 
   4 f/i=    0.045518 THz     0.285997 2PiTHz    1.518310 cm-1     0.188247 meV
             X         Y         Z           dx          dy          dz
      0.000000  0.000000  0.000000    -0.519291   -0.519291   -0.519291  
      1.685224  1.685224  1.685224    -0.252329   -0.252329   -0.252329  
 
   5 f/i=    0.045567 THz     0.286309 2PiTHz    1.519967 cm-1     0.188452 meV
             X         Y         Z           dx          dy          dz
      0.000000  0.000000  0.000000     0.293851    0.435937   -0.729788  
      1.685224  1.685224  1.685224     0.142790    0.211834   -0.354624  
 
   6 f/i=    0.045567 THz     0.286309 2PiTHz    1.519967 cm-1     0.188452 meV
             X         Y         Z           dx          dy          dz
      0.000000  0.000000  0.000000     0.673032   -0.590998   -0.082034  
      1.685224  1.685224  1.685224     0.327044   -0.287182   -0.039862  
 


--------------------------------------------------------------------------------------------------------




 MACROSCOPIC STATIC DIELECTRIC TENSOR IONIC CONTRIBUTION
 ------------------------------------------------------
           7.545507    -0.000072    -0.000072
          -0.000072     7.545373    -0.000072
          -0.000072    -0.000072     7.545475
 ------------------------------------------------------


 ELASTIC MODULI IONIC CONTR (kBar)
 Direction    XX          YY          ZZ          XY          YZ          ZX
 --------------------------------------------------------------------------------
 XX          -0.0000     -0.0000     -0.0000      0.0000      0.0000      0.0000
 YY          -0.0000     -0.0000     -0.0000      0.0000      0.0000      0.0000
 ZZ          -0.0000     -0.0000     -0.0000      0.0000      0.0000      0.0000
 XY           0.0000      0.0000      0.0000     -0.0000     -0.0000     -0.0000
 YZ           0.0000      0.0000      0.0000     -0.0000     -0.0000     -0.0000
 ZX           0.0000      0.0000      0.0000     -0.0000     -0.0000     -0.0000
 --------------------------------------------------------------------------------


 PIEZOELECTRIC TENSOR IONIC CONTR  for field in x, y, z        (C/m^2)
          XX          YY          ZZ          XY          YZ          ZX
  --------------------------------------------------------------------------------
  x     0.00001     0.00003     0.00003    -0.00008    -0.00003    -0.00008
  y     0.00003     0.00001     0.00003    -0.00008    -0.00008    -0.00003
  z     0.00003     0.00003     0.00001    -0.00003    -0.00008    -0.00008


--------------------------------------------------------------------------------------------------------


     LOOP+:  cpu time  361.6852: real time  364.1534
    4ORBIT:  cpu time    0.0000: real time    0.0000

 total amount of memory used by VASP MPI-rank0    81467. kBytes
=======================================================================

   base      :      30000. kBytes
   nonl-proj :      41862. kBytes
   fftplans  :        858. kBytes
   grid      :       2151. kBytes
   one-center:         16. kBytes
   wavefun   :       6580. kBytes
 
  
  
 General timing and accounting informations for this job:
 ========================================================
  
                  Total CPU time used (sec):      363.808
                            User time (sec):      357.506
                          System time (sec):        6.302
                         Elapsed time (sec):      366.400
  
                   Maximum memory used (kb):      401652.
                   Average memory used (kb):           0.
  
                          Minor page faults:       574150
                          Major page faults:            3
                 Voluntary context switches:        10541
