<?xml version="1.0" encoding="ISO-8859-1"?>
<modeling>
 <generator>
  <i name="program" type="string">vasp </i>
  <i name="version" type="string">5.4.4.18Apr17-6-g9f103f2a35  </i>
  <i name="subversion" type="string">(build Aug 24 2017 11:22:49) complex            parallel </i>
  <i name="platform" type="string">LinuxIFC </i>
  <i name="date" type="string">2023 12 25 </i>
  <i name="time" type="string">13:07:27 </i>
 </generator>
 <incar>
  <i type="string" name="PREC">accurate</i>
  <i type="string" name="ALGO"> Normal</i>
  <i type="int" name="NELM">   100</i>
  <i type="int" name="IBRION">     8</i>
  <i name="EDIFF">      0.00000001</i>
  <i name="SYMPREC">      0.00000001</i>
  <i name="ENCUT">    520.00000000</i>
  <i type="logical" name="LREAL"> F  </i>
  <i type="int" name="ISMEAR">     0</i>
  <i name="SIGMA">      0.01000000</i>
  <i type="logical" name="LWAVE"> F  </i>
  <v type="int" name="KPOINT_BSE">    -1     0     0     0</v>
  <i type="int" name="NELM">   100</i>
  <i type="logical" name="LPEAD"> T  </i>
  <i type="logical" name="LEPSILON"> T  </i>
 </incar>
 <structure name="primitive_cell" >
  <crystal>
   <varray name="basis" >
    <v>       3.37044692       0.00000000       0.00000000 </v>
    <v>       0.00000000       3.37044692       0.00000000 </v>
    <v>       0.00000000       0.00000000       3.37044692 </v>
   </varray>
   <i name="volume">     38.28798193 </i>
   <varray name="rec_basis" >
    <v>       0.29669656       0.00000000       0.00000000 </v>
    <v>       0.00000000       0.29669656       0.00000000 </v>
    <v>       0.00000000       0.00000000       0.29669656 </v>
   </varray>
  </crystal>
  <varray name="positions" >
   <v>       0.00000000       0.00000000       0.00000000 </v>
   <v>      -0.49999996      -0.49999996      -0.49999996 </v>
  </varray>
 </structure>
 <varray name="primitive_index" >
  <v type="int" >        1 </v>
  <v type="int" >        2 </v>
 </varray>
 <kpoints>
  <generation param="Gamma">
   <v type="int" name="divisions">      12       12       12 </v>
   <v name="usershift">      0.00000000       0.00000000       0.00000000 </v>
   <v name="genvec1">      0.08333333       0.00000000       0.00000000 </v>
   <v name="genvec2">      0.00000000       0.08333333       0.00000000 </v>
   <v name="genvec3">      0.00000000       0.00000000       0.08333333 </v>
   <v name="shift">      0.00000000       0.00000000       0.00000000 </v>
  </generation>
  <varray name="kpointlist" >
   <v>       0.00000000       0.00000000       0.00000000 </v>
   <v>       0.08333333       0.00000000       0.00000000 </v>
   <v>       0.16666667       0.00000000       0.00000000 </v>
   <v>       0.25000000       0.00000000       0.00000000 </v>
   <v>       0.33333333       0.00000000       0.00000000 </v>
   <v>       0.41666667       0.00000000       0.00000000 </v>
   <v>       0.50000000       0.00000000       0.00000000 </v>
   <v>       0.08333333       0.08333333       0.00000000 </v>
   <v>       0.16666667       0.08333333       0.00000000 </v>
   <v>       0.25000000       0.08333333       0.00000000 </v>
   <v>       0.33333333       0.08333333       0.00000000 </v>
   <v>       0.41666667       0.08333333       0.00000000 </v>
   <v>       0.50000000       0.08333333       0.00000000 </v>
   <v>      -0.41666667       0.08333333       0.00000000 </v>
   <v>      -0.33333333       0.08333333       0.00000000 </v>
   <v>      -0.25000000       0.08333333       0.00000000 </v>
   <v>      -0.16666667       0.08333333       0.00000000 </v>
   <v>      -0.08333333       0.08333333       0.00000000 </v>
   <v>       0.16666667       0.16666667       0.00000000 </v>
   <v>       0.25000000       0.16666667       0.00000000 </v>
   <v>       0.33333333       0.16666667       0.00000000 </v>
   <v>       0.41666667       0.16666667       0.00000000 </v>
   <v>       0.50000000       0.16666667       0.00000000 </v>
   <v>      -0.41666667       0.16666667       0.00000000 </v>
   <v>      -0.33333333       0.16666667       0.00000000 </v>
   <v>      -0.25000000       0.16666667       0.00000000 </v>
   <v>      -0.16666667       0.16666667       0.00000000 </v>
   <v>       0.25000000       0.25000000       0.00000000 </v>
   <v>       0.33333333       0.25000000       0.00000000 </v>
   <v>       0.41666667       0.25000000       0.00000000 </v>
   <v>       0.50000000       0.25000000       0.00000000 </v>
   <v>      -0.41666667       0.25000000       0.00000000 </v>
   <v>      -0.33333333       0.25000000       0.00000000 </v>
   <v>      -0.25000000       0.25000000       0.00000000 </v>
   <v>       0.33333333       0.33333333       0.00000000 </v>
   <v>       0.41666667       0.33333333       0.00000000 </v>
   <v>       0.50000000       0.33333333       0.00000000 </v>
   <v>      -0.41666667       0.33333333       0.00000000 </v>
   <v>      -0.33333333       0.33333333       0.00000000 </v>
   <v>       0.41666667       0.41666667       0.00000000 </v>
   <v>       0.50000000       0.41666667       0.00000000 </v>
   <v>      -0.41666667       0.41666667       0.00000000 </v>
   <v>       0.50000000       0.50000000       0.00000000 </v>
   <v>       0.08333333       0.08333333       0.08333333 </v>
   <v>       0.16666667       0.08333333       0.08333333 </v>
   <v>       0.25000000       0.08333333       0.08333333 </v>
   <v>       0.33333333       0.08333333       0.08333333 </v>
   <v>       0.41666667       0.08333333       0.08333333 </v>
   <v>       0.50000000       0.08333333       0.08333333 </v>
   <v>      -0.41666667       0.08333333       0.08333333 </v>
   <v>      -0.33333333       0.08333333       0.08333333 </v>
   <v>      -0.25000000       0.08333333       0.08333333 </v>
   <v>      -0.16666667       0.08333333       0.08333333 </v>
   <v>      -0.08333333       0.08333333       0.08333333 </v>
   <v>       0.16666667       0.16666667       0.08333333 </v>
   <v>       0.25000000       0.16666667       0.08333333 </v>
   <v>       0.33333333       0.16666667       0.08333333 </v>
   <v>       0.41666667       0.16666667       0.08333333 </v>
   <v>       0.50000000       0.16666667       0.08333333 </v>
   <v>      -0.41666667       0.16666667       0.08333333 </v>
   <v>      -0.33333333       0.16666667       0.08333333 </v>
   <v>      -0.25000000       0.16666667       0.08333333 </v>
   <v>      -0.16666667       0.16666667       0.08333333 </v>
   <v>      -0.08333333       0.16666667       0.08333333 </v>
   <v>       0.25000000       0.25000000       0.08333333 </v>
   <v>       0.33333333       0.25000000       0.08333333 </v>
   <v>       0.41666667       0.25000000       0.08333333 </v>
   <v>       0.50000000       0.25000000       0.08333333 </v>
   <v>      -0.41666667       0.25000000       0.08333333 </v>
   <v>      -0.33333333       0.25000000       0.08333333 </v>
   <v>      -0.25000000       0.25000000       0.08333333 </v>
   <v>      -0.16666667       0.25000000       0.08333333 </v>
   <v>      -0.08333333       0.25000000       0.08333333 </v>
   <v>       0.33333333       0.33333333       0.08333333 </v>
   <v>       0.41666667       0.33333333       0.08333333 </v>
   <v>       0.50000000       0.33333333       0.08333333 </v>
   <v>      -0.41666667       0.33333333       0.08333333 </v>
   <v>      -0.33333333       0.33333333       0.08333333 </v>
   <v>      -0.25000000       0.33333333       0.08333333 </v>
   <v>      -0.16666667       0.33333333       0.08333333 </v>
   <v>      -0.08333333       0.33333333       0.08333333 </v>
   <v>       0.41666667       0.41666667       0.08333333 </v>
   <v>       0.50000000       0.41666667       0.08333333 </v>
   <v>      -0.41666667       0.41666667       0.08333333 </v>
   <v>      -0.33333333       0.41666667       0.08333333 </v>
   <v>      -0.25000000       0.41666667       0.08333333 </v>
   <v>      -0.16666667       0.41666667       0.08333333 </v>
   <v>      -0.08333333       0.41666667       0.08333333 </v>
   <v>       0.50000000       0.50000000       0.08333333 </v>
   <v>      -0.41666667       0.50000000       0.08333333 </v>
   <v>      -0.33333333       0.50000000       0.08333333 </v>
   <v>      -0.25000000       0.50000000       0.08333333 </v>
   <v>      -0.16666667       0.50000000       0.08333333 </v>
   <v>      -0.08333333       0.50000000       0.08333333 </v>
   <v>      -0.41666667      -0.41666667       0.08333333 </v>
   <v>      -0.33333333      -0.41666667       0.08333333 </v>
   <v>      -0.25000000      -0.41666667       0.08333333 </v>
   <v>      -0.16666667      -0.41666667       0.08333333 </v>
   <v>      -0.33333333      -0.33333333       0.08333333 </v>
   <v>      -0.25000000      -0.33333333       0.08333333 </v>
   <v>      -0.16666667      -0.33333333       0.08333333 </v>
   <v>      -0.25000000      -0.25000000       0.08333333 </v>
   <v>      -0.16666667      -0.25000000       0.08333333 </v>
   <v>      -0.16666667      -0.16666667       0.08333333 </v>
   <v>       0.16666667       0.16666667       0.16666667 </v>
   <v>       0.25000000       0.16666667       0.16666667 </v>
   <v>       0.33333333       0.16666667       0.16666667 </v>
   <v>       0.41666667       0.16666667       0.16666667 </v>
   <v>       0.50000000       0.16666667       0.16666667 </v>
   <v>      -0.41666667       0.16666667       0.16666667 </v>
   <v>      -0.33333333       0.16666667       0.16666667 </v>
   <v>      -0.25000000       0.16666667       0.16666667 </v>
   <v>      -0.16666667       0.16666667       0.16666667 </v>
   <v>       0.25000000       0.25000000       0.16666667 </v>
   <v>       0.33333333       0.25000000       0.16666667 </v>
   <v>       0.41666667       0.25000000       0.16666667 </v>
   <v>       0.50000000       0.25000000       0.16666667 </v>
   <v>      -0.41666667       0.25000000       0.16666667 </v>
   <v>      -0.33333333       0.25000000       0.16666667 </v>
   <v>      -0.25000000       0.25000000       0.16666667 </v>
   <v>      -0.16666667       0.25000000       0.16666667 </v>
   <v>       0.33333333       0.33333333       0.16666667 </v>
   <v>       0.41666667       0.33333333       0.16666667 </v>
   <v>       0.50000000       0.33333333       0.16666667 </v>
   <v>      -0.41666667       0.33333333       0.16666667 </v>
   <v>      -0.33333333       0.33333333       0.16666667 </v>
   <v>      -0.25000000       0.33333333       0.16666667 </v>
   <v>      -0.16666667       0.33333333       0.16666667 </v>
   <v>       0.41666667       0.41666667       0.16666667 </v>
   <v>       0.50000000       0.41666667       0.16666667 </v>
   <v>      -0.41666667       0.41666667       0.16666667 </v>
   <v>      -0.33333333       0.41666667       0.16666667 </v>
   <v>      -0.25000000       0.41666667       0.16666667 </v>
   <v>      -0.16666667       0.41666667       0.16666667 </v>
   <v>       0.50000000       0.50000000       0.16666667 </v>
   <v>      -0.41666667       0.50000000       0.16666667 </v>
   <v>      -0.33333333       0.50000000       0.16666667 </v>
   <v>      -0.25000000       0.50000000       0.16666667 </v>
   <v>      -0.16666667       0.50000000       0.16666667 </v>
   <v>      -0.41666667      -0.41666667       0.16666667 </v>
   <v>      -0.33333333      -0.41666667       0.16666667 </v>
   <v>      -0.25000000      -0.41666667       0.16666667 </v>
   <v>      -0.33333333      -0.33333333       0.16666667 </v>
   <v>      -0.25000000      -0.33333333       0.16666667 </v>
   <v>      -0.25000000      -0.25000000       0.16666667 </v>
   <v>       0.25000000       0.25000000       0.25000000 </v>
   <v>       0.33333333       0.25000000       0.25000000 </v>
   <v>       0.41666667       0.25000000       0.25000000 </v>
   <v>       0.50000000       0.25000000       0.25000000 </v>
   <v>      -0.41666667       0.25000000       0.25000000 </v>
   <v>      -0.33333333       0.25000000       0.25000000 </v>
   <v>      -0.25000000       0.25000000       0.25000000 </v>
   <v>       0.33333333       0.33333333       0.25000000 </v>
   <v>       0.41666667       0.33333333       0.25000000 </v>
   <v>       0.50000000       0.33333333       0.25000000 </v>
   <v>      -0.41666667       0.33333333       0.25000000 </v>
   <v>      -0.33333333       0.33333333       0.25000000 </v>
   <v>      -0.25000000       0.33333333       0.25000000 </v>
   <v>       0.41666667       0.41666667       0.25000000 </v>
   <v>       0.50000000       0.41666667       0.25000000 </v>
   <v>      -0.41666667       0.41666667       0.25000000 </v>
   <v>      -0.33333333       0.41666667       0.25000000 </v>
   <v>      -0.25000000       0.41666667       0.25000000 </v>
   <v>       0.50000000       0.50000000       0.25000000 </v>
   <v>      -0.41666667       0.50000000       0.25000000 </v>
   <v>      -0.33333333       0.50000000       0.25000000 </v>
   <v>      -0.25000000       0.50000000       0.25000000 </v>
   <v>      -0.41666667      -0.41666667       0.25000000 </v>
   <v>      -0.33333333      -0.41666667       0.25000000 </v>
   <v>      -0.33333333      -0.33333333       0.25000000 </v>
   <v>       0.33333333       0.33333333       0.33333333 </v>
   <v>       0.41666667       0.33333333       0.33333333 </v>
   <v>       0.50000000       0.33333333       0.33333333 </v>
   <v>      -0.41666667       0.33333333       0.33333333 </v>
   <v>      -0.33333333       0.33333333       0.33333333 </v>
   <v>       0.41666667       0.41666667       0.33333333 </v>
   <v>       0.50000000       0.41666667       0.33333333 </v>
   <v>      -0.41666667       0.41666667       0.33333333 </v>
   <v>      -0.33333333       0.41666667       0.33333333 </v>
   <v>       0.50000000       0.50000000       0.33333333 </v>
   <v>      -0.41666667       0.50000000       0.33333333 </v>
   <v>      -0.33333333       0.50000000       0.33333333 </v>
   <v>      -0.41666667      -0.41666667       0.33333333 </v>
   <v>       0.41666667       0.41666667       0.41666667 </v>
   <v>       0.50000000       0.41666667       0.41666667 </v>
   <v>      -0.41666667       0.41666667       0.41666667 </v>
   <v>       0.50000000       0.50000000       0.41666667 </v>
   <v>      -0.41666667       0.50000000       0.41666667 </v>
   <v>       0.50000000       0.50000000       0.50000000 </v>
  </varray>
  <varray name="weights" >
   <v>       0.00057870 </v>
   <v>       0.00347222 </v>
   <v>       0.00347222 </v>
   <v>       0.00347222 </v>
   <v>       0.00347222 </v>
   <v>       0.00347222 </v>
   <v>       0.00173611 </v>
   <v>       0.00347222 </v>
   <v>       0.00694444 </v>
   <v>       0.00694444 </v>
   <v>       0.00694444 </v>
   <v>       0.00694444 </v>
   <v>       0.00694444 </v>
   <v>       0.00694444 </v>
   <v>       0.00694444 </v>
   <v>       0.00694444 </v>
   <v>       0.00694444 </v>
   <v>       0.00347222 </v>
   <v>       0.00347222 </v>
   <v>       0.00694444 </v>
   <v>       0.00694444 </v>
   <v>       0.00694444 </v>
   <v>       0.00694444 </v>
   <v>       0.00694444 </v>
   <v>       0.00694444 </v>
   <v>       0.00694444 </v>
   <v>       0.00347222 </v>
   <v>       0.00347222 </v>
   <v>       0.00694444 </v>
   <v>       0.00694444 </v>
   <v>       0.00694444 </v>
   <v>       0.00694444 </v>
   <v>       0.00694444 </v>
   <v>       0.00347222 </v>
   <v>       0.00347222 </v>
   <v>       0.00694444 </v>
   <v>       0.00694444 </v>
   <v>       0.00694444 </v>
   <v>       0.00347222 </v>
   <v>       0.00347222 </v>
   <v>       0.00694444 </v>
   <v>       0.00347222 </v>
   <v>       0.00173611 </v>
   <v>       0.00115741 </v>
   <v>       0.00347222 </v>
   <v>       0.00347222 </v>
   <v>       0.00347222 </v>
   <v>       0.00347222 </v>
   <v>       0.00347222 </v>
   <v>       0.00347222 </v>
   <v>       0.00347222 </v>
   <v>       0.00347222 </v>
   <v>       0.00347222 </v>
   <v>       0.00347222 </v>
   <v>       0.00347222 </v>
   <v>       0.00694444 </v>
   <v>       0.00694444 </v>
   <v>       0.00694444 </v>
   <v>       0.00694444 </v>
   <v>       0.00694444 </v>
   <v>       0.00694444 </v>
   <v>       0.00694444 </v>
   <v>       0.00694444 </v>
   <v>       0.00694444 </v>
   <v>       0.00347222 </v>
   <v>       0.00694444 </v>
   <v>       0.00694444 </v>
   <v>       0.00694444 </v>
   <v>       0.00694444 </v>
   <v>       0.00694444 </v>
   <v>       0.00694444 </v>
   <v>       0.00694444 </v>
   <v>       0.00694444 </v>
   <v>       0.00347222 </v>
   <v>       0.00694444 </v>
   <v>       0.00694444 </v>
   <v>       0.00694444 </v>
   <v>       0.00694444 </v>
   <v>       0.00694444 </v>
   <v>       0.00694444 </v>
   <v>       0.00694444 </v>
   <v>       0.00347222 </v>
   <v>       0.00694444 </v>
   <v>       0.00694444 </v>
   <v>       0.00694444 </v>
   <v>       0.00694444 </v>
   <v>       0.00694444 </v>
   <v>       0.00694444 </v>
   <v>       0.00347222 </v>
   <v>       0.00694444 </v>
   <v>       0.00694444 </v>
   <v>       0.00694444 </v>
   <v>       0.00694444 </v>
   <v>       0.00347222 </v>
   <v>       0.00347222 </v>
   <v>       0.00694444 </v>
   <v>       0.00694444 </v>
   <v>       0.00694444 </v>
   <v>       0.00347222 </v>
   <v>       0.00694444 </v>
   <v>       0.00694444 </v>
   <v>       0.00347222 </v>
   <v>       0.00694444 </v>
   <v>       0.00347222 </v>
   <v>       0.00115741 </v>
   <v>       0.00347222 </v>
   <v>       0.00347222 </v>
   <v>       0.00347222 </v>
   <v>       0.00347222 </v>
   <v>       0.00347222 </v>
   <v>       0.00347222 </v>
   <v>       0.00347222 </v>
   <v>       0.00347222 </v>
   <v>       0.00347222 </v>
   <v>       0.00694444 </v>
   <v>       0.00694444 </v>
   <v>       0.00694444 </v>
   <v>       0.00694444 </v>
   <v>       0.00694444 </v>
   <v>       0.00694444 </v>
   <v>       0.00694444 </v>
   <v>       0.00347222 </v>
   <v>       0.00694444 </v>
   <v>       0.00694444 </v>
   <v>       0.00694444 </v>
   <v>       0.00694444 </v>
   <v>       0.00694444 </v>
   <v>       0.00694444 </v>
   <v>       0.00347222 </v>
   <v>       0.00694444 </v>
   <v>       0.00694444 </v>
   <v>       0.00694444 </v>
   <v>       0.00694444 </v>
   <v>       0.00694444 </v>
   <v>       0.00347222 </v>
   <v>       0.00694444 </v>
   <v>       0.00694444 </v>
   <v>       0.00694444 </v>
   <v>       0.00347222 </v>
   <v>       0.00347222 </v>
   <v>       0.00694444 </v>
   <v>       0.00694444 </v>
   <v>       0.00347222 </v>
   <v>       0.00694444 </v>
   <v>       0.00347222 </v>
   <v>       0.00115741 </v>
   <v>       0.00347222 </v>
   <v>       0.00347222 </v>
   <v>       0.00347222 </v>
   <v>       0.00347222 </v>
   <v>       0.00347222 </v>
   <v>       0.00347222 </v>
   <v>       0.00347222 </v>
   <v>       0.00694444 </v>
   <v>       0.00694444 </v>
   <v>       0.00694444 </v>
   <v>       0.00694444 </v>
   <v>       0.00694444 </v>
   <v>       0.00347222 </v>
   <v>       0.00694444 </v>
   <v>       0.00694444 </v>
   <v>       0.00694444 </v>
   <v>       0.00694444 </v>
   <v>       0.00347222 </v>
   <v>       0.00694444 </v>
   <v>       0.00694444 </v>
   <v>       0.00347222 </v>
   <v>       0.00347222 </v>
   <v>       0.00694444 </v>
   <v>       0.00347222 </v>
   <v>       0.00115741 </v>
   <v>       0.00347222 </v>
   <v>       0.00347222 </v>
   <v>       0.00347222 </v>
   <v>       0.00347222 </v>
   <v>       0.00347222 </v>
   <v>       0.00694444 </v>
   <v>       0.00694444 </v>
   <v>       0.00694444 </v>
   <v>       0.00347222 </v>
   <v>       0.00694444 </v>
   <v>       0.00347222 </v>
   <v>       0.00347222 </v>
   <v>       0.00115741 </v>
   <v>       0.00347222 </v>
   <v>       0.00347222 </v>
   <v>       0.00347222 </v>
   <v>       0.00347222 </v>
   <v>       0.00057870 </v>
  </varray>
 </kpoints>
 <parameters>
  <separator name="general" >
   <i type="string" name="SYSTEM">unknown system</i>
   <i type="logical" name="LCOMPAT"> F  </i>
  </separator>
  <separator name="electronic" >
   <i type="string" name="PREC">accura</i>
   <i name="ENMAX">    520.00000000</i>
   <i name="ENAUG">    613.61400000</i>
   <i name="EDIFF">      0.00000001</i>
   <i type="int" name="IALGO">    38</i>
   <i type="int" name="IWAVPR">    11</i>
   <i type="int" name="NBANDS">    16</i>
   <i name="NELECT">     16.00000000</i>
   <i type="int" name="TURBO">     0</i>
   <i type="int" name="IRESTART">     0</i>
   <i type="int" name="NREBOOT">     0</i>
   <i type="int" name="NMIN">     0</i>
   <i name="EREF">      0.00000000</i>
   <separator name="electronic smearing" >
    <i type="int" name="ISMEAR">     0</i>
    <i name="SIGMA">      0.01000000</i>
    <i name="KSPACING">      0.50000000</i>
    <i type="logical" name="KGAMMA"> T  </i>
   </separator>
   <separator name="electronic projectors" >
    <i type="logical" name="LREAL"> F  </i>
    <v name="ROPT">      0.00000000      0.00000000</v>
    <i type="int" name="LMAXPAW">  -100</i>
    <i type="int" name="LMAXMIX">     2</i>
    <i type="logical" name="NLSPLINE"> F  </i>
   </separator>
   <separator name="electronic startup" >
    <i type="int" name="ISTART">     0</i>
    <i type="int" name="ICHARG">     2</i>
    <i type="int" name="INIWAV">     1</i>
   </separator>
   <separator name="electronic spin" >
    <i type="int" name="ISPIN">     1</i>
    <i type="logical" name="LNONCOLLINEAR"> F  </i>
    <v name="MAGMOM">      1.00000000      1.00000000</v>
    <i name="NUPDOWN">     -1.00000000</i>
    <i type="logical" name="LSORBIT"> F  </i>
    <v name="SAXIS">      0.00000000      0.00000000      1.00000000</v>
    <i type="logical" name="LSPIRAL"> F  </i>
    <v name="QSPIRAL">      0.00000000      0.00000000      0.00000000</v>
    <i type="logical" name="LZEROZ"> F  </i>
   </separator>
   <separator name="electronic exchange-correlation" >
    <i type="logical" name="LASPH"> F  </i>
    <i type="logical" name="LMETAGGA"> F  </i>
   </separator>
   <separator name="electronic convergence" >
    <i type="int" name="NELM">   100</i>
    <i type="int" name="NELMDL">    -5</i>
    <i type="int" name="NELMIN">     2</i>
    <i name="ENINI">    520.00000000</i>
    <separator name="electronic convergence detail" >
     <i type="logical" name="LDIAG"> T  </i>
     <i type="logical" name="LSUBROT"> F  </i>
     <i name="WEIMIN">      0.00100000</i>
     <i name="EBREAK">      0.00000000</i>
     <i name="DEPER">      0.30000000</i>
     <i type="int" name="NRMM">     4</i>
     <i name="TIME">      0.40000000</i>
    </separator>
   </separator>
   <separator name="electronic mixer" >
    <i name="AMIX">      0.40000000</i>
    <i name="BMIX">      1.00000000</i>
    <i name="AMIN">      0.10000000</i>
    <i name="AMIX_MAG">      1.60000000</i>
    <i name="BMIX_MAG">      1.00000000</i>
    <separator name="electronic mixer details" >
     <i type="int" name="IMIX">     4</i>
     <i type="logical" name="MIXFIRST"> F  </i>
     <i type="int" name="MAXMIX">   -45</i>
     <i name="WC">    100.00000000</i>
     <i type="int" name="INIMIX">     1</i>
     <i type="int" name="MIXPRE">     1</i>
     <i type="int" name="MREMOVE">     5</i>
    </separator>
   </separator>
   <separator name="electronic dipolcorrection" >
    <i type="logical" name="LDIPOL"> F  </i>
    <i type="logical" name="LMONO"> F  </i>
    <i type="int" name="IDIPOL">     0</i>
    <i name="EPSILON">      1.00000000</i>
    <v name="DIPOL">   -100.00000000   -100.00000000   -100.00000000</v>
    <i name="EFIELD">      0.00000000</i>
   </separator>
  </separator>
  <separator name="grids" >
   <i type="int" name="NGX">    28</i>
   <i type="int" name="NGY">    28</i>
   <i type="int" name="NGZ">    28</i>
   <i type="int" name="NGXF">    56</i>
   <i type="int" name="NGYF">    56</i>
   <i type="int" name="NGZF">    56</i>
   <i type="logical" name="ADDGRID"> F  </i>
  </separator>
  <separator name="ionic" >
   <i type="int" name="NSW">     1</i>
   <i type="int" name="IBRION">     8</i>
   <i type="int" name="MDALGO">     0</i>
   <i type="int" name="ISIF">     2</i>
   <i name="PSTRESS">      0.00000000</i>
   <i name="EDIFFG">      0.00000010</i>
   <i type="int" name="NFREE">     0</i>
   <i name="POTIM">      0.50000000</i>
   <i name="SMASS">     -3.00000000</i>
   <i name="SCALEE">      1.00000000</i>
  </separator>
  <separator name="ionic md" >
   <i name="TEBEG">      0.00010000</i>
   <i name="TEEND">      0.00010000</i>
   <i type="int" name="NBLOCK">     1</i>
   <i type="int" name="KBLOCK">     1</i>
   <i type="int" name="NPACO">   256</i>
   <i name="APACO">     16.00000000</i>
  </separator>
  <separator name="symmetry" >
   <i type="int" name="ISYM">     2</i>
   <i name="SYMPREC">      0.00000001</i>
  </separator>
  <separator name="dos" >
   <i type="int" name="LORBIT">     0</i>
   <v name="RWIGS">     -1.00000000     -1.00000000</v>
   <i type="int" name="NEDOS">   301</i>
   <i name="EMIN">     10.00000000</i>
   <i name="EMAX">    -10.00000000</i>
   <i name="EFERMI">      0.00000000</i>
  </separator>
  <separator name="writing" >
   <i type="int" name="NWRITE">     2</i>
   <i type="logical" name="LWAVE"> F  </i>
   <i type="logical" name="LDOWNSAMPLE"> F  </i>
   <i type="logical" name="LCHARG"> T  </i>
   <i type="logical" name="LPARD"> F  </i>
   <i type="logical" name="LVTOT"> F  </i>
   <i type="logical" name="LVHAR"> F  </i>
   <i type="logical" name="LELF"> F  </i>
   <i type="logical" name="LOPTICS"> F  </i>
   <v name="STM">      0.00000000      0.00000000      0.00000000      0.00000000      0.00000000      0.00000000      0.00000000</v>
  </separator>
  <separator name="performance" >
   <i type="int" name="NPAR">     8</i>
   <i type="int" name="NSIM">     4</i>
   <i type="int" name="NBLK">    -1</i>
   <i type="logical" name="LPLANE"> T  </i>
   <i type="logical" name="LSCALAPACK"> T  </i>
   <i type="logical" name="LSCAAWARE"> F  </i>
   <i type="logical" name="LSCALU"> F  </i>
   <i type="logical" name="LASYNC"> F  </i>
   <i type="logical" name="LORBITALREAL"> F  </i>
  </separator>
  <separator name="miscellaneous" >
   <i type="int" name="IDIOT">     3</i>
   <i type="int" name="ISPECIAL">     0</i>
   <i type="logical" name="LMUSIC"> F  </i>
   <v name="POMASS">     85.46800000     18.99800000</v>
   <v name="DARWINR">      0.00000000      0.00000000</v>
   <v name="DARWINV">      1.00000000      1.00000000</v>
   <i type="logical" name="LCORR"> T  </i>
  </separator>
  <i type="logical" name="GGA_COMPAT"> T  </i>
  <i type="logical" name="LBERRY"> F  </i>
  <i type="int" name="ICORELEVEL">     0</i>
  <i type="logical" name="LDAU"> F  </i>
  <i type="int" name="I_CONSTRAINED_M">     0</i>
  <separator name="electronic exchange-correlation" >
   <i type="string" name="GGA">--</i>
   <i type="int" name="VOSKOWN">     0</i>
   <i type="logical" name="LHFCALC"> F  </i>
   <i type="string" name="PRECFOCK"></i>
   <i type="logical" name="LSYMGRAD"> F  </i>
   <i type="logical" name="LHFONE"> F  </i>
   <i type="logical" name="LRHFCALC"> F  </i>
   <i type="logical" name="LTHOMAS"> F  </i>
   <i type="logical" name="LMODELHF"> F  </i>
   <i name="ENCUT4O">     -1.00000000</i>
   <i type="int" name="EXXOEP">     0</i>
   <i type="int" name="FOURORBIT">     0</i>
   <i name="AEXX">      0.00000000</i>
   <i name="HFALPHA">      0.00000000</i>
   <i name="MCALPHA">      0.00000000</i>
   <i name="ALDAX">      1.00000000</i>
   <i name="AGGAX">      1.00000000</i>
   <i name="ALDAC">      1.00000000</i>
   <i name="AGGAC">      1.00000000</i>
   <i type="int" name="NKREDX">     1</i>
   <i type="int" name="NKREDY">     1</i>
   <i type="int" name="NKREDZ">     1</i>
   <i type="logical" name="SHIFTRED"> F  </i>
   <i type="logical" name="ODDONLY"> F  </i>
   <i type="logical" name="EVENONLY"> F  </i>
   <i type="int" name="LMAXFOCK">     0</i>
   <i type="int" name="NMAXFOCKAE">     0</i>
   <i type="logical" name="LFOCKAEDFT"> F  </i>
   <i name="HFSCREEN">      0.00000000</i>
   <i name="HFSCREENC">      0.00000000</i>
   <i type="int" name="NBANDSGWLOW">     0</i>
  </separator>
  <separator name="vdW DFT" >
   <i type="logical" name="LUSE_VDW"> F  </i>
   <i name="Zab_VDW">     -0.84910000</i>
   <i name="PARAM1">      0.12340000</i>
   <i name="PARAM2">      1.00000000</i>
   <i name="PARAM3">      0.00000000</i>
  </separator>
  <separator name="model GW" >
   <i type="int" name="MODEL_GW">     0</i>
   <i name="MODEL_EPS0">     11.48639458</i>
   <i name="MODEL_ALPHA">      1.00000000</i>
  </separator>
  <separator name="linear response parameters" >
   <i type="logical" name="LEPSILON"> T  </i>
   <i type="logical" name="LRPA"> F  </i>
   <i type="logical" name="LNABLA"> F  </i>
   <i type="logical" name="LVEL"> F  </i>
   <i type="int" name="KINTER">     0</i>
   <i name="CSHIFT">      0.10000000</i>
   <i name="OMEGAMAX">     -1.00000000</i>
   <i name="DEG_THRESHOLD">      0.00200000</i>
   <i name="RTIME">     -0.10000000</i>
   <i name="WPLASMAI">      0.00000000</i>
   <v name="DFIELD">      0.00000000      0.00000000      0.00000000</v>
   <v name="WPLASMA">      0.00000000      0.00000000      0.00000000      0.00000000      0.00000000      0.00000000      0.00000000      0.00000000      0.00000000</v>
  </separator>
  <separator name="orbital magnetization" >
   <i type="logical" name="NUCIND"> F  </i>
   <v name="MAGPOS">      0.00000000      0.00000000      0.00000000</v>
   <i type="logical" name="LNICSALL"> T  </i>
   <i type="logical" name="ORBITALMAG"> F  </i>
   <i type="logical" name="LMAGBLOCH"> F  </i>
   <i type="logical" name="LCHIMAG"> F  </i>
   <i type="logical" name="LGAUGE"> T  </i>
   <i type="int" name="MAGATOM">     0</i>
   <v name="MAGDIPOL">      0.00000000      0.00000000      0.00000000</v>
   <v name="AVECCONST">      0.00000000      0.00000000      0.00000000</v>
  </separator>
  <separator name="response functions" >
   <i type="logical" name="LADDER"> F  </i>
   <i type="logical" name="LRPAFORCE"> F  </i>
   <i type="logical" name="LFXC"> F  </i>
   <i type="logical" name="LHARTREE"> T  </i>
   <i type="int" name="IBSE">     0</i>
   <v type="int" name="KPOINT">    -1     0     0     0</v>
   <i type="logical" name="LTCTE"> F  </i>
   <i type="logical" name="LTETE"> F  </i>
   <i type="logical" name="LTRIPLET"> F  </i>
   <i type="logical" name="LFXCEPS"> F  </i>
   <i type="logical" name="LFXHEG"> F  </i>
   <i type="int" name="NATURALO">     2</i>
   <i type="logical" name="L2ORDER"> F  </i>
   <i type="logical" name="LMP2LT"> F  </i>
   <i type="logical" name="LUSEW"> F  </i>
   <i name="ENCUTGW">     -2.00000000</i>
   <i name="ENCUTGWSOFT">     -2.00000000</i>
   <i name="ENCUTLF">     -1.00000000</i>
   <i type="int" name="LMAXMP2">    -1</i>
   <i name="SCISSOR">      0.00000000</i>
   <i type="int" name="NOMEGA">     0</i>
   <i type="int" name="NOMEGAR">     0</i>
   <i type="int" name="NBANDSGW">    -1</i>
   <i type="int" name="NBANDSO">    -1</i>
   <i type="int" name="NBANDSV">    -1</i>
   <i type="int" name="NELM">   100</i>
   <i type="int" name="NELMHF">     1</i>
   <i type="int" name="DIM">     3</i>
   <i type="int" name="ANTIRES">     0</i>
   <i name="OMEGAMAX">    -30.00000000</i>
   <i name="OMEGAMIN">    -30.00000000</i>
   <i name="OMEGATL">   -200.00000000</i>
   <i type="int" name="OMEGAGRID">   140</i>
   <i name="CSHIFT">     -0.10000000</i>
   <i type="logical" name="SELFENERGY"> F  </i>
   <i type="logical" name="LSPECTRAL"> F  </i>
   <i type="logical" name="LSPECTRALGW"> F  </i>
   <i type="logical" name="LSINGLES"> F  </i>
   <i type="logical" name="LFERMIGW"> F  </i>
   <i type="logical" name="ODDONLYGW"> F  </i>
   <i type="logical" name="EVENONLYGW"> F  </i>
   <i type="int" name="NKREDLFX">     1</i>
   <i type="int" name="NKREDLFY">     1</i>
   <i type="int" name="NKREDLFZ">     1</i>
   <i type="int" name="MAXMEM">  2800</i>
   <i type="int" name="TELESCOPE">     0</i>
   <i type="int" name="TAUPAR">     1</i>
   <i type="int" name="OMEGAPAR">    -1</i>
   <i name="LAMBDA">      1.00000000</i>
  </separator>
  <separator name="External order field" >
   <i name="OFIELD_KAPPA">      0.00000000</i>
   <v name="OFIELD_K">      0.00000000      0.00000000      0.00000000</v>
   <i name="OFIELD_Q6_NEAR">      0.00000000</i>
   <i name="OFIELD_Q6_FAR">      0.00000000</i>
   <i name="OFIELD_A">      0.00000000</i>
  </separator>
 </parameters>
 <atominfo>
  <atoms>       2 </atoms>
  <types>       2 </types>
  <array name="atoms" >
   <dimension dim="1">ion</dimension>
   <field type="string">element</field>
   <field type="int">atomtype</field>
   <set>
    <rc><c>Rb</c><c>   1</c></rc>
    <rc><c>F </c><c>   2</c></rc>
   </set>
  </array>
  <array name="atomtypes" >
   <dimension dim="1">type</dimension>
   <field type="int">atomspertype</field>
   <field type="string">element</field>
   <field>mass</field>
   <field>valence</field>
   <field type="string">pseudopotential</field>
   <set>
    <rc><c>   1</c><c>Rb</c><c>     85.46800000</c><c>      9.00000000</c><c>  PAW_PBE Rb_sv 06Sep2000               </c></rc>
    <rc><c>   1</c><c>F </c><c>     18.99800000</c><c>      7.00000000</c><c>  PAW_PBE F 08Apr2002                   </c></rc>
   </set>
  </array>
 </atominfo>
 <structure name="initialpos" >
  <crystal>
   <varray name="basis" >
    <v>       3.37044692       0.00000000       0.00000000 </v>
    <v>       0.00000000       3.37044692       0.00000000 </v>
    <v>       0.00000000       0.00000000       3.37044692 </v>
   </varray>
   <i name="volume">     38.28798193 </i>
   <varray name="rec_basis" >
    <v>       0.29669656       0.00000000       0.00000000 </v>
    <v>       0.00000000       0.29669656       0.00000000 </v>
    <v>       0.00000000       0.00000000       0.29669656 </v>
   </varray>
  </crystal>
  <varray name="positions" >
   <v>       0.00000000       0.00000000       0.00000000 </v>
   <v>       0.50000004       0.50000004       0.50000004 </v>
  </varray>
 </structure>
 <calculation>
  <scstep>
   <time name="dav">    1.18    1.19</time>
   <time name="total">    1.20    1.22</time>
   <energy>
    <i name="alphaZ">     83.04893262 </i>
    <i name="ewald">  -1003.77690154 </i>
    <i name="hartreedc">   -298.98755301 </i>
    <i name="XCdc">     66.41009014 </i>
    <i name="pawpsdc">   1044.32946527 </i>
    <i name="pawaedc">  -1044.90731100 </i>
    <i name="eentropy">     -0.00000853 </i>
    <i name="bandstr">   -102.34408593 </i>
    <i name="atom">   1322.11800018 </i>
    <i name="e_fr_energy">     65.89062821 </i>
    <i name="e_wo_entrp">     65.89063674 </i>
    <i name="e_0_energy">     65.89063248 </i>
   </energy>
  </scstep>
  <scstep>
   <time name="dav">    1.40    1.41</time>
   <time name="total">    1.40    1.42</time>
   <energy>
    <i name="e_fr_energy">     -6.36915096 </i>
    <i name="e_wo_entrp">     -6.36915096 </i>
    <i name="e_0_energy">     -6.36915096 </i>
   </energy>
  </scstep>
  <scstep>
   <time name="dav">    1.41    1.43</time>
   <time name="total">    1.41    1.43</time>
   <energy>
    <i name="e_fr_energy">     -9.14016270 </i>
    <i name="e_wo_entrp">     -9.14016270 </i>
    <i name="e_0_energy">     -9.14016270 </i>
   </energy>
  </scstep>
  <scstep>
   <time name="dav">    1.36    1.37</time>
   <time name="total">    1.36    1.37</time>
   <energy>
    <i name="e_fr_energy">     -9.18650393 </i>
    <i name="e_wo_entrp">     -9.18650393 </i>
    <i name="e_0_energy">     -9.18650393 </i>
   </energy>
  </scstep>
  <scstep>
   <time name="dav">    1.34    1.35</time>
   <time name="total">    1.40    1.41</time>
   <energy>
    <i name="e_fr_energy">     -9.18791389 </i>
    <i name="e_wo_entrp">     -9.18791389 </i>
    <i name="e_0_energy">     -9.18791389 </i>
   </energy>
  </scstep>
  <scstep>
   <time name="dav">    1.32    1.33</time>
   <time name="total">    1.41    1.42</time>
   <energy>
    <i name="e_fr_energy">     -7.91211410 </i>
    <i name="e_wo_entrp">     -7.91211410 </i>
    <i name="e_0_energy">     -7.91211410 </i>
   </energy>
  </scstep>
  <scstep>
   <time name="dav">    1.40    1.43</time>
   <time name="total">    1.48    1.51</time>
   <energy>
    <i name="e_fr_energy">     -7.87292724 </i>
    <i name="e_wo_entrp">     -7.87292724 </i>
    <i name="e_0_energy">     -7.87292724 </i>
   </energy>
  </scstep>
  <scstep>
   <time name="dav">    1.33    1.34</time>
   <time name="total">    1.40    1.41</time>
   <energy>
    <i name="e_fr_energy">     -7.84504480 </i>
    <i name="e_wo_entrp">     -7.84504480 </i>
    <i name="e_0_energy">     -7.84504480 </i>
   </energy>
  </scstep>
  <scstep>
   <time name="dav">    1.39    1.41</time>
   <time name="total">    1.47    1.48</time>
   <energy>
    <i name="e_fr_energy">     -7.84454840 </i>
    <i name="e_wo_entrp">     -7.84454840 </i>
    <i name="e_0_energy">     -7.84454840 </i>
   </energy>
  </scstep>
  <scstep>
   <time name="dav">    1.22    1.24</time>
   <time name="total">    1.30    1.31</time>
   <energy>
    <i name="e_fr_energy">     -7.84484104 </i>
    <i name="e_wo_entrp">     -7.84484104 </i>
    <i name="e_0_energy">     -7.84484104 </i>
   </energy>
  </scstep>
  <scstep>
   <time name="dav">    1.34    1.36</time>
   <time name="total">    1.42    1.43</time>
   <energy>
    <i name="e_fr_energy">     -7.84481456 </i>
    <i name="e_wo_entrp">     -7.84481456 </i>
    <i name="e_0_energy">     -7.84481456 </i>
   </energy>
  </scstep>
  <scstep>
   <time name="dav">    1.24    1.25</time>
   <time name="total">    1.32    1.33</time>
   <energy>
    <i name="e_fr_energy">     -7.84481174 </i>
    <i name="e_wo_entrp">     -7.84481174 </i>
    <i name="e_0_energy">     -7.84481174 </i>
   </energy>
  </scstep>
  <scstep>
   <time name="dav">    1.51    1.52</time>
   <time name="total">    1.59    1.60</time>
   <energy>
    <i name="e_fr_energy">     -7.84481118 </i>
    <i name="e_wo_entrp">     -7.84481118 </i>
    <i name="e_0_energy">     -7.84481118 </i>
   </energy>
  </scstep>
  <scstep>
   <time name="dav">    1.32    1.34</time>
   <time name="total">    1.40    1.41</time>
   <energy>
    <i name="e_fr_energy">     -7.84481120 </i>
    <i name="e_wo_entrp">     -7.84481120 </i>
    <i name="e_0_energy">     -7.84481120 </i>
   </energy>
  </scstep>
  <scstep>
   <time name="dav">    1.15    1.16</time>
   <time name="total">    1.22    1.23</time>
   <energy>
    <i name="e_fr_energy">     -7.84481122 </i>
    <i name="e_wo_entrp">     -7.84481122 </i>
    <i name="e_0_energy">     -7.84481122 </i>
   </energy>
  </scstep>
  <scstep>
   <time name="dav">    0.91    0.92</time>
   <time name="total">    0.92    0.93</time>
   <energy>
    <i name="alphaZ">     83.04893262 </i>
    <i name="ewald">  -1003.77690154 </i>
    <i name="hartreedc">   -316.65159177 </i>
    <i name="XCdc">     67.36085165 </i>
    <i name="pawpsdc">   1144.45088584 </i>
    <i name="pawaedc">  -1145.77075902 </i>
    <i name="eentropy">     -0.00000000 </i>
    <i name="bandstr">   -158.62422920 </i>
    <i name="atom">   1322.11800018 </i>
    <i name="e_fr_energy">     -7.84481122 </i>
    <i name="e_wo_entrp">     -7.84481122 </i>
    <i name="e_0_energy">     -7.84481122 </i>
   </energy>
  </scstep>
  <structure>
   <crystal>
    <varray name="basis" >
     <v>       3.37044692       0.00000000       0.00000000 </v>
     <v>       0.00000000       3.37044692       0.00000000 </v>
     <v>       0.00000000       0.00000000       3.37044692 </v>
    </varray>
    <i name="volume">     38.28798193 </i>
    <varray name="rec_basis" >
     <v>       0.29669656       0.00000000       0.00000000 </v>
     <v>       0.00000000       0.29669656       0.00000000 </v>
     <v>       0.00000000       0.00000000       0.29669656 </v>
    </varray>
   </crystal>
   <varray name="positions" >
    <v>       0.00000000       0.00000000       0.00000000 </v>
    <v>       0.50000004       0.50000004       0.50000004 </v>
   </varray>
  </structure>
  <varray name="forces" >
   <v>       0.00000013       0.00000013       0.00000013 </v>
   <v>      -0.00000013      -0.00000013      -0.00000013 </v>
  </varray>
  <varray name="stress" >
   <v>      25.59214728       0.00000044       0.00000044 </v>
   <v>       0.00000044      25.59214728       0.00000044 </v>
   <v>       0.00000044       0.00000044      25.59214728 </v>
  </varray>
  <energy>
   <i name="e_fr_energy">     -7.84481122 </i>
   <i name="e_wo_entrp">     -7.84481122 </i>
   <i name="e_0_energy">     -0.00000000 </i>
  </energy>
  <scstep>
   <time name="total">    1.17    1.17</time>
   <energy>
    <i name="e_fr_energy">     -0.12741738 </i>
    <i name="e_wo_entrp">     -0.12741738 </i>
    <i name="e_0_energy">     -0.12741738 </i>
   </energy>
  </scstep>
  <scstep>
   <time name="total">    1.12    1.12</time>
   <energy>
    <i name="e_fr_energy">     -0.13026779 </i>
    <i name="e_wo_entrp">     -0.13026779 </i>
    <i name="e_0_energy">     -0.13026779 </i>
   </energy>
  </scstep>
  <scstep>
   <time name="total">    1.20    1.21</time>
   <energy>
    <i name="e_fr_energy">     -0.13130272 </i>
    <i name="e_wo_entrp">     -0.13130272 </i>
    <i name="e_0_energy">     -0.13130272 </i>
   </energy>
  </scstep>
  <scstep>
   <time name="total">    1.15    1.16</time>
   <energy>
    <i name="e_fr_energy">     -0.13141554 </i>
    <i name="e_wo_entrp">     -0.13141554 </i>
    <i name="e_0_energy">     -0.13141554 </i>
   </energy>
  </scstep>
  <scstep>
   <time name="total">    1.10    1.11</time>
   <energy>
    <i name="e_fr_energy">     -0.13142500 </i>
    <i name="e_wo_entrp">     -0.13142500 </i>
    <i name="e_0_energy">     -0.13142500 </i>
   </energy>
  </scstep>
  <scstep>
   <time name="total">    1.14    1.14</time>
   <energy>
    <i name="e_fr_energy">     -0.13142589 </i>
    <i name="e_wo_entrp">     -0.13142589 </i>
    <i name="e_0_energy">     -0.13142589 </i>
   </energy>
  </scstep>
  <scstep>
   <time name="total">    1.06    1.06</time>
   <energy>
    <i name="e_fr_energy">     -0.13142598 </i>
    <i name="e_wo_entrp">     -0.13142598 </i>
    <i name="e_0_energy">     -0.13142598 </i>
   </energy>
  </scstep>
  <scstep>
   <time name="total">    1.13    1.15</time>
   <energy>
    <i name="e_fr_energy">     -0.13142599 </i>
    <i name="e_wo_entrp">     -0.13142599 </i>
    <i name="e_0_energy">     -0.13142599 </i>
   </energy>
  </scstep>
  <scstep>
   <time name="total">    1.19    1.19</time>
   <energy>
    <i name="e_fr_energy">     -0.13550058 </i>
    <i name="e_wo_entrp">     -0.13550058 </i>
    <i name="e_0_energy">     -0.13550058 </i>
   </energy>
  </scstep>
  <scstep>
   <time name="total">    1.07    1.08</time>
   <energy>
    <i name="e_fr_energy">     -0.13880979 </i>
    <i name="e_wo_entrp">     -0.13880979 </i>
    <i name="e_0_energy">     -0.13880979 </i>
   </energy>
  </scstep>
  <scstep>
   <time name="total">    1.14    1.14</time>
   <energy>
    <i name="e_fr_energy">     -0.13995641 </i>
    <i name="e_wo_entrp">     -0.13995641 </i>
    <i name="e_0_energy">     -0.13995641 </i>
   </energy>
  </scstep>
  <scstep>
   <time name="total">    1.24    1.24</time>
   <energy>
    <i name="e_fr_energy">     -0.14008352 </i>
    <i name="e_wo_entrp">     -0.14008352 </i>
    <i name="e_0_energy">     -0.14008352 </i>
   </energy>
  </scstep>
  <scstep>
   <time name="total">    1.15    1.15</time>
   <energy>
    <i name="e_fr_energy">     -0.14009428 </i>
    <i name="e_wo_entrp">     -0.14009428 </i>
    <i name="e_0_energy">     -0.14009428 </i>
   </energy>
  </scstep>
  <scstep>
   <time name="total">    1.10    1.11</time>
   <energy>
    <i name="e_fr_energy">     -0.14009530 </i>
    <i name="e_wo_entrp">     -0.14009530 </i>
    <i name="e_0_energy">     -0.14009530 </i>
   </energy>
  </scstep>
  <scstep>
   <time name="total">    1.12    1.12</time>
   <energy>
    <i name="e_fr_energy">     -0.14009540 </i>
    <i name="e_wo_entrp">     -0.14009540 </i>
    <i name="e_0_energy">     -0.14009540 </i>
   </energy>
  </scstep>
  <scstep>
   <time name="total">    1.12    1.13</time>
   <energy>
    <i name="e_fr_energy">     -0.14009541 </i>
    <i name="e_wo_entrp">     -0.14009541 </i>
    <i name="e_0_energy">     -0.14009541 </i>
   </energy>
  </scstep>
  <scstep>
   <time name="total">    1.03    1.04</time>
   <energy>
    <i name="e_fr_energy">     -0.14009542 </i>
    <i name="e_wo_entrp">     -0.14009542 </i>
    <i name="e_0_energy">     -0.14009542 </i>
   </energy>
  </scstep>
  <scstep>
   <time name="total">    1.20    1.20</time>
   <energy>
    <i name="e_fr_energy">     -0.19198112 </i>
    <i name="e_wo_entrp">     -0.19198112 </i>
    <i name="e_0_energy">     -0.19198112 </i>
   </energy>
  </scstep>
  <scstep>
   <time name="total">    1.16    1.16</time>
   <energy>
    <i name="e_fr_energy">     -0.19593850 </i>
    <i name="e_wo_entrp">     -0.19593850 </i>
    <i name="e_0_energy">     -0.19593850 </i>
   </energy>
  </scstep>
  <scstep>
   <time name="total">    1.14    1.16</time>
   <energy>
    <i name="e_fr_energy">     -0.19700961 </i>
    <i name="e_wo_entrp">     -0.19700961 </i>
    <i name="e_0_energy">     -0.19700961 </i>
   </energy>
  </scstep>
  <scstep>
   <time name="total">    1.13    1.13</time>
   <energy>
    <i name="e_fr_energy">     -0.19712595 </i>
    <i name="e_wo_entrp">     -0.19712595 </i>
    <i name="e_0_energy">     -0.19712595 </i>
   </energy>
  </scstep>
  <scstep>
   <time name="total">    1.18    1.19</time>
   <energy>
    <i name="e_fr_energy">     -0.19713535 </i>
    <i name="e_wo_entrp">     -0.19713535 </i>
    <i name="e_0_energy">     -0.19713535 </i>
   </energy>
  </scstep>
  <scstep>
   <time name="total">    1.12    1.14</time>
   <energy>
    <i name="e_fr_energy">     -0.19713630 </i>
    <i name="e_wo_entrp">     -0.19713630 </i>
    <i name="e_0_energy">     -0.19713630 </i>
   </energy>
  </scstep>
  <scstep>
   <time name="total">    1.11    1.12</time>
   <energy>
    <i name="e_fr_energy">     -0.19713640 </i>
    <i name="e_wo_entrp">     -0.19713640 </i>
    <i name="e_0_energy">     -0.19713640 </i>
   </energy>
  </scstep>
  <scstep>
   <time name="total">    1.16    1.16</time>
   <energy>
    <i name="e_fr_energy">     -0.19713641 </i>
    <i name="e_wo_entrp">     -0.19713641 </i>
    <i name="e_0_energy">     -0.19713641 </i>
   </energy>
  </scstep>
  <scstep>
   <time name="total">    1.20    1.20</time>
   <energy>
    <i name="e_fr_energy">     -0.19713641 </i>
    <i name="e_wo_entrp">     -0.19713641 </i>
    <i name="e_0_energy">     -0.19713641 </i>
   </energy>
  </scstep>
  <varray name="epsilon_rpa" >
   <v>       2.47661682      -0.00000001      -0.00000001 </v>
   <v>      -0.00000001       2.47661682      -0.00000001 </v>
   <v>      -0.00000001      -0.00000001       2.47661682 </v>
  </varray>
  <kpoints>
   <generation param="Gamma">
    <v type="int" name="divisions">      12       12       12 </v>
    <v name="usershift">      0.00000000       0.00000000       0.00000000 </v>
    <v name="genvec1">      0.08333333       0.00000000       0.00000000 </v>
    <v name="genvec2">      0.00000000       0.08333333       0.00000000 </v>
    <v name="genvec3">      0.00000000       0.00000000       0.08333333 </v>
    <v name="shift">      0.00000000       0.00000000       0.00000000 </v>
   </generation>
   <varray name="kpointlist" >
    <v>       0.00000000       0.00000000       0.00000000 </v>
    <v>       0.08333333       0.00000000       0.00000000 </v>
    <v>       0.16666667       0.00000000       0.00000000 </v>
    <v>       0.25000000       0.00000000       0.00000000 </v>
    <v>       0.33333333       0.00000000       0.00000000 </v>
    <v>       0.41666667       0.00000000       0.00000000 </v>
    <v>       0.50000000       0.00000000       0.00000000 </v>
    <v>       0.00000000       0.08333333       0.00000000 </v>
    <v>       0.08333333       0.08333333       0.00000000 </v>
    <v>       0.16666667       0.08333333       0.00000000 </v>
    <v>       0.25000000       0.08333333       0.00000000 </v>
    <v>       0.33333333       0.08333333       0.00000000 </v>
    <v>       0.41666667       0.08333333       0.00000000 </v>
    <v>       0.50000000       0.08333333       0.00000000 </v>
    <v>      -0.41666667       0.08333333       0.00000000 </v>
    <v>      -0.33333333       0.08333333       0.00000000 </v>
    <v>      -0.25000000       0.08333333       0.00000000 </v>
    <v>      -0.16666667       0.08333333       0.00000000 </v>
    <v>      -0.08333333       0.08333333       0.00000000 </v>
    <v>       0.00000000       0.16666667       0.00000000 </v>
    <v>       0.08333333       0.16666667       0.00000000 </v>
    <v>       0.16666667       0.16666667       0.00000000 </v>
    <v>       0.25000000       0.16666667       0.00000000 </v>
    <v>       0.33333333       0.16666667       0.00000000 </v>
    <v>       0.41666667       0.16666667       0.00000000 </v>
    <v>       0.50000000       0.16666667       0.00000000 </v>
    <v>      -0.41666667       0.16666667       0.00000000 </v>
    <v>      -0.33333333       0.16666667       0.00000000 </v>
    <v>      -0.25000000       0.16666667       0.00000000 </v>
    <v>      -0.16666667       0.16666667       0.00000000 </v>
    <v>      -0.08333333       0.16666667       0.00000000 </v>
    <v>       0.00000000       0.25000000       0.00000000 </v>
    <v>       0.08333333       0.25000000       0.00000000 </v>
    <v>       0.16666667       0.25000000       0.00000000 </v>
    <v>       0.25000000       0.25000000       0.00000000 </v>
    <v>       0.33333333       0.25000000       0.00000000 </v>
    <v>       0.41666667       0.25000000       0.00000000 </v>
    <v>       0.50000000       0.25000000       0.00000000 </v>
    <v>      -0.41666667       0.25000000       0.00000000 </v>
    <v>      -0.33333333       0.25000000       0.00000000 </v>
    <v>      -0.25000000       0.25000000       0.00000000 </v>
    <v>      -0.16666667       0.25000000       0.00000000 </v>
    <v>      -0.08333333       0.25000000       0.00000000 </v>
    <v>       0.00000000       0.33333333       0.00000000 </v>
    <v>       0.08333333       0.33333333       0.00000000 </v>
    <v>       0.16666667       0.33333333       0.00000000 </v>
    <v>       0.25000000       0.33333333       0.00000000 </v>
    <v>       0.33333333       0.33333333       0.00000000 </v>
    <v>       0.41666667       0.33333333       0.00000000 </v>
    <v>       0.50000000       0.33333333       0.00000000 </v>
    <v>      -0.41666667       0.33333333       0.00000000 </v>
    <v>      -0.33333333       0.33333333       0.00000000 </v>
    <v>      -0.25000000       0.33333333       0.00000000 </v>
    <v>      -0.16666667       0.33333333       0.00000000 </v>
    <v>      -0.08333333       0.33333333       0.00000000 </v>
    <v>       0.00000000       0.41666667       0.00000000 </v>
    <v>       0.08333333       0.41666667       0.00000000 </v>
    <v>       0.16666667       0.41666667       0.00000000 </v>
    <v>       0.25000000       0.41666667       0.00000000 </v>
    <v>       0.33333333       0.41666667       0.00000000 </v>
    <v>       0.41666667       0.41666667       0.00000000 </v>
    <v>       0.50000000       0.41666667       0.00000000 </v>
    <v>      -0.41666667       0.41666667       0.00000000 </v>
    <v>      -0.33333333       0.41666667       0.00000000 </v>
    <v>      -0.25000000       0.41666667       0.00000000 </v>
    <v>      -0.16666667       0.41666667       0.00000000 </v>
    <v>      -0.08333333       0.41666667       0.00000000 </v>
    <v>       0.00000000       0.50000000       0.00000000 </v>
    <v>       0.08333333       0.50000000       0.00000000 </v>
    <v>       0.16666667       0.50000000       0.00000000 </v>
    <v>       0.25000000       0.50000000       0.00000000 </v>
    <v>       0.33333333       0.50000000       0.00000000 </v>
    <v>       0.41666667       0.50000000       0.00000000 </v>
    <v>       0.50000000       0.50000000       0.00000000 </v>
    <v>       0.00000000       0.08333333       0.08333333 </v>
    <v>       0.08333333       0.08333333       0.08333333 </v>
    <v>       0.16666667       0.08333333       0.08333333 </v>
    <v>       0.25000000       0.08333333       0.08333333 </v>
    <v>       0.33333333       0.08333333       0.08333333 </v>
    <v>       0.41666667       0.08333333       0.08333333 </v>
    <v>       0.50000000       0.08333333       0.08333333 </v>
    <v>      -0.41666667       0.08333333       0.08333333 </v>
    <v>      -0.33333333       0.08333333       0.08333333 </v>
    <v>      -0.25000000       0.08333333       0.08333333 </v>
    <v>      -0.16666667       0.08333333       0.08333333 </v>
    <v>      -0.08333333       0.08333333       0.08333333 </v>
    <v>       0.00000000       0.16666667       0.08333333 </v>
    <v>       0.08333333       0.16666667       0.08333333 </v>
    <v>       0.16666667       0.16666667       0.08333333 </v>
    <v>       0.25000000       0.16666667       0.08333333 </v>
    <v>       0.33333333       0.16666667       0.08333333 </v>
    <v>       0.41666667       0.16666667       0.08333333 </v>
    <v>       0.50000000       0.16666667       0.08333333 </v>
    <v>      -0.41666667       0.16666667       0.08333333 </v>
    <v>      -0.33333333       0.16666667       0.08333333 </v>
    <v>      -0.25000000       0.16666667       0.08333333 </v>
    <v>      -0.16666667       0.16666667       0.08333333 </v>
    <v>      -0.08333333       0.16666667       0.08333333 </v>
    <v>       0.00000000       0.25000000       0.08333333 </v>
    <v>       0.08333333       0.25000000       0.08333333 </v>
    <v>       0.16666667       0.25000000       0.08333333 </v>
    <v>       0.25000000       0.25000000       0.08333333 </v>
    <v>       0.33333333       0.25000000       0.08333333 </v>
    <v>       0.41666667       0.25000000       0.08333333 </v>
    <v>       0.50000000       0.25000000       0.08333333 </v>
    <v>      -0.41666667       0.25000000       0.08333333 </v>
    <v>      -0.33333333       0.25000000       0.08333333 </v>
    <v>      -0.25000000       0.25000000       0.08333333 </v>
    <v>      -0.16666667       0.25000000       0.08333333 </v>
    <v>      -0.08333333       0.25000000       0.08333333 </v>
    <v>       0.00000000       0.33333333       0.08333333 </v>
    <v>       0.08333333       0.33333333       0.08333333 </v>
    <v>       0.16666667       0.33333333       0.08333333 </v>
    <v>       0.25000000       0.33333333       0.08333333 </v>
    <v>       0.33333333       0.33333333       0.08333333 </v>
    <v>       0.41666667       0.33333333       0.08333333 </v>
    <v>       0.50000000       0.33333333       0.08333333 </v>
    <v>      -0.41666667       0.33333333       0.08333333 </v>
    <v>      -0.33333333       0.33333333       0.08333333 </v>
    <v>      -0.25000000       0.33333333       0.08333333 </v>
    <v>      -0.16666667       0.33333333       0.08333333 </v>
    <v>      -0.08333333       0.33333333       0.08333333 </v>
    <v>       0.00000000       0.41666667       0.08333333 </v>
    <v>       0.08333333       0.41666667       0.08333333 </v>
    <v>       0.16666667       0.41666667       0.08333333 </v>
    <v>       0.25000000       0.41666667       0.08333333 </v>
    <v>       0.33333333       0.41666667       0.08333333 </v>
    <v>       0.41666667       0.41666667       0.08333333 </v>
    <v>       0.50000000       0.41666667       0.08333333 </v>
    <v>      -0.41666667       0.41666667       0.08333333 </v>
    <v>      -0.33333333       0.41666667       0.08333333 </v>
    <v>      -0.25000000       0.41666667       0.08333333 </v>
    <v>      -0.16666667       0.41666667       0.08333333 </v>
    <v>      -0.08333333       0.41666667       0.08333333 </v>
    <v>       0.00000000       0.50000000       0.08333333 </v>
    <v>       0.08333333       0.50000000       0.08333333 </v>
    <v>       0.16666667       0.50000000       0.08333333 </v>
    <v>       0.25000000       0.50000000       0.08333333 </v>
    <v>       0.33333333       0.50000000       0.08333333 </v>
    <v>       0.41666667       0.50000000       0.08333333 </v>
    <v>       0.50000000       0.50000000       0.08333333 </v>
    <v>      -0.41666667       0.50000000       0.08333333 </v>
    <v>      -0.33333333       0.50000000       0.08333333 </v>
    <v>      -0.25000000       0.50000000       0.08333333 </v>
    <v>      -0.16666667       0.50000000       0.08333333 </v>
    <v>      -0.08333333       0.50000000       0.08333333 </v>
    <v>       0.00000000      -0.41666667       0.08333333 </v>
    <v>       0.08333333      -0.41666667       0.08333333 </v>
    <v>       0.16666667      -0.41666667       0.08333333 </v>
    <v>       0.25000000      -0.41666667       0.08333333 </v>
    <v>       0.33333333      -0.41666667       0.08333333 </v>
    <v>       0.41666667      -0.41666667       0.08333333 </v>
    <v>       0.50000000      -0.41666667       0.08333333 </v>
    <v>      -0.41666667      -0.41666667       0.08333333 </v>
    <v>      -0.33333333      -0.41666667       0.08333333 </v>
    <v>      -0.25000000      -0.41666667       0.08333333 </v>
    <v>      -0.16666667      -0.41666667       0.08333333 </v>
    <v>      -0.08333333      -0.41666667       0.08333333 </v>
    <v>       0.00000000      -0.33333333       0.08333333 </v>
    <v>       0.08333333      -0.33333333       0.08333333 </v>
    <v>       0.16666667      -0.33333333       0.08333333 </v>
    <v>       0.25000000      -0.33333333       0.08333333 </v>
    <v>       0.33333333      -0.33333333       0.08333333 </v>
    <v>       0.41666667      -0.33333333       0.08333333 </v>
    <v>       0.50000000      -0.33333333       0.08333333 </v>
    <v>      -0.41666667      -0.33333333       0.08333333 </v>
    <v>      -0.33333333      -0.33333333       0.08333333 </v>
    <v>      -0.25000000      -0.33333333       0.08333333 </v>
    <v>      -0.16666667      -0.33333333       0.08333333 </v>
    <v>      -0.08333333      -0.33333333       0.08333333 </v>
    <v>       0.00000000      -0.25000000       0.08333333 </v>
    <v>       0.08333333      -0.25000000       0.08333333 </v>
    <v>       0.16666667      -0.25000000       0.08333333 </v>
    <v>       0.25000000      -0.25000000       0.08333333 </v>
    <v>       0.33333333      -0.25000000       0.08333333 </v>
    <v>       0.41666667      -0.25000000       0.08333333 </v>
    <v>       0.50000000      -0.25000000       0.08333333 </v>
    <v>      -0.41666667      -0.25000000       0.08333333 </v>
    <v>      -0.33333333      -0.25000000       0.08333333 </v>
    <v>      -0.25000000      -0.25000000       0.08333333 </v>
    <v>      -0.16666667      -0.25000000       0.08333333 </v>
    <v>      -0.08333333      -0.25000000       0.08333333 </v>
    <v>       0.00000000      -0.16666667       0.08333333 </v>
    <v>       0.08333333      -0.16666667       0.08333333 </v>
    <v>       0.16666667      -0.16666667       0.08333333 </v>
    <v>       0.25000000      -0.16666667       0.08333333 </v>
    <v>       0.33333333      -0.16666667       0.08333333 </v>
    <v>       0.41666667      -0.16666667       0.08333333 </v>
    <v>       0.50000000      -0.16666667       0.08333333 </v>
    <v>      -0.41666667      -0.16666667       0.08333333 </v>
    <v>      -0.33333333      -0.16666667       0.08333333 </v>
    <v>      -0.25000000      -0.16666667       0.08333333 </v>
    <v>      -0.16666667      -0.16666667       0.08333333 </v>
    <v>      -0.08333333      -0.16666667       0.08333333 </v>
    <v>       0.00000000      -0.08333333       0.08333333 </v>
    <v>       0.08333333      -0.08333333       0.08333333 </v>
    <v>       0.16666667      -0.08333333       0.08333333 </v>
    <v>       0.25000000      -0.08333333       0.08333333 </v>
    <v>       0.33333333      -0.08333333       0.08333333 </v>
    <v>       0.41666667      -0.08333333       0.08333333 </v>
    <v>       0.50000000      -0.08333333       0.08333333 </v>
    <v>       0.00000000       0.16666667       0.16666667 </v>
    <v>       0.08333333       0.16666667       0.16666667 </v>
    <v>       0.16666667       0.16666667       0.16666667 </v>
    <v>       0.25000000       0.16666667       0.16666667 </v>
    <v>       0.33333333       0.16666667       0.16666667 </v>
    <v>       0.41666667       0.16666667       0.16666667 </v>
    <v>       0.50000000       0.16666667       0.16666667 </v>
    <v>      -0.41666667       0.16666667       0.16666667 </v>
    <v>      -0.33333333       0.16666667       0.16666667 </v>
    <v>      -0.25000000       0.16666667       0.16666667 </v>
    <v>      -0.16666667       0.16666667       0.16666667 </v>
    <v>      -0.08333333       0.16666667       0.16666667 </v>
    <v>       0.00000000       0.25000000       0.16666667 </v>
    <v>       0.08333333       0.25000000       0.16666667 </v>
    <v>       0.16666667       0.25000000       0.16666667 </v>
    <v>       0.25000000       0.25000000       0.16666667 </v>
    <v>       0.33333333       0.25000000       0.16666667 </v>
    <v>       0.41666667       0.25000000       0.16666667 </v>
    <v>       0.50000000       0.25000000       0.16666667 </v>
    <v>      -0.41666667       0.25000000       0.16666667 </v>
    <v>      -0.33333333       0.25000000       0.16666667 </v>
    <v>      -0.25000000       0.25000000       0.16666667 </v>
    <v>      -0.16666667       0.25000000       0.16666667 </v>
    <v>      -0.08333333       0.25000000       0.16666667 </v>
    <v>       0.00000000       0.33333333       0.16666667 </v>
    <v>       0.08333333       0.33333333       0.16666667 </v>
    <v>       0.16666667       0.33333333       0.16666667 </v>
    <v>       0.25000000       0.33333333       0.16666667 </v>
    <v>       0.33333333       0.33333333       0.16666667 </v>
    <v>       0.41666667       0.33333333       0.16666667 </v>
    <v>       0.50000000       0.33333333       0.16666667 </v>
    <v>      -0.41666667       0.33333333       0.16666667 </v>
    <v>      -0.33333333       0.33333333       0.16666667 </v>
    <v>      -0.25000000       0.33333333       0.16666667 </v>
    <v>      -0.16666667       0.33333333       0.16666667 </v>
    <v>      -0.08333333       0.33333333       0.16666667 </v>
    <v>       0.00000000       0.41666667       0.16666667 </v>
    <v>       0.08333333       0.41666667       0.16666667 </v>
    <v>       0.16666667       0.41666667       0.16666667 </v>
    <v>       0.25000000       0.41666667       0.16666667 </v>
    <v>       0.33333333       0.41666667       0.16666667 </v>
    <v>       0.41666667       0.41666667       0.16666667 </v>
    <v>       0.50000000       0.41666667       0.16666667 </v>
    <v>      -0.41666667       0.41666667       0.16666667 </v>
    <v>      -0.33333333       0.41666667       0.16666667 </v>
    <v>      -0.25000000       0.41666667       0.16666667 </v>
    <v>      -0.16666667       0.41666667       0.16666667 </v>
    <v>      -0.08333333       0.41666667       0.16666667 </v>
    <v>       0.00000000       0.50000000       0.16666667 </v>
    <v>       0.08333333       0.50000000       0.16666667 </v>
    <v>       0.16666667       0.50000000       0.16666667 </v>
    <v>       0.25000000       0.50000000       0.16666667 </v>
    <v>       0.33333333       0.50000000       0.16666667 </v>
    <v>       0.41666667       0.50000000       0.16666667 </v>
    <v>       0.50000000       0.50000000       0.16666667 </v>
    <v>      -0.41666667       0.50000000       0.16666667 </v>
    <v>      -0.33333333       0.50000000       0.16666667 </v>
    <v>      -0.25000000       0.50000000       0.16666667 </v>
    <v>      -0.16666667       0.50000000       0.16666667 </v>
    <v>      -0.08333333       0.50000000       0.16666667 </v>
    <v>       0.00000000      -0.41666667       0.16666667 </v>
    <v>       0.08333333      -0.41666667       0.16666667 </v>
    <v>       0.16666667      -0.41666667       0.16666667 </v>
    <v>       0.25000000      -0.41666667       0.16666667 </v>
    <v>       0.33333333      -0.41666667       0.16666667 </v>
    <v>       0.41666667      -0.41666667       0.16666667 </v>
    <v>       0.50000000      -0.41666667       0.16666667 </v>
    <v>      -0.41666667      -0.41666667       0.16666667 </v>
    <v>      -0.33333333      -0.41666667       0.16666667 </v>
    <v>      -0.25000000      -0.41666667       0.16666667 </v>
    <v>      -0.16666667      -0.41666667       0.16666667 </v>
    <v>      -0.08333333      -0.41666667       0.16666667 </v>
    <v>       0.00000000      -0.33333333       0.16666667 </v>
    <v>       0.08333333      -0.33333333       0.16666667 </v>
    <v>       0.16666667      -0.33333333       0.16666667 </v>
    <v>       0.25000000      -0.33333333       0.16666667 </v>
    <v>       0.33333333      -0.33333333       0.16666667 </v>
    <v>       0.41666667      -0.33333333       0.16666667 </v>
    <v>       0.50000000      -0.33333333       0.16666667 </v>
    <v>      -0.41666667      -0.33333333       0.16666667 </v>
    <v>      -0.33333333      -0.33333333       0.16666667 </v>
    <v>      -0.25000000      -0.33333333       0.16666667 </v>
    <v>      -0.16666667      -0.33333333       0.16666667 </v>
    <v>      -0.08333333      -0.33333333       0.16666667 </v>
    <v>       0.00000000      -0.25000000       0.16666667 </v>
    <v>       0.08333333      -0.25000000       0.16666667 </v>
    <v>       0.16666667      -0.25000000       0.16666667 </v>
    <v>       0.25000000      -0.25000000       0.16666667 </v>
    <v>       0.33333333      -0.25000000       0.16666667 </v>
    <v>       0.41666667      -0.25000000       0.16666667 </v>
    <v>       0.50000000      -0.25000000       0.16666667 </v>
    <v>      -0.41666667      -0.25000000       0.16666667 </v>
    <v>      -0.33333333      -0.25000000       0.16666667 </v>
    <v>      -0.25000000      -0.25000000       0.16666667 </v>
    <v>      -0.16666667      -0.25000000       0.16666667 </v>
    <v>      -0.08333333      -0.25000000       0.16666667 </v>
    <v>       0.00000000      -0.16666667       0.16666667 </v>
    <v>       0.08333333      -0.16666667       0.16666667 </v>
    <v>       0.16666667      -0.16666667       0.16666667 </v>
    <v>       0.25000000      -0.16666667       0.16666667 </v>
    <v>       0.33333333      -0.16666667       0.16666667 </v>
    <v>       0.41666667      -0.16666667       0.16666667 </v>
    <v>       0.50000000      -0.16666667       0.16666667 </v>
    <v>       0.00000000       0.25000000       0.25000000 </v>
    <v>       0.08333333       0.25000000       0.25000000 </v>
    <v>       0.16666667       0.25000000       0.25000000 </v>
    <v>       0.25000000       0.25000000       0.25000000 </v>
    <v>       0.33333333       0.25000000       0.25000000 </v>
    <v>       0.41666667       0.25000000       0.25000000 </v>
    <v>       0.50000000       0.25000000       0.25000000 </v>
    <v>      -0.41666667       0.25000000       0.25000000 </v>
    <v>      -0.33333333       0.25000000       0.25000000 </v>
    <v>      -0.25000000       0.25000000       0.25000000 </v>
    <v>      -0.16666667       0.25000000       0.25000000 </v>
    <v>      -0.08333333       0.25000000       0.25000000 </v>
    <v>       0.00000000       0.33333333       0.25000000 </v>
    <v>       0.08333333       0.33333333       0.25000000 </v>
    <v>       0.16666667       0.33333333       0.25000000 </v>
    <v>       0.25000000       0.33333333       0.25000000 </v>
    <v>       0.33333333       0.33333333       0.25000000 </v>
    <v>       0.41666667       0.33333333       0.25000000 </v>
    <v>       0.50000000       0.33333333       0.25000000 </v>
    <v>      -0.41666667       0.33333333       0.25000000 </v>
    <v>      -0.33333333       0.33333333       0.25000000 </v>
    <v>      -0.25000000       0.33333333       0.25000000 </v>
    <v>      -0.16666667       0.33333333       0.25000000 </v>
    <v>      -0.08333333       0.33333333       0.25000000 </v>
    <v>       0.00000000       0.41666667       0.25000000 </v>
    <v>       0.08333333       0.41666667       0.25000000 </v>
    <v>       0.16666667       0.41666667       0.25000000 </v>
    <v>       0.25000000       0.41666667       0.25000000 </v>
    <v>       0.33333333       0.41666667       0.25000000 </v>
    <v>       0.41666667       0.41666667       0.25000000 </v>
    <v>       0.50000000       0.41666667       0.25000000 </v>
    <v>      -0.41666667       0.41666667       0.25000000 </v>
    <v>      -0.33333333       0.41666667       0.25000000 </v>
    <v>      -0.25000000       0.41666667       0.25000000 </v>
    <v>      -0.16666667       0.41666667       0.25000000 </v>
    <v>      -0.08333333       0.41666667       0.25000000 </v>
    <v>       0.00000000       0.50000000       0.25000000 </v>
    <v>       0.08333333       0.50000000       0.25000000 </v>
    <v>       0.16666667       0.50000000       0.25000000 </v>
    <v>       0.25000000       0.50000000       0.25000000 </v>
    <v>       0.33333333       0.50000000       0.25000000 </v>
    <v>       0.41666667       0.50000000       0.25000000 </v>
    <v>       0.50000000       0.50000000       0.25000000 </v>
    <v>      -0.41666667       0.50000000       0.25000000 </v>
    <v>      -0.33333333       0.50000000       0.25000000 </v>
    <v>      -0.25000000       0.50000000       0.25000000 </v>
    <v>      -0.16666667       0.50000000       0.25000000 </v>
    <v>      -0.08333333       0.50000000       0.25000000 </v>
    <v>       0.00000000      -0.41666667       0.25000000 </v>
    <v>       0.08333333      -0.41666667       0.25000000 </v>
    <v>       0.16666667      -0.41666667       0.25000000 </v>
    <v>       0.25000000      -0.41666667       0.25000000 </v>
    <v>       0.33333333      -0.41666667       0.25000000 </v>
    <v>       0.41666667      -0.41666667       0.25000000 </v>
    <v>       0.50000000      -0.41666667       0.25000000 </v>
    <v>      -0.41666667      -0.41666667       0.25000000 </v>
    <v>      -0.33333333      -0.41666667       0.25000000 </v>
    <v>      -0.25000000      -0.41666667       0.25000000 </v>
    <v>      -0.16666667      -0.41666667       0.25000000 </v>
    <v>      -0.08333333      -0.41666667       0.25000000 </v>
    <v>       0.00000000      -0.33333333       0.25000000 </v>
    <v>       0.08333333      -0.33333333       0.25000000 </v>
    <v>       0.16666667      -0.33333333       0.25000000 </v>
    <v>       0.25000000      -0.33333333       0.25000000 </v>
    <v>       0.33333333      -0.33333333       0.25000000 </v>
    <v>       0.41666667      -0.33333333       0.25000000 </v>
    <v>       0.50000000      -0.33333333       0.25000000 </v>
    <v>      -0.41666667      -0.33333333       0.25000000 </v>
    <v>      -0.33333333      -0.33333333       0.25000000 </v>
    <v>      -0.25000000      -0.33333333       0.25000000 </v>
    <v>      -0.16666667      -0.33333333       0.25000000 </v>
    <v>      -0.08333333      -0.33333333       0.25000000 </v>
    <v>       0.00000000      -0.25000000       0.25000000 </v>
    <v>       0.08333333      -0.25000000       0.25000000 </v>
    <v>       0.16666667      -0.25000000       0.25000000 </v>
    <v>       0.25000000      -0.25000000       0.25000000 </v>
    <v>       0.33333333      -0.25000000       0.25000000 </v>
    <v>       0.41666667      -0.25000000       0.25000000 </v>
    <v>       0.50000000      -0.25000000       0.25000000 </v>
    <v>       0.00000000       0.33333333       0.33333333 </v>
    <v>       0.08333333       0.33333333       0.33333333 </v>
    <v>       0.16666667       0.33333333       0.33333333 </v>
    <v>       0.25000000       0.33333333       0.33333333 </v>
    <v>       0.33333333       0.33333333       0.33333333 </v>
    <v>       0.41666667       0.33333333       0.33333333 </v>
    <v>       0.50000000       0.33333333       0.33333333 </v>
    <v>      -0.41666667       0.33333333       0.33333333 </v>
    <v>      -0.33333333       0.33333333       0.33333333 </v>
    <v>      -0.25000000       0.33333333       0.33333333 </v>
    <v>      -0.16666667       0.33333333       0.33333333 </v>
    <v>      -0.08333333       0.33333333       0.33333333 </v>
    <v>       0.00000000       0.41666667       0.33333333 </v>
    <v>       0.08333333       0.41666667       0.33333333 </v>
    <v>       0.16666667       0.41666667       0.33333333 </v>
    <v>       0.25000000       0.41666667       0.33333333 </v>
    <v>       0.33333333       0.41666667       0.33333333 </v>
    <v>       0.41666667       0.41666667       0.33333333 </v>
    <v>       0.50000000       0.41666667       0.33333333 </v>
    <v>      -0.41666667       0.41666667       0.33333333 </v>
    <v>      -0.33333333       0.41666667       0.33333333 </v>
    <v>      -0.25000000       0.41666667       0.33333333 </v>
    <v>      -0.16666667       0.41666667       0.33333333 </v>
    <v>      -0.08333333       0.41666667       0.33333333 </v>
    <v>       0.00000000       0.50000000       0.33333333 </v>
    <v>       0.08333333       0.50000000       0.33333333 </v>
    <v>       0.16666667       0.50000000       0.33333333 </v>
    <v>       0.25000000       0.50000000       0.33333333 </v>
    <v>       0.33333333       0.50000000       0.33333333 </v>
    <v>       0.41666667       0.50000000       0.33333333 </v>
    <v>       0.50000000       0.50000000       0.33333333 </v>
    <v>      -0.41666667       0.50000000       0.33333333 </v>
    <v>      -0.33333333       0.50000000       0.33333333 </v>
    <v>      -0.25000000       0.50000000       0.33333333 </v>
    <v>      -0.16666667       0.50000000       0.33333333 </v>
    <v>      -0.08333333       0.50000000       0.33333333 </v>
    <v>       0.00000000      -0.41666667       0.33333333 </v>
    <v>       0.08333333      -0.41666667       0.33333333 </v>
    <v>       0.16666667      -0.41666667       0.33333333 </v>
    <v>       0.25000000      -0.41666667       0.33333333 </v>
    <v>       0.33333333      -0.41666667       0.33333333 </v>
    <v>       0.41666667      -0.41666667       0.33333333 </v>
    <v>       0.50000000      -0.41666667       0.33333333 </v>
    <v>      -0.41666667      -0.41666667       0.33333333 </v>
    <v>      -0.33333333      -0.41666667       0.33333333 </v>
    <v>      -0.25000000      -0.41666667       0.33333333 </v>
    <v>      -0.16666667      -0.41666667       0.33333333 </v>
    <v>      -0.08333333      -0.41666667       0.33333333 </v>
    <v>       0.00000000      -0.33333333       0.33333333 </v>
    <v>       0.08333333      -0.33333333       0.33333333 </v>
    <v>       0.16666667      -0.33333333       0.33333333 </v>
    <v>       0.25000000      -0.33333333       0.33333333 </v>
    <v>       0.33333333      -0.33333333       0.33333333 </v>
    <v>       0.41666667      -0.33333333       0.33333333 </v>
    <v>       0.50000000      -0.33333333       0.33333333 </v>
    <v>       0.00000000       0.41666667       0.41666667 </v>
    <v>       0.08333333       0.41666667       0.41666667 </v>
    <v>       0.16666667       0.41666667       0.41666667 </v>
    <v>       0.25000000       0.41666667       0.41666667 </v>
    <v>       0.33333333       0.41666667       0.41666667 </v>
    <v>       0.41666667       0.41666667       0.41666667 </v>
    <v>       0.50000000       0.41666667       0.41666667 </v>
    <v>      -0.41666667       0.41666667       0.41666667 </v>
    <v>      -0.33333333       0.41666667       0.41666667 </v>
    <v>      -0.25000000       0.41666667       0.41666667 </v>
    <v>      -0.16666667       0.41666667       0.41666667 </v>
    <v>      -0.08333333       0.41666667       0.41666667 </v>
    <v>       0.00000000       0.50000000       0.41666667 </v>
    <v>       0.08333333       0.50000000       0.41666667 </v>
    <v>       0.16666667       0.50000000       0.41666667 </v>
    <v>       0.25000000       0.50000000       0.41666667 </v>
    <v>       0.33333333       0.50000000       0.41666667 </v>
    <v>       0.41666667       0.50000000       0.41666667 </v>
    <v>       0.50000000       0.50000000       0.41666667 </v>
    <v>      -0.41666667       0.50000000       0.41666667 </v>
    <v>      -0.33333333       0.50000000       0.41666667 </v>
    <v>      -0.25000000       0.50000000       0.41666667 </v>
    <v>      -0.16666667       0.50000000       0.41666667 </v>
    <v>      -0.08333333       0.50000000       0.41666667 </v>
    <v>       0.00000000      -0.41666667       0.41666667 </v>
    <v>       0.08333333      -0.41666667       0.41666667 </v>
    <v>       0.16666667      -0.41666667       0.41666667 </v>
    <v>       0.25000000      -0.41666667       0.41666667 </v>
    <v>       0.33333333      -0.41666667       0.41666667 </v>
    <v>       0.41666667      -0.41666667       0.41666667 </v>
    <v>       0.50000000      -0.41666667       0.41666667 </v>
    <v>       0.00000000       0.50000000       0.50000000 </v>
    <v>       0.08333333       0.50000000       0.50000000 </v>
    <v>       0.16666667       0.50000000       0.50000000 </v>
    <v>       0.25000000       0.50000000       0.50000000 </v>
    <v>       0.33333333       0.50000000       0.50000000 </v>
    <v>       0.41666667       0.50000000       0.50000000 </v>
    <v>       0.50000000       0.50000000       0.50000000 </v>
   </varray>
   <varray name="weights" >
    <v>       0.00057870 </v>
    <v>       0.00115741 </v>
    <v>       0.00115741 </v>
    <v>       0.00115741 </v>
    <v>       0.00115741 </v>
    <v>       0.00115741 </v>
    <v>       0.00057870 </v>
    <v>       0.00231481 </v>
    <v>       0.00231481 </v>
    <v>       0.00231481 </v>
    <v>       0.00231481 </v>
    <v>       0.00231481 </v>
    <v>       0.00231481 </v>
    <v>       0.00231481 </v>
    <v>       0.00231481 </v>
    <v>       0.00231481 </v>
    <v>       0.00231481 </v>
    <v>       0.00231481 </v>
    <v>       0.00231481 </v>
    <v>       0.00231481 </v>
    <v>       0.00231481 </v>
    <v>       0.00231481 </v>
    <v>       0.00231481 </v>
    <v>       0.00231481 </v>
    <v>       0.00231481 </v>
    <v>       0.00231481 </v>
    <v>       0.00231481 </v>
    <v>       0.00231481 </v>
    <v>       0.00231481 </v>
    <v>       0.00231481 </v>
    <v>       0.00231481 </v>
    <v>       0.00231481 </v>
    <v>       0.00231481 </v>
    <v>       0.00231481 </v>
    <v>       0.00231481 </v>
    <v>       0.00231481 </v>
    <v>       0.00231481 </v>
    <v>       0.00231481 </v>
    <v>       0.00231481 </v>
    <v>       0.00231481 </v>
    <v>       0.00231481 </v>
    <v>       0.00231481 </v>
    <v>       0.00231481 </v>
    <v>       0.00231481 </v>
    <v>       0.00231481 </v>
    <v>       0.00231481 </v>
    <v>       0.00231481 </v>
    <v>       0.00231481 </v>
    <v>       0.00231481 </v>
    <v>       0.00231481 </v>
    <v>       0.00231481 </v>
    <v>       0.00231481 </v>
    <v>       0.00231481 </v>
    <v>       0.00231481 </v>
    <v>       0.00231481 </v>
    <v>       0.00231481 </v>
    <v>       0.00231481 </v>
    <v>       0.00231481 </v>
    <v>       0.00231481 </v>
    <v>       0.00231481 </v>
    <v>       0.00231481 </v>
[...]
       <r>   11.3878    0.0000 </r>
       <r>   13.0537    0.0000 </r>
       <r>   13.4290    0.0000 </r>
       <r>   17.3545    0.0000 </r>
       <r>   18.5300    0.0000 </r>
      </set>
      <set comment="kpoint 184">
       <r>  -24.9016    1.0000 </r>
       <r>  -20.3256    1.0000 </r>
       <r>   -9.6871    1.0000 </r>
       <r>   -9.6476    1.0000 </r>
       <r>   -9.6476    1.0000 </r>
       <r>   -2.5298    1.0000 </r>
       <r>   -2.5298    1.0000 </r>
       <r>   -2.3936    1.0000 </r>
       <r>    8.1404    0.0000 </r>
       <r>    8.5124    0.0000 </r>
       <r>    8.5124    0.0000 </r>
       <r>   13.1380    0.0000 </r>
       <r>   13.1380    0.0000 </r>
       <r>   13.6266    0.0000 </r>
       <r>   17.5205    0.0000 </r>
       <r>   17.5205    0.0000 </r>
      </set>
      <set comment="kpoint 185">
       <r>  -24.8910    1.0000 </r>
       <r>  -20.3215    1.0000 </r>
       <r>   -9.7403    1.0000 </r>
       <r>   -9.6538    1.0000 </r>
       <r>   -9.6219    1.0000 </r>
       <r>   -2.5779    1.0000 </r>
       <r>   -2.5347    1.0000 </r>
       <r>   -2.4755    1.0000 </r>
       <r>    8.1668    0.0000 </r>
       <r>    8.4307    0.0000 </r>
       <r>    8.5275    0.0000 </r>
       <r>   13.1663    0.0000 </r>
       <r>   13.4447    0.0000 </r>
       <r>   14.6676    0.0000 </r>
       <r>   16.4387    0.0000 </r>
       <r>   17.5705    0.0000 </r>
      </set>
      <set comment="kpoint 186">
       <r>  -24.9016    1.0000 </r>
       <r>  -20.3256    1.0000 </r>
       <r>   -9.6871    1.0000 </r>
       <r>   -9.6476    1.0000 </r>
       <r>   -9.6476    1.0000 </r>
       <r>   -2.5298    1.0000 </r>
       <r>   -2.5298    1.0000 </r>
       <r>   -2.3936    1.0000 </r>
       <r>    8.1404    0.0000 </r>
       <r>    8.5124    0.0000 </r>
       <r>    8.5124    0.0000 </r>
       <r>   13.1380    0.0000 </r>
       <r>   13.1380    0.0000 </r>
       <r>   13.6266    0.0000 </r>
       <r>   17.5205    0.0000 </r>
       <r>   17.5205    0.0000 </r>
      </set>
      <set comment="kpoint 187">
       <r>  -24.8804    1.0000 </r>
       <r>  -20.3172    1.0000 </r>
       <r>   -9.7168    1.0000 </r>
       <r>   -9.7168    1.0000 </r>
       <r>   -9.6123    1.0000 </r>
       <r>   -2.5800    1.0000 </r>
       <r>   -2.5800    1.0000 </r>
       <r>   -2.5737    1.0000 </r>
       <r>    8.2113    0.0000 </r>
       <r>    8.4453    0.0000 </r>
       <r>    8.4453    0.0000 </r>
       <r>   13.3141    0.0000 </r>
       <r>   14.7144    0.0000 </r>
       <r>   14.7144    0.0000 </r>
       <r>   15.9195    0.0000 </r>
       <r>   17.0126    0.0000 </r>
      </set>
      <set comment="kpoint 188">
       <r>  -24.8910    1.0000 </r>
       <r>  -20.3215    1.0000 </r>
       <r>   -9.7403    1.0000 </r>
       <r>   -9.6538    1.0000 </r>
       <r>   -9.6219    1.0000 </r>
       <r>   -2.5779    1.0000 </r>
       <r>   -2.5347    1.0000 </r>
       <r>   -2.4755    1.0000 </r>
       <r>    8.1668    0.0000 </r>
       <r>    8.4307    0.0000 </r>
       <r>    8.5275    0.0000 </r>
       <r>   13.1663    0.0000 </r>
       <r>   13.4447    0.0000 </r>
       <r>   14.6676    0.0000 </r>
       <r>   16.4387    0.0000 </r>
       <r>   17.5705    0.0000 </r>
      </set>
      <set comment="kpoint 189">
       <r>  -24.8698    1.0000 </r>
       <r>  -20.3136    1.0000 </r>
       <r>   -9.6904    1.0000 </r>
       <r>   -9.6904    1.0000 </r>
       <r>   -9.6904    1.0000 </r>
       <r>   -2.6304    1.0000 </r>
       <r>   -2.6304    1.0000 </r>
       <r>   -2.6304    1.0000 </r>
       <r>    8.3658    0.0000 </r>
       <r>    8.3658    0.0000 </r>
       <r>    8.3658    0.0000 </r>
       <r>   14.7569    0.0000 </r>
       <r>   14.7569    0.0000 </r>
       <r>   14.7569    0.0000 </r>
       <r>   15.9406    0.0000 </r>
       <r>   15.9406    0.0000 </r>
      </set>
     </set>
    </set>
   </array>
  </eigenvalues>
  <separator name="orbital magnetization" >
   <v name="MAGDIPOLOUT">      0.00000000      0.00000000      0.00000000</v>
  </separator>
  <dos>
   <i name="efermi">     -1.49151696 </i>
   <total>
    <array>
     <dimension dim="1">gridpoints</dimension>
     <dimension dim="2">spin</dimension>
     <field>energy</field>
     <field>total</field>
     <field>integrated</field>
     <set>
      <set comment="spin 1">
       <r>   -27.6426     0.0000     0.0000 </r>
       <r>   -27.4784     0.0000     0.0000 </r>
       <r>   -27.3141     0.0000     0.0000 </r>
       <r>   -27.1499     0.0000     0.0000 </r>
       <r>   -26.9857     0.0000     0.0000 </r>
       <r>   -26.8215     0.0000     0.0000 </r>
       <r>   -26.6573     0.0000     0.0000 </r>
       <r>   -26.4931     0.0000     0.0000 </r>
       <r>   -26.3289     0.0000     0.0000 </r>
       <r>   -26.1646     0.0000     0.0000 </r>
       <r>   -26.0004     0.0000     0.0000 </r>
       <r>   -25.8362     0.0000     0.0000 </r>
       <r>   -25.6720     0.0000     0.0000 </r>
       <r>   -25.5078     0.0000     0.0000 </r>
       <r>   -25.3436     0.2648     0.0435 </r>
       <r>   -25.1794     2.1955     0.5584 </r>
       <r>   -25.0151     3.0832     1.6429 </r>
       <r>   -24.8509     0.5709     2.0000 </r>
       <r>   -24.6867     0.0000     2.0000 </r>
       <r>   -24.5225     0.0000     2.0000 </r>
       <r>   -24.3583     0.0000     2.0000 </r>
       <r>   -24.1941     0.0000     2.0000 </r>
       <r>   -24.0299     0.0000     2.0000 </r>
       <r>   -23.8657     0.0000     2.0000 </r>
       <r>   -23.7014     0.0000     2.0000 </r>
       <r>   -23.5372     0.0000     2.0000 </r>
       <r>   -23.3730     0.0000     2.0000 </r>
       <r>   -23.2088     0.0000     2.0000 </r>
       <r>   -23.0446     0.0000     2.0000 </r>
       <r>   -22.8804     0.0000     2.0000 </r>
       <r>   -22.7162     0.0000     2.0000 </r>
       <r>   -22.5519     0.0000     2.0000 </r>
       <r>   -22.3877     0.0000     2.0000 </r>
       <r>   -22.2235     0.0000     2.0000 </r>
       <r>   -22.0593     0.0000     2.0000 </r>
       <r>   -21.8951     0.0000     2.0000 </r>
       <r>   -21.7309     0.0000     2.0000 </r>
       <r>   -21.5667     0.0000     2.0000 </r>
       <r>   -21.4024     0.0000     2.0000 </r>
       <r>   -21.2382     0.0000     2.0000 </r>
       <r>   -21.0740     0.0000     2.0000 </r>
       <r>   -20.9098     0.0000     2.0000 </r>
       <r>   -20.7456     0.0000     2.0000 </r>
       <r>   -20.5814     0.0000     2.0000 </r>
       <r>   -20.4172     3.5074     2.5760 </r>
       <r>   -20.2529     0.4017     4.0000 </r>
       <r>   -20.0887     0.0000     4.0000 </r>
       <r>   -19.9245     0.0000     4.0000 </r>
       <r>   -19.7603     0.0000     4.0000 </r>
       <r>   -19.5961     0.0000     4.0000 </r>
       <r>   -19.4319     0.0000     4.0000 </r>
       <r>   -19.2677     0.0000     4.0000 </r>
       <r>   -19.1034     0.0000     4.0000 </r>
       <r>   -18.9392     0.0000     4.0000 </r>
       <r>   -18.7750     0.0000     4.0000 </r>
       <r>   -18.6108     0.0000     4.0000 </r>
       <r>   -18.4466     0.0000     4.0000 </r>
       <r>   -18.2824     0.0000     4.0000 </r>
       <r>   -18.1182     0.0000     4.0000 </r>
       <r>   -17.9540     0.0000     4.0000 </r>
       <r>   -17.7897     0.0000     4.0000 </r>
       <r>   -17.6255     0.0000     4.0000 </r>
       <r>   -17.4613     0.0000     4.0000 </r>
       <r>   -17.2971     0.0000     4.0000 </r>
       <r>   -17.1329     0.0000     4.0000 </r>
       <r>   -16.9687     0.0000     4.0000 </r>
       <r>   -16.8045     0.0000     4.0000 </r>
       <r>   -16.6402     0.0000     4.0000 </r>
       <r>   -16.4760     0.0000     4.0000 </r>
       <r>   -16.3118     0.0000     4.0000 </r>
       <r>   -16.1476     0.0000     4.0000 </r>
       <r>   -15.9834     0.0000     4.0000 </r>
       <r>   -15.8192     0.0000     4.0000 </r>
       <r>   -15.6550     0.0000     4.0000 </r>
       <r>   -15.4907     0.0000     4.0000 </r>
       <r>   -15.3265     0.0000     4.0000 </r>
       <r>   -15.1623     0.0000     4.0000 </r>
       <r>   -14.9981     0.0000     4.0000 </r>
       <r>   -14.8339     0.0000     4.0000 </r>
       <r>   -14.6697     0.0000     4.0000 </r>
       <r>   -14.5055     0.0000     4.0000 </r>
       <r>   -14.3412     0.0000     4.0000 </r>
       <r>   -14.1770     0.0000     4.0000 </r>
       <r>   -14.0128     0.0000     4.0000 </r>
       <r>   -13.8486     0.0000     4.0000 </r>
       <r>   -13.6844     0.0000     4.0000 </r>
       <r>   -13.5202     0.0000     4.0000 </r>
       <r>   -13.3560     0.0000     4.0000 </r>
       <r>   -13.1918     0.0000     4.0000 </r>
       <r>   -13.0275     0.0000     4.0000 </r>
       <r>   -12.8633     0.0000     4.0000 </r>
       <r>   -12.6991     0.0000     4.0000 </r>
       <r>   -12.5349     0.0000     4.0000 </r>
       <r>   -12.3707     0.0000     4.0000 </r>
       <r>   -12.2065     0.0000     4.0000 </r>
       <r>   -12.0423     0.0000     4.0000 </r>
       <r>   -11.8780     0.0000     4.0000 </r>
       <r>   -11.7138     0.0000     4.0000 </r>
       <r>   -11.5496     0.0000     4.0000 </r>
       <r>   -11.3854     0.0000     4.0000 </r>
       <r>   -11.2212     0.0000     4.0000 </r>
       <r>   -11.0570     0.0000     4.0000 </r>
       <r>   -10.8928     0.0000     4.0000 </r>
       <r>   -10.7285     0.0000     4.0000 </r>
       <r>   -10.5643     0.0000     4.0000 </r>
       <r>   -10.4001     0.0000     4.0000 </r>
       <r>   -10.2359     0.0000     4.0000 </r>
       <r>   -10.0717     0.0002     4.0000 </r>
       <r>    -9.9075     3.1076     4.6284 </r>
       <r>    -9.7433     1.1139     5.3531 </r>
       <r>    -9.5790     1.9032     6.2662 </r>
       <r>    -9.4148     0.7477     6.5186 </r>
       <r>    -9.2506     1.8610     7.2570 </r>
       <r>    -9.0864     1.2027     7.5378 </r>
       <r>    -8.9222     2.9243     8.1307 </r>
       <r>    -8.7580     1.5318     8.6265 </r>
       <r>    -8.5938     2.6161     9.3984 </r>
       <r>    -8.4296     1.1328     9.9534 </r>
       <r>    -8.2653     0.0000    10.0000 </r>
       <r>    -8.1011     0.0000    10.0000 </r>
       <r>    -7.9369     0.0000    10.0000 </r>
       <r>    -7.7727     0.0000    10.0000 </r>
       <r>    -7.6085     0.0000    10.0000 </r>
       <r>    -7.4443     0.0000    10.0000 </r>
       <r>    -7.2801     0.0000    10.0000 </r>
       <r>    -7.1158     0.0000    10.0000 </r>
       <r>    -6.9516     0.0000    10.0000 </r>
       <r>    -6.7874     0.0000    10.0000 </r>
       <r>    -6.6232     0.0000    10.0000 </r>
       <r>    -6.4590     0.0000    10.0000 </r>
       <r>    -6.2948     0.0000    10.0000 </r>
       <r>    -6.1306     0.0000    10.0000 </r>
       <r>    -5.9663     0.0000    10.0000 </r>
       <r>    -5.8021     0.0000    10.0000 </r>
       <r>    -5.6379     0.0000    10.0000 </r>
       <r>    -5.4737     0.0000    10.0000 </r>
       <r>    -5.3095     0.0000    10.0000 </r>
       <r>    -5.1453     0.0000    10.0000 </r>
       <r>    -4.9811     0.0000    10.0000 </r>
       <r>    -4.8168     0.0000    10.0000 </r>
       <r>    -4.6526     0.0000    10.0000 </r>
       <r>    -4.4884     0.0000    10.0000 </r>
       <r>    -4.3242     0.0000    10.0000 </r>
       <r>    -4.1600     0.0000    10.0000 </r>
       <r>    -3.9958     0.0000    10.0000 </r>
       <r>    -3.8316     0.0000    10.0000 </r>
       <r>    -3.6674     0.0000    10.0000 </r>
       <r>    -3.5031     0.0000    10.0000 </r>
       <r>    -3.3389     0.0000    10.0000 </r>
       <r>    -3.1747     0.0000    10.0000 </r>
       <r>    -3.0105     0.0000    10.0000 </r>
       <r>    -2.8463     0.0000    10.0000 </r>
       <r>    -2.6821     0.0000    10.0000 </r>
       <r>    -2.5179     0.7828    10.1355 </r>
       <r>    -2.3536     1.7493    10.5349 </r>
       <r>    -2.1894     3.6260    11.4959 </r>
       <r>    -2.0252     2.9707    12.6383 </r>
       <r>    -1.8610     4.2483    13.7138 </r>
       <r>    -1.6968     7.6024    15.7044 </r>
       <r>    -1.5326     0.1057    16.0000 </r>
       <r>    -1.3684     0.0000    16.0000 </r>
       <r>    -1.2041     0.0000    16.0000 </r>
       <r>    -1.0399     0.0000    16.0000 </r>
       <r>    -0.8757     0.0000    16.0000 </r>
       <r>    -0.7115     0.0000    16.0000 </r>
       <r>    -0.5473     0.0000    16.0000 </r>
       <r>    -0.3831     0.0000    16.0000 </r>
       <r>    -0.2189     0.0000    16.0000 </r>
       <r>    -0.0546     0.0000    16.0000 </r>
       <r>     0.1096     0.0000    16.0000 </r>
       <r>     0.2738     0.0000    16.0000 </r>
       <r>     0.4380     0.0000    16.0000 </r>
       <r>     0.6022     0.0000    16.0000 </r>
       <r>     0.7664     0.0000    16.0000 </r>
       <r>     0.9306     0.0000    16.0000 </r>
       <r>     1.0949     0.0000    16.0000 </r>
       <r>     1.2591     0.0000    16.0000 </r>
       <r>     1.4233     0.0000    16.0000 </r>
       <r>     1.5875     0.0000    16.0000 </r>
       <r>     1.7517     0.0000    16.0000 </r>
       <r>     1.9159     0.0000    16.0000 </r>
       <r>     2.0801     0.0000    16.0000 </r>
       <r>     2.2443     0.0000    16.0000 </r>
       <r>     2.4086     0.0000    16.0000 </r>
       <r>     2.5728     0.0000    16.0000 </r>
       <r>     2.7370     0.0000    16.0000 </r>
       <r>     2.9012     0.0000    16.0000 </r>
       <r>     3.0654     0.0000    16.0000 </r>
       <r>     3.2296     0.0000    16.0000 </r>
       <r>     3.3938     0.0000    16.0000 </r>
       <r>     3.5581     0.0000    16.0000 </r>
       <r>     3.7223     0.0000    16.0000 </r>
       <r>     3.8865     0.0000    16.0000 </r>
       <r>     4.0507     0.0000    16.0000 </r>
       <r>     4.2149     0.0000    16.0000 </r>
       <r>     4.3791     0.0000    16.0000 </r>
       <r>     4.5433     0.0000    16.0000 </r>
       <r>     4.7076     0.0000    16.0000 </r>
       <r>     4.8718     0.0000    16.0012 </r>
       <r>     5.0360     0.0423    16.0081 </r>
       <r>     5.2002     0.0825    16.0216 </r>
       <r>     5.3644     0.0023    16.0224 </r>
       <r>     5.5286     0.0413    16.0380 </r>
       <r>     5.6928     0.1664    16.0655 </r>
       <r>     5.8571     0.1217    16.0860 </r>
       <r>     6.0213     0.0000    16.0938 </r>
       <r>     6.1855     0.0841    16.1238 </r>
       <r>     6.3497     0.3469    16.2121 </r>
       <r>     6.5139     0.8171    16.3796 </r>
       <r>     6.6781     0.3383    16.4514 </r>
       <r>     6.8423     0.2020    16.5980 </r>
       <r>     7.0065     0.8073    16.8779 </r>
       <r>     7.1708     1.1057    17.2325 </r>
       <r>     7.3350     0.7759    17.6019 </r>
       <r>     7.4992     1.5980    18.0425 </r>
       <r>     7.6634     1.2839    18.4875 </r>
       <r>     7.8276     1.0781    18.9027 </r>
       <r>     7.9918     0.4429    19.1665 </r>
       <r>     8.1560     0.0610    19.3514 </r>
       <r>     8.3203     0.9447    19.5822 </r>
       <r>     8.4845     0.8596    19.9953 </r>
       <r>     8.6487     0.2389    20.0786 </r>
       <r>     8.8129     0.7463    20.3008 </r>
       <r>     8.9771     0.6702    20.5522 </r>
       <r>     9.1413     0.7484    20.8613 </r>
       <r>     9.3055     0.2537    20.9861 </r>
       <r>     9.4698     1.5491    21.2683 </r>
       <r>     9.6340     1.3935    21.6455 </r>
       <r>     9.7982     0.9439    22.1203 </r>
       <r>     9.9624     0.2114    22.1667 </r>
       <r>    10.1266     0.1987    22.3382 </r>
       <r>    10.2908     0.9270    22.6464 </r>
       <r>    10.4550     0.1305    22.9045 </r>
       <r>    10.6193     1.0883    23.1521 </r>
       <r>    10.7835     1.3532    23.5243 </r>
       <r>    10.9477     1.2925    23.7782 </r>
       <r>    11.1119     0.4294    24.0462 </r>
       <r>    11.2761     1.2631    24.4516 </r>
       <r>    11.4403     1.4121    25.0455 </r>
       <r>    11.6045     0.3470    25.4933 </r>
       <r>    11.7687     0.0634    25.6319 </r>
       <r>    11.9330     0.4902    25.7715 </r>
       <r>    12.0972     0.0882    25.8721 </r>
       <r>    12.2614     1.3865    26.2381 </r>
       <r>    12.4256     0.3716    26.3631 </r>
       <r>    12.5898     0.6666    26.6060 </r>
       <r>    12.7540     0.6973    26.8055 </r>
       <r>    12.9182     0.7459    27.0125 </r>
       <r>    13.0825     0.8497    27.2888 </r>
       <r>    13.2467     0.4212    27.4800 </r>
       <r>    13.4109     0.5341    27.6826 </r>
       <r>    13.5751     0.0423    27.7338 </r>
       <r>    13.7393     0.0037    27.7784 </r>
       <r>    13.9035     0.0807    27.8466 </r>
       <r>    14.0677     0.0748    27.8595 </r>
       <r>    14.2320     0.0040    27.8826 </r>
       <r>    14.3962     0.0846    27.9514 </r>
       <r>    14.5604     0.3400    28.0072 </r>
       <r>    14.7246     0.2475    28.0615 </r>
       <r>    14.8888     0.0000    28.0729 </r>
       <r>    15.0530     0.0000    28.1007 </r>
       <r>    15.2172     0.1692    28.1285 </r>
       <r>    15.3815     0.0061    28.1295 </r>
       <r>    15.5457     0.0000    28.1701 </r>
       <r>    15.7099     0.2463    28.2384 </r>
       <r>    15.8741     0.1247    28.3538 </r>
       <r>    16.0383     0.3383    28.4676 </r>
       <r>    16.2025     0.8926    28.6420 </r>
       <r>    16.3667     0.5433    28.8137 </r>
       <r>    16.5310     0.8482    29.0791 </r>
       <r>    16.6952     1.3327    29.4642 </r>
       <r>    16.8594     0.7886    29.6353 </r>
       <r>    17.0236     1.0647    29.9584 </r>
       <r>    17.1878     0.2465    30.1227 </r>
       <r>    17.3520     1.3158    30.3677 </r>
       <r>    17.5162     1.0872    30.6565 </r>
       <r>    17.6804     0.0618    30.8053 </r>
       <r>    17.8447     0.5797    30.9459 </r>
       <r>    18.0089     0.3302    31.1063 </r>
       <r>    18.1731     1.0995    31.3819 </r>
       <r>    18.3373     0.1815    31.4117 </r>
       <r>    18.5015     0.6887    31.6455 </r>
       <r>    18.6657     0.1691    31.7315 </r>
       <r>    18.8299     0.0000    31.7315 </r>
       <r>    18.9942     0.3524    31.7917 </r>
       <r>    19.1584     0.1692    31.8194 </r>
       <r>    19.3226     0.8499    31.9590 </r>
       <r>    19.4868     0.0000    32.0000 </r>
       <r>    19.6510     0.0000    32.0000 </r>
       <r>    19.8152     0.0000    32.0000 </r>
       <r>    19.9794     0.0000    32.0000 </r>
       <r>    20.1437     0.0000    32.0000 </r>
       <r>    20.3079     0.0000    32.0000 </r>
       <r>    20.4721     0.0000    32.0000 </r>
       <r>    20.6363     0.0000    32.0000 </r>
       <r>    20.8005     0.0000    32.0000 </r>
       <r>    20.9647     0.0000    32.0000 </r>
       <r>    21.1289     0.0000    32.0000 </r>
       <r>    21.2932     0.0000    32.0000 </r>
       <r>    21.4574     0.0000    32.0000 </r>
       <r>    21.6216     0.0000    32.0000 </r>
      </set>
     </set>
    </array>
   </total>
  </dos>
 </calculation>
 <structure name="finalpos" >
  <crystal>
   <varray name="basis" >
    <v>       3.37044692       0.00000000       0.00000000 </v>
    <v>       0.00000000       3.37044692       0.00000000 </v>
    <v>       0.00000000       0.00000000       3.37044692 </v>
   </varray>
   <i name="volume">     38.28798193 </i>
   <varray name="rec_basis" >
    <v>       0.29669656       0.00000000       0.00000000 </v>
    <v>       0.00000000       0.29669656       0.00000000 </v>
    <v>       0.00000000       0.00000000       0.29669656 </v>
   </varray>
  </crystal>
  <varray name="positions" >
   <v>       0.00000000       0.00000000       0.00000000 </v>
   <v>       0.50000004       0.50000004       0.50000004 </v>
  </varray>
 </structure>
</modeling>
