
     Program PWSCF v.7.1 starts on  3Jan2024 at 14:28:55 

     This program is part of the open-source Quantum ESPRESSO suite
     for quantum simulation of materials; please cite
         "P. Giannozzi et al., J. Phys.:Condens. Matter 21 395502 (2009);
         "P. Giannozzi et al., J. Phys.:Condens. Matter 29 465901 (2017);
         "P. Giannozzi et al., J. Chem. Phys. 152 154105 (2020);
          URL http://www.quantum-espresso.org", 
     in publications or presentations arising from this work. More details at
     http://www.quantum-espresso.org/quote

     Parallel version (MPI), running on     8 processors

     MPI processes distributed on     1 nodes
     122142 MiB available memory on the printing compute node when the environment starts
 
     Reading input from pw_mp-1138_emass_k3000_E130.in
Warning: card &IONS ignored
Warning: card / ignored
Warning: card &CELL ignored
Warning: card / ignored

     Current dimensions of program PWSCF are:
     Max number of different atomic species (ntypx) = 10
     Max number of k-points (npk) =  40000
     Max angular momentum in pseudopotentials (lmaxx) =  4

     Atomic positions and unit cell read from directory:
     out/mp-1138.save/
     Atomic positions from file used, from input discarded
 
 
     R & G space division:  proc/nbgrp/npool/nimage =       8
     Subspace diagonalization in iterative solution of the eigenvalue problem:
     a serial algorithm will be used

 
     Parallelization info
     --------------------
     sticks:   dense  smooth     PW     G-vecs:    dense   smooth      PW
     Min         133     133     33                 2880     2880     360
     Max         134     134     34                 2882     2882     362
     Sum        1069    1069    265                23049    23049    2891
 
     Using Slab Decomposition
 


     bravais-lattice index     =            2
     lattice parameter (alat)  =       7.7166  a.u.
     unit-cell volume          =     114.8711 (a.u.)^3
     number of atoms/cell      =            2
     number of atomic types    =            2
     number of electrons       =        10.00
     number of Kohn-Sham states=           10
     kinetic-energy cutoff     =     130.0000  Ry
     charge density cutoff     =     520.0000  Ry
     Exchange-correlation= PBE
                           (   1   4   3   4   0   0   0)

     celldm(1)=   7.716558  celldm(2)=   0.000000  celldm(3)=   0.000000
     celldm(4)=   0.000000  celldm(5)=   0.000000  celldm(6)=   0.000000

     crystal axes: (cart. coord. in units of alat)
               a(1) = (  -0.500000   0.000000   0.500000 )  
               a(2) = (   0.000000   0.500000   0.500000 )  
               a(3) = (  -0.500000   0.500000   0.000000 )  

     reciprocal axes: (cart. coord. in units 2 pi/alat)
               b(1) = ( -1.000000 -1.000000  1.000000 )  
               b(2) = (  1.000000  1.000000  1.000000 )  
               b(3) = ( -1.000000  1.000000 -1.000000 )  


     PseudoPot. # 1 for F  read from file:
     /usr/scratch4/magr4985/MG/devEb/pseudo/SG15/F.upf
     MD5 check sum: 24dce47753c7134a0159dc9c6586d93a
     Pseudo is Norm-conserving, Zval =  7.0
     Generated using ONCVPSP code by D. R. Hamann
     Using radial grid of  602 points,  4 beta functions with: 
                l(1) =   0
                l(2) =   0
                l(3) =   1
                l(4) =   1

     PseudoPot. # 2 for Li read from file:
     /usr/scratch4/magr4985/MG/devEb/pseudo/SG15/Li.upf
     MD5 check sum: 3f44d372514b3afe6bea25451e727200
     Pseudo is Norm-conserving, Zval =  3.0
     Generated using ONCVPSP code by D. R. Hamann
     Using radial grid of  602 points,  4 beta functions with: 
                l(1) =   0
                l(2) =   0
                l(3) =   1
                l(4) =   1

     atomic species   valence    mass     pseudopotential
        F              7.00    18.99840     F ( 1.00)
        Li             3.00     6.94100     Li( 1.00)

     48 Sym. Ops., with inversion, found



   Cartesian axes

     site n.     atom                  positions (alat units)
         1           Li  tau(   1) = (   0.0000000   0.0000000   0.0000000  )
         2           F   tau(   2) = (  -0.5000000   0.5000000   0.5000000  )

     number of k points=     7  Gaussian smearing, width (Ry)=  0.0005
                       cart. coord. in units 2pi/alat
        k(    1) = (   0.0000000   0.0000000   0.0000000), wk =   0.2857143
        k(    2) = (   0.0100000   0.0000000   0.0000000), wk =   0.2857143
        k(    3) = (  -0.0100000   0.0000000   0.0000000), wk =   0.2857143
        k(    4) = (   0.0000000   0.0100000   0.0000000), wk =   0.2857143
        k(    5) = (   0.0000000  -0.0100000   0.0000000), wk =   0.2857143
        k(    6) = (   0.0000000   0.0000000   0.0100000), wk =   0.2857143
        k(    7) = (   0.0000000   0.0000000  -0.0100000), wk =   0.2857143

     Dense  grid:    23049 G-vectors     FFT dimensions: (  40,  40,  40)

     Estimated max dynamical RAM per process >       2.71 MB

     Estimated total dynamical RAM >      21.68 MB

     The potential is recalculated from file :
     out/mp-1138.save/charge-density

     Starting wfcs are random

     Band Structure Calculation
     ParO style diagonalization

     ethr =  5.00E-06,  avg # of iterations = 22.5

     total cpu time spent up to now is        0.6 secs

     End of band structure calculation

          k = 0.0000 0.0000 0.0000 (  2891 PWs)   bands (ev):

   -40.3266 -19.1628   0.6073   0.6073   0.6073   9.3838  24.0786  24.0786
    24.0786  24.6607

          k = 0.0100 0.0000 0.0000 (  2866 PWs)   bands (ev):

   -40.3266 -19.1627   0.6067   0.6071   0.6071   9.3848  24.0556  24.0556
    24.0745  24.6502

          k =-0.0100 0.0000 0.0000 (  2866 PWs)   bands (ev):

   -40.3266 -19.1627   0.6067   0.6071   0.6071   9.3848  24.0556  24.0556
    24.0745  24.6502

          k = 0.0000 0.0100 0.0000 (  2866 PWs)   bands (ev):

   -40.3266 -19.1627   0.6067   0.6071   0.6071   9.3848  24.0556  24.0556
    24.0745  24.6502

          k = 0.0000-0.0100 0.0000 (  2866 PWs)   bands (ev):

   -40.3266 -19.1627   0.6067   0.6071   0.6071   9.3848  24.0556  24.0556
    24.0745  24.6502

          k = 0.0000 0.0000 0.0100 (  2866 PWs)   bands (ev):

   -40.3266 -19.1627   0.6067   0.6071   0.6071   9.3848  24.0556  24.0556
    24.0745  24.6502

          k = 0.0000 0.0000-0.0100 (  2866 PWs)   bands (ev):

   -40.3266 -19.1627   0.6067   0.6071   0.6071   9.3848  24.0556  24.0556
    24.0745  24.6502

     the Fermi energy is     8.4451 ev
     (compare with:     8.5491 eV, computed in scf)

     Writing all to output data dir out/mp-1138.save/
 
     init_run     :      0.04s CPU      0.05s WALL (       1 calls)
     electrons    :      0.37s CPU      0.39s WALL (       1 calls)

     Called by init_run:
     wfcinit      :      0.00s CPU      0.00s WALL (       1 calls)
     potinit      :      0.01s CPU      0.01s WALL (       1 calls)
     hinit0       :      0.01s CPU      0.02s WALL (       1 calls)

     Called by electrons:
     c_bands      :      0.37s CPU      0.39s WALL (       1 calls)
     v_of_rho     :      0.01s CPU      0.01s WALL (       1 calls)

     Called by c_bands:
     init_us_2    :      0.00s CPU      0.00s WALL (       7 calls)
     init_us_2:cp :      0.00s CPU      0.00s WALL (       7 calls)
     paro_k       :      0.35s CPU      0.36s WALL (       7 calls)

     Called by paro_*:
     h_psi        :      0.27s CPU      0.29s WALL (     444 calls)
     g_psi        :      0.01s CPU      0.01s WALL (    1804 calls)

     Called by h_psi:
     h_psi:calbec :      0.01s CPU      0.01s WALL (     444 calls)
     vloc_psi     :      0.25s CPU      0.27s WALL (     444 calls)
     add_vuspsi   :      0.01s CPU      0.01s WALL (     444 calls)

     General routines
     calbec       :      0.01s CPU      0.01s WALL (     444 calls)
     fft          :      0.00s CPU      0.01s WALL (      10 calls)
     fftw         :      0.23s CPU      0.24s WALL (    3036 calls)
 
     Parallel routines
 
     PWSCF        :      0.52s CPU      0.57s WALL

 
   This run was terminated on:  14:28:56   3Jan2024            

=------------------------------------------------------------------------------=
   JOB DONE.
=------------------------------------------------------------------------------=
